
     Program PHONON v.6.1 (svn rev. 13369) starts on 10Nov2017 at 15:36: 6 

     This program is part of the open-source Quantum ESPRESSO suite
     for quantum simulation of materials; please cite
         "P. Giannozzi et al., J. Phys.:Condens. Matter 21 395502 (2009);
          URL http://www.quantum-espresso.org", 
     in publications or presentations arising from this work. More details at
     http://www.quantum-espresso.org/quote

     Parallel version (MPI), running on     4 processors
     R & G space division:  proc/nbgrp/npool/nimage =       4

     Reading data from directory:
     ./silicon.10.316.save

   Info: using nr1, nr2, nr3 values from input

   Info: using nr1, nr2, nr3 values from input

     IMPORTANT: XC functional enforced from input :
     Exchange-correlation      = SLA  PW   PBE  PBE ( 1  4  3  4 0 0)
     Any further DFT definition will be discarded
     Please, verify this is what you really want


     Parallelization info
     --------------------
     sticks:   dense  smooth     PW     G-vecs:    dense   smooth      PW
     Min         217     109     37                 4288     1520     284
     Max         219     111     38                 4289     1521     285
     Sum         871     439    151                17153     6081    1139



     Dynamical matrices for ( 4, 4, 4)  uniform grid of q-points
     (   8q-points):
       N         xq(1)         xq(2)         xq(3) 
       1   0.000000000   0.000000000   0.000000000
       2  -0.250000000   0.250000000  -0.250000000
       3   0.500000000  -0.500000000   0.500000000
       4   0.000000000   0.500000000   0.000000000
       5   0.750000000  -0.250000000   0.750000000
       6   0.500000000   0.000000000   0.500000000
       7   0.000000000  -1.000000000   0.000000000
       8  -0.500000000  -1.000000000   0.000000000

     Calculation of q =    0.0000000   0.0000000   0.0000000

                                                                                

     bravais-lattice index     =            2
     lattice parameter (alat)  =      10.3160  a.u.
     unit-cell volume          =     274.4568 (a.u.)^3
     number of atoms/cell      =            2
     number of atomic types    =            1
     kinetic-energy cut-off    =      30.0000  Ry
     charge density cut-off    =     240.0000  Ry
     convergence threshold     =      1.0E-12
     beta                      =       0.7000
     number of iterations used =            4
     Exchange-correlation      = SLA  PW   PBE  PBE ( 1  4  3  4 0 0)


     celldm(1)=   10.31600  celldm(2)=    0.00000  celldm(3)=    0.00000
     celldm(4)=    0.00000  celldm(5)=    0.00000  celldm(6)=    0.00000

     crystal axes: (cart. coord. in units of alat)
               a(1) = ( -0.5000  0.0000  0.5000 )  
               a(2) = (  0.0000  0.5000  0.5000 )  
               a(3) = ( -0.5000  0.5000  0.0000 )  

     reciprocal axes: (cart. coord. in units 2 pi/alat)
               b(1) = ( -1.0000 -1.0000  1.0000 )  
               b(2) = (  1.0000  1.0000  1.0000 )  
               b(3) = ( -1.0000  1.0000 -1.0000 )  


     Atoms inside the unit cell: 

     Cartesian axes

     site n.  atom      mass           positions (alat units)
        1     Si  28.0860   tau(    1) = (    0.00000    0.00000    0.00000  )
        2     Si  28.0860   tau(    2) = (    0.25000    0.25000    0.25000  )

     Computing dynamical matrix for 
                    q = (   0.0000000   0.0000000   0.0000000 )

     49 Sym.Ops. (with q -> -q+G )


     G cutoff =  646.9551  (   4288 G-vectors)     FFT grid: ( 36, 36, 36)
     G cutoff =  323.4776  (   1520 G-vectors)  smooth grid: ( 25, 25, 25)
     number of k points=    10

     PseudoPot. # 1 for Si read from file:
     /home/s1333534/quantum_espresso/qe-6.1/pseudo/si_pbe_v1.uspp.F.UPF.txt
     MD5 check sum: a056efeee980c13900f22a371efd63c1
     Pseudo is Ultrasoft + core correction, Zval =  4.0
     Generated by new atomic code, or converted to UPF format
     Using radial grid of  899 points,  6 beta functions with: 
                l(1) =   0
                l(2) =   0
                l(3) =   1
                l(4) =   1
                l(5) =   2
                l(6) =   2
     Q(r) pseudized with  8 coefficients,  rinner =    0.900   0.900   0.900
                                                       0.900   0.900

     Mode symmetry, O_h (m-3m)  point group:


     Electric field:
     Dielectric constant
     Born effective charges in two ways 


     Atomic displacements:
     There are   2 irreducible representations

     Representation     1      3 modes -T_2g G_25' G_5+  To be done

     Representation     2      3 modes -T_1u G_15  G_4-  To be done



     Alpha used in Ewald sum =   2.5000
     PHONON       :     0.96s CPU         1.28s WALL


     Electric Fields Calculation

      iter #   1 total cpu time :     2.3 secs   av.it.:   5.7
      thresh= 1.000E-02 alpha_mix =  0.700 |ddv_scf|^2 =  1.333E-07

      iter #   2 total cpu time :     3.0 secs   av.it.:  11.8
      thresh= 3.651E-05 alpha_mix =  0.700 |ddv_scf|^2 =  7.798E-09

      iter #   3 total cpu time :     3.7 secs   av.it.:  11.4
      thresh= 8.831E-06 alpha_mix =  0.700 |ddv_scf|^2 =  5.174E-10

      iter #   4 total cpu time :     4.3 secs   av.it.:  10.2
      thresh= 2.275E-06 alpha_mix =  0.700 |ddv_scf|^2 =  3.369E-12

      iter #   5 total cpu time :     4.9 secs   av.it.:  11.1
      thresh= 1.836E-07 alpha_mix =  0.700 |ddv_scf|^2 =  3.368E-15

     End of electric fields calculation

          Dielectric constant in cartesian axis 

          (      13.931611756       0.000000000       0.000000000 )
          (       0.000000000      13.931611756      -0.000000000 )
          (      -0.000000000      -0.000000000      13.931611756 )

          Effective charges (d Force / dE) in cartesian axis

           atom      1   Si 
      Ex  (       -0.03884        0.00000       -0.00000 )
      Ey  (        0.00000       -0.03884        0.00000 )
      Ez  (       -0.00000        0.00000       -0.03884 )
           atom      2   Si 
      Ex  (       -0.03884        0.00000        0.00000 )
      Ey  (        0.00000       -0.03884       -0.00000 )
      Ez  (        0.00000       -0.00000       -0.03884 )


     Representation #  1 modes #   1  2  3

     Self-consistent Calculation

      iter #   1 total cpu time :     6.1 secs   av.it.:   5.1
      thresh= 1.000E-02 alpha_mix =  0.700 |ddv_scf|^2 =  2.353E-08

      iter #   2 total cpu time :     6.8 secs   av.it.:  11.6
      thresh= 1.534E-05 alpha_mix =  0.700 |ddv_scf|^2 =  9.642E-10

      iter #   3 total cpu time :     7.5 secs   av.it.:  11.1
      thresh= 3.105E-06 alpha_mix =  0.700 |ddv_scf|^2 =  6.558E-11

      iter #   4 total cpu time :     8.0 secs   av.it.:  10.1
      thresh= 8.098E-07 alpha_mix =  0.700 |ddv_scf|^2 =  1.606E-13

     End of self-consistent calculation

     Convergence has been achieved 


     Representation #  2 modes #   4  5  6

     Self-consistent Calculation

      iter #   1 total cpu time :     8.8 secs   av.it.:   5.2
      thresh= 1.000E-02 alpha_mix =  0.700 |ddv_scf|^2 =  1.857E-08

      iter #   2 total cpu time :     9.6 secs   av.it.:  11.6
      thresh= 1.363E-05 alpha_mix =  0.700 |ddv_scf|^2 =  1.094E-09

      iter #   3 total cpu time :    10.3 secs   av.it.:  11.2
      thresh= 3.307E-06 alpha_mix =  0.700 |ddv_scf|^2 =  6.779E-11

      iter #   4 total cpu time :    10.9 secs   av.it.:  11.3
      thresh= 8.233E-07 alpha_mix =  0.700 |ddv_scf|^2 =  2.632E-13

     End of self-consistent calculation

     Convergence has been achieved 

     Number of q in the star =    1
     List of q in the star:
          1   0.000000000   0.000000000   0.000000000

          Dielectric constant in cartesian axis 

          (      13.931611756       0.000000000       0.000000000 )
          (       0.000000000      13.931611756      -0.000000000 )
          (      -0.000000000      -0.000000000      13.931611756 )

          Effective charges (d Force / dE) in cartesian axis

           atom      1   Si 
      Ex  (       -0.03884        0.00000       -0.00000 )
      Ey  (        0.00000       -0.03884        0.00000 )
      Ez  (       -0.00000        0.00000       -0.03884 )
           atom      2   Si 
      Ex  (       -0.03884        0.00000        0.00000 )
      Ey  (        0.00000       -0.03884       -0.00000 )
      Ez  (        0.00000       -0.00000       -0.03884 )

          Effective charges (d P / du) in cartesian axis 

           atom      1   Si 
      Px  (       -0.07229       -0.00000        0.00000 )
      Py  (        0.00000       -0.07229       -0.00000 )
      Pz  (        0.00000       -0.00000       -0.07229 )
           atom      2   Si 
      Px  (       -0.07229        0.00000       -0.00000 )
      Py  (        0.00000       -0.07229       -0.00000 )
      Pz  (        0.00000       -0.00000       -0.07229 )

     Diagonalizing the dynamical matrix

     q = (    0.000000000   0.000000000   0.000000000 ) 

 **************************************************************************
     freq (    1) =      -0.472333 [THz] =     -15.755318 [cm-1]
     freq (    2) =      -0.472333 [THz] =     -15.755318 [cm-1]
     freq (    3) =      -0.472333 [THz] =     -15.755318 [cm-1]
     freq (    4) =      15.143753 [THz] =     505.141232 [cm-1]
     freq (    5) =      15.143753 [THz] =     505.141232 [cm-1]
     freq (    6) =      15.143753 [THz] =     505.141232 [cm-1]
 **************************************************************************

     Mode symmetry, O_h (m-3m)  point group:

     freq (  1 -  3) =        -15.8  [cm-1]   --> T_1u G_15  G_4- I  
     freq (  4 -  6) =        505.1  [cm-1]   --> T_2g G_25' G_5+ R  

     Calculation of q =   -0.2500000   0.2500000  -0.2500000

   Info: using nr1, nr2, nr3 values from input

   Info: using nr1, nr2, nr3 values from input

     Parallelization info
     --------------------
     sticks:   dense  smooth     PW     G-vecs:    dense   smooth      PW
     Min         217     109     37                 4288     1520     309
     Max         218     111     38                 4289     1521     312
     Sum         871     439    151                17153     6081    1243



     bravais-lattice index     =            2
     lattice parameter (alat)  =      10.3160  a.u.
     unit-cell volume          =     274.4568 (a.u.)^3
     number of atoms/cell      =            2
     number of atomic types    =            1
     number of electrons       =         8.00
     number of Kohn-Sham states=            4
     kinetic-energy cutoff     =      30.0000  Ry
     charge density cutoff     =     240.0000  Ry
     Exchange-correlation      = SLA  PW   PBE  PBE ( 1  4  3  4 0 0)

     celldm(1)=  10.316000  celldm(2)=   0.000000  celldm(3)=   0.000000
     celldm(4)=   0.000000  celldm(5)=   0.000000  celldm(6)=   0.000000

     crystal axes: (cart. coord. in units of alat)
               a(1) = (  -0.500000   0.000000   0.500000 )  
               a(2) = (   0.000000   0.500000   0.500000 )  
               a(3) = (  -0.500000   0.500000   0.000000 )  

     reciprocal axes: (cart. coord. in units 2 pi/alat)
               b(1) = ( -1.000000 -1.000000  1.000000 )  
               b(2) = (  1.000000  1.000000  1.000000 )  
               b(3) = ( -1.000000  1.000000 -1.000000 )  


     PseudoPot. # 1 for Si read from file:
     /home/s1333534/quantum_espresso/qe-6.1/pseudo/si_pbe_v1.uspp.F.UPF.txt
     MD5 check sum: a056efeee980c13900f22a371efd63c1
     Pseudo is Ultrasoft + core correction, Zval =  4.0
     Generated by new atomic code, or converted to UPF format
     Using radial grid of  899 points,  6 beta functions with: 
                l(1) =   0
                l(2) =   0
                l(3) =   1
                l(4) =   1
                l(5) =   2
                l(6) =   2
     Q(r) pseudized with  8 coefficients,  rinner =    0.900   0.900   0.900
                                                       0.900   0.900

     atomic species   valence    mass     pseudopotential
        Si             4.00    28.08600     Si( 1.00)

     48 Sym. Ops., with inversion, found



   Cartesian axes

     site n.     atom                  positions (alat units)
         1           Si  tau(   1) = (   0.0000000   0.0000000   0.0000000  )
         2           Si  tau(   2) = (   0.2500000   0.2500000   0.2500000  )

     number of k points=   120

     Number of k-points >= 100: set verbosity='high' to print them.

     Dense  grid:    17153 G-vectors     FFT dimensions: (  36,  36,  36)

     Smooth grid:     6081 G-vectors     FFT dimensions: (  25,  25,  25)

     Estimated max dynamical RAM per process >       1.51MB

     Estimated total allocated dynamical RAM >       6.06MB

     The potential is recalculated from file :
     ./_ph0/silicon.10.316.save/charge-density.dat

     Starting wfc are    8 atomic wfcs

     Band Structure Calculation
     Davidson diagonalization with overlap

     ethr =  1.25E-10,  avg # of iterations = 12.2

     total cpu time spent up to now is        1.3 secs

     End of band structure calculation

     Number of k-points >= 100: set verbosity='high' to print the bands.

     highest occupied level (ev):     5.7472

     Writing output data file silicon.10.316.save

                                                                                

     bravais-lattice index     =            2
     lattice parameter (alat)  =      10.3160  a.u.
     unit-cell volume          =     274.4568 (a.u.)^3
     number of atoms/cell      =            2
     number of atomic types    =            1
     kinetic-energy cut-off    =      30.0000  Ry
     charge density cut-off    =     240.0000  Ry
     convergence threshold     =      1.0E-12
     beta                      =       0.7000
     number of iterations used =            4
     Exchange-correlation      = SLA  PW   PBE  PBE ( 1  4  3  4 0 0)


     celldm(1)=   10.31600  celldm(2)=    0.00000  celldm(3)=    0.00000
     celldm(4)=    0.00000  celldm(5)=    0.00000  celldm(6)=    0.00000

     crystal axes: (cart. coord. in units of alat)
               a(1) = ( -0.5000  0.0000  0.5000 )  
               a(2) = (  0.0000  0.5000  0.5000 )  
               a(3) = ( -0.5000  0.5000  0.0000 )  

     reciprocal axes: (cart. coord. in units 2 pi/alat)
               b(1) = ( -1.0000 -1.0000  1.0000 )  
               b(2) = (  1.0000  1.0000  1.0000 )  
               b(3) = ( -1.0000  1.0000 -1.0000 )  


     Atoms inside the unit cell: 

     Cartesian axes

     site n.  atom      mass           positions (alat units)
        1     Si  28.0860   tau(    1) = (    0.00000    0.00000    0.00000  )
        2     Si  28.0860   tau(    2) = (    0.25000    0.25000    0.25000  )

     Computing dynamical matrix for 
                    q = (  -0.2500000   0.2500000  -0.2500000 )

      6 Sym.Ops. (no q -> -q+G )


     G cutoff =  646.9551  (   4288 G-vectors)     FFT grid: ( 36, 36, 36)
     G cutoff =  323.4776  (   1520 G-vectors)  smooth grid: ( 25, 25, 25)
     number of k points=   120

     PseudoPot. # 1 for Si read from file:
     /home/s1333534/quantum_espresso/qe-6.1/pseudo/si_pbe_v1.uspp.F.UPF.txt
     MD5 check sum: a056efeee980c13900f22a371efd63c1
     Pseudo is Ultrasoft + core correction, Zval =  4.0
     Generated by new atomic code, or converted to UPF format
     Using radial grid of  899 points,  6 beta functions with: 
                l(1) =   0
                l(2) =   0
                l(3) =   1
                l(4) =   1
                l(5) =   2
                l(6) =   2
     Q(r) pseudized with  8 coefficients,  rinner =    0.900   0.900   0.900
                                                       0.900   0.900

     Mode symmetry, C_3v (3m)   point group:


     Atomic displacements:
     There are   4 irreducible representations

     Representation     1      1 modes -A_1  L_1  To be done

     Representation     2      1 modes -A_1  L_1  To be done

     Representation     3      2 modes -E    L_3  To be done

     Representation     4      2 modes -E    L_3  To be done



     Alpha used in Ewald sum =   2.5000
     PHONON       :    10.68s CPU        14.31s WALL



     Representation #  1 mode #   1

     Self-consistent Calculation

      iter #   1 total cpu time :    14.8 secs   av.it.:   5.9
      thresh= 1.000E-02 alpha_mix =  0.700 |ddv_scf|^2 =  4.284E-04

      iter #   2 total cpu time :    15.3 secs   av.it.:   9.1
      thresh= 2.070E-03 alpha_mix =  0.700 |ddv_scf|^2 =  6.516E-03

      iter #   3 total cpu time :    15.8 secs   av.it.:   7.0
      thresh= 8.072E-03 alpha_mix =  0.700 |ddv_scf|^2 =  2.716E-07

      iter #   4 total cpu time :    16.5 secs   av.it.:   9.6
      thresh= 5.212E-05 alpha_mix =  0.700 |ddv_scf|^2 =  1.792E-08

      iter #   5 total cpu time :    17.2 secs   av.it.:   9.6
      thresh= 1.339E-05 alpha_mix =  0.700 |ddv_scf|^2 =  3.415E-10

      iter #   6 total cpu time :    17.8 secs   av.it.:   9.7
      thresh= 1.848E-06 alpha_mix =  0.700 |ddv_scf|^2 =  1.216E-09

      iter #   7 total cpu time :    18.3 secs   av.it.:   7.6
      thresh= 3.487E-06 alpha_mix =  0.700 |ddv_scf|^2 =  3.682E-11

      iter #   8 total cpu time :    18.9 secs   av.it.:   9.3
      thresh= 6.068E-07 alpha_mix =  0.700 |ddv_scf|^2 =  4.682E-13

     End of self-consistent calculation

     Convergence has been achieved 


     Representation #  2 mode #   2

     Self-consistent Calculation

      iter #   1 total cpu time :    19.5 secs   av.it.:   5.9
      thresh= 1.000E-02 alpha_mix =  0.700 |ddv_scf|^2 =  4.284E-04

      iter #   2 total cpu time :    20.0 secs   av.it.:   9.1
      thresh= 2.070E-03 alpha_mix =  0.700 |ddv_scf|^2 =  6.516E-03

      iter #   3 total cpu time :    20.6 secs   av.it.:   7.0
      thresh= 8.072E-03 alpha_mix =  0.700 |ddv_scf|^2 =  2.716E-07

      iter #   4 total cpu time :    21.2 secs   av.it.:   9.6
      thresh= 5.212E-05 alpha_mix =  0.700 |ddv_scf|^2 =  1.792E-08

      iter #   5 total cpu time :    21.8 secs   av.it.:   9.6
      thresh= 1.339E-05 alpha_mix =  0.700 |ddv_scf|^2 =  3.415E-10

      iter #   6 total cpu time :    22.4 secs   av.it.:   9.7
      thresh= 1.848E-06 alpha_mix =  0.700 |ddv_scf|^2 =  1.216E-09

      iter #   7 total cpu time :    23.0 secs   av.it.:   7.6
      thresh= 3.487E-06 alpha_mix =  0.700 |ddv_scf|^2 =  3.682E-11

      iter #   8 total cpu time :    23.5 secs   av.it.:   9.3
      thresh= 6.068E-07 alpha_mix =  0.700 |ddv_scf|^2 =  4.682E-13

     End of self-consistent calculation

     Convergence has been achieved 


     Representation #  3 modes #   3  4

     Self-consistent Calculation

      iter #   1 total cpu time :    24.4 secs   av.it.:   5.2
      thresh= 1.000E-02 alpha_mix =  0.700 |ddv_scf|^2 =  6.625E-08

      iter #   2 total cpu time :    25.7 secs   av.it.:  11.4
      thresh= 2.574E-05 alpha_mix =  0.700 |ddv_scf|^2 =  4.260E-09

      iter #   3 total cpu time :    26.9 secs   av.it.:  11.1
      thresh= 6.527E-06 alpha_mix =  0.700 |ddv_scf|^2 =  2.254E-10

      iter #   4 total cpu time :    28.1 secs   av.it.:  11.0
      thresh= 1.501E-06 alpha_mix =  0.700 |ddv_scf|^2 =  8.573E-13

     End of self-consistent calculation

     Convergence has been achieved 


     Representation #  4 modes #   5  6

     Self-consistent Calculation

      iter #   1 total cpu time :    29.1 secs   av.it.:   5.2
      thresh= 1.000E-02 alpha_mix =  0.700 |ddv_scf|^2 =  6.626E-08

      iter #   2 total cpu time :    30.4 secs   av.it.:  11.4
      thresh= 2.574E-05 alpha_mix =  0.700 |ddv_scf|^2 =  4.259E-09

      iter #   3 total cpu time :    31.6 secs   av.it.:  11.2
      thresh= 6.526E-06 alpha_mix =  0.700 |ddv_scf|^2 =  2.253E-10

      iter #   4 total cpu time :    32.8 secs   av.it.:  11.0
      thresh= 1.501E-06 alpha_mix =  0.700 |ddv_scf|^2 =  8.611E-13

     End of self-consistent calculation

     Convergence has been achieved 

     Number of q in the star =    8
     List of q in the star:
          1  -0.250000000   0.250000000  -0.250000000
          2   0.250000000  -0.250000000  -0.250000000
          3   0.250000000  -0.250000000   0.250000000
          4   0.250000000   0.250000000   0.250000000
          5  -0.250000000  -0.250000000  -0.250000000
          6  -0.250000000  -0.250000000   0.250000000
          7  -0.250000000   0.250000000   0.250000000
          8   0.250000000   0.250000000  -0.250000000

     Diagonalizing the dynamical matrix

     q = (   -0.250000000   0.250000000  -0.250000000 ) 

 **************************************************************************
     freq (    1) =       2.776075 [THz] =      92.599901 [cm-1]
     freq (    2) =       2.776075 [THz] =      92.599901 [cm-1]
     freq (    3) =       6.767161 [THz] =     225.728206 [cm-1]
     freq (    4) =      14.293631 [THz] =     476.784196 [cm-1]
     freq (    5) =      14.575506 [THz] =     486.186541 [cm-1]
     freq (    6) =      14.575506 [THz] =     486.186541 [cm-1]
 **************************************************************************

     Mode symmetry, C_3v (3m)   point group:

     freq (  1 -  2) =         92.6  [cm-1]   --> E    L_3           
     freq (  3 -  3) =        225.7  [cm-1]   --> A_1  L_1           
     freq (  4 -  4) =        476.8  [cm-1]   --> A_1  L_1           
     freq (  5 -  6) =        486.2  [cm-1]   --> E    L_3           

     Calculation of q =    0.5000000  -0.5000000   0.5000000

   Info: using nr1, nr2, nr3 values from input

   Info: using nr1, nr2, nr3 values from input

     Parallelization info
     --------------------
     sticks:   dense  smooth     PW     G-vecs:    dense   smooth      PW
     Min         217     109     40                 4288     1520     351
     Max         219     111     41                 4289     1521     354
     Sum         871     439    163                17153     6081    1411



     bravais-lattice index     =            2
     lattice parameter (alat)  =      10.3160  a.u.
     unit-cell volume          =     274.4568 (a.u.)^3
     number of atoms/cell      =            2
     number of atomic types    =            1
     number of electrons       =         8.00
     number of Kohn-Sham states=            4
     kinetic-energy cutoff     =      30.0000  Ry
     charge density cutoff     =     240.0000  Ry
     Exchange-correlation      = SLA  PW   PBE  PBE ( 1  4  3  4 0 0)

     celldm(1)=  10.316000  celldm(2)=   0.000000  celldm(3)=   0.000000
     celldm(4)=   0.000000  celldm(5)=   0.000000  celldm(6)=   0.000000

     crystal axes: (cart. coord. in units of alat)
               a(1) = (  -0.500000   0.000000   0.500000 )  
               a(2) = (   0.000000   0.500000   0.500000 )  
               a(3) = (  -0.500000   0.500000   0.000000 )  

     reciprocal axes: (cart. coord. in units 2 pi/alat)
               b(1) = ( -1.000000 -1.000000  1.000000 )  
               b(2) = (  1.000000  1.000000  1.000000 )  
               b(3) = ( -1.000000  1.000000 -1.000000 )  


     PseudoPot. # 1 for Si read from file:
     /home/s1333534/quantum_espresso/qe-6.1/pseudo/si_pbe_v1.uspp.F.UPF.txt
     MD5 check sum: a056efeee980c13900f22a371efd63c1
     Pseudo is Ultrasoft + core correction, Zval =  4.0
     Generated by new atomic code, or converted to UPF format
     Using radial grid of  899 points,  6 beta functions with: 
                l(1) =   0
                l(2) =   0
                l(3) =   1
                l(4) =   1
                l(5) =   2
                l(6) =   2
     Q(r) pseudized with  8 coefficients,  rinner =    0.900   0.900   0.900
                                                       0.900   0.900

     atomic species   valence    mass     pseudopotential
        Si             4.00    28.08600     Si( 1.00)

     48 Sym. Ops., with inversion, found



   Cartesian axes

     site n.     atom                  positions (alat units)
         1           Si  tau(   1) = (   0.0000000   0.0000000   0.0000000  )
         2           Si  tau(   2) = (   0.2500000   0.2500000   0.2500000  )

     number of k points=    60
                       cart. coord. in units 2pi/alat
        k(    1) = (  -0.1250000   0.1250000   0.1250000), wk =   0.0468750
        k(    2) = (   0.3750000  -0.3750000   0.6250000), wk =   0.0000000
        k(    3) = (  -0.3750000   0.3750000  -0.1250000), wk =   0.0468750
        k(    4) = (   0.1250000  -0.1250000   0.3750000), wk =   0.0000000
        k(    5) = (   0.3750000  -0.3750000   0.6250000), wk =   0.0468750
        k(    6) = (   0.8750000  -0.8750000   1.1250000), wk =   0.0000000
        k(    7) = (   0.1250000  -0.1250000   0.3750000), wk =   0.0468750
        k(    8) = (   0.6250000  -0.6250000   0.8750000), wk =   0.0000000
        k(    9) = (  -0.1250000   0.6250000   0.1250000), wk =   0.0937500
        k(   10) = (   0.3750000   0.1250000   0.6250000), wk =   0.0000000
        k(   11) = (   0.6250000  -0.1250000   0.8750000), wk =   0.0937500
        k(   12) = (   1.1250000  -0.6250000   1.3750000), wk =   0.0000000
        k(   13) = (   0.3750000   0.1250000   0.6250000), wk =   0.0937500
        k(   14) = (   0.8750000  -0.3750000   1.1250000), wk =   0.0000000
        k(   15) = (  -0.1250000  -0.8750000   0.1250000), wk =   0.0937500
        k(   16) = (   0.3750000  -1.3750000   0.6250000), wk =   0.0000000
        k(   17) = (  -0.3750000   0.3750000   0.3750000), wk =   0.0468750
        k(   18) = (   0.1250000  -0.1250000   0.8750000), wk =   0.0000000
        k(   19) = (   0.3750000  -0.3750000   1.1250000), wk =   0.0468750
        k(   20) = (   0.8750000  -0.8750000   1.6250000), wk =   0.0000000
        k(   21) = (   0.1250000  -0.1250000   0.1250000), wk =   0.0156250
        k(   22) = (   0.6250000  -0.6250000   0.6250000), wk =   0.0000000
        k(   23) = (  -0.3750000  -0.3750000  -0.1250000), wk =   0.0937500
        k(   24) = (   0.1250000  -0.8750000   0.3750000), wk =   0.0000000
        k(   25) = (  -0.1250000  -0.3750000   0.3750000), wk =   0.0468750
        k(   26) = (   0.3750000  -0.8750000   0.8750000), wk =   0.0000000
        k(   27) = (   0.3750000   0.3750000   0.6250000), wk =   0.0937500
        k(   28) = (   0.8750000  -0.1250000   1.1250000), wk =   0.0000000
        k(   29) = (   0.6250000   0.3750000  -0.3750000), wk =   0.0468750
        k(   30) = (   1.1250000  -0.1250000   0.1250000), wk =   0.0000000
        k(   31) = (   0.1250000   0.1250000   0.3750000), wk =   0.0937500
        k(   32) = (   0.6250000  -0.3750000   0.8750000), wk =   0.0000000
        k(   33) = (   0.3750000   0.1250000  -0.1250000), wk =   0.0468750
        k(   34) = (   0.8750000  -0.3750000   0.3750000), wk =   0.0000000
        k(   35) = (  -0.1250000  -0.6250000  -0.1250000), wk =   0.0468750
        k(   36) = (   0.3750000  -1.1250000   0.3750000), wk =   0.0000000
        k(   37) = (   0.1250000  -0.6250000   0.1250000), wk =   0.0468750
        k(   38) = (   0.6250000  -1.1250000   0.6250000), wk =   0.0000000
        k(   39) = (   0.6250000   0.1250000   0.8750000), wk =   0.0937500
        k(   40) = (   1.1250000  -0.3750000   1.3750000), wk =   0.0000000
        k(   41) = (  -0.8750000   0.1250000   0.6250000), wk =   0.0937500
        k(   42) = (  -0.3750000  -0.3750000   1.1250000), wk =   0.0000000
        k(   43) = (   0.8750000   0.1250000  -0.6250000), wk =   0.0937500
        k(   44) = (   1.3750000  -0.3750000  -0.1250000), wk =   0.0000000
        k(   45) = (   0.3750000  -0.1250000   0.6250000), wk =   0.0937500
        k(   46) = (   0.8750000  -0.6250000   1.1250000), wk =   0.0000000
        k(   47) = (  -0.6250000  -0.1250000   0.3750000), wk =   0.0937500
        k(   48) = (  -0.1250000  -0.6250000   0.8750000), wk =   0.0000000
        k(   49) = (   0.6250000  -0.1250000  -0.3750000), wk =   0.0937500
        k(   50) = (   1.1250000  -0.6250000   0.1250000), wk =   0.0000000
        k(   51) = (  -0.1250000   0.8750000  -0.1250000), wk =   0.0468750
        k(   52) = (   0.3750000   0.3750000   0.3750000), wk =   0.0000000
        k(   53) = (   0.1250000   0.8750000   0.1250000), wk =   0.0468750
        k(   54) = (   0.6250000   0.3750000   0.6250000), wk =   0.0000000
        k(   55) = (   0.3750000  -0.3750000   0.3750000), wk =   0.0156250
        k(   56) = (   0.8750000  -0.8750000   0.8750000), wk =   0.0000000
        k(   57) = (   0.3750000   0.3750000   1.1250000), wk =   0.0937500
        k(   58) = (   0.8750000  -0.1250000   1.6250000), wk =   0.0000000
        k(   59) = (   1.1250000   0.3750000  -0.3750000), wk =   0.0468750
        k(   60) = (   1.6250000  -0.1250000   0.1250000), wk =   0.0000000

     Dense  grid:    17153 G-vectors     FFT dimensions: (  36,  36,  36)

     Smooth grid:     6081 G-vectors     FFT dimensions: (  25,  25,  25)

     Estimated max dynamical RAM per process >       1.51MB

     Estimated total allocated dynamical RAM >       6.06MB

     The potential is recalculated from file :
     ./_ph0/silicon.10.316.save/charge-density.dat

     Starting wfc are    8 atomic wfcs

     Band Structure Calculation
     Davidson diagonalization with overlap

     ethr =  1.25E-10,  avg # of iterations = 12.2

     total cpu time spent up to now is        2.4 secs

     End of band structure calculation

          k =-0.1250 0.1250 0.1250 (   764 PWs)   bands (ev):

    -5.6192   4.4381   5.7472   5.7472

          k = 0.3750-0.3750 0.6250 (   760 PWs)   bands (ev):

    -3.4425  -0.6499   3.7765   4.4908

          k =-0.3750 0.3750-0.1250 (   767 PWs)   bands (ev):

    -4.5883   1.4380   3.7535   5.2659

          k = 0.1250-0.1250 0.3750 (   766 PWs)   bands (ev):

    -5.0893   2.8200   4.7345   4.8013

          k = 0.3750-0.3750 0.6250 (   760 PWs)   bands (ev):

    -3.4425  -0.6499   3.7765   4.4908

          k = 0.8750-0.8750 1.1250 (   764 PWs)   bands (ev):

    -5.6192   4.4381   5.7472   5.7472

          k = 0.1250-0.1250 0.3750 (   766 PWs)   bands (ev):

    -5.0893   2.8200   4.7345   4.8013

          k = 0.6250-0.6250 0.8750 (   767 PWs)   bands (ev):

    -4.5883   1.4380   3.7535   5.2659

          k =-0.1250 0.6250 0.1250 (   762 PWs)   bands (ev):

    -4.0537   1.1081   3.4024   3.8571

          k = 0.3750 0.1250 0.6250 (   766 PWs)   bands (ev):

    -3.6360   0.2289   2.7588   4.1327

          k = 0.6250-0.1250 0.8750 (   754 PWs)   bands (ev):

    -2.4060  -0.8602   2.0404   3.1222

          k = 1.1250-0.6250 1.3750 (   767 PWs)   bands (ev):

    -4.5883   1.4380   3.7535   5.2659

          k = 0.3750 0.1250 0.6250 (   766 PWs)   bands (ev):

    -3.6360   0.2289   2.7588   4.1327

          k = 0.8750-0.3750 1.1250 (   762 PWs)   bands (ev):

    -4.0537   1.1081   3.4024   3.8571

          k =-0.1250-0.8750 0.1250 (   762 PWs)   bands (ev):

    -2.5756  -0.7618   2.6535   3.3886

          k = 0.3750-1.3750 0.6250 (   760 PWs)   bands (ev):

    -3.4425  -0.6499   3.7765   4.4908

          k =-0.3750 0.3750 0.3750 (   763 PWs)   bands (ev):

    -4.1531   0.1409   4.9577   4.9577

          k = 0.1250-0.1250 0.8750 (   762 PWs)   bands (ev):

    -2.5756  -0.7618   2.6535   3.3886

          k = 0.3750-0.3750 1.1250 (   763 PWs)   bands (ev):

    -2.9450  -0.5602   2.1007   4.1723

          k = 0.8750-0.8750 1.6250 (   762 PWs)   bands (ev):

    -4.0537   1.1081   3.4024   3.8571

          k = 0.1250-0.1250 0.1250 (   764 PWs)   bands (ev):

    -5.6192   4.4381   5.7472   5.7472

          k = 0.6250-0.6250 0.6250 (   763 PWs)   bands (ev):

    -4.1531   0.1409   4.9577   4.9577

          k =-0.3750-0.3750-0.1250 (   767 PWs)   bands (ev):

    -4.5883   1.4380   3.7535   5.2659

          k = 0.1250-0.8750 0.3750 (   754 PWs)   bands (ev):

    -2.4060  -0.8602   2.0404   3.1222

          k =-0.1250-0.3750 0.3750 (   767 PWs)   bands (ev):

    -4.5883   1.4380   3.7535   5.2659

          k = 0.3750-0.8750 0.8750 (   762 PWs)   bands (ev):

    -4.0537   1.1081   3.4024   3.8571

          k = 0.3750 0.3750 0.6250 (   760 PWs)   bands (ev):

    -3.4425  -0.6499   3.7765   4.4908

          k = 0.8750-0.1250 1.1250 (   762 PWs)   bands (ev):

    -2.5756  -0.7618   2.6535   3.3886

          k = 0.6250 0.3750-0.3750 (   760 PWs)   bands (ev):

    -3.4425  -0.6499   3.7765   4.4908

          k = 1.1250-0.1250 0.1250 (   762 PWs)   bands (ev):

    -2.5756  -0.7618   2.6535   3.3886

          k = 0.1250 0.1250 0.3750 (   766 PWs)   bands (ev):

    -5.0893   2.8200   4.7345   4.8013

          k = 0.6250-0.3750 0.8750 (   766 PWs)   bands (ev):

    -3.6360   0.2289   2.7588   4.1327

          k = 0.3750 0.1250-0.1250 (   766 PWs)   bands (ev):

    -5.0893   2.8200   4.7345   4.8013

          k = 0.8750-0.3750 0.3750 (   763 PWs)   bands (ev):

    -2.9450  -0.5602   2.1007   4.1723

          k =-0.1250-0.6250-0.1250 (   762 PWs)   bands (ev):

    -4.0537   1.1081   3.4024   3.8571

          k = 0.3750-1.1250 0.3750 (   763 PWs)   bands (ev):

    -2.9450  -0.5602   2.1007   4.1723

          k = 0.1250-0.6250 0.1250 (   762 PWs)   bands (ev):

    -4.0537   1.1081   3.4024   3.8571

          k = 0.6250-1.1250 0.6250 (   767 PWs)   bands (ev):

    -4.5883   1.4380   3.7535   5.2659

          k = 0.6250 0.1250 0.8750 (   754 PWs)   bands (ev):

    -2.4060  -0.8602   2.0404   3.1222

          k = 1.1250-0.3750 1.3750 (   766 PWs)   bands (ev):

    -3.6360   0.2289   2.7588   4.1327

          k =-0.8750 0.1250 0.6250 (   754 PWs)   bands (ev):

    -2.4060  -0.8602   2.0404   3.1222

          k =-0.3750-0.3750 1.1250 (   763 PWs)   bands (ev):

    -2.9450  -0.5602   2.1007   4.1723

          k = 0.8750 0.1250-0.6250 (   754 PWs)   bands (ev):

    -2.4060  -0.8602   2.0404   3.1222

          k = 1.3750-0.3750-0.1250 (   766 PWs)   bands (ev):

    -3.6360   0.2289   2.7588   4.1327

          k = 0.3750-0.1250 0.6250 (   766 PWs)   bands (ev):

    -3.6360   0.2289   2.7588   4.1327

          k = 0.8750-0.6250 1.1250 (   766 PWs)   bands (ev):

    -5.0893   2.8200   4.7345   4.8013

          k =-0.6250-0.1250 0.3750 (   766 PWs)   bands (ev):

    -3.6360   0.2289   2.7588   4.1327

          k =-0.1250-0.6250 0.8750 (   754 PWs)   bands (ev):

    -2.4060  -0.8602   2.0404   3.1222

          k = 0.6250-0.1250-0.3750 (   766 PWs)   bands (ev):

    -3.6360   0.2289   2.7588   4.1327

          k = 1.1250-0.6250 0.1250 (   754 PWs)   bands (ev):

    -2.4060  -0.8602   2.0404   3.1222

          k =-0.1250 0.8750-0.1250 (   762 PWs)   bands (ev):

    -2.5756  -0.7618   2.6535   3.3886

          k = 0.3750 0.3750 0.3750 (   763 PWs)   bands (ev):

    -4.1531   0.1409   4.9577   4.9577

          k = 0.1250 0.8750 0.1250 (   762 PWs)   bands (ev):

    -2.5756  -0.7618   2.6535   3.3886

          k = 0.6250 0.3750 0.6250 (   760 PWs)   bands (ev):

    -3.4425  -0.6499   3.7765   4.4908

          k = 0.3750-0.3750 0.3750 (   763 PWs)   bands (ev):

    -4.1531   0.1409   4.9577   4.9577

          k = 0.8750-0.8750 0.8750 (   764 PWs)   bands (ev):

    -5.6192   4.4381   5.7472   5.7472

          k = 0.3750 0.3750 1.1250 (   763 PWs)   bands (ev):

    -2.9450  -0.5602   2.1007   4.1723

          k = 0.8750-0.1250 1.6250 (   754 PWs)   bands (ev):

    -2.4060  -0.8602   2.0404   3.1222

          k = 1.1250 0.3750-0.3750 (   763 PWs)   bands (ev):

    -2.9450  -0.5602   2.1007   4.1723

          k = 1.6250-0.1250 0.1250 (   766 PWs)   bands (ev):

    -5.0893   2.8200   4.7345   4.8013

     highest occupied level (ev):     5.7472

     Writing output data file silicon.10.316.save

                                                                                

     bravais-lattice index     =            2
     lattice parameter (alat)  =      10.3160  a.u.
     unit-cell volume          =     274.4568 (a.u.)^3
     number of atoms/cell      =            2
     number of atomic types    =            1
     kinetic-energy cut-off    =      30.0000  Ry
     charge density cut-off    =     240.0000  Ry
     convergence threshold     =      1.0E-12
     beta                      =       0.7000
     number of iterations used =            4
     Exchange-correlation      = SLA  PW   PBE  PBE ( 1  4  3  4 0 0)


     celldm(1)=   10.31600  celldm(2)=    0.00000  celldm(3)=    0.00000
     celldm(4)=    0.00000  celldm(5)=    0.00000  celldm(6)=    0.00000

     crystal axes: (cart. coord. in units of alat)
               a(1) = ( -0.5000  0.0000  0.5000 )  
               a(2) = (  0.0000  0.5000  0.5000 )  
               a(3) = ( -0.5000  0.5000  0.0000 )  

     reciprocal axes: (cart. coord. in units 2 pi/alat)
               b(1) = ( -1.0000 -1.0000  1.0000 )  
               b(2) = (  1.0000  1.0000  1.0000 )  
               b(3) = ( -1.0000  1.0000 -1.0000 )  


     Atoms inside the unit cell: 

     Cartesian axes

     site n.  atom      mass           positions (alat units)
        1     Si  28.0860   tau(    1) = (    0.00000    0.00000    0.00000  )
        2     Si  28.0860   tau(    2) = (    0.25000    0.25000    0.25000  )

     Computing dynamical matrix for 
                    q = (   0.5000000  -0.5000000   0.5000000 )

     13 Sym.Ops. (with q -> -q+G )


     G cutoff =  646.9551  (   4288 G-vectors)     FFT grid: ( 36, 36, 36)
     G cutoff =  323.4776  (   1520 G-vectors)  smooth grid: ( 25, 25, 25)
     number of k points=    60

     PseudoPot. # 1 for Si read from file:
     /home/s1333534/quantum_espresso/qe-6.1/pseudo/si_pbe_v1.uspp.F.UPF.txt
     MD5 check sum: a056efeee980c13900f22a371efd63c1
     Pseudo is Ultrasoft + core correction, Zval =  4.0
     Generated by new atomic code, or converted to UPF format
     Using radial grid of  899 points,  6 beta functions with: 
                l(1) =   0
                l(2) =   0
                l(3) =   1
                l(4) =   1
                l(5) =   2
                l(6) =   2
     Q(r) pseudized with  8 coefficients,  rinner =    0.900   0.900   0.900
                                                       0.900   0.900


     Atomic displacements:
     There are   4 irreducible representations

     Representation     1      1 modes -  To be done

     Representation     2      1 modes -  To be done

     Representation     3      2 modes -  To be done

     Representation     4      2 modes -  To be done



     Alpha used in Ewald sum =   2.5000
     PHONON       :    27.57s CPU        35.18s WALL



     Representation #  1 mode #   1

     Self-consistent Calculation

      iter #   1 total cpu time :    35.5 secs   av.it.:   5.0
      thresh= 1.000E-02 alpha_mix =  0.700 |ddv_scf|^2 =  4.201E-06

      iter #   2 total cpu time :    35.9 secs   av.it.:   9.8
      thresh= 2.050E-04 alpha_mix =  0.700 |ddv_scf|^2 =  3.839E-06

      iter #   3 total cpu time :    36.2 secs   av.it.:   9.2
      thresh= 1.959E-04 alpha_mix =  0.700 |ddv_scf|^2 =  2.311E-09

      iter #   4 total cpu time :    36.6 secs   av.it.:   9.4
      thresh= 4.807E-06 alpha_mix =  0.700 |ddv_scf|^2 =  2.218E-11

      iter #   5 total cpu time :    37.0 secs   av.it.:   9.3
      thresh= 4.710E-07 alpha_mix =  0.700 |ddv_scf|^2 =  3.101E-13

     End of self-consistent calculation

     Convergence has been achieved 


     Representation #  2 mode #   2

     Self-consistent Calculation

      iter #   1 total cpu time :    37.4 secs   av.it.:   6.0
      thresh= 1.000E-02 alpha_mix =  0.700 |ddv_scf|^2 =  5.976E-05

      iter #   2 total cpu time :    37.8 secs   av.it.:   9.8
      thresh= 7.731E-04 alpha_mix =  0.700 |ddv_scf|^2 =  1.858E-04

      iter #   3 total cpu time :    38.2 secs   av.it.:   8.6
      thresh= 1.363E-03 alpha_mix =  0.700 |ddv_scf|^2 =  1.315E-08

      iter #   4 total cpu time :    38.7 secs   av.it.:   9.8
      thresh= 1.147E-05 alpha_mix =  0.700 |ddv_scf|^2 =  6.684E-10

      iter #   5 total cpu time :    39.1 secs   av.it.:  10.2
      thresh= 2.585E-06 alpha_mix =  0.700 |ddv_scf|^2 =  2.035E-11

      iter #   6 total cpu time :    39.4 secs   av.it.:   9.7
      thresh= 4.511E-07 alpha_mix =  0.700 |ddv_scf|^2 =  1.532E-13

     End of self-consistent calculation

     Convergence has been achieved 


     Representation #  3 modes #   3  4

     Self-consistent Calculation

      iter #   1 total cpu time :    40.0 secs   av.it.:   5.1
      thresh= 1.000E-02 alpha_mix =  0.700 |ddv_scf|^2 =  2.698E-08

      iter #   2 total cpu time :    40.8 secs   av.it.:  10.9
      thresh= 1.642E-05 alpha_mix =  0.700 |ddv_scf|^2 =  1.592E-09

      iter #   3 total cpu time :    41.6 secs   av.it.:  10.7
      thresh= 3.990E-06 alpha_mix =  0.700 |ddv_scf|^2 =  5.309E-11

      iter #   4 total cpu time :    42.2 secs   av.it.:  10.6
      thresh= 7.286E-07 alpha_mix =  0.700 |ddv_scf|^2 =  4.343E-13

     End of self-consistent calculation

     Convergence has been achieved 


     Representation #  4 modes #   5  6

     Self-consistent Calculation

      iter #   1 total cpu time :    42.9 secs   av.it.:   5.1
      thresh= 1.000E-02 alpha_mix =  0.700 |ddv_scf|^2 =  1.380E-07

      iter #   2 total cpu time :    43.7 secs   av.it.:  11.1
      thresh= 3.715E-05 alpha_mix =  0.700 |ddv_scf|^2 =  1.107E-08

      iter #   3 total cpu time :    44.4 secs   av.it.:  10.9
      thresh= 1.052E-05 alpha_mix =  0.700 |ddv_scf|^2 =  2.912E-10

      iter #   4 total cpu time :    45.1 secs   av.it.:   9.8
      thresh= 1.707E-06 alpha_mix =  0.700 |ddv_scf|^2 =  5.252E-13

     End of self-consistent calculation

     Convergence has been achieved 

     Number of q in the star =    4
     List of q in the star:
          1   0.500000000  -0.500000000   0.500000000
          2   0.500000000   0.500000000   0.500000000
          3  -0.500000000   0.500000000   0.500000000
          4   0.500000000   0.500000000  -0.500000000

     Diagonalizing the dynamical matrix

     q = (    0.500000000  -0.500000000   0.500000000 ) 

 **************************************************************************
     freq (    1) =       3.276039 [THz] =     109.276892 [cm-1]
     freq (    2) =       3.276039 [THz] =     109.276892 [cm-1]
     freq (    3) =      11.117738 [THz] =     370.847814 [cm-1]
     freq (    4) =      12.065429 [THz] =     402.459404 [cm-1]
     freq (    5) =      14.371179 [THz] =     479.370942 [cm-1]
     freq (    6) =      14.371179 [THz] =     479.370942 [cm-1]
 **************************************************************************

     Calculation of q =    0.0000000   0.5000000   0.0000000

   Info: using nr1, nr2, nr3 values from input

   Info: using nr1, nr2, nr3 values from input

     Parallelization info
     --------------------
     sticks:   dense  smooth     PW     G-vecs:    dense   smooth      PW
     Min         217     109     37                 4288     1520     309
     Max         218     111     38                 4289     1521     312
     Sum         871     439    151                17153     6081    1243



     bravais-lattice index     =            2
     lattice parameter (alat)  =      10.3160  a.u.
     unit-cell volume          =     274.4568 (a.u.)^3
     number of atoms/cell      =            2
     number of atomic types    =            1
     number of electrons       =         8.00
     number of Kohn-Sham states=            4
     kinetic-energy cutoff     =      30.0000  Ry
     charge density cutoff     =     240.0000  Ry
     Exchange-correlation      = SLA  PW   PBE  PBE ( 1  4  3  4 0 0)

     celldm(1)=  10.316000  celldm(2)=   0.000000  celldm(3)=   0.000000
     celldm(4)=   0.000000  celldm(5)=   0.000000  celldm(6)=   0.000000

     crystal axes: (cart. coord. in units of alat)
               a(1) = (  -0.500000   0.000000   0.500000 )  
               a(2) = (   0.000000   0.500000   0.500000 )  
               a(3) = (  -0.500000   0.500000   0.000000 )  

     reciprocal axes: (cart. coord. in units 2 pi/alat)
               b(1) = ( -1.000000 -1.000000  1.000000 )  
               b(2) = (  1.000000  1.000000  1.000000 )  
               b(3) = ( -1.000000  1.000000 -1.000000 )  


     PseudoPot. # 1 for Si read from file:
     /home/s1333534/quantum_espresso/qe-6.1/pseudo/si_pbe_v1.uspp.F.UPF.txt
     MD5 check sum: a056efeee980c13900f22a371efd63c1
     Pseudo is Ultrasoft + core correction, Zval =  4.0
     Generated by new atomic code, or converted to UPF format
     Using radial grid of  899 points,  6 beta functions with: 
                l(1) =   0
                l(2) =   0
                l(3) =   1
                l(4) =   1
                l(5) =   2
                l(6) =   2
     Q(r) pseudized with  8 coefficients,  rinner =    0.900   0.900   0.900
                                                       0.900   0.900

     atomic species   valence    mass     pseudopotential
        Si             4.00    28.08600     Si( 1.00)

     48 Sym. Ops., with inversion, found



   Cartesian axes

     site n.     atom                  positions (alat units)
         1           Si  tau(   1) = (   0.0000000   0.0000000   0.0000000  )
         2           Si  tau(   2) = (   0.2500000   0.2500000   0.2500000  )

     number of k points=    80
                       cart. coord. in units 2pi/alat
        k(    1) = (  -0.1250000   0.1250000   0.1250000), wk =   0.0312500
        k(    2) = (  -0.1250000   0.6250000   0.1250000), wk =   0.0000000
        k(    3) = (  -0.3750000   0.3750000  -0.1250000), wk =   0.0625000
        k(    4) = (  -0.3750000   0.8750000  -0.1250000), wk =   0.0000000
        k(    5) = (   0.3750000  -0.3750000   0.6250000), wk =   0.0625000
        k(    6) = (   0.3750000   0.1250000   0.6250000), wk =   0.0000000
        k(    7) = (   0.1250000  -0.1250000   0.3750000), wk =   0.0625000
        k(    8) = (   0.1250000   0.3750000   0.3750000), wk =   0.0000000
        k(    9) = (  -0.1250000   0.6250000   0.1250000), wk =   0.0312500
        k(   10) = (  -0.1250000   1.1250000   0.1250000), wk =   0.0000000
        k(   11) = (   0.6250000  -0.1250000   0.8750000), wk =   0.0625000
        k(   12) = (   0.6250000   0.3750000   0.8750000), wk =   0.0000000
        k(   13) = (   0.3750000   0.1250000   0.6250000), wk =   0.0625000
        k(   14) = (   0.3750000   0.6250000   0.6250000), wk =   0.0000000
        k(   15) = (  -0.1250000  -0.8750000   0.1250000), wk =   0.0312500
        k(   16) = (  -0.1250000  -0.3750000   0.1250000), wk =   0.0000000
        k(   17) = (  -0.3750000   0.3750000   0.3750000), wk =   0.0312500
        k(   18) = (  -0.3750000   0.8750000   0.3750000), wk =   0.0000000
        k(   19) = (   0.3750000  -0.3750000   1.1250000), wk =   0.0625000
        k(   20) = (   0.3750000   0.1250000   1.1250000), wk =   0.0000000
        k(   21) = (  -0.1250000  -0.1250000   0.1250000), wk =   0.0312500
        k(   22) = (  -0.1250000   0.3750000   0.1250000), wk =   0.0000000
        k(   23) = (   0.1250000  -0.3750000   0.3750000), wk =   0.0625000
        k(   24) = (   0.1250000   0.1250000   0.3750000), wk =   0.0000000
        k(   25) = (   0.3750000  -0.1250000   0.3750000), wk =   0.0312500
        k(   26) = (   0.3750000   0.3750000   0.3750000), wk =   0.0000000
        k(   27) = (   0.3750000   0.1250000   0.3750000), wk =   0.0312500
        k(   28) = (   0.3750000   0.6250000   0.3750000), wk =   0.0000000
        k(   29) = (  -0.6250000   0.3750000  -0.3750000), wk =   0.0625000
        k(   30) = (  -0.6250000   0.8750000  -0.3750000), wk =   0.0000000
        k(   31) = (  -0.3750000   0.6250000  -0.3750000), wk =   0.0312500
        k(   32) = (  -0.3750000   1.1250000  -0.3750000), wk =   0.0000000
        k(   33) = (  -0.3750000  -0.6250000  -0.3750000), wk =   0.0312500
        k(   34) = (  -0.3750000  -0.1250000  -0.3750000), wk =   0.0000000
        k(   35) = (  -0.3750000   0.1250000  -0.1250000), wk =   0.0625000
        k(   36) = (  -0.3750000   0.6250000  -0.1250000), wk =   0.0000000
        k(   37) = (  -0.1250000   0.3750000  -0.1250000), wk =   0.0312500
        k(   38) = (  -0.1250000   0.8750000  -0.1250000), wk =   0.0000000
        k(   39) = (  -0.1250000  -0.3750000  -0.1250000), wk =   0.0312500
        k(   40) = (  -0.1250000   0.1250000  -0.1250000), wk =   0.0000000
        k(   41) = (  -0.1250000  -0.6250000   0.1250000), wk =   0.0312500
        k(   42) = (  -0.1250000  -0.1250000   0.1250000), wk =   0.0000000
        k(   43) = (   0.6250000  -0.1250000  -0.1250000), wk =   0.0625000
        k(   44) = (   0.6250000   0.3750000  -0.1250000), wk =   0.0000000
        k(   45) = (   0.6250000   0.1250000   0.1250000), wk =   0.0625000
        k(   46) = (   0.6250000   0.6250000   0.1250000), wk =   0.0000000
        k(   47) = (  -0.8750000   0.1250000  -0.6250000), wk =   0.0625000
        k(   48) = (  -0.8750000   0.6250000  -0.6250000), wk =   0.0000000
        k(   49) = (  -0.1250000   0.6250000  -0.8750000), wk =   0.0625000
        k(   50) = (  -0.1250000   1.1250000  -0.8750000), wk =   0.0000000
        k(   51) = (  -0.1250000   0.8750000  -0.6250000), wk =   0.0625000
        k(   52) = (  -0.1250000   1.3750000  -0.6250000), wk =   0.0000000
        k(   53) = (  -0.1250000  -0.8750000  -0.6250000), wk =   0.0625000
        k(   54) = (  -0.1250000  -0.3750000  -0.6250000), wk =   0.0000000
        k(   55) = (   0.8750000  -0.6250000   0.1250000), wk =   0.0625000
        k(   56) = (   0.8750000  -0.1250000   0.1250000), wk =   0.0000000
        k(   57) = (  -0.6250000  -0.1250000  -0.3750000), wk =   0.0625000
        k(   58) = (  -0.6250000   0.3750000  -0.3750000), wk =   0.0000000
        k(   59) = (   0.1250000   0.3750000  -0.6250000), wk =   0.0625000
        k(   60) = (   0.1250000   0.8750000  -0.6250000), wk =   0.0000000
        k(   61) = (   0.1250000   0.6250000  -0.3750000), wk =   0.0625000
        k(   62) = (   0.1250000   1.1250000  -0.3750000), wk =   0.0000000
        k(   63) = (   0.1250000  -0.6250000  -0.3750000), wk =   0.0625000
        k(   64) = (   0.1250000  -0.1250000  -0.3750000), wk =   0.0000000
        k(   65) = (   0.6250000  -0.3750000  -0.1250000), wk =   0.0625000
        k(   66) = (   0.6250000   0.1250000  -0.1250000), wk =   0.0000000
        k(   67) = (  -0.1250000   0.8750000   0.1250000), wk =   0.0312500
        k(   68) = (  -0.1250000   1.3750000   0.1250000), wk =   0.0000000
        k(   69) = (  -0.8750000  -0.1250000  -0.1250000), wk =   0.0625000
        k(   70) = (  -0.8750000   0.3750000  -0.1250000), wk =   0.0000000
        k(   71) = (  -0.8750000   0.1250000   0.1250000), wk =   0.0625000
        k(   72) = (  -0.8750000   0.6250000   0.1250000), wk =   0.0000000
        k(   73) = (  -0.3750000  -0.3750000   0.3750000), wk =   0.0312500
        k(   74) = (  -0.3750000   0.1250000   0.3750000), wk =   0.0000000
        k(   75) = (  -1.1250000   0.3750000  -0.3750000), wk =   0.0625000
        k(   76) = (  -1.1250000   0.8750000  -0.3750000), wk =   0.0000000
        k(   77) = (  -0.3750000   1.1250000  -0.3750000), wk =   0.0312500
        k(   78) = (  -0.3750000   1.6250000  -0.3750000), wk =   0.0000000
        k(   79) = (  -0.3750000  -1.1250000  -0.3750000), wk =   0.0312500
        k(   80) = (  -0.3750000  -0.6250000  -0.3750000), wk =   0.0000000

     Dense  grid:    17153 G-vectors     FFT dimensions: (  36,  36,  36)

     Smooth grid:     6081 G-vectors     FFT dimensions: (  25,  25,  25)

     Estimated max dynamical RAM per process >       1.51MB

     Estimated total allocated dynamical RAM >       6.06MB

     The potential is recalculated from file :
     ./_ph0/silicon.10.316.save/charge-density.dat

     Starting wfc are    8 atomic wfcs

     Band Structure Calculation
     Davidson diagonalization with overlap

     ethr =  1.25E-10,  avg # of iterations = 12.2

     total cpu time spent up to now is        3.5 secs

     End of band structure calculation

          k =-0.1250 0.1250 0.1250 (   764 PWs)   bands (ev):

    -5.6192   4.4381   5.7472   5.7472

          k =-0.1250 0.6250 0.1250 (   762 PWs)   bands (ev):

    -4.0537   1.1081   3.4024   3.8571

          k =-0.3750 0.3750-0.1250 (   767 PWs)   bands (ev):

    -4.5883   1.4380   3.7535   5.2659

          k =-0.3750 0.8750-0.1250 (   754 PWs)   bands (ev):

    -2.4060  -0.8602   2.0404   3.1222

          k = 0.3750-0.3750 0.6250 (   760 PWs)   bands (ev):

    -3.4425  -0.6499   3.7765   4.4908

          k = 0.3750 0.1250 0.6250 (   766 PWs)   bands (ev):

    -3.6360   0.2289   2.7588   4.1327

          k = 0.1250-0.1250 0.3750 (   766 PWs)   bands (ev):

    -5.0893   2.8200   4.7345   4.8013

          k = 0.1250 0.3750 0.3750 (   767 PWs)   bands (ev):

    -4.5883   1.4380   3.7535   5.2659

          k =-0.1250 0.6250 0.1250 (   762 PWs)   bands (ev):

    -4.0537   1.1081   3.4024   3.8571

          k =-0.1250 1.1250 0.1250 (   762 PWs)   bands (ev):

    -2.5756  -0.7618   2.6535   3.3886

          k = 0.6250-0.1250 0.8750 (   754 PWs)   bands (ev):

    -2.4060  -0.8602   2.0404   3.1222

          k = 0.6250 0.3750 0.8750 (   766 PWs)   bands (ev):

    -3.6360   0.2289   2.7588   4.1327

          k = 0.3750 0.1250 0.6250 (   766 PWs)   bands (ev):

    -3.6360   0.2289   2.7588   4.1327

          k = 0.3750 0.6250 0.6250 (   760 PWs)   bands (ev):

    -3.4425  -0.6499   3.7765   4.4908

          k =-0.1250-0.8750 0.1250 (   762 PWs)   bands (ev):

    -2.5756  -0.7618   2.6535   3.3886

          k =-0.1250-0.3750 0.1250 (   766 PWs)   bands (ev):

    -5.0893   2.8200   4.7345   4.8013

          k =-0.3750 0.3750 0.3750 (   763 PWs)   bands (ev):

    -4.1531   0.1409   4.9577   4.9577

          k =-0.3750 0.8750 0.3750 (   763 PWs)   bands (ev):

    -2.9450  -0.5602   2.1007   4.1723

          k = 0.3750-0.3750 1.1250 (   763 PWs)   bands (ev):

    -2.9450  -0.5602   2.1007   4.1723

          k = 0.3750 0.1250 1.1250 (   754 PWs)   bands (ev):

    -2.4060  -0.8602   2.0404   3.1222

          k =-0.1250-0.1250 0.1250 (   764 PWs)   bands (ev):

    -5.6192   4.4381   5.7472   5.7472

          k =-0.1250 0.3750 0.1250 (   766 PWs)   bands (ev):

    -5.0893   2.8200   4.7345   4.8013

          k = 0.1250-0.3750 0.3750 (   767 PWs)   bands (ev):

    -4.5883   1.4380   3.7535   5.2659

          k = 0.1250 0.1250 0.3750 (   766 PWs)   bands (ev):

    -5.0893   2.8200   4.7345   4.8013

          k = 0.3750-0.1250 0.3750 (   767 PWs)   bands (ev):

    -4.5883   1.4380   3.7535   5.2659

          k = 0.3750 0.3750 0.3750 (   763 PWs)   bands (ev):

    -4.1531   0.1409   4.9577   4.9577

          k = 0.3750 0.1250 0.3750 (   767 PWs)   bands (ev):

    -4.5883   1.4380   3.7535   5.2659

          k = 0.3750 0.6250 0.3750 (   760 PWs)   bands (ev):

    -3.4425  -0.6499   3.7765   4.4908

          k =-0.6250 0.3750-0.3750 (   760 PWs)   bands (ev):

    -3.4425  -0.6499   3.7765   4.4908

          k =-0.6250 0.8750-0.3750 (   766 PWs)   bands (ev):

    -3.6360   0.2289   2.7588   4.1327

          k =-0.3750 0.6250-0.3750 (   760 PWs)   bands (ev):

    -3.4425  -0.6499   3.7765   4.4908

          k =-0.3750 1.1250-0.3750 (   763 PWs)   bands (ev):

    -2.9450  -0.5602   2.1007   4.1723

          k =-0.3750-0.6250-0.3750 (   760 PWs)   bands (ev):

    -3.4425  -0.6499   3.7765   4.4908

          k =-0.3750-0.1250-0.3750 (   767 PWs)   bands (ev):

    -4.5883   1.4380   3.7535   5.2659

          k =-0.3750 0.1250-0.1250 (   766 PWs)   bands (ev):

    -5.0893   2.8200   4.7345   4.8013

          k =-0.3750 0.6250-0.1250 (   766 PWs)   bands (ev):

    -3.6360   0.2289   2.7588   4.1327

          k =-0.1250 0.3750-0.1250 (   766 PWs)   bands (ev):

    -5.0893   2.8200   4.7345   4.8013

          k =-0.1250 0.8750-0.1250 (   762 PWs)   bands (ev):

    -2.5756  -0.7618   2.6535   3.3886

          k =-0.1250-0.3750-0.1250 (   766 PWs)   bands (ev):

    -5.0893   2.8200   4.7345   4.8013

          k =-0.1250 0.1250-0.1250 (   764 PWs)   bands (ev):

    -5.6192   4.4381   5.7472   5.7472

          k =-0.1250-0.6250 0.1250 (   762 PWs)   bands (ev):

    -4.0537   1.1081   3.4024   3.8571

          k =-0.1250-0.1250 0.1250 (   764 PWs)   bands (ev):

    -5.6192   4.4381   5.7472   5.7472

          k = 0.6250-0.1250-0.1250 (   762 PWs)   bands (ev):

    -4.0537   1.1081   3.4024   3.8571

          k = 0.6250 0.3750-0.1250 (   766 PWs)   bands (ev):

    -3.6360   0.2289   2.7588   4.1327

          k = 0.6250 0.1250 0.1250 (   762 PWs)   bands (ev):

    -4.0537   1.1081   3.4024   3.8571

          k = 0.6250 0.6250 0.1250 (   763 PWs)   bands (ev):

    -2.9450  -0.5602   2.1007   4.1723

          k =-0.8750 0.1250-0.6250 (   754 PWs)   bands (ev):

    -2.4060  -0.8602   2.0404   3.1222

          k =-0.8750 0.6250-0.6250 (   767 PWs)   bands (ev):

    -4.5883   1.4380   3.7535   5.2659

          k =-0.1250 0.6250-0.8750 (   754 PWs)   bands (ev):

    -2.4060  -0.8602   2.0404   3.1222

          k =-0.1250 1.1250-0.8750 (   762 PWs)   bands (ev):

    -2.5756  -0.7618   2.6535   3.3886

          k =-0.1250 0.8750-0.6250 (   754 PWs)   bands (ev):

    -2.4060  -0.8602   2.0404   3.1222

          k =-0.1250 1.3750-0.6250 (   763 PWs)   bands (ev):

    -2.9450  -0.5602   2.1007   4.1723

          k =-0.1250-0.8750-0.6250 (   754 PWs)   bands (ev):

    -2.4060  -0.8602   2.0404   3.1222

          k =-0.1250-0.3750-0.6250 (   766 PWs)   bands (ev):

    -3.6360   0.2289   2.7588   4.1327

          k = 0.8750-0.6250 0.1250 (   754 PWs)   bands (ev):

    -2.4060  -0.8602   2.0404   3.1222

          k = 0.8750-0.1250 0.1250 (   762 PWs)   bands (ev):

    -2.5756  -0.7618   2.6535   3.3886

          k =-0.6250-0.1250-0.3750 (   766 PWs)   bands (ev):

    -3.6360   0.2289   2.7588   4.1327

          k =-0.6250 0.3750-0.3750 (   760 PWs)   bands (ev):

    -3.4425  -0.6499   3.7765   4.4908

          k = 0.1250 0.3750-0.6250 (   766 PWs)   bands (ev):

    -3.6360   0.2289   2.7588   4.1327

          k = 0.1250 0.8750-0.6250 (   754 PWs)   bands (ev):

    -2.4060  -0.8602   2.0404   3.1222

          k = 0.1250 0.6250-0.3750 (   766 PWs)   bands (ev):

    -3.6360   0.2289   2.7588   4.1327

          k = 0.1250 1.1250-0.3750 (   754 PWs)   bands (ev):

    -2.4060  -0.8602   2.0404   3.1222

          k = 0.1250-0.6250-0.3750 (   766 PWs)   bands (ev):

    -3.6360   0.2289   2.7588   4.1327

          k = 0.1250-0.1250-0.3750 (   766 PWs)   bands (ev):

    -5.0893   2.8200   4.7345   4.8013

          k = 0.6250-0.3750-0.1250 (   766 PWs)   bands (ev):

    -3.6360   0.2289   2.7588   4.1327

          k = 0.6250 0.1250-0.1250 (   762 PWs)   bands (ev):

    -4.0537   1.1081   3.4024   3.8571

          k =-0.1250 0.8750 0.1250 (   762 PWs)   bands (ev):

    -2.5756  -0.7618   2.6535   3.3886

          k =-0.1250 1.3750 0.1250 (   762 PWs)   bands (ev):

    -4.0537   1.1081   3.4024   3.8571

          k =-0.8750-0.1250-0.1250 (   762 PWs)   bands (ev):

    -2.5756  -0.7618   2.6535   3.3886

          k =-0.8750 0.3750-0.1250 (   754 PWs)   bands (ev):

    -2.4060  -0.8602   2.0404   3.1222

          k =-0.8750 0.1250 0.1250 (   762 PWs)   bands (ev):

    -2.5756  -0.7618   2.6535   3.3886

          k =-0.8750 0.6250 0.1250 (   754 PWs)   bands (ev):

    -2.4060  -0.8602   2.0404   3.1222

          k =-0.3750-0.3750 0.3750 (   763 PWs)   bands (ev):

    -4.1531   0.1409   4.9577   4.9577

          k =-0.3750 0.1250 0.3750 (   767 PWs)   bands (ev):

    -4.5883   1.4380   3.7535   5.2659

          k =-1.1250 0.3750-0.3750 (   763 PWs)   bands (ev):

    -2.9450  -0.5602   2.1007   4.1723

          k =-1.1250 0.8750-0.3750 (   762 PWs)   bands (ev):

    -4.0537   1.1081   3.4024   3.8571

          k =-0.3750 1.1250-0.3750 (   763 PWs)   bands (ev):

    -2.9450  -0.5602   2.1007   4.1723

          k =-0.3750 1.6250-0.3750 (   763 PWs)   bands (ev):

    -4.1531   0.1409   4.9577   4.9577

          k =-0.3750-1.1250-0.3750 (   763 PWs)   bands (ev):

    -2.9450  -0.5602   2.1007   4.1723

          k =-0.3750-0.6250-0.3750 (   760 PWs)   bands (ev):

    -3.4425  -0.6499   3.7765   4.4908

     highest occupied level (ev):     5.7472

     Writing output data file silicon.10.316.save

                                                                                

     bravais-lattice index     =            2
     lattice parameter (alat)  =      10.3160  a.u.
     unit-cell volume          =     274.4568 (a.u.)^3
     number of atoms/cell      =            2
     number of atomic types    =            1
     kinetic-energy cut-off    =      30.0000  Ry
     charge density cut-off    =     240.0000  Ry
     convergence threshold     =      1.0E-12
     beta                      =       0.7000
     number of iterations used =            4
     Exchange-correlation      = SLA  PW   PBE  PBE ( 1  4  3  4 0 0)


     celldm(1)=   10.31600  celldm(2)=    0.00000  celldm(3)=    0.00000
     celldm(4)=    0.00000  celldm(5)=    0.00000  celldm(6)=    0.00000

     crystal axes: (cart. coord. in units of alat)
               a(1) = ( -0.5000  0.0000  0.5000 )  
               a(2) = (  0.0000  0.5000  0.5000 )  
               a(3) = ( -0.5000  0.5000  0.0000 )  

     reciprocal axes: (cart. coord. in units 2 pi/alat)
               b(1) = ( -1.0000 -1.0000  1.0000 )  
               b(2) = (  1.0000  1.0000  1.0000 )  
               b(3) = ( -1.0000  1.0000 -1.0000 )  


     Atoms inside the unit cell: 

     Cartesian axes

     site n.  atom      mass           positions (alat units)
        1     Si  28.0860   tau(    1) = (    0.00000    0.00000    0.00000  )
        2     Si  28.0860   tau(    2) = (    0.25000    0.25000    0.25000  )

     Computing dynamical matrix for 
                    q = (   0.0000000   0.5000000   0.0000000 )

      8 Sym.Ops. (no q -> -q+G )


     G cutoff =  646.9551  (   4288 G-vectors)     FFT grid: ( 36, 36, 36)
     G cutoff =  323.4776  (   1520 G-vectors)  smooth grid: ( 25, 25, 25)
     number of k points=    80

     PseudoPot. # 1 for Si read from file:
     /home/s1333534/quantum_espresso/qe-6.1/pseudo/si_pbe_v1.uspp.F.UPF.txt
     MD5 check sum: a056efeee980c13900f22a371efd63c1
     Pseudo is Ultrasoft + core correction, Zval =  4.0
     Generated by new atomic code, or converted to UPF format
     Using radial grid of  899 points,  6 beta functions with: 
                l(1) =   0
                l(2) =   0
                l(3) =   1
                l(4) =   1
                l(5) =   2
                l(6) =   2
     Q(r) pseudized with  8 coefficients,  rinner =    0.900   0.900   0.900
                                                       0.900   0.900

     Mode symmetry, C_4v (4mm)  point group:


     Atomic displacements:
     There are   4 irreducible representations

     Representation     1      1 modes -A_1  G_1 D_1  To be done

     Representation     2      1 modes -B_2  G_4 D_2'  To be done

     Representation     3      2 modes -E    G_5 D_5  To be done

     Representation     4      2 modes -E    G_5 D_5  To be done



     Alpha used in Ewald sum =   2.5000
     PHONON       :    37.33s CPU        47.47s WALL



     Representation #  1 mode #   1

     Self-consistent Calculation

      iter #   1 total cpu time :    47.8 secs   av.it.:   6.2
      thresh= 1.000E-02 alpha_mix =  0.700 |ddv_scf|^2 =  5.151E-04

      iter #   2 total cpu time :    48.3 secs   av.it.:   9.2
      thresh= 2.270E-03 alpha_mix =  0.700 |ddv_scf|^2 =  6.821E-03

      iter #   3 total cpu time :    48.7 secs   av.it.:   7.3
      thresh= 8.259E-03 alpha_mix =  0.700 |ddv_scf|^2 =  1.030E-08

      iter #   4 total cpu time :    49.2 secs   av.it.:  10.1
      thresh= 1.015E-05 alpha_mix =  0.700 |ddv_scf|^2 =  1.010E-09

      iter #   5 total cpu time :    49.7 secs   av.it.:   9.7
      thresh= 3.178E-06 alpha_mix =  0.700 |ddv_scf|^2 =  1.153E-10

      iter #   6 total cpu time :    50.1 secs   av.it.:   9.3
      thresh= 1.074E-06 alpha_mix =  0.700 |ddv_scf|^2 =  3.212E-13

     End of self-consistent calculation

     Convergence has been achieved 


     Representation #  2 mode #   2

     Self-consistent Calculation

      iter #   1 total cpu time :    50.6 secs   av.it.:   5.1
      thresh= 1.000E-02 alpha_mix =  0.700 |ddv_scf|^2 =  8.121E-07

      iter #   2 total cpu time :    51.0 secs   av.it.:  10.4
      thresh= 9.012E-05 alpha_mix =  0.700 |ddv_scf|^2 =  2.210E-07

      iter #   3 total cpu time :    51.5 secs   av.it.:   9.9
      thresh= 4.701E-05 alpha_mix =  0.700 |ddv_scf|^2 =  2.247E-09

      iter #   4 total cpu time :    52.1 secs   av.it.:  10.1
      thresh= 4.740E-06 alpha_mix =  0.700 |ddv_scf|^2 =  8.732E-11

      iter #   5 total cpu time :    52.5 secs   av.it.:  10.3
      thresh= 9.345E-07 alpha_mix =  0.700 |ddv_scf|^2 =  5.211E-13

     End of self-consistent calculation

     Convergence has been achieved 


     Representation #  3 modes #   3  4

     Self-consistent Calculation

      iter #   1 total cpu time :    53.3 secs   av.it.:   5.2
      thresh= 1.000E-02 alpha_mix =  0.700 |ddv_scf|^2 =  1.440E-07

      iter #   2 total cpu time :    54.3 secs   av.it.:  11.5
      thresh= 3.795E-05 alpha_mix =  0.700 |ddv_scf|^2 =  1.985E-08

      iter #   3 total cpu time :    55.2 secs   av.it.:  11.1
      thresh= 1.409E-05 alpha_mix =  0.700 |ddv_scf|^2 =  3.343E-10

      iter #   4 total cpu time :    56.0 secs   av.it.:  10.7
      thresh= 1.828E-06 alpha_mix =  0.700 |ddv_scf|^2 =  7.821E-13

     End of self-consistent calculation

     Convergence has been achieved 


     Representation #  4 modes #   5  6

     Self-consistent Calculation

      iter #   1 total cpu time :    56.8 secs   av.it.:   5.3
      thresh= 1.000E-02 alpha_mix =  0.700 |ddv_scf|^2 =  1.320E-07

      iter #   2 total cpu time :    57.7 secs   av.it.:  11.4
      thresh= 3.634E-05 alpha_mix =  0.700 |ddv_scf|^2 =  1.771E-08

      iter #   3 total cpu time :    58.6 secs   av.it.:  11.2
      thresh= 1.331E-05 alpha_mix =  0.700 |ddv_scf|^2 =  3.424E-10

      iter #   4 total cpu time :    59.5 secs   av.it.:  11.0
      thresh= 1.850E-06 alpha_mix =  0.700 |ddv_scf|^2 =  8.425E-13

     End of self-consistent calculation

     Convergence has been achieved 

     Number of q in the star =    6
     List of q in the star:
          1   0.000000000   0.500000000   0.000000000
          2   0.000000000  -0.500000000   0.000000000
          3   0.500000000   0.000000000   0.000000000
          4   0.000000000   0.000000000   0.500000000
          5   0.000000000   0.000000000  -0.500000000
          6  -0.500000000   0.000000000   0.000000000

     Diagonalizing the dynamical matrix

     q = (    0.000000000   0.500000000   0.000000000 ) 

 **************************************************************************
     freq (    1) =       3.758474 [THz] =     125.369183 [cm-1]
     freq (    2) =       3.758474 [THz] =     125.369183 [cm-1]
     freq (    3) =       7.097366 [THz] =     236.742639 [cm-1]
     freq (    4) =      13.910954 [THz] =     464.019464 [cm-1]
     freq (    5) =      13.910954 [THz] =     464.019464 [cm-1]
     freq (    6) =      14.528357 [THz] =     484.613836 [cm-1]
 **************************************************************************

     Mode symmetry, C_4v (4mm)  point group:

     freq (  1 -  2) =        125.4  [cm-1]   --> E    G_5 D_5       
     freq (  3 -  3) =        236.7  [cm-1]   --> A_1  G_1 D_1       
     freq (  4 -  5) =        464.0  [cm-1]   --> E    G_5 D_5       
     freq (  6 -  6) =        484.6  [cm-1]   --> B_2  G_4 D_2'      

     Calculation of q =    0.7500000  -0.2500000   0.7500000

   Info: using nr1, nr2, nr3 values from input

   Info: using nr1, nr2, nr3 values from input

     Parallelization info
     --------------------
     sticks:   dense  smooth     PW     G-vecs:    dense   smooth      PW
     Min         217     109     40                 4288     1520     362
     Max         219     111     41                 4289     1521     366
     Sum         871     439    163                17153     6081    1459



     bravais-lattice index     =            2
     lattice parameter (alat)  =      10.3160  a.u.
     unit-cell volume          =     274.4568 (a.u.)^3
     number of atoms/cell      =            2
     number of atomic types    =            1
     number of electrons       =         8.00
     number of Kohn-Sham states=            4
     kinetic-energy cutoff     =      30.0000  Ry
     charge density cutoff     =     240.0000  Ry
     Exchange-correlation      = SLA  PW   PBE  PBE ( 1  4  3  4 0 0)

     celldm(1)=  10.316000  celldm(2)=   0.000000  celldm(3)=   0.000000
     celldm(4)=   0.000000  celldm(5)=   0.000000  celldm(6)=   0.000000

     crystal axes: (cart. coord. in units of alat)
               a(1) = (  -0.500000   0.000000   0.500000 )  
               a(2) = (   0.000000   0.500000   0.500000 )  
               a(3) = (  -0.500000   0.500000   0.000000 )  

     reciprocal axes: (cart. coord. in units 2 pi/alat)
               b(1) = ( -1.000000 -1.000000  1.000000 )  
               b(2) = (  1.000000  1.000000  1.000000 )  
               b(3) = ( -1.000000  1.000000 -1.000000 )  


     PseudoPot. # 1 for Si read from file:
     /home/s1333534/quantum_espresso/qe-6.1/pseudo/si_pbe_v1.uspp.F.UPF.txt
     MD5 check sum: a056efeee980c13900f22a371efd63c1
     Pseudo is Ultrasoft + core correction, Zval =  4.0
     Generated by new atomic code, or converted to UPF format
     Using radial grid of  899 points,  6 beta functions with: 
                l(1) =   0
                l(2) =   0
                l(3) =   1
                l(4) =   1
                l(5) =   2
                l(6) =   2
     Q(r) pseudized with  8 coefficients,  rinner =    0.900   0.900   0.900
                                                       0.900   0.900

     atomic species   valence    mass     pseudopotential
        Si             4.00    28.08600     Si( 1.00)

     48 Sym. Ops., with inversion, found



   Cartesian axes

     site n.     atom                  positions (alat units)
         1           Si  tau(   1) = (   0.0000000   0.0000000   0.0000000  )
         2           Si  tau(   2) = (   0.2500000   0.2500000   0.2500000  )

     number of k points=   288

     Number of k-points >= 100: set verbosity='high' to print them.

     Dense  grid:    17153 G-vectors     FFT dimensions: (  36,  36,  36)

     Smooth grid:     6081 G-vectors     FFT dimensions: (  25,  25,  25)

     Estimated max dynamical RAM per process >       1.51MB

     Estimated total allocated dynamical RAM >       6.06MB

     The potential is recalculated from file :
     ./_ph0/silicon.10.316.save/charge-density.dat

     Starting wfc are    8 atomic wfcs

     Band Structure Calculation
     Davidson diagonalization with overlap

     ethr =  1.25E-10,  avg # of iterations = 12.1

     total cpu time spent up to now is        6.6 secs

     End of band structure calculation

     Number of k-points >= 100: set verbosity='high' to print the bands.

     highest occupied level (ev):     5.7472

     Writing output data file silicon.10.316.save

                                                                                

     bravais-lattice index     =            2
     lattice parameter (alat)  =      10.3160  a.u.
     unit-cell volume          =     274.4568 (a.u.)^3
     number of atoms/cell      =            2
     number of atomic types    =            1
     kinetic-energy cut-off    =      30.0000  Ry
     charge density cut-off    =     240.0000  Ry
     convergence threshold     =      1.0E-12
     beta                      =       0.7000
     number of iterations used =            4
     Exchange-correlation      = SLA  PW   PBE  PBE ( 1  4  3  4 0 0)


     celldm(1)=   10.31600  celldm(2)=    0.00000  celldm(3)=    0.00000
     celldm(4)=    0.00000  celldm(5)=    0.00000  celldm(6)=    0.00000

     crystal axes: (cart. coord. in units of alat)
               a(1) = ( -0.5000  0.0000  0.5000 )  
               a(2) = (  0.0000  0.5000  0.5000 )  
               a(3) = ( -0.5000  0.5000  0.0000 )  

     reciprocal axes: (cart. coord. in units 2 pi/alat)
               b(1) = ( -1.0000 -1.0000  1.0000 )  
               b(2) = (  1.0000  1.0000  1.0000 )  
               b(3) = ( -1.0000  1.0000 -1.0000 )  


     Atoms inside the unit cell: 

     Cartesian axes

     site n.  atom      mass           positions (alat units)
        1     Si  28.0860   tau(    1) = (    0.00000    0.00000    0.00000  )
        2     Si  28.0860   tau(    2) = (    0.25000    0.25000    0.25000  )

     Computing dynamical matrix for 
                    q = (   0.7500000  -0.2500000   0.7500000 )

      2 Sym.Ops. (no q -> -q+G )


     G cutoff =  646.9551  (   4288 G-vectors)     FFT grid: ( 36, 36, 36)
     G cutoff =  323.4776  (   1520 G-vectors)  smooth grid: ( 25, 25, 25)
     number of k points=   288

     PseudoPot. # 1 for Si read from file:
     /home/s1333534/quantum_espresso/qe-6.1/pseudo/si_pbe_v1.uspp.F.UPF.txt
     MD5 check sum: a056efeee980c13900f22a371efd63c1
     Pseudo is Ultrasoft + core correction, Zval =  4.0
     Generated by new atomic code, or converted to UPF format
     Using radial grid of  899 points,  6 beta functions with: 
                l(1) =   0
                l(2) =   0
                l(3) =   1
                l(4) =   1
                l(5) =   2
                l(6) =   2
     Q(r) pseudized with  8 coefficients,  rinner =    0.900   0.900   0.900
                                                       0.900   0.900

     Mode symmetry, C_s (m)     point group:


     Atomic displacements:
     There are   6 irreducible representations

     Representation     1      1 modes -A'  To be done

     Representation     2      1 modes -A'  To be done

     Representation     3      1 modes -A'  To be done

     Representation     4      1 modes -A'  To be done

     Representation     5      1 modes -A''  To be done

     Representation     6      1 modes -A''  To be done



     Alpha used in Ewald sum =   2.5000
     PHONON       :  0m51.31s CPU     1m 5.13s WALL



     Representation #  1 mode #   1

     Self-consistent Calculation

      iter #   1 total cpu time :    66.0 secs   av.it.:   5.7
      thresh= 1.000E-02 alpha_mix =  0.700 |ddv_scf|^2 =  1.050E-05

      iter #   2 total cpu time :    67.3 secs   av.it.:  10.6
      thresh= 3.241E-04 alpha_mix =  0.700 |ddv_scf|^2 =  2.798E-05

      iter #   3 total cpu time :    68.5 secs   av.it.:   9.2
      thresh= 5.290E-04 alpha_mix =  0.700 |ddv_scf|^2 =  1.879E-07

      iter #   4 total cpu time :    69.8 secs   av.it.:   9.9
      thresh= 4.334E-05 alpha_mix =  0.700 |ddv_scf|^2 =  3.709E-09

      iter #   5 total cpu time :    71.2 secs   av.it.:  10.5
      thresh= 6.090E-06 alpha_mix =  0.700 |ddv_scf|^2 =  6.396E-10

      iter #   6 total cpu time :    72.5 secs   av.it.:  10.4
      thresh= 2.529E-06 alpha_mix =  0.700 |ddv_scf|^2 =  9.604E-12

      iter #   7 total cpu time :    73.8 secs   av.it.:  10.6
      thresh= 3.099E-07 alpha_mix =  0.700 |ddv_scf|^2 =  3.608E-13

     End of self-consistent calculation

     Convergence has been achieved 


     Representation #  2 mode #   2

     Self-consistent Calculation

      iter #   1 total cpu time :    74.8 secs   av.it.:   5.8
      thresh= 1.000E-02 alpha_mix =  0.700 |ddv_scf|^2 =  1.882E-05

      iter #   2 total cpu time :    76.1 secs   av.it.:  10.4
      thresh= 4.338E-04 alpha_mix =  0.700 |ddv_scf|^2 =  5.446E-05

      iter #   3 total cpu time :    77.3 secs   av.it.:   9.0
      thresh= 7.380E-04 alpha_mix =  0.700 |ddv_scf|^2 =  1.262E-07

      iter #   4 total cpu time :    78.6 secs   av.it.:  10.2
      thresh= 3.553E-05 alpha_mix =  0.700 |ddv_scf|^2 =  4.190E-09

      iter #   5 total cpu time :    79.9 secs   av.it.:  10.4
      thresh= 6.473E-06 alpha_mix =  0.700 |ddv_scf|^2 =  8.545E-10

      iter #   6 total cpu time :    81.1 secs   av.it.:  10.3
      thresh= 2.923E-06 alpha_mix =  0.700 |ddv_scf|^2 =  8.827E-12

      iter #   7 total cpu time :    82.4 secs   av.it.:  10.6
      thresh= 2.971E-07 alpha_mix =  0.700 |ddv_scf|^2 =  3.097E-13

     End of self-consistent calculation

     Convergence has been achieved 


     Representation #  3 mode #   3

     Self-consistent Calculation

      iter #   1 total cpu time :    83.5 secs   av.it.:   5.7
      thresh= 1.000E-02 alpha_mix =  0.700 |ddv_scf|^2 =  1.475E-05

      iter #   2 total cpu time :    84.8 secs   av.it.:  10.4
      thresh= 3.840E-04 alpha_mix =  0.700 |ddv_scf|^2 =  4.010E-05

      iter #   3 total cpu time :    86.0 secs   av.it.:   9.0
      thresh= 6.332E-04 alpha_mix =  0.700 |ddv_scf|^2 =  2.204E-07

      iter #   4 total cpu time :    87.2 secs   av.it.:  10.0
      thresh= 4.695E-05 alpha_mix =  0.700 |ddv_scf|^2 =  4.271E-09

      iter #   5 total cpu time :    88.5 secs   av.it.:  10.5
      thresh= 6.535E-06 alpha_mix =  0.700 |ddv_scf|^2 =  8.337E-10

      iter #   6 total cpu time :    89.9 secs   av.it.:  10.3
      thresh= 2.887E-06 alpha_mix =  0.700 |ddv_scf|^2 =  6.165E-12

      iter #   7 total cpu time :    91.2 secs   av.it.:  10.5
      thresh= 2.483E-07 alpha_mix =  0.700 |ddv_scf|^2 =  1.795E-13

     End of self-consistent calculation

     Convergence has been achieved 


     Representation #  4 mode #   4

     Self-consistent Calculation

      iter #   1 total cpu time :    92.4 secs   av.it.:   5.5
      thresh= 1.000E-02 alpha_mix =  0.700 |ddv_scf|^2 =  6.426E-06

      iter #   2 total cpu time :    93.7 secs   av.it.:  10.7
      thresh= 2.535E-04 alpha_mix =  0.700 |ddv_scf|^2 =  1.359E-05

      iter #   3 total cpu time :    94.9 secs   av.it.:   9.4
      thresh= 3.687E-04 alpha_mix =  0.700 |ddv_scf|^2 =  2.944E-07

      iter #   4 total cpu time :    96.3 secs   av.it.:   9.8
      thresh= 5.426E-05 alpha_mix =  0.700 |ddv_scf|^2 =  3.659E-09

      iter #   5 total cpu time :    97.6 secs   av.it.:  10.5
      thresh= 6.049E-06 alpha_mix =  0.700 |ddv_scf|^2 =  6.849E-10

      iter #   6 total cpu time :    98.9 secs   av.it.:  10.4
      thresh= 2.617E-06 alpha_mix =  0.700 |ddv_scf|^2 =  4.053E-12

      iter #   7 total cpu time :   100.4 secs   av.it.:  10.6
      thresh= 2.013E-07 alpha_mix =  0.700 |ddv_scf|^2 =  1.833E-13

     End of self-consistent calculation

     Convergence has been achieved 


     Representation #  5 mode #   5

     Self-consistent Calculation

      iter #   1 total cpu time :   101.4 secs   av.it.:   5.2
      thresh= 1.000E-02 alpha_mix =  0.700 |ddv_scf|^2 =  6.658E-07

      iter #   2 total cpu time :   102.7 secs   av.it.:  10.4
      thresh= 8.160E-05 alpha_mix =  0.700 |ddv_scf|^2 =  1.086E-07

      iter #   3 total cpu time :   103.9 secs   av.it.:  10.1
      thresh= 3.295E-05 alpha_mix =  0.700 |ddv_scf|^2 =  1.449E-09

      iter #   4 total cpu time :   105.2 secs   av.it.:   9.6
      thresh= 3.806E-06 alpha_mix =  0.700 |ddv_scf|^2 =  3.381E-12

      iter #   5 total cpu time :   106.4 secs   av.it.:  10.0
      thresh= 1.839E-07 alpha_mix =  0.700 |ddv_scf|^2 =  9.466E-14

     End of self-consistent calculation

     Convergence has been achieved 


     Representation #  6 mode #   6

     Self-consistent Calculation

      iter #   1 total cpu time :   107.4 secs   av.it.:   5.2
      thresh= 1.000E-02 alpha_mix =  0.700 |ddv_scf|^2 =  6.658E-07

      iter #   2 total cpu time :   108.7 secs   av.it.:  10.4
[...]
        k(   59) = (  -0.8750000   0.1250000  -0.1250000), wk =   0.0625000
        k(   60) = (  -1.3750000  -0.8750000  -0.1250000), wk =   0.0000000
        k(   61) = (  -1.1250000   0.3750000  -0.3750000), wk =   0.0625000
        k(   62) = (  -1.6250000  -0.6250000  -0.3750000), wk =   0.0000000
        k(   63) = (  -0.3750000   0.3750000   1.1250000), wk =   0.0625000
        k(   64) = (  -0.8750000  -0.6250000   1.1250000), wk =   0.0000000

     Dense  grid:    17153 G-vectors     FFT dimensions: (  36,  36,  36)

     Smooth grid:     6081 G-vectors     FFT dimensions: (  25,  25,  25)

     Estimated max dynamical RAM per process >       1.51MB

     Estimated total allocated dynamical RAM >       6.06MB

     The potential is recalculated from file :
     ./_ph0/silicon.10.316.save/charge-density.dat

     Starting wfc are    8 atomic wfcs

     Band Structure Calculation
     Davidson diagonalization with overlap

     ethr =  1.25E-10,  avg # of iterations = 12.1

     total cpu time spent up to now is       10.6 secs

     End of band structure calculation

          k =-0.1250 0.1250 0.1250 (   764 PWs)   bands (ev):

    -5.6192   4.4381   5.7472   5.7472

          k =-0.6250-0.8750 0.1250 (   754 PWs)   bands (ev):

    -2.4060  -0.8602   2.0404   3.1222

          k =-0.3750 0.3750-0.1250 (   767 PWs)   bands (ev):

    -4.5883   1.4380   3.7535   5.2659

          k =-0.8750-0.6250-0.1250 (   754 PWs)   bands (ev):

    -2.4060  -0.8602   2.0404   3.1222

          k = 0.3750-0.3750 0.6250 (   760 PWs)   bands (ev):

    -3.4425  -0.6499   3.7765   4.4908

          k =-0.1250-1.3750 0.6250 (   763 PWs)   bands (ev):

    -2.9450  -0.5602   2.1007   4.1723

          k = 0.1250-0.1250 0.3750 (   766 PWs)   bands (ev):

    -5.0893   2.8200   4.7345   4.8013

          k =-0.3750-1.1250 0.3750 (   763 PWs)   bands (ev):

    -2.9450  -0.5602   2.1007   4.1723

          k =-0.1250 0.6250 0.1250 (   762 PWs)   bands (ev):

    -4.0537   1.1081   3.4024   3.8571

          k =-0.6250-0.3750 0.1250 (   766 PWs)   bands (ev):

    -3.6360   0.2289   2.7588   4.1327

          k = 0.6250-0.1250 0.8750 (   754 PWs)   bands (ev):

    -2.4060  -0.8602   2.0404   3.1222

          k = 0.1250-1.1250 0.8750 (   762 PWs)   bands (ev):

    -2.5756  -0.7618   2.6535   3.3886

          k = 0.3750 0.1250 0.6250 (   766 PWs)   bands (ev):

    -3.6360   0.2289   2.7588   4.1327

          k =-0.1250-0.8750 0.6250 (   754 PWs)   bands (ev):

    -2.4060  -0.8602   2.0404   3.1222

          k =-0.1250-0.8750 0.1250 (   762 PWs)   bands (ev):

    -2.5756  -0.7618   2.6535   3.3886

          k =-0.6250-1.8750 0.1250 (   762 PWs)   bands (ev):

    -4.0537   1.1081   3.4024   3.8571

          k =-0.3750 0.3750 0.3750 (   763 PWs)   bands (ev):

    -4.1531   0.1409   4.9577   4.9577

          k =-0.8750-0.6250 0.3750 (   766 PWs)   bands (ev):

    -3.6360   0.2289   2.7588   4.1327

          k = 0.3750-0.3750 1.1250 (   763 PWs)   bands (ev):

    -2.9450  -0.5602   2.1007   4.1723

          k =-0.1250-1.3750 1.1250 (   754 PWs)   bands (ev):

    -2.4060  -0.8602   2.0404   3.1222

          k = 0.1250-0.3750 0.3750 (   767 PWs)   bands (ev):

    -4.5883   1.4380   3.7535   5.2659

          k =-0.3750-1.3750 0.3750 (   760 PWs)   bands (ev):

    -3.4425  -0.6499   3.7765   4.4908

          k = 0.3750-0.3750-0.1250 (   767 PWs)   bands (ev):

    -4.5883   1.4380   3.7535   5.2659

          k =-0.1250-1.3750-0.1250 (   762 PWs)   bands (ev):

    -4.0537   1.1081   3.4024   3.8571

          k =-0.6250 0.3750-0.3750 (   760 PWs)   bands (ev):

    -3.4425  -0.6499   3.7765   4.4908

          k =-1.1250-0.6250-0.3750 (   766 PWs)   bands (ev):

    -3.6360   0.2289   2.7588   4.1327

          k =-0.3750 0.3750 0.6250 (   760 PWs)   bands (ev):

    -3.4425  -0.6499   3.7765   4.4908

          k =-0.8750-0.6250 0.6250 (   767 PWs)   bands (ev):

    -4.5883   1.4380   3.7535   5.2659

          k =-0.3750 0.1250-0.1250 (   766 PWs)   bands (ev):

    -5.0893   2.8200   4.7345   4.8013

          k =-0.8750-0.8750-0.1250 (   762 PWs)   bands (ev):

    -2.5756  -0.7618   2.6535   3.3886

          k =-0.1250 0.1250 0.3750 (   766 PWs)   bands (ev):

    -5.0893   2.8200   4.7345   4.8013

          k =-0.6250-0.8750 0.3750 (   766 PWs)   bands (ev):

    -3.6360   0.2289   2.7588   4.1327

          k = 0.1250 0.6250-0.1250 (   762 PWs)   bands (ev):

    -4.0537   1.1081   3.4024   3.8571

          k =-0.3750-0.3750-0.1250 (   767 PWs)   bands (ev):

    -4.5883   1.4380   3.7535   5.2659

          k = 0.6250 0.1250-0.1250 (   762 PWs)   bands (ev):

    -4.0537   1.1081   3.4024   3.8571

          k = 0.1250-0.8750-0.1250 (   762 PWs)   bands (ev):

    -2.5756  -0.7618   2.6535   3.3886

          k =-0.8750 0.1250-0.6250 (   754 PWs)   bands (ev):

    -2.4060  -0.8602   2.0404   3.1222

          k =-1.3750-0.8750-0.6250 (   767 PWs)   bands (ev):

    -4.5883   1.4380   3.7535   5.2659

          k = 0.8750-0.1250 0.6250 (   754 PWs)   bands (ev):

    -2.4060  -0.8602   2.0404   3.1222

          k = 0.3750-1.1250 0.6250 (   766 PWs)   bands (ev):

    -3.6360   0.2289   2.7588   4.1327

          k =-0.6250 0.1250 0.8750 (   754 PWs)   bands (ev):

    -2.4060  -0.8602   2.0404   3.1222

          k =-1.1250-0.8750 0.8750 (   764 PWs)   bands (ev):

    -5.6192   4.4381   5.7472   5.7472

          k =-0.1250 0.8750 0.6250 (   754 PWs)   bands (ev):

    -2.4060  -0.8602   2.0404   3.1222

          k =-0.6250-0.1250 0.6250 (   763 PWs)   bands (ev):

    -2.9450  -0.5602   2.1007   4.1723

          k = 0.1250 0.8750-0.6250 (   754 PWs)   bands (ev):

    -2.4060  -0.8602   2.0404   3.1222

          k =-0.3750-0.1250-0.6250 (   766 PWs)   bands (ev):

    -3.6360   0.2289   2.7588   4.1327

          k =-0.6250-0.1250-0.3750 (   766 PWs)   bands (ev):

    -3.6360   0.2289   2.7588   4.1327

          k =-1.1250-1.1250-0.3750 (   762 PWs)   bands (ev):

    -4.0537   1.1081   3.4024   3.8571

          k = 0.6250 0.1250 0.3750 (   766 PWs)   bands (ev):

    -3.6360   0.2289   2.7588   4.1327

          k = 0.1250-0.8750 0.3750 (   754 PWs)   bands (ev):

    -2.4060  -0.8602   2.0404   3.1222

          k =-0.3750-0.1250 0.6250 (   766 PWs)   bands (ev):

    -3.6360   0.2289   2.7588   4.1327

          k =-0.8750-1.1250 0.6250 (   766 PWs)   bands (ev):

    -5.0893   2.8200   4.7345   4.8013

          k = 0.1250 0.6250 0.3750 (   766 PWs)   bands (ev):

    -3.6360   0.2289   2.7588   4.1327

          k =-0.3750-0.3750 0.3750 (   763 PWs)   bands (ev):

    -4.1531   0.1409   4.9577   4.9577

          k =-0.1250 0.6250-0.3750 (   766 PWs)   bands (ev):

    -3.6360   0.2289   2.7588   4.1327

          k =-0.6250-0.3750-0.3750 (   760 PWs)   bands (ev):

    -3.4425  -0.6499   3.7765   4.4908

          k = 0.1250-0.8750-0.1250 (   762 PWs)   bands (ev):

    -2.5756  -0.7618   2.6535   3.3886

          k =-0.3750-1.8750-0.1250 (   766 PWs)   bands (ev):

    -5.0893   2.8200   4.7345   4.8013

          k =-0.8750 0.1250-0.1250 (   762 PWs)   bands (ev):

    -2.5756  -0.7618   2.6535   3.3886

          k =-1.3750-0.8750-0.1250 (   754 PWs)   bands (ev):

    -2.4060  -0.8602   2.0404   3.1222

          k =-1.1250 0.3750-0.3750 (   763 PWs)   bands (ev):

    -2.9450  -0.5602   2.1007   4.1723

          k =-1.6250-0.6250-0.3750 (   760 PWs)   bands (ev):

    -3.4425  -0.6499   3.7765   4.4908

          k =-0.3750 0.3750 1.1250 (   763 PWs)   bands (ev):

    -2.9450  -0.5602   2.1007   4.1723

          k =-0.8750-0.6250 1.1250 (   766 PWs)   bands (ev):

    -5.0893   2.8200   4.7345   4.8013

     highest occupied level (ev):     5.7472

     Writing output data file silicon.10.316.save

                                                                                

     bravais-lattice index     =            2
     lattice parameter (alat)  =      10.3160  a.u.
     unit-cell volume          =     274.4568 (a.u.)^3
     number of atoms/cell      =            2
     number of atomic types    =            1
     kinetic-energy cut-off    =      30.0000  Ry
     charge density cut-off    =     240.0000  Ry
     convergence threshold     =      1.0E-12
     beta                      =       0.7000
     number of iterations used =            4
     Exchange-correlation      = SLA  PW   PBE  PBE ( 1  4  3  4 0 0)


     celldm(1)=   10.31600  celldm(2)=    0.00000  celldm(3)=    0.00000
     celldm(4)=    0.00000  celldm(5)=    0.00000  celldm(6)=    0.00000

     crystal axes: (cart. coord. in units of alat)
               a(1) = ( -0.5000  0.0000  0.5000 )  
               a(2) = (  0.0000  0.5000  0.5000 )  
               a(3) = ( -0.5000  0.5000  0.0000 )  

     reciprocal axes: (cart. coord. in units 2 pi/alat)
               b(1) = ( -1.0000 -1.0000  1.0000 )  
               b(2) = (  1.0000  1.0000  1.0000 )  
               b(3) = ( -1.0000  1.0000 -1.0000 )  


     Atoms inside the unit cell: 

     Cartesian axes

     site n.  atom      mass           positions (alat units)
        1     Si  28.0860   tau(    1) = (    0.00000    0.00000    0.00000  )
        2     Si  28.0860   tau(    2) = (    0.25000    0.25000    0.25000  )

     Computing dynamical matrix for 
                    q = (  -0.5000000  -1.0000000   0.0000000 )

      8 Sym.Ops. (no q -> -q+G )


     G cutoff =  646.9551  (   4288 G-vectors)     FFT grid: ( 36, 36, 36)
     G cutoff =  323.4776  (   1520 G-vectors)  smooth grid: ( 25, 25, 25)
     number of k points=    64

     PseudoPot. # 1 for Si read from file:
     /home/s1333534/quantum_espresso/qe-6.1/pseudo/si_pbe_v1.uspp.F.UPF.txt
     MD5 check sum: a056efeee980c13900f22a371efd63c1
     Pseudo is Ultrasoft + core correction, Zval =  4.0
     Generated by new atomic code, or converted to UPF format
     Using radial grid of  899 points,  6 beta functions with: 
                l(1) =   0
                l(2) =   0
                l(3) =   1
                l(4) =   1
                l(5) =   2
                l(6) =   2
     Q(r) pseudized with  8 coefficients,  rinner =    0.900   0.900   0.900
                                                       0.900   0.900


     Atomic displacements:
     There are   3 irreducible representations

     Representation     1      2 modes -  To be done

     Representation     2      2 modes -  To be done

     Representation     3      2 modes -  To be done



     Alpha used in Ewald sum =   2.5000
     PHONON       :  2m 3.71s CPU     2m33.75s WALL



     Representation #  1 modes #   1  2

     Self-consistent Calculation

      iter #   1 total cpu time :   154.5 secs   av.it.:   5.7
      thresh= 1.000E-02 alpha_mix =  0.700 |ddv_scf|^2 =  1.087E-06

      iter #   2 total cpu time :   155.3 secs   av.it.:  11.6
      thresh= 1.043E-04 alpha_mix =  0.700 |ddv_scf|^2 =  6.156E-07

      iter #   3 total cpu time :   156.2 secs   av.it.:  11.0
      thresh= 7.846E-05 alpha_mix =  0.700 |ddv_scf|^2 =  5.906E-10

      iter #   4 total cpu time :   157.0 secs   av.it.:  11.0
      thresh= 2.430E-06 alpha_mix =  0.700 |ddv_scf|^2 =  2.618E-12

      iter #   5 total cpu time :   157.7 secs   av.it.:  11.1
      thresh= 1.618E-07 alpha_mix =  0.700 |ddv_scf|^2 =  6.952E-14

     End of self-consistent calculation

     Convergence has been achieved 


     Representation #  2 modes #   3  4

     Self-consistent Calculation

      iter #   1 total cpu time :   158.4 secs   av.it.:   5.6
      thresh= 1.000E-02 alpha_mix =  0.700 |ddv_scf|^2 =  1.684E-06

      iter #   2 total cpu time :   159.2 secs   av.it.:  11.6
      thresh= 1.298E-04 alpha_mix =  0.700 |ddv_scf|^2 =  2.273E-06

      iter #   3 total cpu time :   160.0 secs   av.it.:  10.9
      thresh= 1.507E-04 alpha_mix =  0.700 |ddv_scf|^2 =  6.976E-10

      iter #   4 total cpu time :   160.8 secs   av.it.:  11.0
      thresh= 2.641E-06 alpha_mix =  0.700 |ddv_scf|^2 =  1.052E-11

      iter #   5 total cpu time :   161.6 secs   av.it.:  11.1
      thresh= 3.244E-07 alpha_mix =  0.700 |ddv_scf|^2 =  1.775E-13

     End of self-consistent calculation

     Convergence has been achieved 


     Representation #  3 modes #   5  6

     Self-consistent Calculation

      iter #   1 total cpu time :   162.3 secs   av.it.:   5.3
      thresh= 1.000E-02 alpha_mix =  0.700 |ddv_scf|^2 =  4.416E-07

      iter #   2 total cpu time :   163.1 secs   av.it.:  11.6
      thresh= 6.645E-05 alpha_mix =  0.700 |ddv_scf|^2 =  2.582E-07

      iter #   3 total cpu time :   163.9 secs   av.it.:  11.0
      thresh= 5.081E-05 alpha_mix =  0.700 |ddv_scf|^2 =  5.133E-10

      iter #   4 total cpu time :   164.7 secs   av.it.:  11.0
      thresh= 2.266E-06 alpha_mix =  0.700 |ddv_scf|^2 =  6.048E-12

      iter #   5 total cpu time :   165.5 secs   av.it.:  11.1
      thresh= 2.459E-07 alpha_mix =  0.700 |ddv_scf|^2 =  8.355E-14

     End of self-consistent calculation

     Convergence has been achieved 

     Number of q in the star =    6
     List of q in the star:
          1  -0.500000000  -1.000000000   0.000000000
          2   0.000000000   1.000000000   0.500000000
          3   0.000000000  -1.000000000  -0.500000000
          4   0.500000000   1.000000000   0.000000000
          5  -1.000000000  -0.500000000   0.000000000
          6   0.000000000  -0.500000000  -1.000000000

     Diagonalizing the dynamical matrix

     q = (   -0.500000000  -1.000000000   0.000000000 ) 

 **************************************************************************
     freq (    1) =       6.005884 [THz] =     200.334742 [cm-1]
     freq (    2) =       6.005884 [THz] =     200.334742 [cm-1]
     freq (    3) =      10.386124 [THz] =     346.443793 [cm-1]
     freq (    4) =      10.386124 [THz] =     346.443793 [cm-1]
     freq (    5) =      13.658880 [THz] =     455.611200 [cm-1]
     freq (    6) =      13.658880 [THz] =     455.611200 [cm-1]
 **************************************************************************

     init_run     :      1.25s CPU      1.30s WALL (       7 calls)
     electrons    :      7.12s CPU      7.75s WALL (       7 calls)

     Called by init_run:
     wfcinit      :      0.00s CPU      0.03s WALL (       7 calls)
     potinit      :      0.07s CPU      0.09s WALL (       7 calls)

     Called by electrons:
     c_bands      :      7.12s CPU      7.74s WALL (       7 calls)
     v_of_rho     :      0.06s CPU      0.07s WALL (       8 calls)
     newd         :      0.13s CPU      0.13s WALL (       8 calls)

     Called by c_bands:
     init_us_2    :      1.66s CPU      1.59s WALL (   16184 calls)
     cegterg      :      5.96s CPU      6.47s WALL (     796 calls)

     Called by sum_band:

     Called by *egterg:
     h_psi        :     69.10s CPU     74.13s WALL (  155983 calls)
     s_psi        :      5.84s CPU      7.01s WALL (  314512 calls)
     g_psi        :      0.05s CPU      0.07s WALL (    9666 calls)
     cdiaghg      :      0.55s CPU      0.55s WALL (   10462 calls)

     Called by h_psi:
     h_psi:pot    :     68.70s CPU     73.62s WALL (  155983 calls)
     h_psi:calbec :      3.51s CPU      3.99s WALL (  155983 calls)
     vloc_psi     :     60.59s CPU     65.46s WALL (  155983 calls)
     add_vuspsi   :      4.29s CPU      3.69s WALL (  155983 calls)

     General routines
     calbec       :      8.17s CPU      8.56s WALL (  349108 calls)
     fft          :      1.36s CPU      1.43s WALL (    5297 calls)
     ffts         :      0.21s CPU      0.22s WALL (    3324 calls)
     fftw         :     63.91s CPU     68.08s WALL ( 1397288 calls)
     interpolate  :      0.20s CPU      0.22s WALL (     576 calls)
     davcio       :      0.32s CPU      0.83s WALL (   70622 calls)

     Parallel routines
     fft_scatter  :     16.23s CPU     19.47s WALL ( 1405909 calls)

     PHONON       :  2m12.90s CPU     2m46.01s WALL

     INITIALIZATION: 
     phq_setup    :      0.22s CPU      0.58s WALL (       8 calls)
     phq_init     :      6.86s CPU      7.11s WALL (       8 calls)

     phq_init     :      6.86s CPU      7.11s WALL (       8 calls)
     set_drhoc    :      1.82s CPU      1.82s WALL (      24 calls)
     init_vloc    :      0.03s CPU      0.03s WALL (       8 calls)
     init_us_1    :      0.97s CPU      0.98s WALL (       8 calls)
     newd         :      0.13s CPU      0.13s WALL (       8 calls)
     dvanqq       :      1.18s CPU      1.18s WALL (       8 calls)
     drho         :      2.61s CPU      2.68s WALL (       8 calls)

     DYNAMICAL MATRIX:
     dynmat0      :      1.72s CPU      1.84s WALL (       8 calls)
     phqscf       :    112.56s CPU    139.94s WALL (       8 calls)
     dynmatrix    :      0.01s CPU      0.23s WALL (       8 calls)

     phqscf       :    112.56s CPU    139.94s WALL (       8 calls)
     solve_linter :    111.67s CPU    137.41s WALL (      32 calls)
     drhodv       :      0.60s CPU      0.62s WALL (      32 calls)

     dynmat0      :      1.72s CPU      1.84s WALL (       8 calls)
     dynmat_us    :      0.38s CPU      0.38s WALL (       8 calls)
     d2ionq       :      0.04s CPU      0.04s WALL (       8 calls)
     dynmatcc     :      1.28s CPU      1.28s WALL (       8 calls)

     dynmat_us    :      0.38s CPU      0.38s WALL (       8 calls)
     addusdynmat  :      0.00s CPU      0.00s WALL (       8 calls)

     phqscf       :    112.56s CPU    139.94s WALL (       8 calls)
     solve_linter :    111.67s CPU    137.41s WALL (      32 calls)

     solve_linter :    111.67s CPU    137.41s WALL (      32 calls)
     dvqpsi_us    :      2.12s CPU      2.28s WALL (    2508 calls)
     ortho        :      0.94s CPU      1.06s WALL (   13774 calls)
     cgsolve      :     76.94s CPU     83.64s WALL (   13774 calls)
     incdrhoscf   :      6.35s CPU      6.94s WALL (   13774 calls)
     addusddens   :      7.13s CPU      7.19s WALL (     204 calls)
     vpsifft      :      4.48s CPU      4.91s WALL (   11146 calls)
     dv_of_drho   :      1.26s CPU      1.32s WALL (     258 calls)
     mix_pot      :      0.32s CPU      9.03s WALL (     177 calls)
     psymdvscf    :      4.09s CPU      4.16s WALL (     172 calls)
     newdq        :      7.83s CPU      7.86s WALL (     177 calls)
     adddvscf     :      0.48s CPU      0.45s WALL (   11266 calls)
     drhodvus     :      0.01s CPU      0.02s WALL (      32 calls)

     dvqpsi_us    :      2.12s CPU      2.28s WALL (    2508 calls)
     dvqpsi_us_on :      0.91s CPU      0.95s WALL (    2508 calls)

     cgsolve      :     76.94s CPU     83.64s WALL (   13774 calls)
     ch_psi       :     75.75s CPU     81.82s WALL (  144725 calls)

     ch_psi       :     75.75s CPU     81.82s WALL (  144725 calls)
     h_psi        :     69.10s CPU     74.13s WALL (  155983 calls)
     last         :      9.08s CPU      9.23s WALL (  144725 calls)

     h_psi        :     69.10s CPU     74.13s WALL (  155983 calls)
     add_vuspsi   :      4.29s CPU      3.69s WALL (  155983 calls)

     incdrhoscf   :      6.35s CPU      6.94s WALL (   13774 calls)
     addusdbec    :      0.49s CPU      0.53s WALL (   16222 calls)

     drhodvus     :      0.01s CPU      0.02s WALL (      32 calls)

      General routines
     calbec       :      8.17s CPU      8.56s WALL (  349108 calls)
     fft          :      1.36s CPU      1.43s WALL (    5297 calls)
     ffts         :      0.21s CPU      0.22s WALL (    3324 calls)
     fftw         :     63.91s CPU     68.08s WALL ( 1397288 calls)
     davcio       :      0.32s CPU      0.83s WALL (   70622 calls)
     write_rec    :      0.22s CPU     10.65s WALL (     209 calls)


     PHONON       :  2m12.90s CPU     2m46.01s WALL


   This run was terminated on:  15:38:52  10Nov2017            

=------------------------------------------------------------------------------=
   JOB DONE.
=------------------------------------------------------------------------------=
