
     Program PHONON v.6.1 (svn rev. 13369) starts on  9Nov2017 at 13: 6:10 

     This program is part of the open-source Quantum ESPRESSO suite
     for quantum simulation of materials; please cite
         "P. Giannozzi et al., J. Phys.:Condens. Matter 21 395502 (2009);
          URL http://www.quantum-espresso.org", 
     in publications or presentations arising from this work. More details at
     http://www.quantum-espresso.org/quote

     Parallel version (MPI), running on     4 processors
     R & G space division:  proc/nbgrp/npool/nimage =       4

     Reading data from directory:
     ./silicon.10.356.save

   Info: using nr1, nr2, nr3 values from input

   Info: using nr1, nr2, nr3 values from input

     IMPORTANT: XC functional enforced from input :
     Exchange-correlation      = SLA  PW   PBE  PBE ( 1  4  3  4 0 0)
     Any further DFT definition will be discarded
     Please, verify this is what you really want


     Parallelization info
     --------------------
     sticks:   dense  smooth     PW     G-vecs:    dense   smooth      PW
     Min          64      64     22                  709      709     140
     Max          67      67     23                  710      710     141
     Sum         265     265     91                 2837     2837     561


     Check: negative/imaginary core charge=   -0.000006    0.000000


     Dynamical matrices for ( 4, 4, 4)  uniform grid of q-points
     (   8q-points):
       N         xq(1)         xq(2)         xq(3) 
       1   0.000000000   0.000000000   0.000000000
       2  -0.250000000   0.250000000  -0.250000000
       3   0.500000000  -0.500000000   0.500000000
       4   0.000000000   0.500000000   0.000000000
       5   0.750000000  -0.250000000   0.750000000
       6   0.500000000   0.000000000   0.500000000
       7   0.000000000  -1.000000000   0.000000000
       8  -0.500000000  -1.000000000   0.000000000

     Calculation of q =    0.0000000   0.0000000   0.0000000

                                                                                

     bravais-lattice index     =            2
     lattice parameter (alat)  =      10.3560  a.u.
     unit-cell volume          =     277.6618 (a.u.)^3
     number of atoms/cell      =            2
     number of atomic types    =            1
     kinetic-energy cut-off    =      18.0000  Ry
     charge density cut-off    =      72.0000  Ry
     convergence threshold     =      1.0E-12
     beta                      =       0.7000
     number of iterations used =            4
     Exchange-correlation      = SLA  PW   PBE  PBE ( 1  4  3  4 0 0)


     celldm(1)=   10.35600  celldm(2)=    0.00000  celldm(3)=    0.00000
     celldm(4)=    0.00000  celldm(5)=    0.00000  celldm(6)=    0.00000

     crystal axes: (cart. coord. in units of alat)
               a(1) = ( -0.5000  0.0000  0.5000 )  
               a(2) = (  0.0000  0.5000  0.5000 )  
               a(3) = ( -0.5000  0.5000  0.0000 )  

     reciprocal axes: (cart. coord. in units 2 pi/alat)
               b(1) = ( -1.0000 -1.0000  1.0000 )  
               b(2) = (  1.0000  1.0000  1.0000 )  
               b(3) = ( -1.0000  1.0000 -1.0000 )  


     Atoms inside the unit cell: 

     Cartesian axes

     site n.  atom      mass           positions (alat units)
        1     Si  28.0860   tau(    1) = (    0.00000    0.00000    0.00000  )
        2     Si  28.0860   tau(    2) = (    0.25000    0.25000    0.25000  )

     Computing dynamical matrix for 
                    q = (   0.0000000   0.0000000   0.0000000 )

     49 Sym.Ops. (with q -> -q+G )


     G cutoff =  195.5946  (    710 G-vectors)     FFT grid: ( 20, 20, 20)
     number of k points=    10

     PseudoPot. # 1 for Si read from file:
     /home/max/quantum_espresso/qe-6.1/pseudo/si_pbe_v1.uspp.F.UPF.txt
     MD5 check sum: a056efeee980c13900f22a371efd63c1
     Pseudo is Ultrasoft + core correction, Zval =  4.0
     Generated by new atomic code, or converted to UPF format
     Using radial grid of  899 points,  6 beta functions with: 
                l(1) =   0
                l(2) =   0
                l(3) =   1
                l(4) =   1
                l(5) =   2
                l(6) =   2
     Q(r) pseudized with  8 coefficients,  rinner =    0.900   0.900   0.900
                                                       0.900   0.900

     Mode symmetry, O_h (m-3m)  point group:


     Electric field:
     Dielectric constant
     Born effective charges in two ways 


     Atomic displacements:
     There are   2 irreducible representations

     Representation     1      3 modes -T_2g G_25' G_5+  To be done

     Representation     2      3 modes -T_1u G_15  G_4-  To be done



     Alpha used in Ewald sum =   0.7000
     PHONON       :     0.42s CPU         0.43s WALL


     Electric Fields Calculation

      iter #   1 total cpu time :     0.8 secs   av.it.:   5.6
      thresh= 1.000E-02 alpha_mix =  0.700 |ddv_scf|^2 =  9.399E-07

      iter #   2 total cpu time :     1.0 secs   av.it.:   9.9
      thresh= 9.695E-05 alpha_mix =  0.700 |ddv_scf|^2 =  6.016E-08

      iter #   3 total cpu time :     1.2 secs   av.it.:   9.8
      thresh= 2.453E-05 alpha_mix =  0.700 |ddv_scf|^2 =  4.742E-09

      iter #   4 total cpu time :     1.4 secs   av.it.:   9.0
      thresh= 6.886E-06 alpha_mix =  0.700 |ddv_scf|^2 =  2.849E-11

      iter #   5 total cpu time :     1.6 secs   av.it.:   9.1
      thresh= 5.337E-07 alpha_mix =  0.700 |ddv_scf|^2 =  1.472E-14

     End of electric fields calculation

          Dielectric constant in cartesian axis 

          (      13.918393619       0.000000000       0.000000000 )
          (       0.000000000      13.918393619       0.000000000 )
          (      -0.000000000       0.000000000      13.918393619 )

          Effective charges (d Force / dE) in cartesian axis

           atom      1   Si 
      Ex  (       -0.03527        0.00000        0.00000 )
      Ey  (        0.00000       -0.03527       -0.00000 )
      Ez  (        0.00000       -0.00000       -0.03527 )
           atom      2   Si 
      Ex  (       -0.03527       -0.00000        0.00000 )
      Ey  (       -0.00000       -0.03527        0.00000 )
      Ez  (        0.00000        0.00000       -0.03527 )


     Representation #  1 modes #   1  2  3

     Self-consistent Calculation

      iter #   1 total cpu time :     2.2 secs   av.it.:   5.0
      thresh= 1.000E-02 alpha_mix =  0.700 |ddv_scf|^2 =  2.245E-07

      iter #   2 total cpu time :     2.4 secs   av.it.:   9.8
      thresh= 4.738E-05 alpha_mix =  0.700 |ddv_scf|^2 =  1.393E-08

      iter #   3 total cpu time :     2.6 secs   av.it.:   9.3
      thresh= 1.180E-05 alpha_mix =  0.700 |ddv_scf|^2 =  8.633E-10

      iter #   4 total cpu time :     2.8 secs   av.it.:   8.9
      thresh= 2.938E-06 alpha_mix =  0.700 |ddv_scf|^2 =  1.915E-12

      iter #   5 total cpu time :     3.0 secs   av.it.:   9.5
      thresh= 1.384E-07 alpha_mix =  0.700 |ddv_scf|^2 =  1.353E-14

     End of self-consistent calculation

     Convergence has been achieved 


     Representation #  2 modes #   4  5  6

     Self-consistent Calculation

      iter #   1 total cpu time :     3.3 secs   av.it.:   5.0
      thresh= 1.000E-02 alpha_mix =  0.700 |ddv_scf|^2 =  1.862E-07

      iter #   2 total cpu time :     3.5 secs   av.it.:   9.6
      thresh= 4.315E-05 alpha_mix =  0.700 |ddv_scf|^2 =  1.515E-08

      iter #   3 total cpu time :     3.7 secs   av.it.:   9.3
      thresh= 1.231E-05 alpha_mix =  0.700 |ddv_scf|^2 =  9.196E-10

      iter #   4 total cpu time :     4.0 secs   av.it.:   9.5
      thresh= 3.033E-06 alpha_mix =  0.700 |ddv_scf|^2 =  5.370E-12

      iter #   5 total cpu time :     4.2 secs   av.it.:   9.0
      thresh= 2.317E-07 alpha_mix =  0.700 |ddv_scf|^2 =  4.729E-15

     End of self-consistent calculation

     Convergence has been achieved 

     Number of q in the star =    1
     List of q in the star:
          1   0.000000000   0.000000000   0.000000000

          Dielectric constant in cartesian axis 

          (      13.918393619       0.000000000       0.000000000 )
          (       0.000000000      13.918393619       0.000000000 )
          (      -0.000000000       0.000000000      13.918393619 )

          Effective charges (d Force / dE) in cartesian axis

           atom      1   Si 
      Ex  (       -0.03527        0.00000        0.00000 )
      Ey  (        0.00000       -0.03527       -0.00000 )
      Ez  (        0.00000       -0.00000       -0.03527 )
           atom      2   Si 
      Ex  (       -0.03527       -0.00000        0.00000 )
      Ey  (       -0.00000       -0.03527        0.00000 )
      Ez  (        0.00000        0.00000       -0.03527 )

          Effective charges (d P / du) in cartesian axis 

           atom      1   Si 
      Px  (       -0.07539        0.00000        0.00000 )
      Py  (        0.00000       -0.07539       -0.00000 )
      Pz  (        0.00000       -0.00000       -0.07539 )
           atom      2   Si 
      Px  (       -0.07539        0.00000       -0.00000 )
      Py  (        0.00000       -0.07539       -0.00000 )
      Pz  (       -0.00000       -0.00000       -0.07539 )

     Diagonalizing the dynamical matrix

     q = (    0.000000000   0.000000000   0.000000000 ) 

 **************************************************************************
     freq (    1) =       1.884919 [THz] =      62.874122 [cm-1]
     freq (    2) =       1.884919 [THz] =      62.874122 [cm-1]
     freq (    3) =       1.884919 [THz] =      62.874122 [cm-1]
     freq (    4) =      15.294556 [THz] =     510.171472 [cm-1]
     freq (    5) =      15.294556 [THz] =     510.171472 [cm-1]
     freq (    6) =      15.294556 [THz] =     510.171472 [cm-1]
 **************************************************************************

     Mode symmetry, O_h (m-3m)  point group:

     freq (  1 -  3) =         62.9  [cm-1]   --> T_1u G_15  G_4- I  
     freq (  4 -  6) =        510.2  [cm-1]   --> T_2g G_25' G_5+ R  

     Calculation of q =   -0.2500000   0.2500000  -0.2500000

   Info: using nr1, nr2, nr3 values from input

   Info: using nr1, nr2, nr3 values from input

     Parallelization info
     --------------------
     sticks:   dense  smooth     PW     G-vecs:    dense   smooth      PW
     Min          64      64     24                  709      709     161
     Max          67      67     25                  710      710     162
     Sum         265     265     97                 2837     2837     645



     bravais-lattice index     =            2
     lattice parameter (alat)  =      10.3560  a.u.
     unit-cell volume          =     277.6618 (a.u.)^3
     number of atoms/cell      =            2
     number of atomic types    =            1
     number of electrons       =         8.00
     number of Kohn-Sham states=            4
     kinetic-energy cutoff     =      18.0000  Ry
     charge density cutoff     =      72.0000  Ry
     Exchange-correlation      = SLA  PW   PBE  PBE ( 1  4  3  4 0 0)

     celldm(1)=  10.356000  celldm(2)=   0.000000  celldm(3)=   0.000000
     celldm(4)=   0.000000  celldm(5)=   0.000000  celldm(6)=   0.000000

     crystal axes: (cart. coord. in units of alat)
               a(1) = (  -0.500000   0.000000   0.500000 )  
               a(2) = (   0.000000   0.500000   0.500000 )  
               a(3) = (  -0.500000   0.500000   0.000000 )  

     reciprocal axes: (cart. coord. in units 2 pi/alat)
               b(1) = ( -1.000000 -1.000000  1.000000 )  
               b(2) = (  1.000000  1.000000  1.000000 )  
               b(3) = ( -1.000000  1.000000 -1.000000 )  


     PseudoPot. # 1 for Si read from file:
     /home/max/quantum_espresso/qe-6.1/pseudo/si_pbe_v1.uspp.F.UPF.txt
     MD5 check sum: a056efeee980c13900f22a371efd63c1
     Pseudo is Ultrasoft + core correction, Zval =  4.0
     Generated by new atomic code, or converted to UPF format
     Using radial grid of  899 points,  6 beta functions with: 
                l(1) =   0
                l(2) =   0
                l(3) =   1
                l(4) =   1
                l(5) =   2
                l(6) =   2
     Q(r) pseudized with  8 coefficients,  rinner =    0.900   0.900   0.900
                                                       0.900   0.900

     atomic species   valence    mass     pseudopotential
        Si             4.00    28.08600     Si( 1.00)

     48 Sym. Ops., with inversion, found



   Cartesian axes

     site n.     atom                  positions (alat units)
         1           Si  tau(   1) = (   0.0000000   0.0000000   0.0000000  )
         2           Si  tau(   2) = (   0.2500000   0.2500000   0.2500000  )

     number of k points=   120

     Number of k-points >= 100: set verbosity='high' to print them.

     Dense  grid:     2837 G-vectors     FFT dimensions: (  20,  20,  20)

     Estimated max dynamical RAM per process >       0.33MB

     Estimated total allocated dynamical RAM >       1.32MB

     Check: negative/imaginary core charge=   -0.000006    0.000000

     The potential is recalculated from file :
     ./_ph0/silicon.10.356.save/charge-density.dat

     Starting wfc are    8 atomic wfcs

     Band Structure Calculation
     Davidson diagonalization with overlap

     ethr =  1.25E-10,  avg # of iterations = 11.7

     total cpu time spent up to now is        0.8 secs

     End of band structure calculation

     Number of k-points >= 100: set verbosity='high' to print the bands.

     highest occupied level (ev):     5.6354

     Writing output data file silicon.10.356.save

                                                                                

     bravais-lattice index     =            2
     lattice parameter (alat)  =      10.3560  a.u.
     unit-cell volume          =     277.6618 (a.u.)^3
     number of atoms/cell      =            2
     number of atomic types    =            1
     kinetic-energy cut-off    =      18.0000  Ry
     charge density cut-off    =      72.0000  Ry
     convergence threshold     =      1.0E-12
     beta                      =       0.7000
     number of iterations used =            4
     Exchange-correlation      = SLA  PW   PBE  PBE ( 1  4  3  4 0 0)


     celldm(1)=   10.35600  celldm(2)=    0.00000  celldm(3)=    0.00000
     celldm(4)=    0.00000  celldm(5)=    0.00000  celldm(6)=    0.00000

     crystal axes: (cart. coord. in units of alat)
               a(1) = ( -0.5000  0.0000  0.5000 )  
               a(2) = (  0.0000  0.5000  0.5000 )  
               a(3) = ( -0.5000  0.5000  0.0000 )  

     reciprocal axes: (cart. coord. in units 2 pi/alat)
               b(1) = ( -1.0000 -1.0000  1.0000 )  
               b(2) = (  1.0000  1.0000  1.0000 )  
               b(3) = ( -1.0000  1.0000 -1.0000 )  


     Atoms inside the unit cell: 

     Cartesian axes

     site n.  atom      mass           positions (alat units)
        1     Si  28.0860   tau(    1) = (    0.00000    0.00000    0.00000  )
        2     Si  28.0860   tau(    2) = (    0.25000    0.25000    0.25000  )

     Computing dynamical matrix for 
                    q = (  -0.2500000   0.2500000  -0.2500000 )

      6 Sym.Ops. (no q -> -q+G )


     G cutoff =  195.5946  (    710 G-vectors)     FFT grid: ( 20, 20, 20)
     number of k points=   120

     PseudoPot. # 1 for Si read from file:
     /home/max/quantum_espresso/qe-6.1/pseudo/si_pbe_v1.uspp.F.UPF.txt
     MD5 check sum: a056efeee980c13900f22a371efd63c1
     Pseudo is Ultrasoft + core correction, Zval =  4.0
     Generated by new atomic code, or converted to UPF format
     Using radial grid of  899 points,  6 beta functions with: 
                l(1) =   0
                l(2) =   0
                l(3) =   1
                l(4) =   1
                l(5) =   2
                l(6) =   2
     Q(r) pseudized with  8 coefficients,  rinner =    0.900   0.900   0.900
                                                       0.900   0.900

     Mode symmetry, C_3v (3m)   point group:


     Atomic displacements:
     There are   4 irreducible representations

     Representation     1      1 modes -A_1  L_1  To be done

     Representation     2      1 modes -A_1  L_1  To be done

     Representation     3      2 modes -E    L_3  To be done

     Representation     4      2 modes -E    L_3  To be done



     Alpha used in Ewald sum =   0.7000
     PHONON       :     5.13s CPU         5.59s WALL



     Representation #  1 mode #   1

     Self-consistent Calculation

      iter #   1 total cpu time :     6.0 secs   av.it.:   5.5
      thresh= 1.000E-02 alpha_mix =  0.700 |ddv_scf|^2 =  2.456E-03

      iter #   2 total cpu time :     6.3 secs   av.it.:   7.5
      thresh= 4.956E-03 alpha_mix =  0.700 |ddv_scf|^2 =  3.716E-02

      iter #   3 total cpu time :     6.5 secs   av.it.:   6.3
      thresh= 1.000E-02 alpha_mix =  0.700 |ddv_scf|^2 =  1.711E-06

      iter #   4 total cpu time :     6.8 secs   av.it.:   8.2
      thresh= 1.308E-04 alpha_mix =  0.700 |ddv_scf|^2 =  1.160E-07

      iter #   5 total cpu time :     7.1 secs   av.it.:   8.1
      thresh= 3.406E-05 alpha_mix =  0.700 |ddv_scf|^2 =  4.764E-09

      iter #   6 total cpu time :     7.4 secs   av.it.:   8.0
      thresh= 6.902E-06 alpha_mix =  0.700 |ddv_scf|^2 =  4.265E-09

      iter #   7 total cpu time :     7.7 secs   av.it.:   6.2
      thresh= 6.531E-06 alpha_mix =  0.700 |ddv_scf|^2 =  5.085E-10

      iter #   8 total cpu time :     8.1 secs   av.it.:   7.2
      thresh= 2.255E-06 alpha_mix =  0.700 |ddv_scf|^2 =  4.009E-12

      iter #   9 total cpu time :     8.3 secs   av.it.:   7.1
      thresh= 2.002E-07 alpha_mix =  0.700 |ddv_scf|^2 =  1.682E-13

     End of self-consistent calculation

     Convergence has been achieved 


     Representation #  2 mode #   2

     Self-consistent Calculation

      iter #   1 total cpu time :     8.6 secs   av.it.:   5.5
      thresh= 1.000E-02 alpha_mix =  0.700 |ddv_scf|^2 =  2.456E-03

      iter #   2 total cpu time :     8.9 secs   av.it.:   7.5
      thresh= 4.956E-03 alpha_mix =  0.700 |ddv_scf|^2 =  3.716E-02

      iter #   3 total cpu time :     9.1 secs   av.it.:   6.3
      thresh= 1.000E-02 alpha_mix =  0.700 |ddv_scf|^2 =  1.711E-06

      iter #   4 total cpu time :     9.4 secs   av.it.:   8.2
      thresh= 1.308E-04 alpha_mix =  0.700 |ddv_scf|^2 =  1.160E-07

      iter #   5 total cpu time :     9.9 secs   av.it.:   8.1
      thresh= 3.406E-05 alpha_mix =  0.700 |ddv_scf|^2 =  4.764E-09

      iter #   6 total cpu time :    10.2 secs   av.it.:   8.0
      thresh= 6.902E-06 alpha_mix =  0.700 |ddv_scf|^2 =  4.265E-09

      iter #   7 total cpu time :    10.4 secs   av.it.:   6.2
      thresh= 6.531E-06 alpha_mix =  0.700 |ddv_scf|^2 =  5.085E-10

      iter #   8 total cpu time :    10.7 secs   av.it.:   7.2
      thresh= 2.255E-06 alpha_mix =  0.700 |ddv_scf|^2 =  4.009E-12

      iter #   9 total cpu time :    11.0 secs   av.it.:   7.1
      thresh= 2.002E-07 alpha_mix =  0.700 |ddv_scf|^2 =  1.682E-13

     End of self-consistent calculation

     Convergence has been achieved 


     Representation #  3 modes #   3  4

     Self-consistent Calculation

      iter #   1 total cpu time :    11.4 secs   av.it.:   4.9
      thresh= 1.000E-02 alpha_mix =  0.700 |ddv_scf|^2 =  5.734E-07

      iter #   2 total cpu time :    12.3 secs   av.it.:   9.4
      thresh= 7.572E-05 alpha_mix =  0.700 |ddv_scf|^2 =  4.322E-08

      iter #   3 total cpu time :    13.0 secs   av.it.:   9.2
      thresh= 2.079E-05 alpha_mix =  0.700 |ddv_scf|^2 =  3.747E-09

      iter #   4 total cpu time :    13.6 secs   av.it.:   8.9
      thresh= 6.121E-06 alpha_mix =  0.700 |ddv_scf|^2 =  1.125E-11

      iter #   5 total cpu time :    14.4 secs   av.it.:   9.2
      thresh= 3.354E-07 alpha_mix =  0.700 |ddv_scf|^2 =  5.002E-13

     End of self-consistent calculation

     Convergence has been achieved 


     Representation #  4 modes #   5  6

     Self-consistent Calculation

      iter #   1 total cpu time :    14.9 secs   av.it.:   5.0
      thresh= 1.000E-02 alpha_mix =  0.700 |ddv_scf|^2 =  5.732E-07

      iter #   2 total cpu time :    15.6 secs   av.it.:   9.6
      thresh= 7.571E-05 alpha_mix =  0.700 |ddv_scf|^2 =  4.317E-08

      iter #   3 total cpu time :    16.4 secs   av.it.:   9.4
      thresh= 2.078E-05 alpha_mix =  0.700 |ddv_scf|^2 =  3.743E-09

      iter #   4 total cpu time :    17.1 secs   av.it.:   9.1
      thresh= 6.118E-06 alpha_mix =  0.700 |ddv_scf|^2 =  1.125E-11

      iter #   5 total cpu time :    17.9 secs   av.it.:   9.3
      thresh= 3.354E-07 alpha_mix =  0.700 |ddv_scf|^2 =  5.004E-13

     End of self-consistent calculation

     Convergence has been achieved 

     Number of q in the star =    8
     List of q in the star:
          1  -0.250000000   0.250000000  -0.250000000
          2   0.250000000  -0.250000000  -0.250000000
          3   0.250000000  -0.250000000   0.250000000
          4   0.250000000   0.250000000   0.250000000
          5  -0.250000000  -0.250000000  -0.250000000
          6  -0.250000000  -0.250000000   0.250000000
          7  -0.250000000   0.250000000   0.250000000
          8   0.250000000   0.250000000  -0.250000000

     Diagonalizing the dynamical matrix

     q = (   -0.250000000   0.250000000  -0.250000000 ) 

 **************************************************************************
     freq (    1) =       3.399342 [THz] =     113.389843 [cm-1]
     freq (    2) =       3.399342 [THz] =     113.389843 [cm-1]
     freq (    3) =       6.895086 [THz] =     229.995299 [cm-1]
     freq (    4) =      14.375535 [THz] =     479.516238 [cm-1]
     freq (    5) =      14.677450 [THz] =     489.587040 [cm-1]
     freq (    6) =      14.677450 [THz] =     489.587040 [cm-1]
 **************************************************************************

     Mode symmetry, C_3v (3m)   point group:

     freq (  1 -  2) =        113.4  [cm-1]   --> E    L_3           
     freq (  3 -  3) =        230.0  [cm-1]   --> A_1  L_1           
     freq (  4 -  4) =        479.5  [cm-1]   --> A_1  L_1           
     freq (  5 -  6) =        489.6  [cm-1]   --> E    L_3           

     Calculation of q =    0.5000000  -0.5000000   0.5000000

   Info: using nr1, nr2, nr3 values from input

   Info: using nr1, nr2, nr3 values from input

     Parallelization info
     --------------------
     sticks:   dense  smooth     PW     G-vecs:    dense   smooth      PW
     Min          64      64     27                  709      709     186
     Max          67      67     28                  710      710     189
     Sum         265     265    109                 2837     2837     749



     bravais-lattice index     =            2
     lattice parameter (alat)  =      10.3560  a.u.
     unit-cell volume          =     277.6618 (a.u.)^3
     number of atoms/cell      =            2
     number of atomic types    =            1
     number of electrons       =         8.00
     number of Kohn-Sham states=            4
     kinetic-energy cutoff     =      18.0000  Ry
     charge density cutoff     =      72.0000  Ry
     Exchange-correlation      = SLA  PW   PBE  PBE ( 1  4  3  4 0 0)

     celldm(1)=  10.356000  celldm(2)=   0.000000  celldm(3)=   0.000000
     celldm(4)=   0.000000  celldm(5)=   0.000000  celldm(6)=   0.000000

     crystal axes: (cart. coord. in units of alat)
               a(1) = (  -0.500000   0.000000   0.500000 )  
               a(2) = (   0.000000   0.500000   0.500000 )  
               a(3) = (  -0.500000   0.500000   0.000000 )  

     reciprocal axes: (cart. coord. in units 2 pi/alat)
               b(1) = ( -1.000000 -1.000000  1.000000 )  
               b(2) = (  1.000000  1.000000  1.000000 )  
               b(3) = ( -1.000000  1.000000 -1.000000 )  


     PseudoPot. # 1 for Si read from file:
     /home/max/quantum_espresso/qe-6.1/pseudo/si_pbe_v1.uspp.F.UPF.txt
     MD5 check sum: a056efeee980c13900f22a371efd63c1
     Pseudo is Ultrasoft + core correction, Zval =  4.0
     Generated by new atomic code, or converted to UPF format
     Using radial grid of  899 points,  6 beta functions with: 
                l(1) =   0
                l(2) =   0
                l(3) =   1
                l(4) =   1
                l(5) =   2
                l(6) =   2
     Q(r) pseudized with  8 coefficients,  rinner =    0.900   0.900   0.900
                                                       0.900   0.900

     atomic species   valence    mass     pseudopotential
        Si             4.00    28.08600     Si( 1.00)

     48 Sym. Ops., with inversion, found



   Cartesian axes

     site n.     atom                  positions (alat units)
         1           Si  tau(   1) = (   0.0000000   0.0000000   0.0000000  )
         2           Si  tau(   2) = (   0.2500000   0.2500000   0.2500000  )

     number of k points=    60
                       cart. coord. in units 2pi/alat
        k(    1) = (  -0.1250000   0.1250000   0.1250000), wk =   0.0468750
        k(    2) = (   0.3750000  -0.3750000   0.6250000), wk =   0.0000000
        k(    3) = (  -0.3750000   0.3750000  -0.1250000), wk =   0.0468750
        k(    4) = (   0.1250000  -0.1250000   0.3750000), wk =   0.0000000
        k(    5) = (   0.3750000  -0.3750000   0.6250000), wk =   0.0468750
        k(    6) = (   0.8750000  -0.8750000   1.1250000), wk =   0.0000000
        k(    7) = (   0.1250000  -0.1250000   0.3750000), wk =   0.0468750
        k(    8) = (   0.6250000  -0.6250000   0.8750000), wk =   0.0000000
        k(    9) = (  -0.1250000   0.6250000   0.1250000), wk =   0.0937500
        k(   10) = (   0.3750000   0.1250000   0.6250000), wk =   0.0000000
        k(   11) = (   0.6250000  -0.1250000   0.8750000), wk =   0.0937500
        k(   12) = (   1.1250000  -0.6250000   1.3750000), wk =   0.0000000
        k(   13) = (   0.3750000   0.1250000   0.6250000), wk =   0.0937500
        k(   14) = (   0.8750000  -0.3750000   1.1250000), wk =   0.0000000
        k(   15) = (  -0.1250000  -0.8750000   0.1250000), wk =   0.0937500
        k(   16) = (   0.3750000  -1.3750000   0.6250000), wk =   0.0000000
        k(   17) = (  -0.3750000   0.3750000   0.3750000), wk =   0.0468750
        k(   18) = (   0.1250000  -0.1250000   0.8750000), wk =   0.0000000
        k(   19) = (   0.3750000  -0.3750000   1.1250000), wk =   0.0468750
        k(   20) = (   0.8750000  -0.8750000   1.6250000), wk =   0.0000000
        k(   21) = (   0.1250000  -0.1250000   0.1250000), wk =   0.0156250
        k(   22) = (   0.6250000  -0.6250000   0.6250000), wk =   0.0000000
        k(   23) = (  -0.3750000  -0.3750000  -0.1250000), wk =   0.0937500
        k(   24) = (   0.1250000  -0.8750000   0.3750000), wk =   0.0000000
        k(   25) = (  -0.1250000  -0.3750000   0.3750000), wk =   0.0468750
        k(   26) = (   0.3750000  -0.8750000   0.8750000), wk =   0.0000000
        k(   27) = (   0.3750000   0.3750000   0.6250000), wk =   0.0937500
        k(   28) = (   0.8750000  -0.1250000   1.1250000), wk =   0.0000000
        k(   29) = (   0.6250000   0.3750000  -0.3750000), wk =   0.0468750
        k(   30) = (   1.1250000  -0.1250000   0.1250000), wk =   0.0000000
        k(   31) = (   0.1250000   0.1250000   0.3750000), wk =   0.0937500
        k(   32) = (   0.6250000  -0.3750000   0.8750000), wk =   0.0000000
        k(   33) = (   0.3750000   0.1250000  -0.1250000), wk =   0.0468750
        k(   34) = (   0.8750000  -0.3750000   0.3750000), wk =   0.0000000
        k(   35) = (  -0.1250000  -0.6250000  -0.1250000), wk =   0.0468750
        k(   36) = (   0.3750000  -1.1250000   0.3750000), wk =   0.0000000
        k(   37) = (   0.1250000  -0.6250000   0.1250000), wk =   0.0468750
        k(   38) = (   0.6250000  -1.1250000   0.6250000), wk =   0.0000000
        k(   39) = (   0.6250000   0.1250000   0.8750000), wk =   0.0937500
        k(   40) = (   1.1250000  -0.3750000   1.3750000), wk =   0.0000000
        k(   41) = (  -0.8750000   0.1250000   0.6250000), wk =   0.0937500
        k(   42) = (  -0.3750000  -0.3750000   1.1250000), wk =   0.0000000
        k(   43) = (   0.8750000   0.1250000  -0.6250000), wk =   0.0937500
        k(   44) = (   1.3750000  -0.3750000  -0.1250000), wk =   0.0000000
        k(   45) = (   0.3750000  -0.1250000   0.6250000), wk =   0.0937500
        k(   46) = (   0.8750000  -0.6250000   1.1250000), wk =   0.0000000
        k(   47) = (  -0.6250000  -0.1250000   0.3750000), wk =   0.0937500
        k(   48) = (  -0.1250000  -0.6250000   0.8750000), wk =   0.0000000
        k(   49) = (   0.6250000  -0.1250000  -0.3750000), wk =   0.0937500
        k(   50) = (   1.1250000  -0.6250000   0.1250000), wk =   0.0000000
        k(   51) = (  -0.1250000   0.8750000  -0.1250000), wk =   0.0468750
        k(   52) = (   0.3750000   0.3750000   0.3750000), wk =   0.0000000
        k(   53) = (   0.1250000   0.8750000   0.1250000), wk =   0.0468750
        k(   54) = (   0.6250000   0.3750000   0.6250000), wk =   0.0000000
        k(   55) = (   0.3750000  -0.3750000   0.3750000), wk =   0.0156250
        k(   56) = (   0.8750000  -0.8750000   0.8750000), wk =   0.0000000
        k(   57) = (   0.3750000   0.3750000   1.1250000), wk =   0.0937500
        k(   58) = (   0.8750000  -0.1250000   1.6250000), wk =   0.0000000
        k(   59) = (   1.1250000   0.3750000  -0.3750000), wk =   0.0468750
        k(   60) = (   1.6250000  -0.1250000   0.1250000), wk =   0.0000000

     Dense  grid:     2837 G-vectors     FFT dimensions: (  20,  20,  20)

     Estimated max dynamical RAM per process >       0.33MB

     Estimated total allocated dynamical RAM >       1.32MB

     Check: negative/imaginary core charge=   -0.000006    0.000000

     The potential is recalculated from file :
     ./_ph0/silicon.10.356.save/charge-density.dat

     Starting wfc are    8 atomic wfcs

     Band Structure Calculation
     Davidson diagonalization with overlap

     ethr =  1.25E-10,  avg # of iterations = 11.7

     total cpu time spent up to now is        1.5 secs

     End of band structure calculation

          k =-0.1250 0.1250 0.1250 (   344 PWs)   bands (ev):

    -5.6542   4.3260   5.6354   5.6354

          k = 0.3750-0.3750 0.6250 (   361 PWs)   bands (ev):

    -3.5098  -0.7134   3.6811   4.3907

          k =-0.3750 0.3750-0.1250 (   355 PWs)   bands (ev):

    -4.6362   1.3448   3.6656   5.1551

          k = 0.1250-0.1250 0.3750 (   353 PWs)   bands (ev):

    -5.1306   2.7110   4.6355   4.6954

          k = 0.3750-0.3750 0.6250 (   361 PWs)   bands (ev):

    -3.5098  -0.7134   3.6811   4.3907

          k = 0.8750-0.8750 1.1250 (   344 PWs)   bands (ev):

    -5.6542   4.3260   5.6354   5.6354

          k = 0.1250-0.1250 0.3750 (   353 PWs)   bands (ev):

    -5.1306   2.7110   4.6355   4.6954

          k = 0.6250-0.6250 0.8750 (   355 PWs)   bands (ev):

    -4.6362   1.3448   3.6656   5.1551

          k =-0.1250 0.6250 0.1250 (   351 PWs)   bands (ev):

    -4.1075   1.0011   3.3221   3.7675

          k = 0.3750 0.1250 0.6250 (   360 PWs)   bands (ev):

    -3.6969   0.1400   2.6847   4.0414

          k = 0.6250-0.1250 0.8750 (   361 PWs)   bands (ev):

    -2.4835  -0.9502   1.9850   3.0488

          k = 1.1250-0.6250 1.3750 (   355 PWs)   bands (ev):

    -4.6362   1.3448   3.6656   5.1551

          k = 0.3750 0.1250 0.6250 (   360 PWs)   bands (ev):

    -3.6969   0.1400   2.6847   4.0414

          k = 0.8750-0.3750 1.1250 (   351 PWs)   bands (ev):

    -4.1075   1.0011   3.3221   3.7675

          k =-0.1250-0.8750 0.1250 (   360 PWs)   bands (ev):

    -2.6474  -0.8546   2.5865   3.3035

          k = 0.3750-1.3750 0.6250 (   361 PWs)   bands (ev):

    -3.5098  -0.7134   3.6811   4.3907

          k =-0.3750 0.3750 0.3750 (   353 PWs)   bands (ev):

    -4.2085   0.0696   4.8509   4.8509

          k = 0.1250-0.1250 0.8750 (   360 PWs)   bands (ev):

    -2.6474  -0.8546   2.5865   3.3035

          k = 0.3750-0.3750 1.1250 (   363 PWs)   bands (ev):

    -3.0177  -0.6407   2.0391   4.0772

          k = 0.8750-0.8750 1.6250 (   351 PWs)   bands (ev):

    -4.1075   1.0011   3.3221   3.7675

          k = 0.1250-0.1250 0.1250 (   344 PWs)   bands (ev):

    -5.6542   4.3260   5.6354   5.6354

          k = 0.6250-0.6250 0.6250 (   353 PWs)   bands (ev):

    -4.2085   0.0696   4.8509   4.8509

          k =-0.3750-0.3750-0.1250 (   355 PWs)   bands (ev):

    -4.6362   1.3448   3.6656   5.1551

          k = 0.1250-0.8750 0.3750 (   361 PWs)   bands (ev):

    -2.4835  -0.9502   1.9850   3.0488

          k =-0.1250-0.3750 0.3750 (   355 PWs)   bands (ev):

    -4.6362   1.3448   3.6656   5.1551

          k = 0.3750-0.8750 0.8750 (   351 PWs)   bands (ev):

    -4.1075   1.0011   3.3221   3.7675

          k = 0.3750 0.3750 0.6250 (   361 PWs)   bands (ev):

    -3.5098  -0.7134   3.6811   4.3907

          k = 0.8750-0.1250 1.1250 (   360 PWs)   bands (ev):

    -2.6474  -0.8546   2.5865   3.3035

          k = 0.6250 0.3750-0.3750 (   361 PWs)   bands (ev):

    -3.5098  -0.7134   3.6811   4.3907

          k = 1.1250-0.1250 0.1250 (   360 PWs)   bands (ev):

    -2.6474  -0.8546   2.5865   3.3035

          k = 0.1250 0.1250 0.3750 (   353 PWs)   bands (ev):

    -5.1306   2.7110   4.6355   4.6954

          k = 0.6250-0.3750 0.8750 (   360 PWs)   bands (ev):

    -3.6969   0.1400   2.6847   4.0414

          k = 0.3750 0.1250-0.1250 (   353 PWs)   bands (ev):

    -5.1306   2.7110   4.6355   4.6954

          k = 0.8750-0.3750 0.3750 (   363 PWs)   bands (ev):

    -3.0177  -0.6407   2.0391   4.0772

          k =-0.1250-0.6250-0.1250 (   351 PWs)   bands (ev):

    -4.1075   1.0011   3.3221   3.7675

          k = 0.3750-1.1250 0.3750 (   363 PWs)   bands (ev):

    -3.0177  -0.6407   2.0391   4.0772

          k = 0.1250-0.6250 0.1250 (   351 PWs)   bands (ev):

    -4.1075   1.0011   3.3221   3.7675

          k = 0.6250-1.1250 0.6250 (   355 PWs)   bands (ev):

    -4.6362   1.3448   3.6656   5.1551

          k = 0.6250 0.1250 0.8750 (   361 PWs)   bands (ev):

    -2.4835  -0.9502   1.9850   3.0488

          k = 1.1250-0.3750 1.3750 (   360 PWs)   bands (ev):

    -3.6969   0.1400   2.6847   4.0414

          k =-0.8750 0.1250 0.6250 (   361 PWs)   bands (ev):

    -2.4835  -0.9502   1.9850   3.0488

          k =-0.3750-0.3750 1.1250 (   363 PWs)   bands (ev):

    -3.0177  -0.6407   2.0391   4.0772

          k = 0.8750 0.1250-0.6250 (   361 PWs)   bands (ev):

    -2.4835  -0.9502   1.9850   3.0488

          k = 1.3750-0.3750-0.1250 (   360 PWs)   bands (ev):

    -3.6969   0.1400   2.6847   4.0414

          k = 0.3750-0.1250 0.6250 (   360 PWs)   bands (ev):

    -3.6969   0.1400   2.6847   4.0414

          k = 0.8750-0.6250 1.1250 (   353 PWs)   bands (ev):

    -5.1306   2.7110   4.6355   4.6954

          k =-0.6250-0.1250 0.3750 (   360 PWs)   bands (ev):

    -3.6969   0.1400   2.6847   4.0414

          k =-0.1250-0.6250 0.8750 (   361 PWs)   bands (ev):

    -2.4835  -0.9502   1.9850   3.0488

          k = 0.6250-0.1250-0.3750 (   360 PWs)   bands (ev):

    -3.6969   0.1400   2.6847   4.0414

          k = 1.1250-0.6250 0.1250 (   361 PWs)   bands (ev):

    -2.4835  -0.9502   1.9850   3.0488

          k =-0.1250 0.8750-0.1250 (   360 PWs)   bands (ev):

    -2.6474  -0.8546   2.5865   3.3035

          k = 0.3750 0.3750 0.3750 (   353 PWs)   bands (ev):

    -4.2085   0.0696   4.8509   4.8509

          k = 0.1250 0.8750 0.1250 (   360 PWs)   bands (ev):

    -2.6474  -0.8546   2.5865   3.3035

          k = 0.6250 0.3750 0.6250 (   361 PWs)   bands (ev):

    -3.5098  -0.7134   3.6811   4.3907

          k = 0.3750-0.3750 0.3750 (   353 PWs)   bands (ev):

    -4.2085   0.0696   4.8509   4.8509

          k = 0.8750-0.8750 0.8750 (   344 PWs)   bands (ev):

    -5.6542   4.3260   5.6354   5.6354

          k = 0.3750 0.3750 1.1250 (   363 PWs)   bands (ev):

    -3.0177  -0.6407   2.0391   4.0772

          k = 0.8750-0.1250 1.6250 (   361 PWs)   bands (ev):

    -2.4835  -0.9502   1.9850   3.0488

          k = 1.1250 0.3750-0.3750 (   363 PWs)   bands (ev):

    -3.0177  -0.6407   2.0391   4.0772

          k = 1.6250-0.1250 0.1250 (   353 PWs)   bands (ev):

    -5.1306   2.7110   4.6355   4.6954

     highest occupied level (ev):     5.6354

     Writing output data file silicon.10.356.save

                                                                                

     bravais-lattice index     =            2
     lattice parameter (alat)  =      10.3560  a.u.
     unit-cell volume          =     277.6618 (a.u.)^3
     number of atoms/cell      =            2
     number of atomic types    =            1
     kinetic-energy cut-off    =      18.0000  Ry
     charge density cut-off    =      72.0000  Ry
     convergence threshold     =      1.0E-12
     beta                      =       0.7000
     number of iterations used =            4
     Exchange-correlation      = SLA  PW   PBE  PBE ( 1  4  3  4 0 0)


     celldm(1)=   10.35600  celldm(2)=    0.00000  celldm(3)=    0.00000
     celldm(4)=    0.00000  celldm(5)=    0.00000  celldm(6)=    0.00000

     crystal axes: (cart. coord. in units of alat)
               a(1) = ( -0.5000  0.0000  0.5000 )  
               a(2) = (  0.0000  0.5000  0.5000 )  
               a(3) = ( -0.5000  0.5000  0.0000 )  

     reciprocal axes: (cart. coord. in units 2 pi/alat)
               b(1) = ( -1.0000 -1.0000  1.0000 )  
               b(2) = (  1.0000  1.0000  1.0000 )  
               b(3) = ( -1.0000  1.0000 -1.0000 )  


     Atoms inside the unit cell: 

     Cartesian axes

     site n.  atom      mass           positions (alat units)
        1     Si  28.0860   tau(    1) = (    0.00000    0.00000    0.00000  )
        2     Si  28.0860   tau(    2) = (    0.25000    0.25000    0.25000  )

     Computing dynamical matrix for 
                    q = (   0.5000000  -0.5000000   0.5000000 )

     13 Sym.Ops. (with q -> -q+G )


     G cutoff =  195.5946  (    710 G-vectors)     FFT grid: ( 20, 20, 20)
     number of k points=    60

     PseudoPot. # 1 for Si read from file:
     /home/max/quantum_espresso/qe-6.1/pseudo/si_pbe_v1.uspp.F.UPF.txt
     MD5 check sum: a056efeee980c13900f22a371efd63c1
     Pseudo is Ultrasoft + core correction, Zval =  4.0
     Generated by new atomic code, or converted to UPF format
     Using radial grid of  899 points,  6 beta functions with: 
                l(1) =   0
                l(2) =   0
                l(3) =   1
                l(4) =   1
                l(5) =   2
                l(6) =   2
     Q(r) pseudized with  8 coefficients,  rinner =    0.900   0.900   0.900
                                                       0.900   0.900


     Atomic displacements:
     There are   4 irreducible representations

     Representation     1      1 modes -  To be done

     Representation     2      1 modes -  To be done

     Representation     3      2 modes -  To be done

     Representation     4      2 modes -  To be done



     Alpha used in Ewald sum =   0.7000
     PHONON       :    17.16s CPU        18.77s WALL



     Representation #  1 mode #   1

     Self-consistent Calculation

      iter #   1 total cpu time :    18.9 secs   av.it.:   4.8
      thresh= 1.000E-02 alpha_mix =  0.700 |ddv_scf|^2 =  2.476E-05

      iter #   2 total cpu time :    19.1 secs   av.it.:   8.3
      thresh= 4.976E-04 alpha_mix =  0.700 |ddv_scf|^2 =  2.214E-05

      iter #   3 total cpu time :    19.2 secs   av.it.:   7.5
      thresh= 4.705E-04 alpha_mix =  0.700 |ddv_scf|^2 =  4.395E-08

      iter #   4 total cpu time :    19.4 secs   av.it.:   7.4
      thresh= 2.096E-05 alpha_mix =  0.700 |ddv_scf|^2 =  1.328E-10

      iter #   5 total cpu time :    19.5 secs   av.it.:   8.0
      thresh= 1.153E-06 alpha_mix =  0.700 |ddv_scf|^2 =  3.579E-12

      iter #   6 total cpu time :    19.8 secs   av.it.:   7.9
      thresh= 1.892E-07 alpha_mix =  0.700 |ddv_scf|^2 =  4.350E-14

     End of self-consistent calculation

     Convergence has been achieved 


     Representation #  2 mode #   2

     Self-consistent Calculation

      iter #   1 total cpu time :    20.0 secs   av.it.:   5.6
      thresh= 1.000E-02 alpha_mix =  0.700 |ddv_scf|^2 =  3.437E-04

      iter #   2 total cpu time :    20.2 secs   av.it.:   8.3
      thresh= 1.854E-03 alpha_mix =  0.700 |ddv_scf|^2 =  1.060E-03

      iter #   3 total cpu time :    20.4 secs   av.it.:   7.1
      thresh= 3.256E-03 alpha_mix =  0.700 |ddv_scf|^2 =  1.327E-07

      iter #   4 total cpu time :    20.5 secs   av.it.:   8.1
      thresh= 3.643E-05 alpha_mix =  0.700 |ddv_scf|^2 =  8.651E-09

      iter #   5 total cpu time :    20.7 secs   av.it.:   8.5
      thresh= 9.301E-06 alpha_mix =  0.700 |ddv_scf|^2 =  1.357E-10

      iter #   6 total cpu time :    20.9 secs   av.it.:   8.2
      thresh= 1.165E-06 alpha_mix =  0.700 |ddv_scf|^2 =  2.546E-12

      iter #   7 total cpu time :    21.0 secs   av.it.:   7.8
      thresh= 1.596E-07 alpha_mix =  0.700 |ddv_scf|^2 =  5.029E-15

     End of self-consistent calculation

     Convergence has been achieved 


     Representation #  3 modes #   3  4

     Self-consistent Calculation

      iter #   1 total cpu time :    21.3 secs   av.it.:   4.7
      thresh= 1.000E-02 alpha_mix =  0.700 |ddv_scf|^2 =  3.346E-07

      iter #   2 total cpu time :    21.6 secs   av.it.:   9.1
      thresh= 5.785E-05 alpha_mix =  0.700 |ddv_scf|^2 =  2.841E-08

      iter #   3 total cpu time :    22.1 secs   av.it.:   8.4
      thresh= 1.686E-05 alpha_mix =  0.700 |ddv_scf|^2 =  5.026E-10

      iter #   4 total cpu time :    22.5 secs   av.it.:   8.9
      thresh= 2.242E-06 alpha_mix =  0.700 |ddv_scf|^2 =  6.235E-12

      iter #   5 total cpu time :    22.8 secs   av.it.:   8.7
      thresh= 2.497E-07 alpha_mix =  0.700 |ddv_scf|^2 =  3.133E-14

     End of self-consistent calculation

     Convergence has been achieved 


     Representation #  4 modes #   5  6

     Self-consistent Calculation

      iter #   1 total cpu time :    23.1 secs   av.it.:   5.0
      thresh= 1.000E-02 alpha_mix =  0.700 |ddv_scf|^2 =  9.872E-07

      iter #   2 total cpu time :    23.4 secs   av.it.:   9.4
      thresh= 9.936E-05 alpha_mix =  0.700 |ddv_scf|^2 =  7.758E-08

      iter #   3 total cpu time :    24.0 secs   av.it.:   9.3
      thresh= 2.785E-05 alpha_mix =  0.700 |ddv_scf|^2 =  5.056E-09

      iter #   4 total cpu time :    24.3 secs   av.it.:   8.5
      thresh= 7.111E-06 alpha_mix =  0.700 |ddv_scf|^2 =  6.503E-12

      iter #   5 total cpu time :    24.6 secs   av.it.:   8.8
      thresh= 2.550E-07 alpha_mix =  0.700 |ddv_scf|^2 =  2.367E-14

     End of self-consistent calculation

     Convergence has been achieved 

     Number of q in the star =    4
     List of q in the star:
          1   0.500000000  -0.500000000   0.500000000
          2   0.500000000   0.500000000   0.500000000
          3  -0.500000000   0.500000000   0.500000000
          4   0.500000000   0.500000000  -0.500000000

     Diagonalizing the dynamical matrix

     q = (    0.500000000  -0.500000000   0.500000000 ) 

 **************************************************************************
     freq (    1) =       4.812766 [THz] =     160.536608 [cm-1]
     freq (    2) =       4.812766 [THz] =     160.536608 [cm-1]
     freq (    3) =      11.808245 [THz] =     393.880647 [cm-1]
     freq (    4) =      12.066608 [THz] =     402.498703 [cm-1]
     freq (    5) =      14.602037 [THz] =     487.071521 [cm-1]
     freq (    6) =      14.602037 [THz] =     487.071521 [cm-1]
 **************************************************************************

     Calculation of q =    0.0000000   0.5000000   0.0000000

   Info: using nr1, nr2, nr3 values from input

   Info: using nr1, nr2, nr3 values from input

     Parallelization info
     --------------------
     sticks:   dense  smooth     PW     G-vecs:    dense   smooth      PW
     Min          64      64     27                  709      709     175
     Max          67      67     28                  710      710     176
     Sum         265     265    109                 2837     2837     701



     bravais-lattice index     =            2
     lattice parameter (alat)  =      10.3560  a.u.
     unit-cell volume          =     277.6618 (a.u.)^3
     number of atoms/cell      =            2
     number of atomic types    =            1
     number of electrons       =         8.00
     number of Kohn-Sham states=            4
     kinetic-energy cutoff     =      18.0000  Ry
     charge density cutoff     =      72.0000  Ry
     Exchange-correlation      = SLA  PW   PBE  PBE ( 1  4  3  4 0 0)

     celldm(1)=  10.356000  celldm(2)=   0.000000  celldm(3)=   0.000000
     celldm(4)=   0.000000  celldm(5)=   0.000000  celldm(6)=   0.000000

     crystal axes: (cart. coord. in units of alat)
               a(1) = (  -0.500000   0.000000   0.500000 )  
               a(2) = (   0.000000   0.500000   0.500000 )  
               a(3) = (  -0.500000   0.500000   0.000000 )  

     reciprocal axes: (cart. coord. in units 2 pi/alat)
               b(1) = ( -1.000000 -1.000000  1.000000 )  
               b(2) = (  1.000000  1.000000  1.000000 )  
               b(3) = ( -1.000000  1.000000 -1.000000 )  


     PseudoPot. # 1 for Si read from file:
     /home/max/quantum_espresso/qe-6.1/pseudo/si_pbe_v1.uspp.F.UPF.txt
     MD5 check sum: a056efeee980c13900f22a371efd63c1
     Pseudo is Ultrasoft + core correction, Zval =  4.0
     Generated by new atomic code, or converted to UPF format
     Using radial grid of  899 points,  6 beta functions with: 
                l(1) =   0
                l(2) =   0
                l(3) =   1
                l(4) =   1
                l(5) =   2
                l(6) =   2
     Q(r) pseudized with  8 coefficients,  rinner =    0.900   0.900   0.900
                                                       0.900   0.900

     atomic species   valence    mass     pseudopotential
        Si             4.00    28.08600     Si( 1.00)

     48 Sym. Ops., with inversion, found



   Cartesian axes

     site n.     atom                  positions (alat units)
         1           Si  tau(   1) = (   0.0000000   0.0000000   0.0000000  )
         2           Si  tau(   2) = (   0.2500000   0.2500000   0.2500000  )

     number of k points=    80
                       cart. coord. in units 2pi/alat
        k(    1) = (  -0.1250000   0.1250000   0.1250000), wk =   0.0312500
        k(    2) = (  -0.1250000   0.6250000   0.1250000), wk =   0.0000000
        k(    3) = (  -0.3750000   0.3750000  -0.1250000), wk =   0.0625000
        k(    4) = (  -0.3750000   0.8750000  -0.1250000), wk =   0.0000000
        k(    5) = (   0.3750000  -0.3750000   0.6250000), wk =   0.0625000
        k(    6) = (   0.3750000   0.1250000   0.6250000), wk =   0.0000000
        k(    7) = (   0.1250000  -0.1250000   0.3750000), wk =   0.0625000
        k(    8) = (   0.1250000   0.3750000   0.3750000), wk =   0.0000000
        k(    9) = (  -0.1250000   0.6250000   0.1250000), wk =   0.0312500
        k(   10) = (  -0.1250000   1.1250000   0.1250000), wk =   0.0000000
        k(   11) = (   0.6250000  -0.1250000   0.8750000), wk =   0.0625000
        k(   12) = (   0.6250000   0.3750000   0.8750000), wk =   0.0000000
        k(   13) = (   0.3750000   0.1250000   0.6250000), wk =   0.0625000
        k(   14) = (   0.3750000   0.6250000   0.6250000), wk =   0.0000000
        k(   15) = (  -0.1250000  -0.8750000   0.1250000), wk =   0.0312500
        k(   16) = (  -0.1250000  -0.3750000   0.1250000), wk =   0.0000000
        k(   17) = (  -0.3750000   0.3750000   0.3750000), wk =   0.0312500
        k(   18) = (  -0.3750000   0.8750000   0.3750000), wk =   0.0000000
        k(   19) = (   0.3750000  -0.3750000   1.1250000), wk =   0.0625000
        k(   20) = (   0.3750000   0.1250000   1.1250000), wk =   0.0000000
        k(   21) = (  -0.1250000  -0.1250000   0.1250000), wk =   0.0312500
        k(   22) = (  -0.1250000   0.3750000   0.1250000), wk =   0.0000000
        k(   23) = (   0.1250000  -0.3750000   0.3750000), wk =   0.0625000
        k(   24) = (   0.1250000   0.1250000   0.3750000), wk =   0.0000000
        k(   25) = (   0.3750000  -0.1250000   0.3750000), wk =   0.0312500
        k(   26) = (   0.3750000   0.3750000   0.3750000), wk =   0.0000000
        k(   27) = (   0.3750000   0.1250000   0.3750000), wk =   0.0312500
        k(   28) = (   0.3750000   0.6250000   0.3750000), wk =   0.0000000
        k(   29) = (  -0.6250000   0.3750000  -0.3750000), wk =   0.0625000
        k(   30) = (  -0.6250000   0.8750000  -0.3750000), wk =   0.0000000
        k(   31) = (  -0.3750000   0.6250000  -0.3750000), wk =   0.0312500
        k(   32) = (  -0.3750000   1.1250000  -0.3750000), wk =   0.0000000
        k(   33) = (  -0.3750000  -0.6250000  -0.3750000), wk =   0.0312500
        k(   34) = (  -0.3750000  -0.1250000  -0.3750000), wk =   0.0000000
        k(   35) = (  -0.3750000   0.1250000  -0.1250000), wk =   0.0625000
        k(   36) = (  -0.3750000   0.6250000  -0.1250000), wk =   0.0000000
        k(   37) = (  -0.1250000   0.3750000  -0.1250000), wk =   0.0312500
        k(   38) = (  -0.1250000   0.8750000  -0.1250000), wk =   0.0000000
        k(   39) = (  -0.1250000  -0.3750000  -0.1250000), wk =   0.0312500
        k(   40) = (  -0.1250000   0.1250000  -0.1250000), wk =   0.0000000
        k(   41) = (  -0.1250000  -0.6250000   0.1250000), wk =   0.0312500
        k(   42) = (  -0.1250000  -0.1250000   0.1250000), wk =   0.0000000
        k(   43) = (   0.6250000  -0.1250000  -0.1250000), wk =   0.0625000
        k(   44) = (   0.6250000   0.3750000  -0.1250000), wk =   0.0000000
        k(   45) = (   0.6250000   0.1250000   0.1250000), wk =   0.0625000
        k(   46) = (   0.6250000   0.6250000   0.1250000), wk =   0.0000000
        k(   47) = (  -0.8750000   0.1250000  -0.6250000), wk =   0.0625000
        k(   48) = (  -0.8750000   0.6250000  -0.6250000), wk =   0.0000000
        k(   49) = (  -0.1250000   0.6250000  -0.8750000), wk =   0.0625000
        k(   50) = (  -0.1250000   1.1250000  -0.8750000), wk =   0.0000000
        k(   51) = (  -0.1250000   0.8750000  -0.6250000), wk =   0.0625000
        k(   52) = (  -0.1250000   1.3750000  -0.6250000), wk =   0.0000000
        k(   53) = (  -0.1250000  -0.8750000  -0.6250000), wk =   0.0625000
        k(   54) = (  -0.1250000  -0.3750000  -0.6250000), wk =   0.0000000
        k(   55) = (   0.8750000  -0.6250000   0.1250000), wk =   0.0625000
        k(   56) = (   0.8750000  -0.1250000   0.1250000), wk =   0.0000000
        k(   57) = (  -0.6250000  -0.1250000  -0.3750000), wk =   0.0625000
        k(   58) = (  -0.6250000   0.3750000  -0.3750000), wk =   0.0000000
        k(   59) = (   0.1250000   0.3750000  -0.6250000), wk =   0.0625000
        k(   60) = (   0.1250000   0.8750000  -0.6250000), wk =   0.0000000
        k(   61) = (   0.1250000   0.6250000  -0.3750000), wk =   0.0625000
        k(   62) = (   0.1250000   1.1250000  -0.3750000), wk =   0.0000000
        k(   63) = (   0.1250000  -0.6250000  -0.3750000), wk =   0.0625000
        k(   64) = (   0.1250000  -0.1250000  -0.3750000), wk =   0.0000000
        k(   65) = (   0.6250000  -0.3750000  -0.1250000), wk =   0.0625000
        k(   66) = (   0.6250000   0.1250000  -0.1250000), wk =   0.0000000
        k(   67) = (  -0.1250000   0.8750000   0.1250000), wk =   0.0312500
        k(   68) = (  -0.1250000   1.3750000   0.1250000), wk =   0.0000000
        k(   69) = (  -0.8750000  -0.1250000  -0.1250000), wk =   0.0625000
        k(   70) = (  -0.8750000   0.3750000  -0.1250000), wk =   0.0000000
        k(   71) = (  -0.8750000   0.1250000   0.1250000), wk =   0.0625000
        k(   72) = (  -0.8750000   0.6250000   0.1250000), wk =   0.0000000
        k(   73) = (  -0.3750000  -0.3750000   0.3750000), wk =   0.0312500
        k(   74) = (  -0.3750000   0.1250000   0.3750000), wk =   0.0000000
        k(   75) = (  -1.1250000   0.3750000  -0.3750000), wk =   0.0625000
        k(   76) = (  -1.1250000   0.8750000  -0.3750000), wk =   0.0000000
        k(   77) = (  -0.3750000   1.1250000  -0.3750000), wk =   0.0312500
        k(   78) = (  -0.3750000   1.6250000  -0.3750000), wk =   0.0000000
        k(   79) = (  -0.3750000  -1.1250000  -0.3750000), wk =   0.0312500
        k(   80) = (  -0.3750000  -0.6250000  -0.3750000), wk =   0.0000000

     Dense  grid:     2837 G-vectors     FFT dimensions: (  20,  20,  20)

     Estimated max dynamical RAM per process >       0.33MB

     Estimated total allocated dynamical RAM >       1.32MB

     Check: negative/imaginary core charge=   -0.000006    0.000000

     The potential is recalculated from file :
     ./_ph0/silicon.10.356.save/charge-density.dat

     Starting wfc are    8 atomic wfcs

     Band Structure Calculation
     Davidson diagonalization with overlap

     ethr =  1.25E-10,  avg # of iterations = 11.7

     total cpu time spent up to now is        2.2 secs

     End of band structure calculation

          k =-0.1250 0.1250 0.1250 (   344 PWs)   bands (ev):

    -5.6542   4.3260   5.6354   5.6354

          k =-0.1250 0.6250 0.1250 (   351 PWs)   bands (ev):

    -4.1075   1.0011   3.3221   3.7675

          k =-0.3750 0.3750-0.1250 (   355 PWs)   bands (ev):

    -4.6362   1.3448   3.6656   5.1551

          k =-0.3750 0.8750-0.1250 (   361 PWs)   bands (ev):

    -2.4835  -0.9502   1.9850   3.0488

          k = 0.3750-0.3750 0.6250 (   361 PWs)   bands (ev):

    -3.5098  -0.7134   3.6811   4.3907

          k = 0.3750 0.1250 0.6250 (   360 PWs)   bands (ev):

    -3.6969   0.1400   2.6847   4.0414

          k = 0.1250-0.1250 0.3750 (   353 PWs)   bands (ev):

    -5.1306   2.7110   4.6355   4.6954

          k = 0.1250 0.3750 0.3750 (   355 PWs)   bands (ev):

    -4.6362   1.3448   3.6656   5.1551

          k =-0.1250 0.6250 0.1250 (   351 PWs)   bands (ev):

    -4.1075   1.0011   3.3221   3.7675

          k =-0.1250 1.1250 0.1250 (   360 PWs)   bands (ev):

    -2.6474  -0.8546   2.5865   3.3035

          k = 0.6250-0.1250 0.8750 (   361 PWs)   bands (ev):

    -2.4835  -0.9502   1.9850   3.0488

          k = 0.6250 0.3750 0.8750 (   360 PWs)   bands (ev):

    -3.6969   0.1400   2.6847   4.0414

          k = 0.3750 0.1250 0.6250 (   360 PWs)   bands (ev):

    -3.6969   0.1400   2.6847   4.0414

          k = 0.3750 0.6250 0.6250 (   361 PWs)   bands (ev):

    -3.5098  -0.7134   3.6811   4.3907

          k =-0.1250-0.8750 0.1250 (   360 PWs)   bands (ev):

    -2.6474  -0.8546   2.5865   3.3035

          k =-0.1250-0.3750 0.1250 (   353 PWs)   bands (ev):

    -5.1306   2.7110   4.6355   4.6954

          k =-0.3750 0.3750 0.3750 (   353 PWs)   bands (ev):

    -4.2085   0.0696   4.8509   4.8509

          k =-0.3750 0.8750 0.3750 (   363 PWs)   bands (ev):

    -3.0177  -0.6407   2.0391   4.0772

          k = 0.3750-0.3750 1.1250 (   363 PWs)   bands (ev):

    -3.0177  -0.6407   2.0391   4.0772

          k = 0.3750 0.1250 1.1250 (   361 PWs)   bands (ev):

    -2.4835  -0.9502   1.9850   3.0488

          k =-0.1250-0.1250 0.1250 (   344 PWs)   bands (ev):

    -5.6542   4.3260   5.6354   5.6354

          k =-0.1250 0.3750 0.1250 (   353 PWs)   bands (ev):

    -5.1306   2.7110   4.6355   4.6954

          k = 0.1250-0.3750 0.3750 (   355 PWs)   bands (ev):

    -4.6362   1.3448   3.6656   5.1551

          k = 0.1250 0.1250 0.3750 (   353 PWs)   bands (ev):

    -5.1306   2.7110   4.6355   4.6954

          k = 0.3750-0.1250 0.3750 (   355 PWs)   bands (ev):

    -4.6362   1.3448   3.6656   5.1551

          k = 0.3750 0.3750 0.3750 (   353 PWs)   bands (ev):

    -4.2085   0.0696   4.8509   4.8509

          k = 0.3750 0.1250 0.3750 (   355 PWs)   bands (ev):

    -4.6362   1.3448   3.6656   5.1551

          k = 0.3750 0.6250 0.3750 (   361 PWs)   bands (ev):

    -3.5098  -0.7134   3.6811   4.3907

          k =-0.6250 0.3750-0.3750 (   361 PWs)   bands (ev):

    -3.5098  -0.7134   3.6811   4.3907

          k =-0.6250 0.8750-0.3750 (   360 PWs)   bands (ev):

    -3.6969   0.1400   2.6847   4.0414

          k =-0.3750 0.6250-0.3750 (   361 PWs)   bands (ev):

    -3.5098  -0.7134   3.6811   4.3907

          k =-0.3750 1.1250-0.3750 (   363 PWs)   bands (ev):

    -3.0177  -0.6407   2.0391   4.0772

          k =-0.3750-0.6250-0.3750 (   361 PWs)   bands (ev):

    -3.5098  -0.7134   3.6811   4.3907

          k =-0.3750-0.1250-0.3750 (   355 PWs)   bands (ev):

    -4.6362   1.3448   3.6656   5.1551

          k =-0.3750 0.1250-0.1250 (   353 PWs)   bands (ev):

    -5.1306   2.7110   4.6355   4.6954

          k =-0.3750 0.6250-0.1250 (   360 PWs)   bands (ev):

    -3.6969   0.1400   2.6847   4.0414

          k =-0.1250 0.3750-0.1250 (   353 PWs)   bands (ev):

    -5.1306   2.7110   4.6355   4.6954

          k =-0.1250 0.8750-0.1250 (   360 PWs)   bands (ev):

    -2.6474  -0.8546   2.5865   3.3035

          k =-0.1250-0.3750-0.1250 (   353 PWs)   bands (ev):

    -5.1306   2.7110   4.6355   4.6954

          k =-0.1250 0.1250-0.1250 (   344 PWs)   bands (ev):

    -5.6542   4.3260   5.6354   5.6354

          k =-0.1250-0.6250 0.1250 (   351 PWs)   bands (ev):

    -4.1075   1.0011   3.3221   3.7675

          k =-0.1250-0.1250 0.1250 (   344 PWs)   bands (ev):

    -5.6542   4.3260   5.6354   5.6354

          k = 0.6250-0.1250-0.1250 (   351 PWs)   bands (ev):

    -4.1075   1.0011   3.3221   3.7675

          k = 0.6250 0.3750-0.1250 (   360 PWs)   bands (ev):

    -3.6969   0.1400   2.6847   4.0414

          k = 0.6250 0.1250 0.1250 (   351 PWs)   bands (ev):

    -4.1075   1.0011   3.3221   3.7675

          k = 0.6250 0.6250 0.1250 (   363 PWs)   bands (ev):

    -3.0177  -0.6407   2.0391   4.0772

          k =-0.8750 0.1250-0.6250 (   361 PWs)   bands (ev):

    -2.4835  -0.9502   1.9850   3.0488

          k =-0.8750 0.6250-0.6250 (   355 PWs)   bands (ev):

    -4.6362   1.3448   3.6656   5.1551

          k =-0.1250 0.6250-0.8750 (   361 PWs)   bands (ev):

    -2.4835  -0.9502   1.9850   3.0488

          k =-0.1250 1.1250-0.8750 (   360 PWs)   bands (ev):

    -2.6474  -0.8546   2.5865   3.3035

          k =-0.1250 0.8750-0.6250 (   361 PWs)   bands (ev):

    -2.4835  -0.9502   1.9850   3.0488

          k =-0.1250 1.3750-0.6250 (   363 PWs)   bands (ev):

    -3.0177  -0.6407   2.0391   4.0772

          k =-0.1250-0.8750-0.6250 (   361 PWs)   bands (ev):

    -2.4835  -0.9502   1.9850   3.0488

          k =-0.1250-0.3750-0.6250 (   360 PWs)   bands (ev):

    -3.6969   0.1400   2.6847   4.0414

          k = 0.8750-0.6250 0.1250 (   361 PWs)   bands (ev):

    -2.4835  -0.9502   1.9850   3.0488

          k = 0.8750-0.1250 0.1250 (   360 PWs)   bands (ev):

    -2.6474  -0.8546   2.5865   3.3035

          k =-0.6250-0.1250-0.3750 (   360 PWs)   bands (ev):

    -3.6969   0.1400   2.6847   4.0414

          k =-0.6250 0.3750-0.3750 (   361 PWs)   bands (ev):

    -3.5098  -0.7134   3.6811   4.3907

          k = 0.1250 0.3750-0.6250 (   360 PWs)   bands (ev):

    -3.6969   0.1400   2.6847   4.0414

          k = 0.1250 0.8750-0.6250 (   361 PWs)   bands (ev):

    -2.4835  -0.9502   1.9850   3.0488

          k = 0.1250 0.6250-0.3750 (   360 PWs)   bands (ev):

    -3.6969   0.1400   2.6847   4.0414

          k = 0.1250 1.1250-0.3750 (   361 PWs)   bands (ev):

    -2.4835  -0.9502   1.9850   3.0488

          k = 0.1250-0.6250-0.3750 (   360 PWs)   bands (ev):

    -3.6969   0.1400   2.6847   4.0414

          k = 0.1250-0.1250-0.3750 (   353 PWs)   bands (ev):

    -5.1306   2.7110   4.6355   4.6954

          k = 0.6250-0.3750-0.1250 (   360 PWs)   bands (ev):

    -3.6969   0.1400   2.6847   4.0414

          k = 0.6250 0.1250-0.1250 (   351 PWs)   bands (ev):

    -4.1075   1.0011   3.3221   3.7675

          k =-0.1250 0.8750 0.1250 (   360 PWs)   bands (ev):

    -2.6474  -0.8546   2.5865   3.3035

          k =-0.1250 1.3750 0.1250 (   351 PWs)   bands (ev):

    -4.1075   1.0011   3.3221   3.7675

          k =-0.8750-0.1250-0.1250 (   360 PWs)   bands (ev):

    -2.6474  -0.8546   2.5865   3.3035

          k =-0.8750 0.3750-0.1250 (   361 PWs)   bands (ev):

    -2.4835  -0.9502   1.9850   3.0488

          k =-0.8750 0.1250 0.1250 (   360 PWs)   bands (ev):

    -2.6474  -0.8546   2.5865   3.3035

          k =-0.8750 0.6250 0.1250 (   361 PWs)   bands (ev):

    -2.4835  -0.9502   1.9850   3.0488

          k =-0.3750-0.3750 0.3750 (   353 PWs)   bands (ev):

    -4.2085   0.0696   4.8509   4.8509

          k =-0.3750 0.1250 0.3750 (   355 PWs)   bands (ev):

    -4.6362   1.3448   3.6656   5.1551

          k =-1.1250 0.3750-0.3750 (   363 PWs)   bands (ev):

    -3.0177  -0.6407   2.0391   4.0772

          k =-1.1250 0.8750-0.3750 (   351 PWs)   bands (ev):

    -4.1075   1.0011   3.3221   3.7675

          k =-0.3750 1.1250-0.3750 (   363 PWs)   bands (ev):

    -3.0177  -0.6407   2.0391   4.0772

          k =-0.3750 1.6250-0.3750 (   353 PWs)   bands (ev):

    -4.2085   0.0696   4.8509   4.8509

          k =-0.3750-1.1250-0.3750 (   363 PWs)   bands (ev):

    -3.0177  -0.6407   2.0391   4.0772

          k =-0.3750-0.6250-0.3750 (   361 PWs)   bands (ev):

    -3.5098  -0.7134   3.6811   4.3907

     highest occupied level (ev):     5.6354

     Writing output data file silicon.10.356.save

                                                                                

     bravais-lattice index     =            2
     lattice parameter (alat)  =      10.3560  a.u.
     unit-cell volume          =     277.6618 (a.u.)^3
     number of atoms/cell      =            2
     number of atomic types    =            1
     kinetic-energy cut-off    =      18.0000  Ry
     charge density cut-off    =      72.0000  Ry
     convergence threshold     =      1.0E-12
     beta                      =       0.7000
     number of iterations used =            4
     Exchange-correlation      = SLA  PW   PBE  PBE ( 1  4  3  4 0 0)


     celldm(1)=   10.35600  celldm(2)=    0.00000  celldm(3)=    0.00000
     celldm(4)=    0.00000  celldm(5)=    0.00000  celldm(6)=    0.00000

     crystal axes: (cart. coord. in units of alat)
               a(1) = ( -0.5000  0.0000  0.5000 )  
               a(2) = (  0.0000  0.5000  0.5000 )  
               a(3) = ( -0.5000  0.5000  0.0000 )  

     reciprocal axes: (cart. coord. in units 2 pi/alat)
               b(1) = ( -1.0000 -1.0000  1.0000 )  
               b(2) = (  1.0000  1.0000  1.0000 )  
               b(3) = ( -1.0000  1.0000 -1.0000 )  


     Atoms inside the unit cell: 

     Cartesian axes

     site n.  atom      mass           positions (alat units)
        1     Si  28.0860   tau(    1) = (    0.00000    0.00000    0.00000  )
        2     Si  28.0860   tau(    2) = (    0.25000    0.25000    0.25000  )

     Computing dynamical matrix for 
                    q = (   0.0000000   0.5000000   0.0000000 )

      8 Sym.Ops. (no q -> -q+G )


     G cutoff =  195.5946  (    710 G-vectors)     FFT grid: ( 20, 20, 20)
     number of k points=    80

     PseudoPot. # 1 for Si read from file:
     /home/max/quantum_espresso/qe-6.1/pseudo/si_pbe_v1.uspp.F.UPF.txt
     MD5 check sum: a056efeee980c13900f22a371efd63c1
     Pseudo is Ultrasoft + core correction, Zval =  4.0
     Generated by new atomic code, or converted to UPF format
     Using radial grid of  899 points,  6 beta functions with: 
                l(1) =   0
                l(2) =   0
                l(3) =   1
                l(4) =   1
                l(5) =   2
                l(6) =   2
     Q(r) pseudized with  8 coefficients,  rinner =    0.900   0.900   0.900
                                                       0.900   0.900

     Mode symmetry, C_4v (4mm)  point group:


     Atomic displacements:
     There are   4 irreducible representations

     Representation     1      1 modes -A_1  G_1 D_1  To be done

     Representation     2      1 modes -B_2  G_4 D_2'  To be done

     Representation     3      2 modes -E    G_5 D_5  To be done

     Representation     4      2 modes -E    G_5 D_5  To be done



     Alpha used in Ewald sum =   0.7000
     PHONON       :    23.18s CPU        25.69s WALL



     Representation #  1 mode #   1

     Self-consistent Calculation

      iter #   1 total cpu time :    26.0 secs   av.it.:   5.8
      thresh= 1.000E-02 alpha_mix =  0.700 |ddv_scf|^2 =  2.955E-03

      iter #   2 total cpu time :    26.2 secs   av.it.:   7.7
      thresh= 5.436E-03 alpha_mix =  0.700 |ddv_scf|^2 =  3.900E-02

      iter #   3 total cpu time :    26.4 secs   av.it.:   6.7
      thresh= 1.000E-02 alpha_mix =  0.700 |ddv_scf|^2 =  1.494E-07

      iter #   4 total cpu time :    26.6 secs   av.it.:   8.1
      thresh= 3.865E-05 alpha_mix =  0.700 |ddv_scf|^2 =  1.442E-08

      iter #   5 total cpu time :    26.8 secs   av.it.:   7.8
      thresh= 1.201E-05 alpha_mix =  0.700 |ddv_scf|^2 =  7.143E-10

      iter #   6 total cpu time :    27.0 secs   av.it.:   7.9
      thresh= 2.673E-06 alpha_mix =  0.700 |ddv_scf|^2 =  2.882E-12

      iter #   7 total cpu time :    27.3 secs   av.it.:   7.9
      thresh= 1.698E-07 alpha_mix =  0.700 |ddv_scf|^2 =  5.512E-13

     End of self-consistent calculation

     Convergence has been achieved 


     Representation #  2 mode #   2

     Self-consistent Calculation

      iter #   1 total cpu time :    27.4 secs   av.it.:   4.9
      thresh= 1.000E-02 alpha_mix =  0.700 |ddv_scf|^2 =  5.514E-06

      iter #   2 total cpu time :    27.7 secs   av.it.:   8.7
      thresh= 2.348E-04 alpha_mix =  0.700 |ddv_scf|^2 =  1.349E-06

      iter #   3 total cpu time :    28.1 secs   av.it.:   8.5
      thresh= 1.162E-04 alpha_mix =  0.700 |ddv_scf|^2 =  4.344E-08

      iter #   4 total cpu time :    28.3 secs   av.it.:   8.2
      thresh= 2.084E-05 alpha_mix =  0.700 |ddv_scf|^2 =  7.345E-10

      iter #   5 total cpu time :    28.5 secs   av.it.:   8.6
      thresh= 2.710E-06 alpha_mix =  0.700 |ddv_scf|^2 =  6.966E-12

      iter #   6 total cpu time :    28.7 secs   av.it.:   7.9
      thresh= 2.639E-07 alpha_mix =  0.700 |ddv_scf|^2 =  7.502E-14

     End of self-consistent calculation

     Convergence has been achieved 


     Representation #  3 modes #   3  4

     Self-consistent Calculation

      iter #   1 total cpu time :    29.1 secs   av.it.:   5.0
      thresh= 1.000E-02 alpha_mix =  0.700 |ddv_scf|^2 =  1.023E-06

      iter #   2 total cpu time :    29.6 secs   av.it.:   9.7
      thresh= 1.012E-04 alpha_mix =  0.700 |ddv_scf|^2 =  1.269E-07

      iter #   3 total cpu time :    30.2 secs   av.it.:   9.5
      thresh= 3.563E-05 alpha_mix =  0.700 |ddv_scf|^2 =  6.776E-09

      iter #   4 total cpu time :    30.6 secs   av.it.:   8.8
      thresh= 8.232E-06 alpha_mix =  0.700 |ddv_scf|^2 =  9.623E-12

      iter #   5 total cpu time :    31.1 secs   av.it.:   9.2
      thresh= 3.102E-07 alpha_mix =  0.700 |ddv_scf|^2 =  3.024E-13

     End of self-consistent calculation

     Convergence has been achieved 


     Representation #  4 modes #   5  6

     Self-consistent Calculation

      iter #   1 total cpu time :    31.5 secs   av.it.:   5.0
      thresh= 1.000E-02 alpha_mix =  0.700 |ddv_scf|^2 =  9.399E-07

      iter #   2 total cpu time :    32.1 secs   av.it.:   9.8
      thresh= 9.695E-05 alpha_mix =  0.700 |ddv_scf|^2 =  1.190E-07

      iter #   3 total cpu time :    32.6 secs   av.it.:   9.4
      thresh= 3.449E-05 alpha_mix =  0.700 |ddv_scf|^2 =  7.105E-09

      iter #   4 total cpu time :    33.0 secs   av.it.:   8.9
      thresh= 8.429E-06 alpha_mix =  0.700 |ddv_scf|^2 =  1.495E-11

      iter #   5 total cpu time :    33.5 secs   av.it.:   9.2
      thresh= 3.867E-07 alpha_mix =  0.700 |ddv_scf|^2 =  4.470E-14

     End of self-consistent calculation

     Convergence has been achieved 

     Number of q in the star =    6
     List of q in the star:
          1   0.000000000   0.500000000   0.000000000
          2   0.000000000  -0.500000000   0.000000000
          3   0.500000000   0.000000000   0.000000000
          4   0.000000000   0.000000000   0.500000000
          5   0.000000000   0.000000000  -0.500000000
          6  -0.500000000   0.000000000   0.000000000

     Diagonalizing the dynamical matrix

     q = (    0.000000000   0.500000000   0.000000000 ) 

 **************************************************************************
     freq (    1) =       4.302515 [THz] =     143.516447 [cm-1]
     freq (    2) =       4.302515 [THz] =     143.516447 [cm-1]
     freq (    3) =       7.117661 [THz] =     237.419628 [cm-1]
     freq (    4) =      13.973350 [THz] =     466.100800 [cm-1]
     freq (    5) =      13.973350 [THz] =     466.100800 [cm-1]
     freq (    6) =      14.616621 [THz] =     487.557992 [cm-1]
 **************************************************************************

     Mode symmetry, C_4v (4mm)  point group:

     freq (  1 -  2) =        143.5  [cm-1]   --> E    G_5 D_5       
     freq (  3 -  3) =        237.4  [cm-1]   --> A_1  G_1 D_1       
     freq (  4 -  5) =        466.1  [cm-1]   --> E    G_5 D_5       
     freq (  6 -  6) =        487.6  [cm-1]   --> B_2  G_4 D_2'      

     Calculation of q =    0.7500000  -0.2500000   0.7500000

   Info: using nr1, nr2, nr3 values from input

   Info: using nr1, nr2, nr3 values from input

     Parallelization info
     --------------------
     sticks:   dense  smooth     PW     G-vecs:    dense   smooth      PW
     Min          64      64     30                  709      709     216
     Max          67      67     31                  710      710     218
     Sum         265     265    121                 2837     2837     869



     bravais-lattice index     =            2
     lattice parameter (alat)  =      10.3560  a.u.
     unit-cell volume          =     277.6618 (a.u.)^3
     number of atoms/cell      =            2
     number of atomic types    =            1
     number of electrons       =         8.00
     number of Kohn-Sham states=            4
     kinetic-energy cutoff     =      18.0000  Ry
     charge density cutoff     =      72.0000  Ry
     Exchange-correlation      = SLA  PW   PBE  PBE ( 1  4  3  4 0 0)

     celldm(1)=  10.356000  celldm(2)=   0.000000  celldm(3)=   0.000000
     celldm(4)=   0.000000  celldm(5)=   0.000000  celldm(6)=   0.000000

     crystal axes: (cart. coord. in units of alat)
               a(1) = (  -0.500000   0.000000   0.500000 )  
               a(2) = (   0.000000   0.500000   0.500000 )  
               a(3) = (  -0.500000   0.500000   0.000000 )  

     reciprocal axes: (cart. coord. in units 2 pi/alat)
               b(1) = ( -1.000000 -1.000000  1.000000 )  
               b(2) = (  1.000000  1.000000  1.000000 )  
               b(3) = ( -1.000000  1.000000 -1.000000 )  


     PseudoPot. # 1 for Si read from file:
     /home/max/quantum_espresso/qe-6.1/pseudo/si_pbe_v1.uspp.F.UPF.txt
     MD5 check sum: a056efeee980c13900f22a371efd63c1
     Pseudo is Ultrasoft + core correction, Zval =  4.0
     Generated by new atomic code, or converted to UPF format
     Using radial grid of  899 points,  6 beta functions with: 
                l(1) =   0
                l(2) =   0
                l(3) =   1
                l(4) =   1
                l(5) =   2
                l(6) =   2
     Q(r) pseudized with  8 coefficients,  rinner =    0.900   0.900   0.900
                                                       0.900   0.900

     atomic species   valence    mass     pseudopotential
        Si             4.00    28.08600     Si( 1.00)

     48 Sym. Ops., with inversion, found



   Cartesian axes

     site n.     atom                  positions (alat units)
         1           Si  tau(   1) = (   0.0000000   0.0000000   0.0000000  )
         2           Si  tau(   2) = (   0.2500000   0.2500000   0.2500000  )

     number of k points=   288

     Number of k-points >= 100: set verbosity='high' to print them.

     Dense  grid:     2837 G-vectors     FFT dimensions: (  20,  20,  20)

     Estimated max dynamical RAM per process >       0.33MB

     Estimated total allocated dynamical RAM >       1.32MB

     Check: negative/imaginary core charge=   -0.000006    0.000000

     The potential is recalculated from file :
     ./_ph0/silicon.10.356.save/charge-density.dat

     Starting wfc are    8 atomic wfcs

     Band Structure Calculation
     Davidson diagonalization with overlap

     ethr =  1.25E-10,  avg # of iterations = 11.6

     total cpu time spent up to now is        4.5 secs

     End of band structure calculation

     Number of k-points >= 100: set verbosity='high' to print the bands.

     highest occupied level (ev):     5.6354

     Writing output data file silicon.10.356.save

                                                                                

     bravais-lattice index     =            2
     lattice parameter (alat)  =      10.3560  a.u.
     unit-cell volume          =     277.6618 (a.u.)^3
     number of atoms/cell      =            2
     number of atomic types    =            1
     kinetic-energy cut-off    =      18.0000  Ry
     charge density cut-off    =      72.0000  Ry
     convergence threshold     =      1.0E-12
     beta                      =       0.7000
     number of iterations used =            4
     Exchange-correlation      = SLA  PW   PBE  PBE ( 1  4  3  4 0 0)


     celldm(1)=   10.35600  celldm(2)=    0.00000  celldm(3)=    0.00000
     celldm(4)=    0.00000  celldm(5)=    0.00000  celldm(6)=    0.00000

     crystal axes: (cart. coord. in units of alat)
               a(1) = ( -0.5000  0.0000  0.5000 )  
               a(2) = (  0.0000  0.5000  0.5000 )  
               a(3) = ( -0.5000  0.5000  0.0000 )  

     reciprocal axes: (cart. coord. in units 2 pi/alat)
               b(1) = ( -1.0000 -1.0000  1.0000 )  
               b(2) = (  1.0000  1.0000  1.0000 )  
               b(3) = ( -1.0000  1.0000 -1.0000 )  


     Atoms inside the unit cell: 

     Cartesian axes

     site n.  atom      mass           positions (alat units)
        1     Si  28.0860   tau(    1) = (    0.00000    0.00000    0.00000  )
        2     Si  28.0860   tau(    2) = (    0.25000    0.25000    0.25000  )

     Computing dynamical matrix for 
                    q = (   0.7500000  -0.2500000   0.7500000 )

      2 Sym.Ops. (no q -> -q+G )


     G cutoff =  195.5946  (    710 G-vectors)     FFT grid: ( 20, 20, 20)
     number of k points=   288

     PseudoPot. # 1 for Si read from file:
     /home/max/quantum_espresso/qe-6.1/pseudo/si_pbe_v1.uspp.F.UPF.txt
     MD5 check sum: a056efeee980c13900f22a371efd63c1
     Pseudo is Ultrasoft + core correction, Zval =  4.0
     Generated by new atomic code, or converted to UPF format
     Using radial grid of  899 points,  6 beta functions with: 
                l(1) =   0
                l(2) =   0
                l(3) =   1
                l(4) =   1
                l(5) =   2
                l(6) =   2
     Q(r) pseudized with  8 coefficients,  rinner =    0.900   0.900   0.900
                                                       0.900   0.900

     Mode symmetry, C_s (m)     point group:


     Atomic displacements:
     There are   6 irreducible representations

     Representation     1      1 modes -A'  To be done

     Representation     2      1 modes -A'  To be done

     Representation     3      1 modes -A'  To be done

     Representation     4      1 modes -A'  To be done

     Representation     5      1 modes -A''  To be done

     Representation     6      1 modes -A''  To be done



     Alpha used in Ewald sum =   0.7000
     PHONON       :    32.94s CPU        36.51s WALL



     Representation #  1 mode #   1

     Self-consistent Calculation

      iter #   1 total cpu time :    37.1 secs   av.it.:   5.3
      thresh= 1.000E-02 alpha_mix =  0.700 |ddv_scf|^2 =  6.104E-05

      iter #   2 total cpu time :    38.0 secs   av.it.:   8.9
      thresh= 7.813E-04 alpha_mix =  0.700 |ddv_scf|^2 =  1.603E-04

      iter #   3 total cpu time :    38.7 secs   av.it.:   7.6
      thresh= 1.266E-03 alpha_mix =  0.700 |ddv_scf|^2 =  1.147E-06

      iter #   4 total cpu time :    39.5 secs   av.it.:   8.4
      thresh= 1.071E-04 alpha_mix =  0.700 |ddv_scf|^2 =  6.274E-08

      iter #   5 total cpu time :    40.4 secs   av.it.:   8.3
      thresh= 2.505E-05 alpha_mix =  0.700 |ddv_scf|^2 =  7.593E-09

      iter #   6 total cpu time :    41.1 secs   av.it.:   8.5
      thresh= 8.714E-06 alpha_mix =  0.700 |ddv_scf|^2 =  8.528E-11

      iter #   7 total cpu time :    42.0 secs   av.it.:   8.8
      thresh= 9.235E-07 alpha_mix =  0.700 |ddv_scf|^2 =  3.070E-12

      iter #   8 total cpu time :    42.8 secs   av.it.:   8.6
      thresh= 1.752E-07 alpha_mix =  0.700 |ddv_scf|^2 =  1.952E-13

     End of self-consistent calculation

     Convergence has been achieved 


     Representation #  2 mode #   2

     Self-consistent Calculation

      iter #   1 total cpu time :    43.5 secs   av.it.:   5.4
      thresh= 1.000E-02 alpha_mix =  0.700 |ddv_scf|^2 =  1.086E-04

      iter #   2 total cpu time :    44.4 secs   av.it.:   8.7
      thresh= 1.042E-03 alpha_mix =  0.700 |ddv_scf|^2 =  3.101E-04

      iter #   3 total cpu time :    45.1 secs   av.it.:   7.4
      thresh= 1.761E-03 alpha_mix =  0.700 |ddv_scf|^2 =  7.975E-07

      iter #   4 total cpu time :    46.0 secs   av.it.:   8.6
      thresh= 8.930E-05 alpha_mix =  0.700 |ddv_scf|^2 =  6.104E-08

      iter #   5 total cpu time :    46.8 secs   av.it.:   8.2
      thresh= 2.471E-05 alpha_mix =  0.700 |ddv_scf|^2 =  1.087E-08

      iter #   6 total cpu time :    47.6 secs   av.it.:   8.5
      thresh= 1.042E-05 alpha_mix =  0.700 |ddv_scf|^2 =  8.480E-11

      iter #   7 total cpu time :    48.5 secs   av.it.:   8.7
      thresh= 9.209E-07 alpha_mix =  0.700 |ddv_scf|^2 =  2.724E-12

      iter #   8 total cpu time :    49.3 secs   av.it.:   8.7
      thresh= 1.650E-07 alpha_mix =  0.700 |ddv_scf|^2 =  7.231E-13

     End of self-consistent calculation

     Convergence has been achieved 


     Representation #  3 mode #   3

     Self-consistent Calculation

      iter #   1 total cpu time :    50.1 secs   av.it.:   5.3
      thresh= 1.000E-02 alpha_mix =  0.700 |ddv_scf|^2 =  8.518E-05

      iter #   2 total cpu time :    50.9 secs   av.it.:   8.7
      thresh= 9.229E-04 alpha_mix =  0.700 |ddv_scf|^2 =  2.274E-04

      iter #   3 total cpu time :    51.6 secs   av.it.:   7.4
      thresh= 1.508E-03 alpha_mix =  0.700 |ddv_scf|^2 =  1.357E-06

      iter #   4 total cpu time :    52.5 secs   av.it.:   8.2
      thresh= 1.165E-04 alpha_mix =  0.700 |ddv_scf|^2 =  6.267E-08

      iter #   5 total cpu time :    53.2 secs   av.it.:   8.4
      thresh= 2.503E-05 alpha_mix =  0.700 |ddv_scf|^2 =  1.121E-08

      iter #   6 total cpu time :    54.2 secs   av.it.:   8.5
      thresh= 1.059E-05 alpha_mix =  0.700 |ddv_scf|^2 =  4.828E-11

      iter #   7 total cpu time :    54.9 secs   av.it.:   8.7
      thresh= 6.949E-07 alpha_mix =  0.700 |ddv_scf|^2 =  1.764E-12

      iter #   8 total cpu time :    55.7 secs   av.it.:   8.8
      thresh= 1.328E-07 alpha_mix =  0.700 |ddv_scf|^2 =  3.281E-13

     End of self-consistent calculation

     Convergence has been achieved 


     Representation #  4 mode #   4

     Self-consistent Calculation

      iter #   1 total cpu time :    56.5 secs   av.it.:   5.2
      thresh= 1.000E-02 alpha_mix =  0.700 |ddv_scf|^2 =  3.767E-05

      iter #   2 total cpu time :    57.3 secs   av.it.:   8.9
[...]
        k(   59) = (  -0.8750000   0.1250000  -0.1250000), wk =   0.0625000
        k(   60) = (  -1.3750000  -0.8750000  -0.1250000), wk =   0.0000000
        k(   61) = (  -1.1250000   0.3750000  -0.3750000), wk =   0.0625000
        k(   62) = (  -1.6250000  -0.6250000  -0.3750000), wk =   0.0000000
        k(   63) = (  -0.3750000   0.3750000   1.1250000), wk =   0.0625000
        k(   64) = (  -0.8750000  -0.6250000   1.1250000), wk =   0.0000000

     Dense  grid:     2837 G-vectors     FFT dimensions: (  20,  20,  20)

     Estimated max dynamical RAM per process >       0.33MB

     Estimated total allocated dynamical RAM >       1.32MB

     Check: negative/imaginary core charge=   -0.000006    0.000000

     The potential is recalculated from file :
     ./_ph0/silicon.10.356.save/charge-density.dat

     Starting wfc are    8 atomic wfcs

     Band Structure Calculation
     Davidson diagonalization with overlap

     ethr =  1.25E-10,  avg # of iterations = 11.6

     total cpu time spent up to now is        6.8 secs

     End of band structure calculation

          k =-0.1250 0.1250 0.1250 (   344 PWs)   bands (ev):

    -5.6542   4.3260   5.6354   5.6354

          k =-0.6250-0.8750 0.1250 (   361 PWs)   bands (ev):

    -2.4835  -0.9502   1.9850   3.0488

          k =-0.3750 0.3750-0.1250 (   355 PWs)   bands (ev):

    -4.6362   1.3448   3.6656   5.1551

          k =-0.8750-0.6250-0.1250 (   361 PWs)   bands (ev):

    -2.4835  -0.9502   1.9850   3.0488

          k = 0.3750-0.3750 0.6250 (   361 PWs)   bands (ev):

    -3.5098  -0.7134   3.6811   4.3907

          k =-0.1250-1.3750 0.6250 (   363 PWs)   bands (ev):

    -3.0177  -0.6407   2.0391   4.0772

          k = 0.1250-0.1250 0.3750 (   353 PWs)   bands (ev):

    -5.1306   2.7110   4.6355   4.6954

          k =-0.3750-1.1250 0.3750 (   363 PWs)   bands (ev):

    -3.0177  -0.6407   2.0391   4.0772

          k =-0.1250 0.6250 0.1250 (   351 PWs)   bands (ev):

    -4.1075   1.0011   3.3221   3.7675

          k =-0.6250-0.3750 0.1250 (   360 PWs)   bands (ev):

    -3.6969   0.1400   2.6847   4.0414

          k = 0.6250-0.1250 0.8750 (   361 PWs)   bands (ev):

    -2.4835  -0.9502   1.9850   3.0488

          k = 0.1250-1.1250 0.8750 (   360 PWs)   bands (ev):

    -2.6474  -0.8546   2.5865   3.3035

          k = 0.3750 0.1250 0.6250 (   360 PWs)   bands (ev):

    -3.6969   0.1400   2.6847   4.0414

          k =-0.1250-0.8750 0.6250 (   361 PWs)   bands (ev):

    -2.4835  -0.9502   1.9850   3.0488

          k =-0.1250-0.8750 0.1250 (   360 PWs)   bands (ev):

    -2.6474  -0.8546   2.5865   3.3035

          k =-0.6250-1.8750 0.1250 (   351 PWs)   bands (ev):

    -4.1075   1.0011   3.3221   3.7675

          k =-0.3750 0.3750 0.3750 (   353 PWs)   bands (ev):

    -4.2085   0.0696   4.8509   4.8509

          k =-0.8750-0.6250 0.3750 (   360 PWs)   bands (ev):

    -3.6969   0.1400   2.6847   4.0414

          k = 0.3750-0.3750 1.1250 (   363 PWs)   bands (ev):

    -3.0177  -0.6407   2.0391   4.0772

          k =-0.1250-1.3750 1.1250 (   361 PWs)   bands (ev):

    -2.4835  -0.9502   1.9850   3.0488

          k = 0.1250-0.3750 0.3750 (   355 PWs)   bands (ev):

    -4.6362   1.3448   3.6656   5.1551

          k =-0.3750-1.3750 0.3750 (   361 PWs)   bands (ev):

    -3.5098  -0.7134   3.6811   4.3907

          k = 0.3750-0.3750-0.1250 (   355 PWs)   bands (ev):

    -4.6362   1.3448   3.6656   5.1551

          k =-0.1250-1.3750-0.1250 (   351 PWs)   bands (ev):

    -4.1075   1.0011   3.3221   3.7675

          k =-0.6250 0.3750-0.3750 (   361 PWs)   bands (ev):

    -3.5098  -0.7134   3.6811   4.3907

          k =-1.1250-0.6250-0.3750 (   360 PWs)   bands (ev):

    -3.6969   0.1400   2.6847   4.0414

          k =-0.3750 0.3750 0.6250 (   361 PWs)   bands (ev):

    -3.5098  -0.7134   3.6811   4.3907

          k =-0.8750-0.6250 0.6250 (   355 PWs)   bands (ev):

    -4.6362   1.3448   3.6656   5.1551

          k =-0.3750 0.1250-0.1250 (   353 PWs)   bands (ev):

    -5.1306   2.7110   4.6355   4.6954

          k =-0.8750-0.8750-0.1250 (   360 PWs)   bands (ev):

    -2.6474  -0.8546   2.5865   3.3035

          k =-0.1250 0.1250 0.3750 (   353 PWs)   bands (ev):

    -5.1306   2.7110   4.6355   4.6954

          k =-0.6250-0.8750 0.3750 (   360 PWs)   bands (ev):

    -3.6969   0.1400   2.6847   4.0414

          k = 0.1250 0.6250-0.1250 (   351 PWs)   bands (ev):

    -4.1075   1.0011   3.3221   3.7675

          k =-0.3750-0.3750-0.1250 (   355 PWs)   bands (ev):

    -4.6362   1.3448   3.6656   5.1551

          k = 0.6250 0.1250-0.1250 (   351 PWs)   bands (ev):

    -4.1075   1.0011   3.3221   3.7675

          k = 0.1250-0.8750-0.1250 (   360 PWs)   bands (ev):

    -2.6474  -0.8546   2.5865   3.3035

          k =-0.8750 0.1250-0.6250 (   361 PWs)   bands (ev):

    -2.4835  -0.9502   1.9850   3.0488

          k =-1.3750-0.8750-0.6250 (   355 PWs)   bands (ev):

    -4.6362   1.3448   3.6656   5.1551

          k = 0.8750-0.1250 0.6250 (   361 PWs)   bands (ev):

    -2.4835  -0.9502   1.9850   3.0488

          k = 0.3750-1.1250 0.6250 (   360 PWs)   bands (ev):

    -3.6969   0.1400   2.6847   4.0414

          k =-0.6250 0.1250 0.8750 (   361 PWs)   bands (ev):

    -2.4835  -0.9502   1.9850   3.0488

          k =-1.1250-0.8750 0.8750 (   344 PWs)   bands (ev):

    -5.6542   4.3260   5.6354   5.6354

          k =-0.1250 0.8750 0.6250 (   361 PWs)   bands (ev):

    -2.4835  -0.9502   1.9850   3.0488

          k =-0.6250-0.1250 0.6250 (   363 PWs)   bands (ev):

    -3.0177  -0.6407   2.0391   4.0772

          k = 0.1250 0.8750-0.6250 (   361 PWs)   bands (ev):

    -2.4835  -0.9502   1.9850   3.0488

          k =-0.3750-0.1250-0.6250 (   360 PWs)   bands (ev):

    -3.6969   0.1400   2.6847   4.0414

          k =-0.6250-0.1250-0.3750 (   360 PWs)   bands (ev):

    -3.6969   0.1400   2.6847   4.0414

          k =-1.1250-1.1250-0.3750 (   351 PWs)   bands (ev):

    -4.1075   1.0011   3.3221   3.7675

          k = 0.6250 0.1250 0.3750 (   360 PWs)   bands (ev):

    -3.6969   0.1400   2.6847   4.0414

          k = 0.1250-0.8750 0.3750 (   361 PWs)   bands (ev):

    -2.4835  -0.9502   1.9850   3.0488

          k =-0.3750-0.1250 0.6250 (   360 PWs)   bands (ev):

    -3.6969   0.1400   2.6847   4.0414

          k =-0.8750-1.1250 0.6250 (   353 PWs)   bands (ev):

    -5.1306   2.7110   4.6355   4.6954

          k = 0.1250 0.6250 0.3750 (   360 PWs)   bands (ev):

    -3.6969   0.1400   2.6847   4.0414

          k =-0.3750-0.3750 0.3750 (   353 PWs)   bands (ev):

    -4.2085   0.0696   4.8509   4.8509

          k =-0.1250 0.6250-0.3750 (   360 PWs)   bands (ev):

    -3.6969   0.1400   2.6847   4.0414

          k =-0.6250-0.3750-0.3750 (   361 PWs)   bands (ev):

    -3.5098  -0.7134   3.6811   4.3907

          k = 0.1250-0.8750-0.1250 (   360 PWs)   bands (ev):

    -2.6474  -0.8546   2.5865   3.3035

          k =-0.3750-1.8750-0.1250 (   353 PWs)   bands (ev):

    -5.1306   2.7110   4.6355   4.6954

          k =-0.8750 0.1250-0.1250 (   360 PWs)   bands (ev):

    -2.6474  -0.8546   2.5865   3.3035

          k =-1.3750-0.8750-0.1250 (   361 PWs)   bands (ev):

    -2.4835  -0.9502   1.9850   3.0488

          k =-1.1250 0.3750-0.3750 (   363 PWs)   bands (ev):

    -3.0177  -0.6407   2.0391   4.0772

          k =-1.6250-0.6250-0.3750 (   361 PWs)   bands (ev):

    -3.5098  -0.7134   3.6811   4.3907

          k =-0.3750 0.3750 1.1250 (   363 PWs)   bands (ev):

    -3.0177  -0.6407   2.0391   4.0772

          k =-0.8750-0.6250 1.1250 (   353 PWs)   bands (ev):

    -5.1306   2.7110   4.6355   4.6954

     highest occupied level (ev):     5.6354

     Writing output data file silicon.10.356.save

                                                                                

     bravais-lattice index     =            2
     lattice parameter (alat)  =      10.3560  a.u.
     unit-cell volume          =     277.6618 (a.u.)^3
     number of atoms/cell      =            2
     number of atomic types    =            1
     kinetic-energy cut-off    =      18.0000  Ry
     charge density cut-off    =      72.0000  Ry
     convergence threshold     =      1.0E-12
     beta                      =       0.7000
     number of iterations used =            4
     Exchange-correlation      = SLA  PW   PBE  PBE ( 1  4  3  4 0 0)


     celldm(1)=   10.35600  celldm(2)=    0.00000  celldm(3)=    0.00000
     celldm(4)=    0.00000  celldm(5)=    0.00000  celldm(6)=    0.00000

     crystal axes: (cart. coord. in units of alat)
               a(1) = ( -0.5000  0.0000  0.5000 )  
               a(2) = (  0.0000  0.5000  0.5000 )  
               a(3) = ( -0.5000  0.5000  0.0000 )  

     reciprocal axes: (cart. coord. in units 2 pi/alat)
               b(1) = ( -1.0000 -1.0000  1.0000 )  
               b(2) = (  1.0000  1.0000  1.0000 )  
               b(3) = ( -1.0000  1.0000 -1.0000 )  


     Atoms inside the unit cell: 

     Cartesian axes

     site n.  atom      mass           positions (alat units)
        1     Si  28.0860   tau(    1) = (    0.00000    0.00000    0.00000  )
        2     Si  28.0860   tau(    2) = (    0.25000    0.25000    0.25000  )

     Computing dynamical matrix for 
                    q = (  -0.5000000  -1.0000000   0.0000000 )

      8 Sym.Ops. (no q -> -q+G )


     G cutoff =  195.5946  (    710 G-vectors)     FFT grid: ( 20, 20, 20)
     number of k points=    64

     PseudoPot. # 1 for Si read from file:
     /home/max/quantum_espresso/qe-6.1/pseudo/si_pbe_v1.uspp.F.UPF.txt
     MD5 check sum: a056efeee980c13900f22a371efd63c1
     Pseudo is Ultrasoft + core correction, Zval =  4.0
     Generated by new atomic code, or converted to UPF format
     Using radial grid of  899 points,  6 beta functions with: 
                l(1) =   0
                l(2) =   0
                l(3) =   1
                l(4) =   1
                l(5) =   2
                l(6) =   2
     Q(r) pseudized with  8 coefficients,  rinner =    0.900   0.900   0.900
                                                       0.900   0.900


     Atomic displacements:
     There are   3 irreducible representations

     Representation     1      2 modes -  To be done

     Representation     2      2 modes -  To be done

     Representation     3      2 modes -  To be done



     Alpha used in Ewald sum =   0.7000
     PHONON       :  1m24.27s CPU     1m32.07s WALL



     Representation #  1 modes #   1  2

     Self-consistent Calculation

      iter #   1 total cpu time :    92.3 secs   av.it.:   5.3
      thresh= 1.000E-02 alpha_mix =  0.700 |ddv_scf|^2 =  6.342E-06

      iter #   2 total cpu time :    92.7 secs   av.it.:   9.9
      thresh= 2.518E-04 alpha_mix =  0.700 |ddv_scf|^2 =  3.417E-06

      iter #   3 total cpu time :    93.1 secs   av.it.:   9.3
      thresh= 1.849E-04 alpha_mix =  0.700 |ddv_scf|^2 =  9.139E-09

      iter #   4 total cpu time :    93.4 secs   av.it.:   9.1
      thresh= 9.560E-06 alpha_mix =  0.700 |ddv_scf|^2 =  1.968E-11

      iter #   5 total cpu time :    93.9 secs   av.it.:   9.2
      thresh= 4.436E-07 alpha_mix =  0.700 |ddv_scf|^2 =  5.797E-13

     End of self-consistent calculation

     Convergence has been achieved 


     Representation #  2 modes #   3  4

     Self-consistent Calculation

      iter #   1 total cpu time :    94.2 secs   av.it.:   5.2
      thresh= 1.000E-02 alpha_mix =  0.700 |ddv_scf|^2 =  9.785E-06

      iter #   2 total cpu time :    94.6 secs   av.it.:   9.9
      thresh= 3.128E-04 alpha_mix =  0.700 |ddv_scf|^2 =  1.311E-05

      iter #   3 total cpu time :    95.0 secs   av.it.:   9.1
      thresh= 3.620E-04 alpha_mix =  0.700 |ddv_scf|^2 =  1.065E-08

      iter #   4 total cpu time :    95.3 secs   av.it.:   8.8
      thresh= 1.032E-05 alpha_mix =  0.700 |ddv_scf|^2 =  8.757E-11

      iter #   5 total cpu time :    95.7 secs   av.it.:   9.4
      thresh= 9.358E-07 alpha_mix =  0.700 |ddv_scf|^2 =  1.836E-12

      iter #   6 total cpu time :    96.3 secs   av.it.:   9.1
      thresh= 1.355E-07 alpha_mix =  0.700 |ddv_scf|^2 =  1.502E-14

     End of self-consistent calculation

     Convergence has been achieved 


     Representation #  3 modes #   5  6

     Self-consistent Calculation

      iter #   1 total cpu time :    96.6 secs   av.it.:   5.1
      thresh= 1.000E-02 alpha_mix =  0.700 |ddv_scf|^2 =  2.660E-06

      iter #   2 total cpu time :    97.0 secs   av.it.:   9.7
      thresh= 1.631E-04 alpha_mix =  0.700 |ddv_scf|^2 =  1.444E-06

      iter #   3 total cpu time :    97.3 secs   av.it.:   9.0
      thresh= 1.202E-04 alpha_mix =  0.700 |ddv_scf|^2 =  8.844E-09

      iter #   4 total cpu time :    97.7 secs   av.it.:   8.7
      thresh= 9.404E-06 alpha_mix =  0.700 |ddv_scf|^2 =  4.421E-11

      iter #   5 total cpu time :    98.2 secs   av.it.:   9.1
      thresh= 6.649E-07 alpha_mix =  0.700 |ddv_scf|^2 =  6.934E-13

     End of self-consistent calculation

     Convergence has been achieved 

     Number of q in the star =    6
     List of q in the star:
          1  -0.500000000  -1.000000000   0.000000000
          2   0.000000000   1.000000000   0.500000000
          3   0.000000000  -1.000000000  -0.500000000
          4   0.500000000   1.000000000   0.000000000
          5  -1.000000000  -0.500000000   0.000000000
          6   0.000000000  -0.500000000  -1.000000000

     Diagonalizing the dynamical matrix

     q = (   -0.500000000  -1.000000000   0.000000000 ) 

 **************************************************************************
     freq (    1) =       7.362256 [THz] =     245.578427 [cm-1]
     freq (    2) =       7.362256 [THz] =     245.578427 [cm-1]
     freq (    3) =      10.916984 [THz] =     364.151400 [cm-1]
     freq (    4) =      10.916984 [THz] =     364.151400 [cm-1]
     freq (    5) =      13.803449 [THz] =     460.433502 [cm-1]
     freq (    6) =      13.803449 [THz] =     460.433502 [cm-1]
 **************************************************************************

     init_run     :      0.56s CPU      0.59s WALL (       7 calls)
     electrons    :      5.17s CPU      5.47s WALL (       7 calls)

     Called by init_run:
     wfcinit      :      0.00s CPU      0.00s WALL (       7 calls)
     potinit      :      0.02s CPU      0.02s WALL (       7 calls)

     Called by electrons:
     c_bands      :      5.17s CPU      5.46s WALL (       7 calls)
     v_of_rho     :      0.01s CPU      0.01s WALL (       8 calls)
     newd         :      0.03s CPU      0.03s WALL (       8 calls)

     Called by c_bands:
     init_us_2    :      0.68s CPU      0.75s WALL (   17588 calls)
     cegterg      :      4.38s CPU      4.62s WALL (     796 calls)

     Called by sum_band:

     Called by *egterg:
     h_psi        :     49.54s CPU     53.86s WALL (  152141 calls)
     s_psi        :      5.84s CPU      6.35s WALL (  309002 calls)
     g_psi        :      0.03s CPU      0.03s WALL (    9268 calls)
     cdiaghg      :      0.45s CPU      0.47s WALL (   10064 calls)

     Called by h_psi:
     h_psi:pot    :     49.35s CPU     53.66s WALL (  152141 calls)
     h_psi:calbec :      5.26s CPU      5.72s WALL (  152141 calls)
     vloc_psi     :     40.94s CPU     44.55s WALL (  152141 calls)
     add_vuspsi   :      2.92s CPU      3.15s WALL (  152141 calls)

     General routines
     calbec       :     11.51s CPU     12.57s WALL (  345374 calls)
     fft          :      0.67s CPU      0.75s WALL (    5239 calls)
     ffts         :      0.18s CPU      0.21s WALL (    2748 calls)
     fftw         :     47.99s CPU     52.24s WALL ( 1377738 calls)
     davcio       :      0.31s CPU      0.35s WALL (   79045 calls)

     Parallel routines
     fft_scatter  :     15.99s CPU     17.63s WALL ( 1385725 calls)

     PHONON       :  1m30.12s CPU     1m38.23s WALL

     INITIALIZATION: 
     phq_setup    :      0.05s CPU      0.06s WALL (       8 calls)
     phq_init     :      2.32s CPU      2.41s WALL (       8 calls)

     phq_init     :      2.32s CPU      2.41s WALL (       8 calls)
     set_drhoc    :      0.29s CPU      0.31s WALL (      24 calls)
     init_vloc    :      0.01s CPU      0.01s WALL (       8 calls)
     init_us_1    :      0.51s CPU      0.53s WALL (       8 calls)
     newd         :      0.03s CPU      0.03s WALL (       8 calls)
     dvanqq       :      0.25s CPU      0.27s WALL (       8 calls)
     drho         :      1.28s CPU      1.32s WALL (       8 calls)

     DYNAMICAL MATRIX:
     dynmat0      :      0.54s CPU      0.56s WALL (       8 calls)
     phqscf       :     79.34s CPU     86.86s WALL (       8 calls)
     dynmatrix    :      0.01s CPU      0.02s WALL (       8 calls)

     phqscf       :     79.34s CPU     86.86s WALL (       8 calls)
     solve_linter :     78.41s CPU     85.82s WALL (      32 calls)
     drhodv       :      0.71s CPU      0.80s WALL (      32 calls)

     dynmat0      :      0.54s CPU      0.56s WALL (       8 calls)
     dynmat_us    :      0.29s CPU      0.30s WALL (       8 calls)
     d2ionq       :      0.01s CPU      0.01s WALL (       8 calls)
     dynmatcc     :      0.22s CPU      0.23s WALL (       8 calls)

     dynmat_us    :      0.29s CPU      0.30s WALL (       8 calls)
     addusdynmat  :      0.00s CPU      0.00s WALL (       8 calls)

     phqscf       :     79.34s CPU     86.86s WALL (       8 calls)
     solve_linter :     78.41s CPU     85.82s WALL (      32 calls)

     solve_linter :     78.41s CPU     85.82s WALL (      32 calls)
     dvqpsi_us    :      1.85s CPU      2.02s WALL (    2508 calls)
     ortho        :      1.31s CPU      1.43s WALL (   15550 calls)
     cgsolve      :     61.57s CPU     67.35s WALL (   15550 calls)
     incdrhoscf   :      5.42s CPU      5.93s WALL (   15550 calls)
     addusddens   :      1.24s CPU      1.30s WALL (     228 calls)
     vpsifft      :      3.96s CPU      4.30s WALL (   12922 calls)
     dv_of_drho   :      0.27s CPU      0.31s WALL (     295 calls)
     mix_pot      :      0.06s CPU      0.06s WALL (     201 calls)
     psymdvscf    :      0.81s CPU      0.87s WALL (     196 calls)
     newdq        :      1.30s CPU      1.44s WALL (     201 calls)
     adddvscf     :      0.46s CPU      0.51s WALL (   13042 calls)
     drhodvus     :      0.00s CPU      0.00s WALL (      32 calls)

     dvqpsi_us    :      1.85s CPU      2.02s WALL (    2508 calls)
     dvqpsi_us_on :      0.83s CPU      0.89s WALL (    2508 calls)

     cgsolve      :     61.57s CPU     67.35s WALL (   15550 calls)
     ch_psi       :     58.87s CPU     64.28s WALL (  141281 calls)

     ch_psi       :     58.87s CPU     64.28s WALL (  141281 calls)
     h_psi        :     49.54s CPU     53.86s WALL (  152141 calls)
     last         :      9.88s CPU     10.91s WALL (  141281 calls)

     h_psi        :     49.54s CPU     53.86s WALL (  152141 calls)
     add_vuspsi   :      2.92s CPU      3.15s WALL (  152141 calls)

     incdrhoscf   :      5.42s CPU      5.93s WALL (   15550 calls)
     addusdbec    :      0.85s CPU      0.91s WALL (   17998 calls)

     drhodvus     :      0.00s CPU      0.00s WALL (      32 calls)

      General routines
     calbec       :     11.51s CPU     12.57s WALL (  345374 calls)
     fft          :      0.67s CPU      0.75s WALL (    5239 calls)
     ffts         :      0.18s CPU      0.21s WALL (    2748 calls)
     fftw         :     47.99s CPU     52.24s WALL ( 1377738 calls)
     davcio       :      0.31s CPU      0.35s WALL (   79045 calls)
     write_rec    :      0.21s CPU      0.23s WALL (     233 calls)


     PHONON       :  1m30.12s CPU     1m38.23s WALL


   This run was terminated on:  13: 7:48   9Nov2017            

=------------------------------------------------------------------------------=
   JOB DONE.
=------------------------------------------------------------------------------=
