
     Program PWSCF v.6.1 (svn rev. 13369) starts on 10Nov2017 at 10: 3:35 

     This program is part of the open-source Quantum ESPRESSO suite
     for quantum simulation of materials; please cite
         "P. Giannozzi et al., J. Phys.:Condens. Matter 21 395502 (2009);
          URL http://www.quantum-espresso.org", 
     in publications or presentations arising from this work. More details at
     http://www.quantum-espresso.org/quote

     Parallel version (MPI), running on     4 processors
     R & G space division:  proc/nbgrp/npool/nimage =       4
     Waiting for input...
     Reading input from standard input
     Message from routine read_cards :
     DEPRECATED: no units specified in ATOMIC_POSITIONS card
     Message from routine read_cards :
     ATOMIC_POSITIONS: units set to alat

     Current dimensions of program PWSCF are:
     Max number of different atomic species (ntypx) = 10
     Max number of k-points (npk) =  40000
     Max angular momentum in pseudopotentials (lmaxx) =  3

     Subspace diagonalization in iterative solution of the eigenvalue problem:
     a serial algorithm will be used


     Parallelization info
     --------------------
     sticks:   dense  smooth     PW     G-vecs:    dense   smooth      PW
     Min         133      66     22                 2024      722     152
     Max         134      67     23                 2025      724     153
     Sum         535     265     91                 8099     2891     609



     bravais-lattice index     =            2
     lattice parameter (alat)  =      10.4010  a.u.
     unit-cell volume          =     281.2971 (a.u.)^3
     number of atoms/cell      =            2
     number of atomic types    =            1
     number of electrons       =         8.00
     number of Kohn-Sham states=            4
     kinetic-energy cutoff     =      18.0000  Ry
     charge density cutoff     =     144.0000  Ry
     convergence threshold     =      1.0E-08
     mixing beta               =       0.7000
     number of iterations used =            8  plain     mixing
     Exchange-correlation      = SLA  PW   PBE  PBE ( 1  4  3  4 0 0)

     celldm(1)=  10.401000  celldm(2)=   0.000000  celldm(3)=   0.000000
     celldm(4)=   0.000000  celldm(5)=   0.000000  celldm(6)=   0.000000

     crystal axes: (cart. coord. in units of alat)
               a(1) = (  -0.500000   0.000000   0.500000 )  
               a(2) = (   0.000000   0.500000   0.500000 )  
               a(3) = (  -0.500000   0.500000   0.000000 )  

     reciprocal axes: (cart. coord. in units 2 pi/alat)
               b(1) = ( -1.000000 -1.000000  1.000000 )  
               b(2) = (  1.000000  1.000000  1.000000 )  
               b(3) = ( -1.000000  1.000000 -1.000000 )  


     PseudoPot. # 1 for Si read from file:
     /home/max/quantum_espresso/qe-6.1/pseudo/si_pbe_v1.uspp.F.UPF.txt
     MD5 check sum: a056efeee980c13900f22a371efd63c1
     Pseudo is Ultrasoft + core correction, Zval =  4.0
     Generated by new atomic code, or converted to UPF format
     Using radial grid of  899 points,  6 beta functions with: 
                l(1) =   0
                l(2) =   0
                l(3) =   1
                l(4) =   1
                l(5) =   2
                l(6) =   2
     Q(r) pseudized with  8 coefficients,  rinner =    0.900   0.900   0.900
                                                       0.900   0.900

     atomic species   valence    mass     pseudopotential
        Si             4.00    28.08600     Si( 1.00)

     24 Sym. Ops. (no inversion) found
          (note: 24 additional sym.ops. were found but ignored
           their fractional translations are incommensurate with FFT grid)


   Cartesian axes

     site n.     atom                  positions (alat units)
         1           Si  tau(   1) = (   0.0000000   0.0000000   0.0000000  )
         2           Si  tau(   2) = (   0.2500000   0.2500000   0.2500000  )

     number of k points=    60
                       cart. coord. in units 2pi/alat
        k(    1) = (  -0.0625000   0.0625000   0.0625000), wk =   0.0078125
        k(    2) = (  -0.1875000   0.1875000  -0.0625000), wk =   0.0234375
        k(    3) = (  -0.3125000   0.3125000  -0.1875000), wk =   0.0234375
        k(    4) = (  -0.4375000   0.4375000  -0.3125000), wk =   0.0234375
        k(    5) = (   0.4375000  -0.4375000   0.5625000), wk =   0.0234375
        k(    6) = (   0.3125000  -0.3125000   0.4375000), wk =   0.0234375
        k(    7) = (   0.1875000  -0.1875000   0.3125000), wk =   0.0234375
        k(    8) = (   0.0625000  -0.0625000   0.1875000), wk =   0.0234375
        k(    9) = (  -0.0625000   0.3125000   0.0625000), wk =   0.0234375
        k(   10) = (  -0.1875000   0.4375000  -0.0625000), wk =   0.0468750
        k(   11) = (  -0.3125000   0.5625000  -0.1875000), wk =   0.0468750
        k(   12) = (   0.5625000  -0.3125000   0.6875000), wk =   0.0468750
        k(   13) = (   0.4375000  -0.1875000   0.5625000), wk =   0.0468750
        k(   14) = (   0.3125000  -0.0625000   0.4375000), wk =   0.0468750
        k(   15) = (   0.1875000   0.0625000   0.3125000), wk =   0.0468750
        k(   16) = (  -0.0625000   0.5625000   0.0625000), wk =   0.0234375
        k(   17) = (  -0.1875000   0.6875000  -0.0625000), wk =   0.0468750
        k(   18) = (   0.6875000  -0.1875000   0.8125000), wk =   0.0468750
        k(   19) = (   0.5625000  -0.0625000   0.6875000), wk =   0.0468750
        k(   20) = (   0.4375000   0.0625000   0.5625000), wk =   0.0468750
        k(   21) = (   0.3125000   0.1875000   0.4375000), wk =   0.0468750
        k(   22) = (  -0.0625000   0.8125000   0.0625000), wk =   0.0234375
        k(   23) = (   0.8125000  -0.0625000   0.9375000), wk =   0.0468750
        k(   24) = (   0.6875000   0.0625000   0.8125000), wk =   0.0468750
        k(   25) = (   0.5625000   0.1875000   0.6875000), wk =   0.0468750
        k(   26) = (   0.4375000   0.3125000   0.5625000), wk =   0.0468750
        k(   27) = (  -0.0625000  -0.9375000   0.0625000), wk =   0.0234375
        k(   28) = (  -0.1875000  -0.8125000  -0.0625000), wk =   0.0468750
        k(   29) = (  -0.3125000  -0.6875000  -0.1875000), wk =   0.0468750
        k(   30) = (  -0.0625000  -0.6875000   0.0625000), wk =   0.0234375
        k(   31) = (  -0.1875000  -0.5625000  -0.0625000), wk =   0.0468750
        k(   32) = (  -0.0625000  -0.4375000   0.0625000), wk =   0.0234375
        k(   33) = (  -0.1875000   0.1875000   0.1875000), wk =   0.0078125
        k(   34) = (  -0.3125000   0.3125000   0.0625000), wk =   0.0234375
        k(   35) = (  -0.4375000   0.4375000  -0.0625000), wk =   0.0234375
        k(   36) = (   0.4375000  -0.4375000   0.8125000), wk =   0.0234375
        k(   37) = (   0.3125000  -0.3125000   0.6875000), wk =   0.0234375
        k(   38) = (   0.1875000  -0.1875000   0.5625000), wk =   0.0234375
        k(   39) = (  -0.1875000   0.4375000   0.1875000), wk =   0.0234375
        k(   40) = (  -0.3125000   0.5625000   0.0625000), wk =   0.0468750
        k(   41) = (   0.5625000  -0.3125000   0.9375000), wk =   0.0468750
        k(   42) = (   0.4375000  -0.1875000   0.8125000), wk =   0.0468750
        k(   43) = (   0.3125000  -0.0625000   0.6875000), wk =   0.0468750
        k(   44) = (  -0.1875000   0.6875000   0.1875000), wk =   0.0234375
        k(   45) = (   0.6875000  -0.1875000   1.0625000), wk =   0.0468750
        k(   46) = (   0.5625000  -0.0625000   0.9375000), wk =   0.0468750
        k(   47) = (   0.4375000   0.0625000   0.8125000), wk =   0.0468750
        k(   48) = (  -0.1875000  -1.0625000   0.1875000), wk =   0.0234375
        k(   49) = (  -0.3125000  -0.9375000   0.0625000), wk =   0.0468750
        k(   50) = (  -0.1875000  -0.8125000   0.1875000), wk =   0.0234375
        k(   51) = (  -0.3125000   0.3125000   0.3125000), wk =   0.0078125
        k(   52) = (  -0.4375000   0.4375000   0.1875000), wk =   0.0234375
        k(   53) = (   0.4375000  -0.4375000   1.0625000), wk =   0.0234375
        k(   54) = (   0.3125000  -0.3125000   0.9375000), wk =   0.0234375
        k(   55) = (  -0.3125000   0.5625000   0.3125000), wk =   0.0234375
        k(   56) = (   0.5625000  -0.3125000   1.1875000), wk =   0.0468750
        k(   57) = (   0.4375000  -0.1875000   1.0625000), wk =   0.0468750
        k(   58) = (  -0.3125000  -1.1875000   0.3125000), wk =   0.0234375
        k(   59) = (  -0.4375000   0.4375000   0.4375000), wk =   0.0078125
        k(   60) = (   0.4375000  -0.4375000   1.3125000), wk =   0.0234375

     Dense  grid:     8099 G-vectors     FFT dimensions: (  30,  30,  30)

     Smooth grid:     2891 G-vectors     FFT dimensions: (  20,  20,  20)

     Estimated max dynamical RAM per process >       1.73MB

     Estimated total allocated dynamical RAM >       6.94MB

     Initial potential from superposition of free atoms

     starting charge    7.99866, renormalised to    8.00000
     Starting wfc are    8 randomized atomic wfcs

     total cpu time spent up to now is        0.8 secs

     per-process dynamical memory:     8.6 Mb

     Self-consistent Calculation

     iteration #  1     ecut=    18.00 Ry     beta=0.70
     Davidson diagonalization with overlap
     ethr =  1.00E-02,  avg # of iterations =  2.0

     Threshold (ethr) on eigenvalues was too large:
     Diagonalizing with lowered threshold

     Davidson diagonalization with overlap
     ethr =  6.54E-04,  avg # of iterations =  1.0

     total cpu time spent up to now is        1.1 secs

     total energy              =     -19.18913245 Ry
     Harris-Foulkes estimate   =     -19.20075575 Ry
     estimated scf accuracy    <       0.05204714 Ry

     iteration #  2     ecut=    18.00 Ry     beta=0.70
     Davidson diagonalization with overlap
     ethr =  6.51E-04,  avg # of iterations =  1.0

     total cpu time spent up to now is        1.3 secs

     total energy              =     -19.19072333 Ry
     Harris-Foulkes estimate   =     -19.19089334 Ry
     estimated scf accuracy    <       0.00245400 Ry

     iteration #  3     ecut=    18.00 Ry     beta=0.70
     Davidson diagonalization with overlap
     ethr =  3.07E-05,  avg # of iterations =  1.9

     total cpu time spent up to now is        1.4 secs

     total energy              =     -19.19098642 Ry
     Harris-Foulkes estimate   =     -19.19099849 Ry
     estimated scf accuracy    <       0.00003865 Ry

     iteration #  4     ecut=    18.00 Ry     beta=0.70
     Davidson diagonalization with overlap
     ethr =  4.83E-07,  avg # of iterations =  2.8

     total cpu time spent up to now is        1.7 secs

     total energy              =     -19.19100981 Ry
     Harris-Foulkes estimate   =     -19.19101026 Ry
     estimated scf accuracy    <       0.00000198 Ry

     iteration #  5     ecut=    18.00 Ry     beta=0.70
     Davidson diagonalization with overlap
     ethr =  2.47E-08,  avg # of iterations =  2.2

     total cpu time spent up to now is        2.4 secs

     total energy              =     -19.19101024 Ry
     Harris-Foulkes estimate   =     -19.19101025 Ry
     estimated scf accuracy    <       0.00000005 Ry

     iteration #  6     ecut=    18.00 Ry     beta=0.70
     Davidson diagonalization with overlap
     ethr =  5.76E-10,  avg # of iterations =  2.8

     total cpu time spent up to now is        2.6 secs

     End of self-consistent calculation

          k =-0.0625 0.0625 0.0625 (   338 PWs)   bands (ev):

    -5.8539   5.2496   5.7017   5.7017

          k =-0.1875 0.1875-0.0625 (   355 PWs)   bands (ev):

    -5.5929   3.7548   4.9158   5.5839

          k =-0.3125 0.3125-0.1875 (   356 PWs)   bands (ev):

    -4.9616   1.5739   4.4345   5.1313

          k =-0.4375 0.4375-0.3125 (   360 PWs)   bands (ev):

    -4.0848  -0.2678   4.2191   4.7328

          k = 0.4375-0.4375 0.5625 (   364 PWs)   bands (ev):

    -3.6528  -0.9477   4.2657   4.5205

          k = 0.3125-0.3125 0.4375 (   357 PWs)   bands (ev):

    -4.3843   0.2759   4.5426   4.5456

          k = 0.1875-0.1875 0.3125 (   357 PWs)   bands (ev):

    -5.2090   2.2882   4.8152   5.0011

          k = 0.0625-0.0625 0.1875 (   346 PWs)   bands (ev):

    -5.7225   4.4978   5.2875   5.4365

          k =-0.0625 0.3125 0.0625 (   354 PWs)   bands (ev):

    -5.4607   3.6030   4.7433   4.8179

          k =-0.1875 0.4375-0.0625 (   357 PWs)   bands (ev):

    -4.9490   2.1270   3.7954   4.5653

          k =-0.3125 0.5625-0.1875 (   364 PWs)   bands (ev):

    -4.1266   0.3160   3.3024   4.1673

          k = 0.5625-0.3125 0.6875 (   368 PWs)   bands (ev):

    -3.3898  -0.8578   3.0168   4.0773

          k = 0.4375-0.1875 0.5625 (   364 PWs)   bands (ev):

    -3.8319  -0.1889   2.9496   4.3535

          k = 0.3125-0.0625 0.4375 (   361 PWs)   bands (ev):

    -4.7077   1.4928   3.2535   4.8476

          k = 0.1875 0.0625 0.3125 (   359 PWs)   bands (ev):

    -5.3340   2.9462   4.3524   5.2111

          k =-0.0625 0.5625 0.0625 (   357 PWs)   bands (ev):

    -4.5577   1.6175   3.6568   3.7752

          k =-0.1875 0.6875-0.0625 (   359 PWs)   bands (ev):

    -3.8241   0.4059   2.8914   3.4378

          k = 0.6875-0.1875 0.8125 (   367 PWs)   bands (ev):

    -2.9525  -0.7592   2.0728   3.4068

          k = 0.5625-0.0625 0.6875 (   369 PWs)   bands (ev):

    -3.0235  -0.6669   1.7317   3.7416

          k = 0.4375 0.0625 0.5625 (   365 PWs)   bands (ev):

    -3.8947   0.2708   2.3166   4.3109

          k = 0.3125 0.1875 0.4375 (   361 PWs)   bands (ev):

    -4.5977   0.9119   3.9012   4.7499

          k =-0.0625 0.8125 0.0625 (   364 PWs)   bands (ev):

    -3.1853  -0.4411   2.9852   3.1944

          k = 0.8125-0.0625 0.9375 (   363 PWs)   bands (ev):

    -2.2985  -1.4087   2.4461   2.9594

          k = 0.6875 0.0625 0.8125 (   369 PWs)   bands (ev):

    -2.3992  -1.2435   1.7395   3.2666

          k = 0.5625 0.1875 0.6875 (   367 PWs)   bands (ev):

    -3.1393  -0.8236   2.2629   3.8523

          k = 0.4375 0.3125 0.5625 (   365 PWs)   bands (ev):

    -3.7324  -0.6626   3.7255   4.4233

          k =-0.0625-0.9375 0.0625 (   362 PWs)   bands (ev):

    -2.3473  -1.4245   2.8507   3.0757

          k =-0.1875-0.8125-0.0625 (   361 PWs)   bands (ev):

    -3.1027  -0.5034   2.5985   3.1156

          k =-0.3125-0.6875-0.1875 (   364 PWs)   bands (ev):

    -3.5656  -0.2301   2.6488   3.6995

          k =-0.0625-0.6875 0.0625 (   358 PWs)   bands (ev):

    -3.9264   0.5832   3.2544   3.4295

          k =-0.1875-0.5625-0.0625 (   356 PWs)   bands (ev):

    -4.4433   1.2855   3.2995   3.9330

          k =-0.0625-0.4375 0.0625 (   353 PWs)   bands (ev):

    -5.0711   2.6340   4.1872   4.2209

          k =-0.1875 0.1875 0.1875 (   359 PWs)   bands (ev):

    -5.4643   3.0467   5.2698   5.2698

          k =-0.3125 0.3125 0.0625 (   362 PWs)   bands (ev):

    -5.0816   2.2112   3.7935   5.2843

          k =-0.4375 0.4375-0.0625 (   362 PWs)   bands (ev):

    -4.3527   0.8639   2.7380   4.7913

          k = 0.4375-0.4375 0.8125 (   367 PWs)   bands (ev):

    -3.4837  -0.5843   2.5808   4.2734

          k = 0.3125-0.3125 0.6875 (   368 PWs)   bands (ev):

    -3.4685  -0.6122   2.8706   3.9636

          k = 0.1875-0.1875 0.5625 (   358 PWs)   bands (ev):

    -4.3355   0.8608   3.4716   3.9419

          k =-0.1875 0.4375 0.1875 (   362 PWs)   bands (ev):

    -4.8309   1.5611   4.2763   4.3511

          k =-0.3125 0.5625 0.0625 (   361 PWs)   bands (ev):

    -4.2192   0.7935   2.7935   4.1590

          k = 0.5625-0.3125 0.9375 (   367 PWs)   bands (ev):

    -3.3513  -0.2903   2.0252   3.6075

          k = 0.4375-0.1875 0.8125 (   369 PWs)   bands (ev):

    -2.8781  -0.8861   2.0245   3.3039

          k = 0.3125-0.0625 0.6875 (   365 PWs)   bands (ev):

    -3.6275   0.0904   2.4398   3.4778

          k =-0.1875 0.6875 0.1875 (   362 PWs)   bands (ev):

    -3.7337   0.1497   2.7632   3.6182

          k = 0.6875-0.1875 1.0625 (   363 PWs)   bands (ev):

    -2.9497  -0.6401   2.2047   2.9560

          k = 0.5625-0.0625 0.9375 (   370 PWs)   bands (ev):

    -2.1637  -1.3819   1.8979   2.4691

          k = 0.4375 0.0625 0.8125 (   367 PWs)   bands (ev):

    -2.7516  -0.8417   1.8874   2.9318

          k =-0.1875-1.0625 0.1875 (   364 PWs)   bands (ev):

    -2.3212  -1.3581   1.9991   3.2831

          k =-0.3125-0.9375 0.0625 (   366 PWs)   bands (ev):

    -2.2230  -1.3902   2.0905   2.6763

          k =-0.1875-0.8125 0.1875 (   362 PWs)   bands (ev):

    -3.0442  -0.6012   2.2564   3.3960

          k =-0.3125 0.3125 0.3125 (   359 PWs)   bands (ev):

    -4.7265   0.8868   4.8634   4.8634

          k =-0.4375 0.4375 0.1875 (   362 PWs)   bands (ev):

    -4.2589   0.3160   3.4278   4.7766

          k = 0.4375-0.4375 1.0625 (   367 PWs)   bands (ev):

    -3.4865  -0.2227   1.9466   4.2110

          k = 0.3125-0.3125 0.9375 (   366 PWs)   bands (ev):

    -2.6869  -0.9932   1.6212   3.6778

          k =-0.3125 0.5625 0.3125 (   368 PWs)   bands (ev):

    -3.9537  -0.2288   3.7507   4.2282

          k = 0.5625-0.3125 1.1875 (   368 PWs)   bands (ev):

    -3.3496  -0.5906   2.4777   3.7677

          k = 0.4375-0.1875 1.0625 (   370 PWs)   bands (ev):

    -2.5516  -1.0611   1.7112   3.0738

          k =-0.3125-1.1875 0.3125 (   363 PWs)   bands (ev):

    -3.0003  -0.8676   2.0996   3.7754

          k =-0.4375 0.4375 0.4375 (   356 PWs)   bands (ev):

    -3.8625  -0.7179   4.6458   4.6458

          k = 0.4375-0.4375 1.3125 (   365 PWs)   bands (ev):

    -3.5216  -0.8934   3.4423   4.3850

     highest occupied level (ev):     5.7017

!    total energy              =     -19.19101026 Ry
     Harris-Foulkes estimate   =     -19.19101026 Ry
     estimated scf accuracy    <          6.5E-09 Ry

     The total energy is the sum of the following terms:

     one-electron contribution =       4.80426692 Ry
     hartree contribution      =       1.15057406 Ry
     xc contribution           =      -8.57268157 Ry
     ewald contribution        =     -16.57316968 Ry

     convergence has been achieved in   6 iterations

     Writing output data file silicon.10.401.save

     init_run     :      0.26s CPU      0.66s WALL (       1 calls)
     electrons    :      1.11s CPU      1.85s WALL (       1 calls)

     Called by init_run:
     wfcinit      :      0.08s CPU      0.20s WALL (       1 calls)
     potinit      :      0.02s CPU      0.05s WALL (       1 calls)

     Called by electrons:
     c_bands      :      0.80s CPU      1.42s WALL (       7 calls)
     sum_band     :      0.19s CPU      0.26s WALL (       7 calls)
     v_of_rho     :      0.06s CPU      0.10s WALL (       7 calls)
     newd         :      0.06s CPU      0.10s WALL (       7 calls)
     mix_rho      :      0.00s CPU      0.01s WALL (       7 calls)

     Called by c_bands:
     init_us_2    :      0.05s CPU      0.06s WALL (     900 calls)
     cegterg      :      0.66s CPU      1.23s WALL (     420 calls)

     Called by sum_band:
     sum_band:bec :      0.00s CPU      0.01s WALL (     420 calls)
     addusdens    :      0.07s CPU      0.09s WALL (       7 calls)

     Called by *egterg:
     h_psi        :      0.49s CPU      0.92s WALL (    1301 calls)
     s_psi        :      0.05s CPU      0.06s WALL (    1301 calls)
     g_psi        :      0.00s CPU      0.00s WALL (     821 calls)
     cdiaghg      :      0.08s CPU      0.13s WALL (    1181 calls)

     Called by h_psi:
     h_psi:pot    :      0.48s CPU      0.92s WALL (    1301 calls)
     h_psi:calbec :      0.08s CPU      0.18s WALL (    1301 calls)
     vloc_psi     :      0.35s CPU      0.67s WALL (    1301 calls)
     add_vuspsi   :      0.05s CPU      0.06s WALL (    1301 calls)

     General routines
     calbec       :      0.10s CPU      0.21s WALL (    1721 calls)
     fft          :      0.05s CPU      0.13s WALL (     112 calls)
     ffts         :      0.00s CPU      0.01s WALL (      14 calls)
     fftw         :      0.33s CPU      0.66s WALL (   11626 calls)
     interpolate  :      0.01s CPU      0.02s WALL (      14 calls)
     davcio       :      0.00s CPU      0.00s WALL (      60 calls)

     Parallel routines
     fft_scatter  :      0.18s CPU      0.56s WALL (   11752 calls)

     PWSCF        :     1.64s CPU         2.81s WALL


   This run was terminated on:  10: 3:38  10Nov2017            

=------------------------------------------------------------------------------=
   JOB DONE.
=------------------------------------------------------------------------------=
