
     Program PHONON v.6.1 (svn rev. 13369) starts on 10Nov2017 at 15:33:46 

     This program is part of the open-source Quantum ESPRESSO suite
     for quantum simulation of materials; please cite
         "P. Giannozzi et al., J. Phys.:Condens. Matter 21 395502 (2009);
          URL http://www.quantum-espresso.org", 
     in publications or presentations arising from this work. More details at
     http://www.quantum-espresso.org/quote

     Parallel version (MPI), running on     4 processors
     R & G space division:  proc/nbgrp/npool/nimage =       4

     Reading data from directory:
     ./silicon.10.346.save

   Info: using nr1, nr2, nr3 values from input

   Info: using nr1, nr2, nr3 values from input

     IMPORTANT: XC functional enforced from input :
     Exchange-correlation      = SLA  PW   PBE  PBE ( 1  4  3  4 0 0)
     Any further DFT definition will be discarded
     Please, verify this is what you really want


     Parallelization info
     --------------------
     sticks:   dense  smooth     PW     G-vecs:    dense   smooth      PW
     Min         219     109     37                 4315     1545     284
     Max         220     110     38                 4316     1546     285
     Sum         877     439    151                17261     6183    1139



     Dynamical matrices for ( 4, 4, 4)  uniform grid of q-points
     (   8q-points):
       N         xq(1)         xq(2)         xq(3) 
       1   0.000000000   0.000000000   0.000000000
       2  -0.250000000   0.250000000  -0.250000000
       3   0.500000000  -0.500000000   0.500000000
       4   0.000000000   0.500000000   0.000000000
       5   0.750000000  -0.250000000   0.750000000
       6   0.500000000   0.000000000   0.500000000
       7   0.000000000  -1.000000000   0.000000000
       8  -0.500000000  -1.000000000   0.000000000

     Calculation of q =    0.0000000   0.0000000   0.0000000

                                                                                

     bravais-lattice index     =            2
     lattice parameter (alat)  =      10.3460  a.u.
     unit-cell volume          =     276.8582 (a.u.)^3
     number of atoms/cell      =            2
     number of atomic types    =            1
     kinetic-energy cut-off    =      30.0000  Ry
     charge density cut-off    =     240.0000  Ry
     convergence threshold     =      1.0E-12
     beta                      =       0.7000
     number of iterations used =            4
     Exchange-correlation      = SLA  PW   PBE  PBE ( 1  4  3  4 0 0)


     celldm(1)=   10.34600  celldm(2)=    0.00000  celldm(3)=    0.00000
     celldm(4)=    0.00000  celldm(5)=    0.00000  celldm(6)=    0.00000

     crystal axes: (cart. coord. in units of alat)
               a(1) = ( -0.5000  0.0000  0.5000 )  
               a(2) = (  0.0000  0.5000  0.5000 )  
               a(3) = ( -0.5000  0.5000  0.0000 )  

     reciprocal axes: (cart. coord. in units 2 pi/alat)
               b(1) = ( -1.0000 -1.0000  1.0000 )  
               b(2) = (  1.0000  1.0000  1.0000 )  
               b(3) = ( -1.0000  1.0000 -1.0000 )  


     Atoms inside the unit cell: 

     Cartesian axes

     site n.  atom      mass           positions (alat units)
        1     Si  28.0860   tau(    1) = (    0.00000    0.00000    0.00000  )
        2     Si  28.0860   tau(    2) = (    0.25000    0.25000    0.25000  )

     Computing dynamical matrix for 
                    q = (   0.0000000   0.0000000   0.0000000 )

     49 Sym.Ops. (with q -> -q+G )


     G cutoff =  650.7234  (   4315 G-vectors)     FFT grid: ( 40, 40, 40)
     G cutoff =  325.3617  (   1546 G-vectors)  smooth grid: ( 25, 25, 25)
     number of k points=    10

     PseudoPot. # 1 for Si read from file:
     /home/s1333534/quantum_espresso/qe-6.1/pseudo/si_pbe_v1.uspp.F.UPF.txt
     MD5 check sum: a056efeee980c13900f22a371efd63c1
     Pseudo is Ultrasoft + core correction, Zval =  4.0
     Generated by new atomic code, or converted to UPF format
     Using radial grid of  899 points,  6 beta functions with: 
                l(1) =   0
                l(2) =   0
                l(3) =   1
                l(4) =   1
                l(5) =   2
                l(6) =   2
     Q(r) pseudized with  8 coefficients,  rinner =    0.900   0.900   0.900
                                                       0.900   0.900

     Mode symmetry, O_h (m-3m)  point group:


     Electric field:
     Dielectric constant
     Born effective charges in two ways 


     Atomic displacements:
     There are   2 irreducible representations

     Representation     1      3 modes -T_2g G_25' G_5+  To be done

     Representation     2      3 modes -T_1u G_15  G_4-  To be done



     Alpha used in Ewald sum =   2.5000
     PHONON       :     0.96s CPU         1.41s WALL


     Electric Fields Calculation

      iter #   1 total cpu time :     2.5 secs   av.it.:   5.8
      thresh= 1.000E-02 alpha_mix =  0.700 |ddv_scf|^2 =  9.685E-08

      iter #   2 total cpu time :     3.3 secs   av.it.:  11.9
      thresh= 3.112E-05 alpha_mix =  0.700 |ddv_scf|^2 =  5.735E-09

      iter #   3 total cpu time :     4.1 secs   av.it.:  11.7
      thresh= 7.573E-06 alpha_mix =  0.700 |ddv_scf|^2 =  3.848E-10

      iter #   4 total cpu time :     4.9 secs   av.it.:  10.6
      thresh= 1.962E-06 alpha_mix =  0.700 |ddv_scf|^2 =  2.552E-12

      iter #   5 total cpu time :     5.6 secs   av.it.:  11.2
      thresh= 1.597E-07 alpha_mix =  0.700 |ddv_scf|^2 =  2.557E-15

     End of electric fields calculation

          Dielectric constant in cartesian axis 

          (      13.991776757       0.000000000       0.000000000 )
          (      -0.000000000      13.991776757      -0.000000000 )
          (       0.000000000       0.000000000      13.991776757 )

          Effective charges (d Force / dE) in cartesian axis

           atom      1   Si 
      Ex  (       -0.03828       -0.00000        0.00000 )
      Ey  (       -0.00000       -0.03828       -0.00000 )
      Ez  (        0.00000       -0.00000       -0.03828 )
           atom      2   Si 
      Ex  (       -0.03828       -0.00000       -0.00000 )
      Ey  (       -0.00000       -0.03828        0.00000 )
      Ez  (        0.00000        0.00000       -0.03828 )


     Representation #  1 modes #   1  2  3

     Self-consistent Calculation

      iter #   1 total cpu time :     7.2 secs   av.it.:   5.1
      thresh= 1.000E-02 alpha_mix =  0.700 |ddv_scf|^2 =  1.713E-08

      iter #   2 total cpu time :     8.3 secs   av.it.:  11.8
      thresh= 1.309E-05 alpha_mix =  0.700 |ddv_scf|^2 =  7.002E-10

      iter #   3 total cpu time :     9.2 secs   av.it.:  11.3
      thresh= 2.646E-06 alpha_mix =  0.700 |ddv_scf|^2 =  4.764E-11

      iter #   4 total cpu time :     9.8 secs   av.it.:  10.4
      thresh= 6.902E-07 alpha_mix =  0.700 |ddv_scf|^2 =  1.182E-13

     End of self-consistent calculation

     Convergence has been achieved 


     Representation #  2 modes #   4  5  6

     Self-consistent Calculation

      iter #   1 total cpu time :    10.9 secs   av.it.:   5.2
      thresh= 1.000E-02 alpha_mix =  0.700 |ddv_scf|^2 =  1.350E-08

      iter #   2 total cpu time :    11.7 secs   av.it.:  11.7
      thresh= 1.162E-05 alpha_mix =  0.700 |ddv_scf|^2 =  7.938E-10

      iter #   3 total cpu time :    12.5 secs   av.it.:  11.4
      thresh= 2.817E-06 alpha_mix =  0.700 |ddv_scf|^2 =  4.929E-11

      iter #   4 total cpu time :    13.2 secs   av.it.:  11.5
      thresh= 7.021E-07 alpha_mix =  0.700 |ddv_scf|^2 =  1.917E-13

     End of self-consistent calculation

     Convergence has been achieved 

     Number of q in the star =    1
     List of q in the star:
          1   0.000000000   0.000000000   0.000000000

          Dielectric constant in cartesian axis 

          (      13.991776757       0.000000000       0.000000000 )
          (      -0.000000000      13.991776757      -0.000000000 )
          (       0.000000000       0.000000000      13.991776757 )

          Effective charges (d Force / dE) in cartesian axis

           atom      1   Si 
      Ex  (       -0.03828       -0.00000        0.00000 )
      Ey  (       -0.00000       -0.03828       -0.00000 )
      Ez  (        0.00000       -0.00000       -0.03828 )
           atom      2   Si 
      Ex  (       -0.03828       -0.00000       -0.00000 )
      Ey  (       -0.00000       -0.03828        0.00000 )
      Ez  (        0.00000        0.00000       -0.03828 )

          Effective charges (d P / du) in cartesian axis 

           atom      1   Si 
      Px  (       -0.07265       -0.00000        0.00000 )
      Py  (       -0.00000       -0.07265        0.00000 )
      Pz  (        0.00000        0.00000       -0.07265 )
           atom      2   Si 
      Px  (       -0.07265       -0.00000       -0.00000 )
      Py  (       -0.00000       -0.07265        0.00000 )
      Pz  (       -0.00000        0.00000       -0.07265 )

     Diagonalizing the dynamical matrix

     q = (    0.000000000   0.000000000   0.000000000 ) 

 **************************************************************************
     freq (    1) =      -0.475993 [THz] =     -15.877411 [cm-1]
     freq (    2) =      -0.475993 [THz] =     -15.877411 [cm-1]
     freq (    3) =      -0.475993 [THz] =     -15.877411 [cm-1]
     freq (    4) =      15.014010 [THz] =     500.813465 [cm-1]
     freq (    5) =      15.014010 [THz] =     500.813465 [cm-1]
     freq (    6) =      15.014010 [THz] =     500.813465 [cm-1]
 **************************************************************************

     Mode symmetry, O_h (m-3m)  point group:

     freq (  1 -  3) =        -15.9  [cm-1]   --> T_1u G_15  G_4- I  
     freq (  4 -  6) =        500.8  [cm-1]   --> T_2g G_25' G_5+ R  

     Calculation of q =   -0.2500000   0.2500000  -0.2500000

   Info: using nr1, nr2, nr3 values from input

   Info: using nr1, nr2, nr3 values from input

     Parallelization info
     --------------------
     sticks:   dense  smooth     PW     G-vecs:    dense   smooth      PW
     Min         218     109     37                 4315     1545     309
     Max         220     110     38                 4316     1546     312
     Sum         877     439    151                17261     6183    1243



     bravais-lattice index     =            2
     lattice parameter (alat)  =      10.3460  a.u.
     unit-cell volume          =     276.8582 (a.u.)^3
     number of atoms/cell      =            2
     number of atomic types    =            1
     number of electrons       =         8.00
     number of Kohn-Sham states=            4
     kinetic-energy cutoff     =      30.0000  Ry
     charge density cutoff     =     240.0000  Ry
     Exchange-correlation      = SLA  PW   PBE  PBE ( 1  4  3  4 0 0)

     celldm(1)=  10.346000  celldm(2)=   0.000000  celldm(3)=   0.000000
     celldm(4)=   0.000000  celldm(5)=   0.000000  celldm(6)=   0.000000

     crystal axes: (cart. coord. in units of alat)
               a(1) = (  -0.500000   0.000000   0.500000 )  
               a(2) = (   0.000000   0.500000   0.500000 )  
               a(3) = (  -0.500000   0.500000   0.000000 )  

     reciprocal axes: (cart. coord. in units 2 pi/alat)
               b(1) = ( -1.000000 -1.000000  1.000000 )  
               b(2) = (  1.000000  1.000000  1.000000 )  
               b(3) = ( -1.000000  1.000000 -1.000000 )  


     PseudoPot. # 1 for Si read from file:
     /home/s1333534/quantum_espresso/qe-6.1/pseudo/si_pbe_v1.uspp.F.UPF.txt
     MD5 check sum: a056efeee980c13900f22a371efd63c1
     Pseudo is Ultrasoft + core correction, Zval =  4.0
     Generated by new atomic code, or converted to UPF format
     Using radial grid of  899 points,  6 beta functions with: 
                l(1) =   0
                l(2) =   0
                l(3) =   1
                l(4) =   1
                l(5) =   2
                l(6) =   2
     Q(r) pseudized with  8 coefficients,  rinner =    0.900   0.900   0.900
                                                       0.900   0.900

     atomic species   valence    mass     pseudopotential
        Si             4.00    28.08600     Si( 1.00)

     48 Sym. Ops., with inversion, found



   Cartesian axes

     site n.     atom                  positions (alat units)
         1           Si  tau(   1) = (   0.0000000   0.0000000   0.0000000  )
         2           Si  tau(   2) = (   0.2500000   0.2500000   0.2500000  )

     number of k points=   120

     Number of k-points >= 100: set verbosity='high' to print them.

     Dense  grid:    17261 G-vectors     FFT dimensions: (  40,  40,  40)

     Smooth grid:     6183 G-vectors     FFT dimensions: (  25,  25,  25)

     Estimated max dynamical RAM per process >       1.79MB

     Estimated total allocated dynamical RAM >       7.14MB

     The potential is recalculated from file :
     ./_ph0/silicon.10.346.save/charge-density.dat

     Starting wfc are    8 atomic wfcs

     Band Structure Calculation
     Davidson diagonalization with overlap

     ethr =  1.25E-10,  avg # of iterations = 12.2

     total cpu time spent up to now is        1.4 secs

     End of band structure calculation

     Number of k-points >= 100: set verbosity='high' to print the bands.

     highest occupied level (ev):     5.6604

     Writing output data file silicon.10.346.save

                                                                                

     bravais-lattice index     =            2
     lattice parameter (alat)  =      10.3460  a.u.
     unit-cell volume          =     276.8582 (a.u.)^3
     number of atoms/cell      =            2
     number of atomic types    =            1
     kinetic-energy cut-off    =      30.0000  Ry
     charge density cut-off    =     240.0000  Ry
     convergence threshold     =      1.0E-12
     beta                      =       0.7000
     number of iterations used =            4
     Exchange-correlation      = SLA  PW   PBE  PBE ( 1  4  3  4 0 0)


     celldm(1)=   10.34600  celldm(2)=    0.00000  celldm(3)=    0.00000
     celldm(4)=    0.00000  celldm(5)=    0.00000  celldm(6)=    0.00000

     crystal axes: (cart. coord. in units of alat)
               a(1) = ( -0.5000  0.0000  0.5000 )  
               a(2) = (  0.0000  0.5000  0.5000 )  
               a(3) = ( -0.5000  0.5000  0.0000 )  

     reciprocal axes: (cart. coord. in units 2 pi/alat)
               b(1) = ( -1.0000 -1.0000  1.0000 )  
               b(2) = (  1.0000  1.0000  1.0000 )  
               b(3) = ( -1.0000  1.0000 -1.0000 )  


     Atoms inside the unit cell: 

     Cartesian axes

     site n.  atom      mass           positions (alat units)
        1     Si  28.0860   tau(    1) = (    0.00000    0.00000    0.00000  )
        2     Si  28.0860   tau(    2) = (    0.25000    0.25000    0.25000  )

     Computing dynamical matrix for 
                    q = (  -0.2500000   0.2500000  -0.2500000 )

      6 Sym.Ops. (no q -> -q+G )


     G cutoff =  650.7234  (   4315 G-vectors)     FFT grid: ( 40, 40, 40)
     G cutoff =  325.3617  (   1546 G-vectors)  smooth grid: ( 25, 25, 25)
     number of k points=   120

     PseudoPot. # 1 for Si read from file:
     /home/s1333534/quantum_espresso/qe-6.1/pseudo/si_pbe_v1.uspp.F.UPF.txt
     MD5 check sum: a056efeee980c13900f22a371efd63c1
     Pseudo is Ultrasoft + core correction, Zval =  4.0
     Generated by new atomic code, or converted to UPF format
     Using radial grid of  899 points,  6 beta functions with: 
                l(1) =   0
                l(2) =   0
                l(3) =   1
                l(4) =   1
                l(5) =   2
                l(6) =   2
     Q(r) pseudized with  8 coefficients,  rinner =    0.900   0.900   0.900
                                                       0.900   0.900

     Mode symmetry, C_3v (3m)   point group:


     Atomic displacements:
     There are   4 irreducible representations

     Representation     1      1 modes -A_1  L_1  To be done

     Representation     2      1 modes -A_1  L_1  To be done

     Representation     3      2 modes -E    L_3  To be done

     Representation     4      2 modes -E    L_3  To be done



     Alpha used in Ewald sum =   2.5000
     PHONON       :    11.85s CPU        16.62s WALL



     Representation #  1 mode #   1

     Self-consistent Calculation

      iter #   1 total cpu time :    17.1 secs   av.it.:   5.9
      thresh= 1.000E-02 alpha_mix =  0.700 |ddv_scf|^2 =  3.096E-04

      iter #   2 total cpu time :    17.7 secs   av.it.:   9.2
      thresh= 1.760E-03 alpha_mix =  0.700 |ddv_scf|^2 =  4.725E-03

      iter #   3 total cpu time :    18.3 secs   av.it.:   7.1
      thresh= 6.874E-03 alpha_mix =  0.700 |ddv_scf|^2 =  1.958E-07

      iter #   4 total cpu time :    19.0 secs   av.it.:   9.8
      thresh= 4.425E-05 alpha_mix =  0.700 |ddv_scf|^2 =  1.297E-08

      iter #   5 total cpu time :    19.7 secs   av.it.:   9.7
      thresh= 1.139E-05 alpha_mix =  0.700 |ddv_scf|^2 =  2.418E-10

      iter #   6 total cpu time :    20.4 secs   av.it.:   9.9
      thresh= 1.555E-06 alpha_mix =  0.700 |ddv_scf|^2 =  6.193E-10

      iter #   7 total cpu time :    21.0 secs   av.it.:   7.8
      thresh= 2.489E-06 alpha_mix =  0.700 |ddv_scf|^2 =  3.700E-11

      iter #   8 total cpu time :    21.6 secs   av.it.:   9.4
      thresh= 6.083E-07 alpha_mix =  0.700 |ddv_scf|^2 =  3.970E-13

     End of self-consistent calculation

     Convergence has been achieved 


     Representation #  2 mode #   2

     Self-consistent Calculation

      iter #   1 total cpu time :    22.2 secs   av.it.:   5.9
      thresh= 1.000E-02 alpha_mix =  0.700 |ddv_scf|^2 =  3.096E-04

      iter #   2 total cpu time :    22.8 secs   av.it.:   9.2
      thresh= 1.760E-03 alpha_mix =  0.700 |ddv_scf|^2 =  4.725E-03

      iter #   3 total cpu time :    23.4 secs   av.it.:   7.1
      thresh= 6.874E-03 alpha_mix =  0.700 |ddv_scf|^2 =  1.958E-07

      iter #   4 total cpu time :    24.1 secs   av.it.:   9.8
      thresh= 4.425E-05 alpha_mix =  0.700 |ddv_scf|^2 =  1.297E-08

      iter #   5 total cpu time :    24.7 secs   av.it.:   9.7
      thresh= 1.139E-05 alpha_mix =  0.700 |ddv_scf|^2 =  2.418E-10

      iter #   6 total cpu time :    25.4 secs   av.it.:   9.9
      thresh= 1.555E-06 alpha_mix =  0.700 |ddv_scf|^2 =  6.193E-10

      iter #   7 total cpu time :    26.0 secs   av.it.:   7.8
      thresh= 2.489E-06 alpha_mix =  0.700 |ddv_scf|^2 =  3.700E-11

      iter #   8 total cpu time :    26.5 secs   av.it.:   9.4
      thresh= 6.083E-07 alpha_mix =  0.700 |ddv_scf|^2 =  3.970E-13

     End of self-consistent calculation

     Convergence has been achieved 


     Representation #  3 modes #   3  4

     Self-consistent Calculation

      iter #   1 total cpu time :    27.5 secs   av.it.:   5.2
      thresh= 1.000E-02 alpha_mix =  0.700 |ddv_scf|^2 =  4.816E-08

      iter #   2 total cpu time :    28.8 secs   av.it.:  11.7
      thresh= 2.195E-05 alpha_mix =  0.700 |ddv_scf|^2 =  3.095E-09

      iter #   3 total cpu time :    30.1 secs   av.it.:  11.2
      thresh= 5.563E-06 alpha_mix =  0.700 |ddv_scf|^2 =  1.635E-10

      iter #   4 total cpu time :    31.3 secs   av.it.:  11.1
      thresh= 1.279E-06 alpha_mix =  0.700 |ddv_scf|^2 =  6.288E-13

     End of self-consistent calculation

     Convergence has been achieved 


     Representation #  4 modes #   5  6

     Self-consistent Calculation

      iter #   1 total cpu time :    32.3 secs   av.it.:   5.2
      thresh= 1.000E-02 alpha_mix =  0.700 |ddv_scf|^2 =  4.817E-08

      iter #   2 total cpu time :    33.6 secs   av.it.:  11.7
      thresh= 2.195E-05 alpha_mix =  0.700 |ddv_scf|^2 =  3.094E-09

      iter #   3 total cpu time :    34.9 secs   av.it.:  11.4
      thresh= 5.563E-06 alpha_mix =  0.700 |ddv_scf|^2 =  1.635E-10

      iter #   4 total cpu time :    36.1 secs   av.it.:  11.2
      thresh= 1.279E-06 alpha_mix =  0.700 |ddv_scf|^2 =  6.316E-13

     End of self-consistent calculation

     Convergence has been achieved 

     Number of q in the star =    8
     List of q in the star:
          1  -0.250000000   0.250000000  -0.250000000
          2   0.250000000  -0.250000000  -0.250000000
          3   0.250000000  -0.250000000   0.250000000
          4   0.250000000   0.250000000   0.250000000
          5  -0.250000000  -0.250000000  -0.250000000
          6  -0.250000000  -0.250000000   0.250000000
          7  -0.250000000   0.250000000   0.250000000
          8   0.250000000   0.250000000  -0.250000000

     Diagonalizing the dynamical matrix

     q = (   -0.250000000   0.250000000  -0.250000000 ) 

 **************************************************************************
     freq (    1) =       2.792319 [THz] =      93.141731 [cm-1]
     freq (    2) =       2.792319 [THz] =      93.141731 [cm-1]
     freq (    3) =       6.705321 [THz] =     223.665422 [cm-1]
     freq (    4) =      14.167209 [THz] =     472.567214 [cm-1]
     freq (    5) =      14.433164 [THz] =     481.438534 [cm-1]
     freq (    6) =      14.433164 [THz] =     481.438534 [cm-1]
 **************************************************************************

     Mode symmetry, C_3v (3m)   point group:

     freq (  1 -  2) =         93.1  [cm-1]   --> E    L_3           
     freq (  3 -  3) =        223.7  [cm-1]   --> A_1  L_1           
     freq (  4 -  4) =        472.6  [cm-1]   --> A_1  L_1           
     freq (  5 -  6) =        481.4  [cm-1]   --> E    L_3           

     Calculation of q =    0.5000000  -0.5000000   0.5000000

   Info: using nr1, nr2, nr3 values from input

   Info: using nr1, nr2, nr3 values from input

     Parallelization info
     --------------------
     sticks:   dense  smooth     PW     G-vecs:    dense   smooth      PW
     Min         219     109     40                 4315     1545     351
     Max         220     110     41                 4316     1546     354
     Sum         877     439    163                17261     6183    1411



     bravais-lattice index     =            2
     lattice parameter (alat)  =      10.3460  a.u.
     unit-cell volume          =     276.8582 (a.u.)^3
     number of atoms/cell      =            2
     number of atomic types    =            1
     number of electrons       =         8.00
     number of Kohn-Sham states=            4
     kinetic-energy cutoff     =      30.0000  Ry
     charge density cutoff     =     240.0000  Ry
     Exchange-correlation      = SLA  PW   PBE  PBE ( 1  4  3  4 0 0)

     celldm(1)=  10.346000  celldm(2)=   0.000000  celldm(3)=   0.000000
     celldm(4)=   0.000000  celldm(5)=   0.000000  celldm(6)=   0.000000

     crystal axes: (cart. coord. in units of alat)
               a(1) = (  -0.500000   0.000000   0.500000 )  
               a(2) = (   0.000000   0.500000   0.500000 )  
               a(3) = (  -0.500000   0.500000   0.000000 )  

     reciprocal axes: (cart. coord. in units 2 pi/alat)
               b(1) = ( -1.000000 -1.000000  1.000000 )  
               b(2) = (  1.000000  1.000000  1.000000 )  
               b(3) = ( -1.000000  1.000000 -1.000000 )  


     PseudoPot. # 1 for Si read from file:
     /home/s1333534/quantum_espresso/qe-6.1/pseudo/si_pbe_v1.uspp.F.UPF.txt
     MD5 check sum: a056efeee980c13900f22a371efd63c1
     Pseudo is Ultrasoft + core correction, Zval =  4.0
     Generated by new atomic code, or converted to UPF format
     Using radial grid of  899 points,  6 beta functions with: 
                l(1) =   0
                l(2) =   0
                l(3) =   1
                l(4) =   1
                l(5) =   2
                l(6) =   2
     Q(r) pseudized with  8 coefficients,  rinner =    0.900   0.900   0.900
                                                       0.900   0.900

     atomic species   valence    mass     pseudopotential
        Si             4.00    28.08600     Si( 1.00)

     48 Sym. Ops., with inversion, found



   Cartesian axes

     site n.     atom                  positions (alat units)
         1           Si  tau(   1) = (   0.0000000   0.0000000   0.0000000  )
         2           Si  tau(   2) = (   0.2500000   0.2500000   0.2500000  )

     number of k points=    60
                       cart. coord. in units 2pi/alat
        k(    1) = (  -0.1250000   0.1250000   0.1250000), wk =   0.0468750
        k(    2) = (   0.3750000  -0.3750000   0.6250000), wk =   0.0000000
        k(    3) = (  -0.3750000   0.3750000  -0.1250000), wk =   0.0468750
        k(    4) = (   0.1250000  -0.1250000   0.3750000), wk =   0.0000000
        k(    5) = (   0.3750000  -0.3750000   0.6250000), wk =   0.0468750
        k(    6) = (   0.8750000  -0.8750000   1.1250000), wk =   0.0000000
        k(    7) = (   0.1250000  -0.1250000   0.3750000), wk =   0.0468750
        k(    8) = (   0.6250000  -0.6250000   0.8750000), wk =   0.0000000
        k(    9) = (  -0.1250000   0.6250000   0.1250000), wk =   0.0937500
        k(   10) = (   0.3750000   0.1250000   0.6250000), wk =   0.0000000
        k(   11) = (   0.6250000  -0.1250000   0.8750000), wk =   0.0937500
        k(   12) = (   1.1250000  -0.6250000   1.3750000), wk =   0.0000000
        k(   13) = (   0.3750000   0.1250000   0.6250000), wk =   0.0937500
        k(   14) = (   0.8750000  -0.3750000   1.1250000), wk =   0.0000000
        k(   15) = (  -0.1250000  -0.8750000   0.1250000), wk =   0.0937500
        k(   16) = (   0.3750000  -1.3750000   0.6250000), wk =   0.0000000
        k(   17) = (  -0.3750000   0.3750000   0.3750000), wk =   0.0468750
        k(   18) = (   0.1250000  -0.1250000   0.8750000), wk =   0.0000000
        k(   19) = (   0.3750000  -0.3750000   1.1250000), wk =   0.0468750
        k(   20) = (   0.8750000  -0.8750000   1.6250000), wk =   0.0000000
        k(   21) = (   0.1250000  -0.1250000   0.1250000), wk =   0.0156250
        k(   22) = (   0.6250000  -0.6250000   0.6250000), wk =   0.0000000
        k(   23) = (  -0.3750000  -0.3750000  -0.1250000), wk =   0.0937500
        k(   24) = (   0.1250000  -0.8750000   0.3750000), wk =   0.0000000
        k(   25) = (  -0.1250000  -0.3750000   0.3750000), wk =   0.0468750
        k(   26) = (   0.3750000  -0.8750000   0.8750000), wk =   0.0000000
        k(   27) = (   0.3750000   0.3750000   0.6250000), wk =   0.0937500
        k(   28) = (   0.8750000  -0.1250000   1.1250000), wk =   0.0000000
        k(   29) = (   0.6250000   0.3750000  -0.3750000), wk =   0.0468750
        k(   30) = (   1.1250000  -0.1250000   0.1250000), wk =   0.0000000
        k(   31) = (   0.1250000   0.1250000   0.3750000), wk =   0.0937500
        k(   32) = (   0.6250000  -0.3750000   0.8750000), wk =   0.0000000
        k(   33) = (   0.3750000   0.1250000  -0.1250000), wk =   0.0468750
        k(   34) = (   0.8750000  -0.3750000   0.3750000), wk =   0.0000000
        k(   35) = (  -0.1250000  -0.6250000  -0.1250000), wk =   0.0468750
        k(   36) = (   0.3750000  -1.1250000   0.3750000), wk =   0.0000000
        k(   37) = (   0.1250000  -0.6250000   0.1250000), wk =   0.0468750
        k(   38) = (   0.6250000  -1.1250000   0.6250000), wk =   0.0000000
        k(   39) = (   0.6250000   0.1250000   0.8750000), wk =   0.0937500
        k(   40) = (   1.1250000  -0.3750000   1.3750000), wk =   0.0000000
        k(   41) = (  -0.8750000   0.1250000   0.6250000), wk =   0.0937500
        k(   42) = (  -0.3750000  -0.3750000   1.1250000), wk =   0.0000000
        k(   43) = (   0.8750000   0.1250000  -0.6250000), wk =   0.0937500
        k(   44) = (   1.3750000  -0.3750000  -0.1250000), wk =   0.0000000
        k(   45) = (   0.3750000  -0.1250000   0.6250000), wk =   0.0937500
        k(   46) = (   0.8750000  -0.6250000   1.1250000), wk =   0.0000000
        k(   47) = (  -0.6250000  -0.1250000   0.3750000), wk =   0.0937500
        k(   48) = (  -0.1250000  -0.6250000   0.8750000), wk =   0.0000000
        k(   49) = (   0.6250000  -0.1250000  -0.3750000), wk =   0.0937500
        k(   50) = (   1.1250000  -0.6250000   0.1250000), wk =   0.0000000
        k(   51) = (  -0.1250000   0.8750000  -0.1250000), wk =   0.0468750
        k(   52) = (   0.3750000   0.3750000   0.3750000), wk =   0.0000000
        k(   53) = (   0.1250000   0.8750000   0.1250000), wk =   0.0468750
        k(   54) = (   0.6250000   0.3750000   0.6250000), wk =   0.0000000
        k(   55) = (   0.3750000  -0.3750000   0.3750000), wk =   0.0156250
        k(   56) = (   0.8750000  -0.8750000   0.8750000), wk =   0.0000000
        k(   57) = (   0.3750000   0.3750000   1.1250000), wk =   0.0937500
        k(   58) = (   0.8750000  -0.1250000   1.6250000), wk =   0.0000000
        k(   59) = (   1.1250000   0.3750000  -0.3750000), wk =   0.0468750
        k(   60) = (   1.6250000  -0.1250000   0.1250000), wk =   0.0000000

     Dense  grid:    17261 G-vectors     FFT dimensions: (  40,  40,  40)

     Smooth grid:     6183 G-vectors     FFT dimensions: (  25,  25,  25)

     Estimated max dynamical RAM per process >       1.79MB

     Estimated total allocated dynamical RAM >       7.14MB

     The potential is recalculated from file :
     ./_ph0/silicon.10.346.save/charge-density.dat

     Starting wfc are    8 atomic wfcs

     Band Structure Calculation
     Davidson diagonalization with overlap

     ethr =  1.25E-10,  avg # of iterations = 12.2

     total cpu time spent up to now is        2.5 secs

     End of band structure calculation

          k =-0.1250 0.1250 0.1250 (   773 PWs)   bands (ev):

    -5.6511   4.3510   5.6604   5.6604

          k = 0.3750-0.3750 0.6250 (   767 PWs)   bands (ev):

    -3.4944  -0.7038   3.7004   4.4133

          k =-0.3750 0.3750-0.1250 (   776 PWs)   bands (ev):

    -4.6284   1.3653   3.6815   5.1813

          k = 0.1250-0.1250 0.3750 (   774 PWs)   bands (ev):

    -5.1252   2.7368   4.6568   4.7185

          k = 0.3750-0.3750 0.6250 (   767 PWs)   bands (ev):

    -3.4944  -0.7038   3.7004   4.4133

          k = 0.8750-0.8750 1.1250 (   773 PWs)   bands (ev):

    -5.6511   4.3510   5.6604   5.6604

          k = 0.1250-0.1250 0.3750 (   774 PWs)   bands (ev):

    -5.1252   2.7368   4.6568   4.7185

          k = 0.6250-0.6250 0.8750 (   776 PWs)   bands (ev):

    -4.6284   1.3653   3.6815   5.1813

          k =-0.1250 0.6250 0.1250 (   768 PWs)   bands (ev):

    -4.0977   1.0279   3.3352   3.7860

          k = 0.3750 0.1250 0.6250 (   770 PWs)   bands (ev):

    -3.6842   0.1601   2.6951   4.0597

          k = 0.6250-0.1250 0.8750 (   757 PWs)   bands (ev):

    -2.4652  -0.9278   1.9878   3.0597

          k = 1.1250-0.6250 1.3750 (   776 PWs)   bands (ev):

    -4.6284   1.3653   3.6815   5.1813

          k = 0.3750 0.1250 0.6250 (   770 PWs)   bands (ev):

    -3.6842   0.1601   2.6951   4.0597

          k = 0.8750-0.3750 1.1250 (   768 PWs)   bands (ev):

    -4.0977   1.0279   3.3352   3.7860

          k =-0.1250-0.8750 0.1250 (   763 PWs)   bands (ev):

    -2.6313  -0.8313   2.5948   3.3207

          k = 0.3750-1.3750 0.6250 (   767 PWs)   bands (ev):

    -3.4944  -0.7038   3.7004   4.4133

          k =-0.3750 0.3750 0.3750 (   763 PWs)   bands (ev):

    -4.1975   0.0815   4.8756   4.8756

          k = 0.1250-0.1250 0.8750 (   763 PWs)   bands (ev):

    -2.6313  -0.8313   2.5948   3.3207

          k = 0.3750-0.3750 1.1250 (   769 PWs)   bands (ev):

    -3.0005  -0.6233   2.0444   4.0977

          k = 0.8750-0.8750 1.6250 (   768 PWs)   bands (ev):

    -4.0977   1.0279   3.3352   3.7860

          k = 0.1250-0.1250 0.1250 (   773 PWs)   bands (ev):

    -5.6511   4.3510   5.6604   5.6604

          k = 0.6250-0.6250 0.6250 (   763 PWs)   bands (ev):

    -4.1975   0.0815   4.8756   4.8756

          k =-0.3750-0.3750-0.1250 (   776 PWs)   bands (ev):

    -4.6284   1.3653   3.6815   5.1813

          k = 0.1250-0.8750 0.3750 (   757 PWs)   bands (ev):

    -2.4652  -0.9278   1.9878   3.0597

          k =-0.1250-0.3750 0.3750 (   776 PWs)   bands (ev):

    -4.6284   1.3653   3.6815   5.1813

          k = 0.3750-0.8750 0.8750 (   768 PWs)   bands (ev):

    -4.0977   1.0279   3.3352   3.7860

          k = 0.3750 0.3750 0.6250 (   767 PWs)   bands (ev):

    -3.4944  -0.7038   3.7004   4.4133

          k = 0.8750-0.1250 1.1250 (   763 PWs)   bands (ev):

    -2.6313  -0.8313   2.5948   3.3207

          k = 0.6250 0.3750-0.3750 (   767 PWs)   bands (ev):

    -3.4944  -0.7038   3.7004   4.4133

          k = 1.1250-0.1250 0.1250 (   763 PWs)   bands (ev):

    -2.6313  -0.8313   2.5948   3.3207

          k = 0.1250 0.1250 0.3750 (   774 PWs)   bands (ev):

    -5.1252   2.7368   4.6568   4.7185

          k = 0.6250-0.3750 0.8750 (   770 PWs)   bands (ev):

    -3.6842   0.1601   2.6951   4.0597

          k = 0.3750 0.1250-0.1250 (   774 PWs)   bands (ev):

    -5.1252   2.7368   4.6568   4.7185

          k = 0.8750-0.3750 0.3750 (   769 PWs)   bands (ev):

    -3.0005  -0.6233   2.0444   4.0977

          k =-0.1250-0.6250-0.1250 (   768 PWs)   bands (ev):

    -4.0977   1.0279   3.3352   3.7860

          k = 0.3750-1.1250 0.3750 (   769 PWs)   bands (ev):

    -3.0005  -0.6233   2.0444   4.0977

          k = 0.1250-0.6250 0.1250 (   768 PWs)   bands (ev):

    -4.0977   1.0279   3.3352   3.7860

          k = 0.6250-1.1250 0.6250 (   776 PWs)   bands (ev):

    -4.6284   1.3653   3.6815   5.1813

          k = 0.6250 0.1250 0.8750 (   757 PWs)   bands (ev):

    -2.4652  -0.9278   1.9878   3.0597

          k = 1.1250-0.3750 1.3750 (   770 PWs)   bands (ev):

    -3.6842   0.1601   2.6951   4.0597

          k =-0.8750 0.1250 0.6250 (   757 PWs)   bands (ev):

    -2.4652  -0.9278   1.9878   3.0597

          k =-0.3750-0.3750 1.1250 (   769 PWs)   bands (ev):

    -3.0005  -0.6233   2.0444   4.0977

          k = 0.8750 0.1250-0.6250 (   757 PWs)   bands (ev):

    -2.4652  -0.9278   1.9878   3.0597

          k = 1.3750-0.3750-0.1250 (   770 PWs)   bands (ev):

    -3.6842   0.1601   2.6951   4.0597

          k = 0.3750-0.1250 0.6250 (   770 PWs)   bands (ev):

    -3.6842   0.1601   2.6951   4.0597

          k = 0.8750-0.6250 1.1250 (   774 PWs)   bands (ev):

    -5.1252   2.7368   4.6568   4.7185

          k =-0.6250-0.1250 0.3750 (   770 PWs)   bands (ev):

    -3.6842   0.1601   2.6951   4.0597

          k =-0.1250-0.6250 0.8750 (   757 PWs)   bands (ev):

    -2.4652  -0.9278   1.9878   3.0597

          k = 0.6250-0.1250-0.3750 (   770 PWs)   bands (ev):

    -3.6842   0.1601   2.6951   4.0597

          k = 1.1250-0.6250 0.1250 (   757 PWs)   bands (ev):

    -2.4652  -0.9278   1.9878   3.0597

          k =-0.1250 0.8750-0.1250 (   763 PWs)   bands (ev):

    -2.6313  -0.8313   2.5948   3.3207

          k = 0.3750 0.3750 0.3750 (   763 PWs)   bands (ev):

    -4.1975   0.0815   4.8756   4.8756

          k = 0.1250 0.8750 0.1250 (   763 PWs)   bands (ev):

    -2.6313  -0.8313   2.5948   3.3207

          k = 0.6250 0.3750 0.6250 (   767 PWs)   bands (ev):

    -3.4944  -0.7038   3.7004   4.4133

          k = 0.3750-0.3750 0.3750 (   763 PWs)   bands (ev):

    -4.1975   0.0815   4.8756   4.8756

          k = 0.8750-0.8750 0.8750 (   773 PWs)   bands (ev):

    -5.6511   4.3510   5.6604   5.6604

          k = 0.3750 0.3750 1.1250 (   769 PWs)   bands (ev):

    -3.0005  -0.6233   2.0444   4.0977

          k = 0.8750-0.1250 1.6250 (   757 PWs)   bands (ev):

    -2.4652  -0.9278   1.9878   3.0597

          k = 1.1250 0.3750-0.3750 (   769 PWs)   bands (ev):

    -3.0005  -0.6233   2.0444   4.0977

          k = 1.6250-0.1250 0.1250 (   774 PWs)   bands (ev):

    -5.1252   2.7368   4.6568   4.7185

     highest occupied level (ev):     5.6604

     Writing output data file silicon.10.346.save

                                                                                

     bravais-lattice index     =            2
     lattice parameter (alat)  =      10.3460  a.u.
     unit-cell volume          =     276.8582 (a.u.)^3
     number of atoms/cell      =            2
     number of atomic types    =            1
     kinetic-energy cut-off    =      30.0000  Ry
     charge density cut-off    =     240.0000  Ry
     convergence threshold     =      1.0E-12
     beta                      =       0.7000
     number of iterations used =            4
     Exchange-correlation      = SLA  PW   PBE  PBE ( 1  4  3  4 0 0)


     celldm(1)=   10.34600  celldm(2)=    0.00000  celldm(3)=    0.00000
     celldm(4)=    0.00000  celldm(5)=    0.00000  celldm(6)=    0.00000

     crystal axes: (cart. coord. in units of alat)
               a(1) = ( -0.5000  0.0000  0.5000 )  
               a(2) = (  0.0000  0.5000  0.5000 )  
               a(3) = ( -0.5000  0.5000  0.0000 )  

     reciprocal axes: (cart. coord. in units 2 pi/alat)
               b(1) = ( -1.0000 -1.0000  1.0000 )  
               b(2) = (  1.0000  1.0000  1.0000 )  
               b(3) = ( -1.0000  1.0000 -1.0000 )  


     Atoms inside the unit cell: 

     Cartesian axes

     site n.  atom      mass           positions (alat units)
        1     Si  28.0860   tau(    1) = (    0.00000    0.00000    0.00000  )
        2     Si  28.0860   tau(    2) = (    0.25000    0.25000    0.25000  )

     Computing dynamical matrix for 
                    q = (   0.5000000  -0.5000000   0.5000000 )

     13 Sym.Ops. (with q -> -q+G )


     G cutoff =  650.7234  (   4316 G-vectors)     FFT grid: ( 40, 40, 40)
     G cutoff =  325.3617  (   1546 G-vectors)  smooth grid: ( 25, 25, 25)
     number of k points=    60

     PseudoPot. # 1 for Si read from file:
     /home/s1333534/quantum_espresso/qe-6.1/pseudo/si_pbe_v1.uspp.F.UPF.txt
     MD5 check sum: a056efeee980c13900f22a371efd63c1
     Pseudo is Ultrasoft + core correction, Zval =  4.0
     Generated by new atomic code, or converted to UPF format
     Using radial grid of  899 points,  6 beta functions with: 
                l(1) =   0
                l(2) =   0
                l(3) =   1
                l(4) =   1
                l(5) =   2
                l(6) =   2
     Q(r) pseudized with  8 coefficients,  rinner =    0.900   0.900   0.900
                                                       0.900   0.900


     Atomic displacements:
     There are   4 irreducible representations

     Representation     1      1 modes -  To be done

     Representation     2      1 modes -  To be done

     Representation     3      2 modes -  To be done

     Representation     4      2 modes -  To be done



     Alpha used in Ewald sum =   2.5000
     PHONON       :    29.43s CPU        38.42s WALL



     Representation #  1 mode #   1

     Self-consistent Calculation

      iter #   1 total cpu time :    38.7 secs   av.it.:   5.1
      thresh= 1.000E-02 alpha_mix =  0.700 |ddv_scf|^2 =  3.037E-06

      iter #   2 total cpu time :    39.2 secs   av.it.:  10.1
      thresh= 1.743E-04 alpha_mix =  0.700 |ddv_scf|^2 =  2.796E-06

      iter #   3 total cpu time :    39.7 secs   av.it.:   9.4
      thresh= 1.672E-04 alpha_mix =  0.700 |ddv_scf|^2 =  1.666E-09

      iter #   4 total cpu time :    40.1 secs   av.it.:   9.6
      thresh= 4.082E-06 alpha_mix =  0.700 |ddv_scf|^2 =  1.588E-11

      iter #   5 total cpu time :    40.5 secs   av.it.:   9.5
      thresh= 3.985E-07 alpha_mix =  0.700 |ddv_scf|^2 =  2.260E-13

     End of self-consistent calculation

     Convergence has been achieved 


     Representation #  2 mode #   2

     Self-consistent Calculation

      iter #   1 total cpu time :    41.0 secs   av.it.:   6.0
      thresh= 1.000E-02 alpha_mix =  0.700 |ddv_scf|^2 =  4.317E-05

      iter #   2 total cpu time :    41.4 secs   av.it.:  10.0
      thresh= 6.571E-04 alpha_mix =  0.700 |ddv_scf|^2 =  1.345E-04

      iter #   3 total cpu time :    41.8 secs   av.it.:   8.9
      thresh= 1.160E-03 alpha_mix =  0.700 |ddv_scf|^2 =  9.982E-09

      iter #   4 total cpu time :    42.3 secs   av.it.:  10.1
      thresh= 9.991E-06 alpha_mix =  0.700 |ddv_scf|^2 =  5.053E-10

      iter #   5 total cpu time :    42.7 secs   av.it.:  10.4
      thresh= 2.248E-06 alpha_mix =  0.700 |ddv_scf|^2 =  1.501E-11

      iter #   6 total cpu time :    43.1 secs   av.it.:   9.9
      thresh= 3.874E-07 alpha_mix =  0.700 |ddv_scf|^2 =  1.114E-13

     End of self-consistent calculation

     Convergence has been achieved 


     Representation #  3 modes #   3  4

     Self-consistent Calculation

      iter #   1 total cpu time :    43.8 secs   av.it.:   5.0
      thresh= 1.000E-02 alpha_mix =  0.700 |ddv_scf|^2 =  1.956E-08

      iter #   2 total cpu time :    44.7 secs   av.it.:  11.1
      thresh= 1.399E-05 alpha_mix =  0.700 |ddv_scf|^2 =  1.152E-09

      iter #   3 total cpu time :    45.6 secs   av.it.:  10.9
      thresh= 3.394E-06 alpha_mix =  0.700 |ddv_scf|^2 =  3.880E-11

      iter #   4 total cpu time :    46.3 secs   av.it.:  10.8
      thresh= 6.229E-07 alpha_mix =  0.700 |ddv_scf|^2 =  3.166E-13

     End of self-consistent calculation

     Convergence has been achieved 


     Representation #  4 modes #   5  6

     Self-consistent Calculation

      iter #   1 total cpu time :    47.0 secs   av.it.:   5.1
      thresh= 1.000E-02 alpha_mix =  0.700 |ddv_scf|^2 =  1.003E-07

      iter #   2 total cpu time :    47.9 secs   av.it.:  11.2
      thresh= 3.167E-05 alpha_mix =  0.700 |ddv_scf|^2 =  8.053E-09

      iter #   3 total cpu time :    48.7 secs   av.it.:  11.1
      thresh= 8.974E-06 alpha_mix =  0.700 |ddv_scf|^2 =  2.116E-10

      iter #   4 total cpu time :    49.4 secs   av.it.:  10.1
      thresh= 1.455E-06 alpha_mix =  0.700 |ddv_scf|^2 =  3.859E-13

     End of self-consistent calculation

     Convergence has been achieved 

     Number of q in the star =    4
     List of q in the star:
          1   0.500000000  -0.500000000   0.500000000
          2   0.500000000   0.500000000   0.500000000
          3  -0.500000000   0.500000000   0.500000000
          4   0.500000000   0.500000000  -0.500000000

     Diagonalizing the dynamical matrix

     q = (    0.500000000  -0.500000000   0.500000000 ) 

 **************************************************************************
     freq (    1) =       3.320514 [THz] =     110.760423 [cm-1]
     freq (    2) =       3.320514 [THz] =     110.760423 [cm-1]
     freq (    3) =      11.082239 [THz] =     369.663694 [cm-1]
     freq (    4) =      11.895736 [THz] =     396.799048 [cm-1]
     freq (    5) =      14.217662 [THz] =     474.250157 [cm-1]
     freq (    6) =      14.217662 [THz] =     474.250157 [cm-1]
 **************************************************************************

     Calculation of q =    0.0000000   0.5000000   0.0000000

   Info: using nr1, nr2, nr3 values from input

   Info: using nr1, nr2, nr3 values from input

     Parallelization info
     --------------------
     sticks:   dense  smooth     PW     G-vecs:    dense   smooth      PW
     Min         219     109     40                 4315     1545     322
     Max         220     110     42                 4316     1547     323
     Sum         877     439    163                17261     6183    1291



     bravais-lattice index     =            2
     lattice parameter (alat)  =      10.3460  a.u.
     unit-cell volume          =     276.8582 (a.u.)^3
     number of atoms/cell      =            2
     number of atomic types    =            1
     number of electrons       =         8.00
     number of Kohn-Sham states=            4
     kinetic-energy cutoff     =      30.0000  Ry
     charge density cutoff     =     240.0000  Ry
     Exchange-correlation      = SLA  PW   PBE  PBE ( 1  4  3  4 0 0)

     celldm(1)=  10.346000  celldm(2)=   0.000000  celldm(3)=   0.000000
     celldm(4)=   0.000000  celldm(5)=   0.000000  celldm(6)=   0.000000

     crystal axes: (cart. coord. in units of alat)
               a(1) = (  -0.500000   0.000000   0.500000 )  
               a(2) = (   0.000000   0.500000   0.500000 )  
               a(3) = (  -0.500000   0.500000   0.000000 )  

     reciprocal axes: (cart. coord. in units 2 pi/alat)
               b(1) = ( -1.000000 -1.000000  1.000000 )  
               b(2) = (  1.000000  1.000000  1.000000 )  
               b(3) = ( -1.000000  1.000000 -1.000000 )  


     PseudoPot. # 1 for Si read from file:
     /home/s1333534/quantum_espresso/qe-6.1/pseudo/si_pbe_v1.uspp.F.UPF.txt
     MD5 check sum: a056efeee980c13900f22a371efd63c1
     Pseudo is Ultrasoft + core correction, Zval =  4.0
     Generated by new atomic code, or converted to UPF format
     Using radial grid of  899 points,  6 beta functions with: 
                l(1) =   0
                l(2) =   0
                l(3) =   1
                l(4) =   1
                l(5) =   2
                l(6) =   2
     Q(r) pseudized with  8 coefficients,  rinner =    0.900   0.900   0.900
                                                       0.900   0.900

     atomic species   valence    mass     pseudopotential
        Si             4.00    28.08600     Si( 1.00)

     48 Sym. Ops., with inversion, found



   Cartesian axes

     site n.     atom                  positions (alat units)
         1           Si  tau(   1) = (   0.0000000   0.0000000   0.0000000  )
         2           Si  tau(   2) = (   0.2500000   0.2500000   0.2500000  )

     number of k points=    80
                       cart. coord. in units 2pi/alat
        k(    1) = (  -0.1250000   0.1250000   0.1250000), wk =   0.0312500
        k(    2) = (  -0.1250000   0.6250000   0.1250000), wk =   0.0000000
        k(    3) = (  -0.3750000   0.3750000  -0.1250000), wk =   0.0625000
        k(    4) = (  -0.3750000   0.8750000  -0.1250000), wk =   0.0000000
        k(    5) = (   0.3750000  -0.3750000   0.6250000), wk =   0.0625000
        k(    6) = (   0.3750000   0.1250000   0.6250000), wk =   0.0000000
        k(    7) = (   0.1250000  -0.1250000   0.3750000), wk =   0.0625000
        k(    8) = (   0.1250000   0.3750000   0.3750000), wk =   0.0000000
        k(    9) = (  -0.1250000   0.6250000   0.1250000), wk =   0.0312500
        k(   10) = (  -0.1250000   1.1250000   0.1250000), wk =   0.0000000
        k(   11) = (   0.6250000  -0.1250000   0.8750000), wk =   0.0625000
        k(   12) = (   0.6250000   0.3750000   0.8750000), wk =   0.0000000
        k(   13) = (   0.3750000   0.1250000   0.6250000), wk =   0.0625000
        k(   14) = (   0.3750000   0.6250000   0.6250000), wk =   0.0000000
        k(   15) = (  -0.1250000  -0.8750000   0.1250000), wk =   0.0312500
        k(   16) = (  -0.1250000  -0.3750000   0.1250000), wk =   0.0000000
        k(   17) = (  -0.3750000   0.3750000   0.3750000), wk =   0.0312500
        k(   18) = (  -0.3750000   0.8750000   0.3750000), wk =   0.0000000
        k(   19) = (   0.3750000  -0.3750000   1.1250000), wk =   0.0625000
        k(   20) = (   0.3750000   0.1250000   1.1250000), wk =   0.0000000
        k(   21) = (  -0.1250000  -0.1250000   0.1250000), wk =   0.0312500
        k(   22) = (  -0.1250000   0.3750000   0.1250000), wk =   0.0000000
        k(   23) = (   0.1250000  -0.3750000   0.3750000), wk =   0.0625000
        k(   24) = (   0.1250000   0.1250000   0.3750000), wk =   0.0000000
        k(   25) = (   0.3750000  -0.1250000   0.3750000), wk =   0.0312500
        k(   26) = (   0.3750000   0.3750000   0.3750000), wk =   0.0000000
        k(   27) = (   0.3750000   0.1250000   0.3750000), wk =   0.0312500
        k(   28) = (   0.3750000   0.6250000   0.3750000), wk =   0.0000000
        k(   29) = (  -0.6250000   0.3750000  -0.3750000), wk =   0.0625000
        k(   30) = (  -0.6250000   0.8750000  -0.3750000), wk =   0.0000000
        k(   31) = (  -0.3750000   0.6250000  -0.3750000), wk =   0.0312500
        k(   32) = (  -0.3750000   1.1250000  -0.3750000), wk =   0.0000000
        k(   33) = (  -0.3750000  -0.6250000  -0.3750000), wk =   0.0312500
        k(   34) = (  -0.3750000  -0.1250000  -0.3750000), wk =   0.0000000
        k(   35) = (  -0.3750000   0.1250000  -0.1250000), wk =   0.0625000
        k(   36) = (  -0.3750000   0.6250000  -0.1250000), wk =   0.0000000
        k(   37) = (  -0.1250000   0.3750000  -0.1250000), wk =   0.0312500
        k(   38) = (  -0.1250000   0.8750000  -0.1250000), wk =   0.0000000
        k(   39) = (  -0.1250000  -0.3750000  -0.1250000), wk =   0.0312500
        k(   40) = (  -0.1250000   0.1250000  -0.1250000), wk =   0.0000000
        k(   41) = (  -0.1250000  -0.6250000   0.1250000), wk =   0.0312500
        k(   42) = (  -0.1250000  -0.1250000   0.1250000), wk =   0.0000000
        k(   43) = (   0.6250000  -0.1250000  -0.1250000), wk =   0.0625000
        k(   44) = (   0.6250000   0.3750000  -0.1250000), wk =   0.0000000
        k(   45) = (   0.6250000   0.1250000   0.1250000), wk =   0.0625000
        k(   46) = (   0.6250000   0.6250000   0.1250000), wk =   0.0000000
        k(   47) = (  -0.8750000   0.1250000  -0.6250000), wk =   0.0625000
        k(   48) = (  -0.8750000   0.6250000  -0.6250000), wk =   0.0000000
        k(   49) = (  -0.1250000   0.6250000  -0.8750000), wk =   0.0625000
        k(   50) = (  -0.1250000   1.1250000  -0.8750000), wk =   0.0000000
        k(   51) = (  -0.1250000   0.8750000  -0.6250000), wk =   0.0625000
        k(   52) = (  -0.1250000   1.3750000  -0.6250000), wk =   0.0000000
        k(   53) = (  -0.1250000  -0.8750000  -0.6250000), wk =   0.0625000
        k(   54) = (  -0.1250000  -0.3750000  -0.6250000), wk =   0.0000000
        k(   55) = (   0.8750000  -0.6250000   0.1250000), wk =   0.0625000
        k(   56) = (   0.8750000  -0.1250000   0.1250000), wk =   0.0000000
        k(   57) = (  -0.6250000  -0.1250000  -0.3750000), wk =   0.0625000
        k(   58) = (  -0.6250000   0.3750000  -0.3750000), wk =   0.0000000
        k(   59) = (   0.1250000   0.3750000  -0.6250000), wk =   0.0625000
        k(   60) = (   0.1250000   0.8750000  -0.6250000), wk =   0.0000000
        k(   61) = (   0.1250000   0.6250000  -0.3750000), wk =   0.0625000
        k(   62) = (   0.1250000   1.1250000  -0.3750000), wk =   0.0000000
        k(   63) = (   0.1250000  -0.6250000  -0.3750000), wk =   0.0625000
        k(   64) = (   0.1250000  -0.1250000  -0.3750000), wk =   0.0000000
        k(   65) = (   0.6250000  -0.3750000  -0.1250000), wk =   0.0625000
        k(   66) = (   0.6250000   0.1250000  -0.1250000), wk =   0.0000000
        k(   67) = (  -0.1250000   0.8750000   0.1250000), wk =   0.0312500
        k(   68) = (  -0.1250000   1.3750000   0.1250000), wk =   0.0000000
        k(   69) = (  -0.8750000  -0.1250000  -0.1250000), wk =   0.0625000
        k(   70) = (  -0.8750000   0.3750000  -0.1250000), wk =   0.0000000
        k(   71) = (  -0.8750000   0.1250000   0.1250000), wk =   0.0625000
        k(   72) = (  -0.8750000   0.6250000   0.1250000), wk =   0.0000000
        k(   73) = (  -0.3750000  -0.3750000   0.3750000), wk =   0.0312500
        k(   74) = (  -0.3750000   0.1250000   0.3750000), wk =   0.0000000
        k(   75) = (  -1.1250000   0.3750000  -0.3750000), wk =   0.0625000
        k(   76) = (  -1.1250000   0.8750000  -0.3750000), wk =   0.0000000
        k(   77) = (  -0.3750000   1.1250000  -0.3750000), wk =   0.0312500
        k(   78) = (  -0.3750000   1.6250000  -0.3750000), wk =   0.0000000
        k(   79) = (  -0.3750000  -1.1250000  -0.3750000), wk =   0.0312500
        k(   80) = (  -0.3750000  -0.6250000  -0.3750000), wk =   0.0000000

     Dense  grid:    17261 G-vectors     FFT dimensions: (  40,  40,  40)

     Smooth grid:     6183 G-vectors     FFT dimensions: (  25,  25,  25)

     Estimated max dynamical RAM per process >       1.79MB

     Estimated total allocated dynamical RAM >       7.14MB

     The potential is recalculated from file :
     ./_ph0/silicon.10.346.save/charge-density.dat

     Starting wfc are    8 atomic wfcs

     Band Structure Calculation
     Davidson diagonalization with overlap

     ethr =  1.25E-10,  avg # of iterations = 12.2

     total cpu time spent up to now is        3.6 secs

     End of band structure calculation

          k =-0.1250 0.1250 0.1250 (   773 PWs)   bands (ev):

    -5.6511   4.3510   5.6604   5.6604

          k =-0.1250 0.6250 0.1250 (   768 PWs)   bands (ev):

    -4.0977   1.0279   3.3352   3.7860

          k =-0.3750 0.3750-0.1250 (   776 PWs)   bands (ev):

    -4.6284   1.3653   3.6815   5.1813

          k =-0.3750 0.8750-0.1250 (   757 PWs)   bands (ev):

    -2.4652  -0.9278   1.9878   3.0597

          k = 0.3750-0.3750 0.6250 (   767 PWs)   bands (ev):

    -3.4944  -0.7038   3.7004   4.4133

          k = 0.3750 0.1250 0.6250 (   770 PWs)   bands (ev):

    -3.6842   0.1601   2.6951   4.0597

          k = 0.1250-0.1250 0.3750 (   774 PWs)   bands (ev):

    -5.1252   2.7368   4.6568   4.7185

          k = 0.1250 0.3750 0.3750 (   776 PWs)   bands (ev):

    -4.6284   1.3653   3.6815   5.1813

          k =-0.1250 0.6250 0.1250 (   768 PWs)   bands (ev):

    -4.0977   1.0279   3.3352   3.7860

          k =-0.1250 1.1250 0.1250 (   763 PWs)   bands (ev):

    -2.6313  -0.8313   2.5948   3.3207

          k = 0.6250-0.1250 0.8750 (   757 PWs)   bands (ev):

    -2.4652  -0.9278   1.9878   3.0597

          k = 0.6250 0.3750 0.8750 (   770 PWs)   bands (ev):

    -3.6842   0.1601   2.6951   4.0597

          k = 0.3750 0.1250 0.6250 (   770 PWs)   bands (ev):

    -3.6842   0.1601   2.6951   4.0597

          k = 0.3750 0.6250 0.6250 (   767 PWs)   bands (ev):

    -3.4944  -0.7038   3.7004   4.4133

          k =-0.1250-0.8750 0.1250 (   763 PWs)   bands (ev):

    -2.6313  -0.8313   2.5948   3.3207

          k =-0.1250-0.3750 0.1250 (   774 PWs)   bands (ev):

    -5.1252   2.7368   4.6568   4.7185

          k =-0.3750 0.3750 0.3750 (   763 PWs)   bands (ev):

    -4.1975   0.0815   4.8756   4.8756

          k =-0.3750 0.8750 0.3750 (   769 PWs)   bands (ev):

    -3.0005  -0.6233   2.0444   4.0977

          k = 0.3750-0.3750 1.1250 (   769 PWs)   bands (ev):

    -3.0005  -0.6233   2.0444   4.0977

          k = 0.3750 0.1250 1.1250 (   757 PWs)   bands (ev):

    -2.4652  -0.9278   1.9878   3.0597

          k =-0.1250-0.1250 0.1250 (   773 PWs)   bands (ev):

    -5.6511   4.3510   5.6604   5.6604

          k =-0.1250 0.3750 0.1250 (   774 PWs)   bands (ev):

    -5.1252   2.7368   4.6568   4.7185

          k = 0.1250-0.3750 0.3750 (   776 PWs)   bands (ev):

    -4.6284   1.3653   3.6815   5.1813

          k = 0.1250 0.1250 0.3750 (   774 PWs)   bands (ev):

    -5.1252   2.7368   4.6568   4.7185

          k = 0.3750-0.1250 0.3750 (   776 PWs)   bands (ev):

    -4.6284   1.3653   3.6815   5.1813

          k = 0.3750 0.3750 0.3750 (   763 PWs)   bands (ev):

    -4.1975   0.0815   4.8756   4.8756

          k = 0.3750 0.1250 0.3750 (   776 PWs)   bands (ev):

    -4.6284   1.3653   3.6815   5.1813

          k = 0.3750 0.6250 0.3750 (   767 PWs)   bands (ev):

    -3.4944  -0.7038   3.7004   4.4133

          k =-0.6250 0.3750-0.3750 (   767 PWs)   bands (ev):

    -3.4944  -0.7038   3.7004   4.4133

          k =-0.6250 0.8750-0.3750 (   770 PWs)   bands (ev):

    -3.6842   0.1601   2.6951   4.0597

          k =-0.3750 0.6250-0.3750 (   767 PWs)   bands (ev):

    -3.4944  -0.7038   3.7004   4.4133

          k =-0.3750 1.1250-0.3750 (   769 PWs)   bands (ev):

    -3.0005  -0.6233   2.0444   4.0977

          k =-0.3750-0.6250-0.3750 (   767 PWs)   bands (ev):

    -3.4944  -0.7038   3.7004   4.4133

          k =-0.3750-0.1250-0.3750 (   776 PWs)   bands (ev):

    -4.6284   1.3653   3.6815   5.1813

          k =-0.3750 0.1250-0.1250 (   774 PWs)   bands (ev):

    -5.1252   2.7368   4.6568   4.7185

          k =-0.3750 0.6250-0.1250 (   770 PWs)   bands (ev):

    -3.6842   0.1601   2.6951   4.0597

          k =-0.1250 0.3750-0.1250 (   774 PWs)   bands (ev):

    -5.1252   2.7368   4.6568   4.7185

          k =-0.1250 0.8750-0.1250 (   763 PWs)   bands (ev):

    -2.6313  -0.8313   2.5948   3.3207

          k =-0.1250-0.3750-0.1250 (   774 PWs)   bands (ev):

    -5.1252   2.7368   4.6568   4.7185

          k =-0.1250 0.1250-0.1250 (   773 PWs)   bands (ev):

    -5.6511   4.3510   5.6604   5.6604

          k =-0.1250-0.6250 0.1250 (   768 PWs)   bands (ev):

    -4.0977   1.0279   3.3352   3.7860

          k =-0.1250-0.1250 0.1250 (   773 PWs)   bands (ev):

    -5.6511   4.3510   5.6604   5.6604

          k = 0.6250-0.1250-0.1250 (   768 PWs)   bands (ev):

    -4.0977   1.0279   3.3352   3.7860

          k = 0.6250 0.3750-0.1250 (   770 PWs)   bands (ev):

    -3.6842   0.1601   2.6951   4.0597

          k = 0.6250 0.1250 0.1250 (   768 PWs)   bands (ev):

    -4.0977   1.0279   3.3352   3.7860

          k = 0.6250 0.6250 0.1250 (   769 PWs)   bands (ev):

    -3.0005  -0.6233   2.0444   4.0977

          k =-0.8750 0.1250-0.6250 (   757 PWs)   bands (ev):

    -2.4652  -0.9278   1.9878   3.0597

          k =-0.8750 0.6250-0.6250 (   776 PWs)   bands (ev):

    -4.6284   1.3653   3.6815   5.1813

          k =-0.1250 0.6250-0.8750 (   757 PWs)   bands (ev):

    -2.4652  -0.9278   1.9878   3.0597

          k =-0.1250 1.1250-0.8750 (   763 PWs)   bands (ev):

    -2.6313  -0.8313   2.5948   3.3207

          k =-0.1250 0.8750-0.6250 (   757 PWs)   bands (ev):

    -2.4652  -0.9278   1.9878   3.0597

          k =-0.1250 1.3750-0.6250 (   769 PWs)   bands (ev):

    -3.0005  -0.6233   2.0444   4.0977

          k =-0.1250-0.8750-0.6250 (   757 PWs)   bands (ev):

    -2.4652  -0.9278   1.9878   3.0597

          k =-0.1250-0.3750-0.6250 (   770 PWs)   bands (ev):

    -3.6842   0.1601   2.6951   4.0597

          k = 0.8750-0.6250 0.1250 (   757 PWs)   bands (ev):

    -2.4652  -0.9278   1.9878   3.0597

          k = 0.8750-0.1250 0.1250 (   763 PWs)   bands (ev):

    -2.6313  -0.8313   2.5948   3.3207

          k =-0.6250-0.1250-0.3750 (   770 PWs)   bands (ev):

    -3.6842   0.1601   2.6951   4.0597

          k =-0.6250 0.3750-0.3750 (   767 PWs)   bands (ev):

    -3.4944  -0.7038   3.7004   4.4133

          k = 0.1250 0.3750-0.6250 (   770 PWs)   bands (ev):

    -3.6842   0.1601   2.6951   4.0597

          k = 0.1250 0.8750-0.6250 (   757 PWs)   bands (ev):

    -2.4652  -0.9278   1.9878   3.0597

          k = 0.1250 0.6250-0.3750 (   770 PWs)   bands (ev):

    -3.6842   0.1601   2.6951   4.0597

          k = 0.1250 1.1250-0.3750 (   757 PWs)   bands (ev):

    -2.4652  -0.9278   1.9878   3.0597

          k = 0.1250-0.6250-0.3750 (   770 PWs)   bands (ev):

    -3.6842   0.1601   2.6951   4.0597

          k = 0.1250-0.1250-0.3750 (   774 PWs)   bands (ev):

    -5.1252   2.7368   4.6568   4.7185

          k = 0.6250-0.3750-0.1250 (   770 PWs)   bands (ev):

    -3.6842   0.1601   2.6951   4.0597

          k = 0.6250 0.1250-0.1250 (   768 PWs)   bands (ev):

    -4.0977   1.0279   3.3352   3.7860

          k =-0.1250 0.8750 0.1250 (   763 PWs)   bands (ev):

    -2.6313  -0.8313   2.5948   3.3207

          k =-0.1250 1.3750 0.1250 (   768 PWs)   bands (ev):

    -4.0977   1.0279   3.3352   3.7860

          k =-0.8750-0.1250-0.1250 (   763 PWs)   bands (ev):

    -2.6313  -0.8313   2.5948   3.3207

          k =-0.8750 0.3750-0.1250 (   757 PWs)   bands (ev):

    -2.4652  -0.9278   1.9878   3.0597

          k =-0.8750 0.1250 0.1250 (   763 PWs)   bands (ev):

    -2.6313  -0.8313   2.5948   3.3207

          k =-0.8750 0.6250 0.1250 (   757 PWs)   bands (ev):

    -2.4652  -0.9278   1.9878   3.0597

          k =-0.3750-0.3750 0.3750 (   763 PWs)   bands (ev):

    -4.1975   0.0815   4.8756   4.8756

          k =-0.3750 0.1250 0.3750 (   776 PWs)   bands (ev):

    -4.6284   1.3653   3.6815   5.1813

          k =-1.1250 0.3750-0.3750 (   769 PWs)   bands (ev):

    -3.0005  -0.6233   2.0444   4.0977

          k =-1.1250 0.8750-0.3750 (   768 PWs)   bands (ev):

    -4.0977   1.0279   3.3352   3.7860

          k =-0.3750 1.1250-0.3750 (   769 PWs)   bands (ev):

    -3.0005  -0.6233   2.0444   4.0977

          k =-0.3750 1.6250-0.3750 (   763 PWs)   bands (ev):

    -4.1975   0.0815   4.8756   4.8756

          k =-0.3750-1.1250-0.3750 (   769 PWs)   bands (ev):

    -3.0005  -0.6233   2.0444   4.0977

          k =-0.3750-0.6250-0.3750 (   767 PWs)   bands (ev):

    -3.4944  -0.7038   3.7004   4.4133

     highest occupied level (ev):     5.6604

     Writing output data file silicon.10.346.save

                                                                                

     bravais-lattice index     =            2
     lattice parameter (alat)  =      10.3460  a.u.
     unit-cell volume          =     276.8582 (a.u.)^3
     number of atoms/cell      =            2
     number of atomic types    =            1
     kinetic-energy cut-off    =      30.0000  Ry
     charge density cut-off    =     240.0000  Ry
     convergence threshold     =      1.0E-12
     beta                      =       0.7000
     number of iterations used =            4
     Exchange-correlation      = SLA  PW   PBE  PBE ( 1  4  3  4 0 0)


     celldm(1)=   10.34600  celldm(2)=    0.00000  celldm(3)=    0.00000
     celldm(4)=    0.00000  celldm(5)=    0.00000  celldm(6)=    0.00000

     crystal axes: (cart. coord. in units of alat)
               a(1) = ( -0.5000  0.0000  0.5000 )  
               a(2) = (  0.0000  0.5000  0.5000 )  
               a(3) = ( -0.5000  0.5000  0.0000 )  

     reciprocal axes: (cart. coord. in units 2 pi/alat)
               b(1) = ( -1.0000 -1.0000  1.0000 )  
               b(2) = (  1.0000  1.0000  1.0000 )  
               b(3) = ( -1.0000  1.0000 -1.0000 )  


     Atoms inside the unit cell: 

     Cartesian axes

     site n.  atom      mass           positions (alat units)
        1     Si  28.0860   tau(    1) = (    0.00000    0.00000    0.00000  )
        2     Si  28.0860   tau(    2) = (    0.25000    0.25000    0.25000  )

     Computing dynamical matrix for 
                    q = (   0.0000000   0.5000000   0.0000000 )

      8 Sym.Ops. (no q -> -q+G )


     G cutoff =  650.7234  (   4315 G-vectors)     FFT grid: ( 40, 40, 40)
     G cutoff =  325.3617  (   1545 G-vectors)  smooth grid: ( 25, 25, 25)
     number of k points=    80

     PseudoPot. # 1 for Si read from file:
     /home/s1333534/quantum_espresso/qe-6.1/pseudo/si_pbe_v1.uspp.F.UPF.txt
     MD5 check sum: a056efeee980c13900f22a371efd63c1
     Pseudo is Ultrasoft + core correction, Zval =  4.0
     Generated by new atomic code, or converted to UPF format
     Using radial grid of  899 points,  6 beta functions with: 
                l(1) =   0
                l(2) =   0
                l(3) =   1
                l(4) =   1
                l(5) =   2
                l(6) =   2
     Q(r) pseudized with  8 coefficients,  rinner =    0.900   0.900   0.900
                                                       0.900   0.900

     Mode symmetry, C_4v (4mm)  point group:


     Atomic displacements:
     There are   4 irreducible representations

     Representation     1      1 modes -A_1  G_1 D_1  To be done

     Representation     2      1 modes -B_2  G_4 D_2'  To be done

     Representation     3      2 modes -E    G_5 D_5  To be done

     Representation     4      2 modes -E    G_5 D_5  To be done



     Alpha used in Ewald sum =   2.5000
     PHONON       :    39.76s CPU        52.09s WALL



     Representation #  1 mode #   1

     Self-consistent Calculation

      iter #   1 total cpu time :    52.5 secs   av.it.:   6.2
      thresh= 1.000E-02 alpha_mix =  0.700 |ddv_scf|^2 =  3.725E-04

      iter #   2 total cpu time :    53.0 secs   av.it.:   9.5
      thresh= 1.930E-03 alpha_mix =  0.700 |ddv_scf|^2 =  4.954E-03

      iter #   3 total cpu time :    53.4 secs   av.it.:   7.5
      thresh= 7.039E-03 alpha_mix =  0.700 |ddv_scf|^2 =  7.383E-09

      iter #   4 total cpu time :    54.0 secs   av.it.:  10.2
      thresh= 8.592E-06 alpha_mix =  0.700 |ddv_scf|^2 =  7.289E-10

      iter #   5 total cpu time :    54.5 secs   av.it.:   9.9
      thresh= 2.700E-06 alpha_mix =  0.700 |ddv_scf|^2 =  8.064E-11

      iter #   6 total cpu time :    55.0 secs   av.it.:   9.5
      thresh= 8.980E-07 alpha_mix =  0.700 |ddv_scf|^2 =  2.409E-13

     End of self-consistent calculation

     Convergence has been achieved 


     Representation #  2 mode #   2

     Self-consistent Calculation

      iter #   1 total cpu time :    55.4 secs   av.it.:   5.1
      thresh= 1.000E-02 alpha_mix =  0.700 |ddv_scf|^2 =  5.900E-07

      iter #   2 total cpu time :    55.9 secs   av.it.:  10.6
      thresh= 7.681E-05 alpha_mix =  0.700 |ddv_scf|^2 =  1.628E-07

      iter #   3 total cpu time :    56.5 secs   av.it.:  10.2
      thresh= 4.035E-05 alpha_mix =  0.700 |ddv_scf|^2 =  1.665E-09

      iter #   4 total cpu time :    57.0 secs   av.it.:  10.3
      thresh= 4.080E-06 alpha_mix =  0.700 |ddv_scf|^2 =  6.606E-11

      iter #   5 total cpu time :    57.5 secs   av.it.:  10.5
      thresh= 8.128E-07 alpha_mix =  0.700 |ddv_scf|^2 =  3.869E-13

     End of self-consistent calculation

     Convergence has been achieved 


     Representation #  3 modes #   3  4

     Self-consistent Calculation

      iter #   1 total cpu time :    58.4 secs   av.it.:   5.2
      thresh= 1.000E-02 alpha_mix =  0.700 |ddv_scf|^2 =  1.045E-07

      iter #   2 total cpu time :    59.6 secs   av.it.:  11.7
      thresh= 3.233E-05 alpha_mix =  0.700 |ddv_scf|^2 =  1.441E-08

      iter #   3 total cpu time :    60.6 secs   av.it.:  11.3
      thresh= 1.201E-05 alpha_mix =  0.700 |ddv_scf|^2 =  2.427E-10

      iter #   4 total cpu time :    61.5 secs   av.it.:  10.8
      thresh= 1.558E-06 alpha_mix =  0.700 |ddv_scf|^2 =  5.757E-13

     End of self-consistent calculation

     Convergence has been achieved 


     Representation #  4 modes #   5  6

     Self-consistent Calculation

      iter #   1 total cpu time :    62.3 secs   av.it.:   5.3
      thresh= 1.000E-02 alpha_mix =  0.700 |ddv_scf|^2 =  9.579E-08

      iter #   2 total cpu time :    63.3 secs   av.it.:  11.6
      thresh= 3.095E-05 alpha_mix =  0.700 |ddv_scf|^2 =  1.287E-08

      iter #   3 total cpu time :    64.3 secs   av.it.:  11.4
      thresh= 1.134E-05 alpha_mix =  0.700 |ddv_scf|^2 =  2.481E-10

      iter #   4 total cpu time :    65.2 secs   av.it.:  11.1
      thresh= 1.575E-06 alpha_mix =  0.700 |ddv_scf|^2 =  6.126E-13

     End of self-consistent calculation

     Convergence has been achieved 

     Number of q in the star =    6
     List of q in the star:
          1   0.000000000   0.500000000   0.000000000
          2   0.000000000  -0.500000000   0.000000000
          3   0.500000000   0.000000000   0.000000000
          4   0.000000000   0.000000000   0.500000000
          5   0.000000000   0.000000000  -0.500000000
          6  -0.500000000   0.000000000   0.000000000

     Diagonalizing the dynamical matrix

     q = (    0.000000000   0.500000000   0.000000000 ) 

 **************************************************************************
     freq (    1) =       3.776980 [THz] =     125.986497 [cm-1]
     freq (    2) =       3.776980 [THz] =     125.986497 [cm-1]
     freq (    3) =       7.031742 [THz] =     234.553673 [cm-1]
     freq (    4) =      13.757013 [THz] =     458.884574 [cm-1]
     freq (    5) =      13.757013 [THz] =     458.884574 [cm-1]
     freq (    6) =      14.404398 [THz] =     480.478993 [cm-1]
 **************************************************************************

     Mode symmetry, C_4v (4mm)  point group:

     freq (  1 -  2) =        126.0  [cm-1]   --> E    G_5 D_5       
     freq (  3 -  3) =        234.6  [cm-1]   --> A_1  G_1 D_1       
     freq (  4 -  5) =        458.9  [cm-1]   --> E    G_5 D_5       
     freq (  6 -  6) =        480.5  [cm-1]   --> B_2  G_4 D_2'      

     Calculation of q =    0.7500000  -0.2500000   0.7500000

   Info: using nr1, nr2, nr3 values from input

   Info: using nr1, nr2, nr3 values from input

     Parallelization info
     --------------------
     sticks:   dense  smooth     PW     G-vecs:    dense   smooth      PW
     Min         219     109     40                 4315     1545     362
     Max         220     110     41                 4316     1546     366
     Sum         877     439    163                17261     6183    1459



     bravais-lattice index     =            2
     lattice parameter (alat)  =      10.3460  a.u.
     unit-cell volume          =     276.8582 (a.u.)^3
     number of atoms/cell      =            2
     number of atomic types    =            1
     number of electrons       =         8.00
     number of Kohn-Sham states=            4
     kinetic-energy cutoff     =      30.0000  Ry
     charge density cutoff     =     240.0000  Ry
     Exchange-correlation      = SLA  PW   PBE  PBE ( 1  4  3  4 0 0)

     celldm(1)=  10.346000  celldm(2)=   0.000000  celldm(3)=   0.000000
     celldm(4)=   0.000000  celldm(5)=   0.000000  celldm(6)=   0.000000

     crystal axes: (cart. coord. in units of alat)
               a(1) = (  -0.500000   0.000000   0.500000 )  
               a(2) = (   0.000000   0.500000   0.500000 )  
               a(3) = (  -0.500000   0.500000   0.000000 )  

     reciprocal axes: (cart. coord. in units 2 pi/alat)
               b(1) = ( -1.000000 -1.000000  1.000000 )  
               b(2) = (  1.000000  1.000000  1.000000 )  
               b(3) = ( -1.000000  1.000000 -1.000000 )  


     PseudoPot. # 1 for Si read from file:
     /home/s1333534/quantum_espresso/qe-6.1/pseudo/si_pbe_v1.uspp.F.UPF.txt
     MD5 check sum: a056efeee980c13900f22a371efd63c1
     Pseudo is Ultrasoft + core correction, Zval =  4.0
     Generated by new atomic code, or converted to UPF format
     Using radial grid of  899 points,  6 beta functions with: 
                l(1) =   0
                l(2) =   0
                l(3) =   1
                l(4) =   1
                l(5) =   2
                l(6) =   2
     Q(r) pseudized with  8 coefficients,  rinner =    0.900   0.900   0.900
                                                       0.900   0.900

     atomic species   valence    mass     pseudopotential
        Si             4.00    28.08600     Si( 1.00)

     48 Sym. Ops., with inversion, found



   Cartesian axes

     site n.     atom                  positions (alat units)
         1           Si  tau(   1) = (   0.0000000   0.0000000   0.0000000  )
         2           Si  tau(   2) = (   0.2500000   0.2500000   0.2500000  )

     number of k points=   288

     Number of k-points >= 100: set verbosity='high' to print them.

     Dense  grid:    17261 G-vectors     FFT dimensions: (  40,  40,  40)

     Smooth grid:     6183 G-vectors     FFT dimensions: (  25,  25,  25)

     Estimated max dynamical RAM per process >       1.79MB

     Estimated total allocated dynamical RAM >       7.14MB

     The potential is recalculated from file :
     ./_ph0/silicon.10.346.save/charge-density.dat

     Starting wfc are    8 atomic wfcs

     Band Structure Calculation
     Davidson diagonalization with overlap

     ethr =  1.25E-10,  avg # of iterations = 12.1

     total cpu time spent up to now is        6.9 secs

     End of band structure calculation

     Number of k-points >= 100: set verbosity='high' to print the bands.

     highest occupied level (ev):     5.6604

     Writing output data file silicon.10.346.save

                                                                                

     bravais-lattice index     =            2
     lattice parameter (alat)  =      10.3460  a.u.
     unit-cell volume          =     276.8582 (a.u.)^3
     number of atoms/cell      =            2
     number of atomic types    =            1
     kinetic-energy cut-off    =      30.0000  Ry
     charge density cut-off    =     240.0000  Ry
     convergence threshold     =      1.0E-12
     beta                      =       0.7000
     number of iterations used =            4
     Exchange-correlation      = SLA  PW   PBE  PBE ( 1  4  3  4 0 0)


     celldm(1)=   10.34600  celldm(2)=    0.00000  celldm(3)=    0.00000
     celldm(4)=    0.00000  celldm(5)=    0.00000  celldm(6)=    0.00000

     crystal axes: (cart. coord. in units of alat)
               a(1) = ( -0.5000  0.0000  0.5000 )  
               a(2) = (  0.0000  0.5000  0.5000 )  
               a(3) = ( -0.5000  0.5000  0.0000 )  

     reciprocal axes: (cart. coord. in units 2 pi/alat)
               b(1) = ( -1.0000 -1.0000  1.0000 )  
               b(2) = (  1.0000  1.0000  1.0000 )  
               b(3) = ( -1.0000  1.0000 -1.0000 )  


     Atoms inside the unit cell: 

     Cartesian axes

     site n.  atom      mass           positions (alat units)
        1     Si  28.0860   tau(    1) = (    0.00000    0.00000    0.00000  )
        2     Si  28.0860   tau(    2) = (    0.25000    0.25000    0.25000  )

     Computing dynamical matrix for 
                    q = (   0.7500000  -0.2500000   0.7500000 )

      2 Sym.Ops. (no q -> -q+G )


     G cutoff =  650.7234  (   4315 G-vectors)     FFT grid: ( 40, 40, 40)
     G cutoff =  325.3617  (   1546 G-vectors)  smooth grid: ( 25, 25, 25)
     number of k points=   288

     PseudoPot. # 1 for Si read from file:
     /home/s1333534/quantum_espresso/qe-6.1/pseudo/si_pbe_v1.uspp.F.UPF.txt
     MD5 check sum: a056efeee980c13900f22a371efd63c1
     Pseudo is Ultrasoft + core correction, Zval =  4.0
     Generated by new atomic code, or converted to UPF format
     Using radial grid of  899 points,  6 beta functions with: 
                l(1) =   0
                l(2) =   0
                l(3) =   1
                l(4) =   1
                l(5) =   2
                l(6) =   2
     Q(r) pseudized with  8 coefficients,  rinner =    0.900   0.900   0.900
                                                       0.900   0.900

     Mode symmetry, C_s (m)     point group:


     Atomic displacements:
     There are   6 irreducible representations

     Representation     1      1 modes -A'  To be done

     Representation     2      1 modes -A'  To be done

     Representation     3      1 modes -A'  To be done

     Representation     4      1 modes -A'  To be done

     Representation     5      1 modes -A''  To be done

     Representation     6      1 modes -A''  To be done



     Alpha used in Ewald sum =   2.5000
     PHONON       :  0m54.30s CPU     1m10.52s WALL



     Representation #  1 mode #   1

     Self-consistent Calculation

      iter #   1 total cpu time :    71.4 secs   av.it.:   5.6
      thresh= 1.000E-02 alpha_mix =  0.700 |ddv_scf|^2 =  7.602E-06

      iter #   2 total cpu time :    72.9 secs   av.it.:  10.7
      thresh= 2.757E-04 alpha_mix =  0.700 |ddv_scf|^2 =  2.036E-05

      iter #   3 total cpu time :    74.2 secs   av.it.:   9.4
      thresh= 4.512E-04 alpha_mix =  0.700 |ddv_scf|^2 =  1.364E-07

      iter #   4 total cpu time :    75.6 secs   av.it.:  10.1
      thresh= 3.693E-05 alpha_mix =  0.700 |ddv_scf|^2 =  2.728E-09

      iter #   5 total cpu time :    77.1 secs   av.it.:  10.6
      thresh= 5.223E-06 alpha_mix =  0.700 |ddv_scf|^2 =  4.657E-10

      iter #   6 total cpu time :    78.5 secs   av.it.:  10.6
      thresh= 2.158E-06 alpha_mix =  0.700 |ddv_scf|^2 =  7.263E-12

      iter #   7 total cpu time :    79.8 secs   av.it.:  10.8
      thresh= 2.695E-07 alpha_mix =  0.700 |ddv_scf|^2 =  2.771E-13

     End of self-consistent calculation

     Convergence has been achieved 


     Representation #  2 mode #   2

     Self-consistent Calculation

      iter #   1 total cpu time :    80.9 secs   av.it.:   5.8
      thresh= 1.000E-02 alpha_mix =  0.700 |ddv_scf|^2 =  1.360E-05

      iter #   2 total cpu time :    82.4 secs   av.it.:  10.6
      thresh= 3.688E-04 alpha_mix =  0.700 |ddv_scf|^2 =  3.950E-05

      iter #   3 total cpu time :    83.7 secs   av.it.:   9.2
      thresh= 6.285E-04 alpha_mix =  0.700 |ddv_scf|^2 =  9.259E-08

      iter #   4 total cpu time :    85.1 secs   av.it.:  10.4
      thresh= 3.043E-05 alpha_mix =  0.700 |ddv_scf|^2 =  3.086E-09

      iter #   5 total cpu time :    86.5 secs   av.it.:  10.6
      thresh= 5.555E-06 alpha_mix =  0.700 |ddv_scf|^2 =  6.281E-10

      iter #   6 total cpu time :    88.0 secs   av.it.:  10.5
      thresh= 2.506E-06 alpha_mix =  0.700 |ddv_scf|^2 =  6.554E-12

      iter #   7 total cpu time :    89.3 secs   av.it.:  10.7
      thresh= 2.560E-07 alpha_mix =  0.700 |ddv_scf|^2 =  2.342E-13

     End of self-consistent calculation

     Convergence has been achieved 


     Representation #  3 mode #   3

     Self-consistent Calculation

      iter #   1 total cpu time :    90.8 secs   av.it.:   5.7
      thresh= 1.000E-02 alpha_mix =  0.700 |ddv_scf|^2 =  1.066E-05

      iter #   2 total cpu time :    92.2 secs   av.it.:  10.7
      thresh= 3.264E-04 alpha_mix =  0.700 |ddv_scf|^2 =  2.905E-05

      iter #   3 total cpu time :    93.4 secs   av.it.:   9.2
      thresh= 5.390E-04 alpha_mix =  0.700 |ddv_scf|^2 =  1.614E-07

      iter #   4 total cpu time :    94.8 secs   av.it.:  10.1
      thresh= 4.018E-05 alpha_mix =  0.700 |ddv_scf|^2 =  3.143E-09

      iter #   5 total cpu time :    96.1 secs   av.it.:  10.7
      thresh= 5.606E-06 alpha_mix =  0.700 |ddv_scf|^2 =  6.152E-10

      iter #   6 total cpu time :    97.5 secs   av.it.:  10.5
      thresh= 2.480E-06 alpha_mix =  0.700 |ddv_scf|^2 =  4.566E-12

      iter #   7 total cpu time :    98.8 secs   av.it.:  10.7
      thresh= 2.137E-07 alpha_mix =  0.700 |ddv_scf|^2 =  1.341E-13

     End of self-consistent calculation

     Convergence has been achieved 


     Representation #  4 mode #   4

     Self-consistent Calculation

      iter #   1 total cpu time :    99.9 secs   av.it.:   5.5
      thresh= 1.000E-02 alpha_mix =  0.700 |ddv_scf|^2 =  4.652E-06

      iter #   2 total cpu time :   101.3 secs   av.it.:  10.9
      thresh= 2.157E-04 alpha_mix =  0.700 |ddv_scf|^2 =  9.890E-06

      iter #   3 total cpu time :   102.8 secs   av.it.:   9.7
      thresh= 3.145E-04 alpha_mix =  0.700 |ddv_scf|^2 =  2.140E-07

      iter #   4 total cpu time :   104.1 secs   av.it.:  10.0
      thresh= 4.626E-05 alpha_mix =  0.700 |ddv_scf|^2 =  2.694E-09

      iter #   5 total cpu time :   105.5 secs   av.it.:  10.7
      thresh= 5.190E-06 alpha_mix =  0.700 |ddv_scf|^2 =  5.039E-10

      iter #   6 total cpu time :   106.8 secs   av.it.:  10.5
      thresh= 2.245E-06 alpha_mix =  0.700 |ddv_scf|^2 =  3.052E-12

      iter #   7 total cpu time :   108.2 secs   av.it.:  10.8
      thresh= 1.747E-07 alpha_mix =  0.700 |ddv_scf|^2 =  1.413E-13

     End of self-consistent calculation

     Convergence has been achieved 


     Representation #  5 mode #   5

     Self-consistent Calculation

      iter #   1 total cpu time :   109.3 secs   av.it.:   5.2
      thresh= 1.000E-02 alpha_mix =  0.700 |ddv_scf|^2 =  4.829E-07

      iter #   2 total cpu time :   110.6 secs   av.it.:  10.4
      thresh= 6.949E-05 alpha_mix =  0.700 |ddv_scf|^2 =  7.883E-08

      iter #   3 total cpu time :   111.9 secs   av.it.:  10.2
      thresh= 2.808E-05 alpha_mix =  0.700 |ddv_scf|^2 =  1.050E-09

      iter #   4 total cpu time :   113.2 secs   av.it.:   9.8
      thresh= 3.241E-06 alpha_mix =  0.700 |ddv_scf|^2 =  2.472E-12

      iter #   5 total cpu time :   114.5 secs   av.it.:  10.3
      thresh= 1.572E-07 alpha_mix =  0.700 |ddv_scf|^2 =  6.970E-14

     End of self-consistent calculation

     Convergence has been achieved 


     Representation #  6 mode #   6

     Self-consistent Calculation

      iter #   1 total cpu time :   115.5 secs   av.it.:   5.2
      thresh= 1.000E-02 alpha_mix =  0.700 |ddv_scf|^2 =  4.829E-07

      iter #   2 total cpu time :   116.9 secs   av.it.:  10.4
[...]
        k(   59) = (  -0.8750000   0.1250000  -0.1250000), wk =   0.0625000
        k(   60) = (  -1.3750000  -0.8750000  -0.1250000), wk =   0.0000000
        k(   61) = (  -1.1250000   0.3750000  -0.3750000), wk =   0.0625000
        k(   62) = (  -1.6250000  -0.6250000  -0.3750000), wk =   0.0000000
        k(   63) = (  -0.3750000   0.3750000   1.1250000), wk =   0.0625000
        k(   64) = (  -0.8750000  -0.6250000   1.1250000), wk =   0.0000000

     Dense  grid:    17261 G-vectors     FFT dimensions: (  40,  40,  40)

     Smooth grid:     6183 G-vectors     FFT dimensions: (  25,  25,  25)

     Estimated max dynamical RAM per process >       1.79MB

     Estimated total allocated dynamical RAM >       7.14MB

     The potential is recalculated from file :
     ./_ph0/silicon.10.346.save/charge-density.dat

     Starting wfc are    8 atomic wfcs

     Band Structure Calculation
     Davidson diagonalization with overlap

     ethr =  1.25E-10,  avg # of iterations = 12.1

     total cpu time spent up to now is       10.9 secs

     End of band structure calculation

          k =-0.1250 0.1250 0.1250 (   773 PWs)   bands (ev):

    -5.6511   4.3510   5.6604   5.6604

          k =-0.6250-0.8750 0.1250 (   757 PWs)   bands (ev):

    -2.4652  -0.9278   1.9878   3.0597

          k =-0.3750 0.3750-0.1250 (   776 PWs)   bands (ev):

    -4.6284   1.3653   3.6815   5.1813

          k =-0.8750-0.6250-0.1250 (   757 PWs)   bands (ev):

    -2.4652  -0.9278   1.9878   3.0597

          k = 0.3750-0.3750 0.6250 (   767 PWs)   bands (ev):

    -3.4944  -0.7038   3.7004   4.4133

          k =-0.1250-1.3750 0.6250 (   769 PWs)   bands (ev):

    -3.0005  -0.6233   2.0444   4.0977

          k = 0.1250-0.1250 0.3750 (   774 PWs)   bands (ev):

    -5.1252   2.7368   4.6568   4.7185

          k =-0.3750-1.1250 0.3750 (   769 PWs)   bands (ev):

    -3.0005  -0.6233   2.0444   4.0977

          k =-0.1250 0.6250 0.1250 (   768 PWs)   bands (ev):

    -4.0977   1.0279   3.3352   3.7860

          k =-0.6250-0.3750 0.1250 (   770 PWs)   bands (ev):

    -3.6842   0.1601   2.6951   4.0597

          k = 0.6250-0.1250 0.8750 (   757 PWs)   bands (ev):

    -2.4652  -0.9278   1.9878   3.0597

          k = 0.1250-1.1250 0.8750 (   763 PWs)   bands (ev):

    -2.6313  -0.8313   2.5948   3.3207

          k = 0.3750 0.1250 0.6250 (   770 PWs)   bands (ev):

    -3.6842   0.1601   2.6951   4.0597

          k =-0.1250-0.8750 0.6250 (   757 PWs)   bands (ev):

    -2.4652  -0.9278   1.9878   3.0597

          k =-0.1250-0.8750 0.1250 (   763 PWs)   bands (ev):

    -2.6313  -0.8313   2.5948   3.3207

          k =-0.6250-1.8750 0.1250 (   768 PWs)   bands (ev):

    -4.0977   1.0279   3.3352   3.7860

          k =-0.3750 0.3750 0.3750 (   763 PWs)   bands (ev):

    -4.1975   0.0815   4.8756   4.8756

          k =-0.8750-0.6250 0.3750 (   770 PWs)   bands (ev):

    -3.6842   0.1601   2.6951   4.0597

          k = 0.3750-0.3750 1.1250 (   769 PWs)   bands (ev):

    -3.0005  -0.6233   2.0444   4.0977

          k =-0.1250-1.3750 1.1250 (   757 PWs)   bands (ev):

    -2.4652  -0.9278   1.9878   3.0597

          k = 0.1250-0.3750 0.3750 (   776 PWs)   bands (ev):

    -4.6284   1.3653   3.6815   5.1813

          k =-0.3750-1.3750 0.3750 (   767 PWs)   bands (ev):

    -3.4944  -0.7038   3.7004   4.4133

          k = 0.3750-0.3750-0.1250 (   776 PWs)   bands (ev):

    -4.6284   1.3653   3.6815   5.1813

          k =-0.1250-1.3750-0.1250 (   768 PWs)   bands (ev):

    -4.0977   1.0279   3.3352   3.7860

          k =-0.6250 0.3750-0.3750 (   767 PWs)   bands (ev):

    -3.4944  -0.7038   3.7004   4.4133

          k =-1.1250-0.6250-0.3750 (   770 PWs)   bands (ev):

    -3.6842   0.1601   2.6951   4.0597

          k =-0.3750 0.3750 0.6250 (   767 PWs)   bands (ev):

    -3.4944  -0.7038   3.7004   4.4133

          k =-0.8750-0.6250 0.6250 (   776 PWs)   bands (ev):

    -4.6284   1.3653   3.6815   5.1813

          k =-0.3750 0.1250-0.1250 (   774 PWs)   bands (ev):

    -5.1252   2.7368   4.6568   4.7185

          k =-0.8750-0.8750-0.1250 (   763 PWs)   bands (ev):

    -2.6313  -0.8313   2.5948   3.3207

          k =-0.1250 0.1250 0.3750 (   774 PWs)   bands (ev):

    -5.1252   2.7368   4.6568   4.7185

          k =-0.6250-0.8750 0.3750 (   770 PWs)   bands (ev):

    -3.6842   0.1601   2.6951   4.0597

          k = 0.1250 0.6250-0.1250 (   768 PWs)   bands (ev):

    -4.0977   1.0279   3.3352   3.7860

          k =-0.3750-0.3750-0.1250 (   776 PWs)   bands (ev):

    -4.6284   1.3653   3.6815   5.1813

          k = 0.6250 0.1250-0.1250 (   768 PWs)   bands (ev):

    -4.0977   1.0279   3.3352   3.7860

          k = 0.1250-0.8750-0.1250 (   763 PWs)   bands (ev):

    -2.6313  -0.8313   2.5948   3.3207

          k =-0.8750 0.1250-0.6250 (   757 PWs)   bands (ev):

    -2.4652  -0.9278   1.9878   3.0597

          k =-1.3750-0.8750-0.6250 (   776 PWs)   bands (ev):

    -4.6284   1.3653   3.6815   5.1813

          k = 0.8750-0.1250 0.6250 (   757 PWs)   bands (ev):

    -2.4652  -0.9278   1.9878   3.0597

          k = 0.3750-1.1250 0.6250 (   770 PWs)   bands (ev):

    -3.6842   0.1601   2.6951   4.0597

          k =-0.6250 0.1250 0.8750 (   757 PWs)   bands (ev):

    -2.4652  -0.9278   1.9878   3.0597

          k =-1.1250-0.8750 0.8750 (   773 PWs)   bands (ev):

    -5.6511   4.3510   5.6604   5.6604

          k =-0.1250 0.8750 0.6250 (   757 PWs)   bands (ev):

    -2.4652  -0.9278   1.9878   3.0597

          k =-0.6250-0.1250 0.6250 (   769 PWs)   bands (ev):

    -3.0005  -0.6233   2.0444   4.0977

          k = 0.1250 0.8750-0.6250 (   757 PWs)   bands (ev):

    -2.4652  -0.9278   1.9878   3.0597

          k =-0.3750-0.1250-0.6250 (   770 PWs)   bands (ev):

    -3.6842   0.1601   2.6951   4.0597

          k =-0.6250-0.1250-0.3750 (   770 PWs)   bands (ev):

    -3.6842   0.1601   2.6951   4.0597

          k =-1.1250-1.1250-0.3750 (   768 PWs)   bands (ev):

    -4.0977   1.0279   3.3352   3.7860

          k = 0.6250 0.1250 0.3750 (   770 PWs)   bands (ev):

    -3.6842   0.1601   2.6951   4.0597

          k = 0.1250-0.8750 0.3750 (   757 PWs)   bands (ev):

    -2.4652  -0.9278   1.9878   3.0597

          k =-0.3750-0.1250 0.6250 (   770 PWs)   bands (ev):

    -3.6842   0.1601   2.6951   4.0597

          k =-0.8750-1.1250 0.6250 (   774 PWs)   bands (ev):

    -5.1252   2.7368   4.6568   4.7185

          k = 0.1250 0.6250 0.3750 (   770 PWs)   bands (ev):

    -3.6842   0.1601   2.6951   4.0597

          k =-0.3750-0.3750 0.3750 (   763 PWs)   bands (ev):

    -4.1975   0.0815   4.8756   4.8756

          k =-0.1250 0.6250-0.3750 (   770 PWs)   bands (ev):

    -3.6842   0.1601   2.6951   4.0597

          k =-0.6250-0.3750-0.3750 (   767 PWs)   bands (ev):

    -3.4944  -0.7038   3.7004   4.4133

          k = 0.1250-0.8750-0.1250 (   763 PWs)   bands (ev):

    -2.6313  -0.8313   2.5948   3.3207

          k =-0.3750-1.8750-0.1250 (   774 PWs)   bands (ev):

    -5.1252   2.7368   4.6568   4.7185

          k =-0.8750 0.1250-0.1250 (   763 PWs)   bands (ev):

    -2.6313  -0.8313   2.5948   3.3207

          k =-1.3750-0.8750-0.1250 (   757 PWs)   bands (ev):

    -2.4652  -0.9278   1.9878   3.0597

          k =-1.1250 0.3750-0.3750 (   769 PWs)   bands (ev):

    -3.0005  -0.6233   2.0444   4.0977

          k =-1.6250-0.6250-0.3750 (   767 PWs)   bands (ev):

    -3.4944  -0.7038   3.7004   4.4133

          k =-0.3750 0.3750 1.1250 (   769 PWs)   bands (ev):

    -3.0005  -0.6233   2.0444   4.0977

          k =-0.8750-0.6250 1.1250 (   774 PWs)   bands (ev):

    -5.1252   2.7368   4.6568   4.7185

     highest occupied level (ev):     5.6604

     Writing output data file silicon.10.346.save

                                                                                

     bravais-lattice index     =            2
     lattice parameter (alat)  =      10.3460  a.u.
     unit-cell volume          =     276.8582 (a.u.)^3
     number of atoms/cell      =            2
     number of atomic types    =            1
     kinetic-energy cut-off    =      30.0000  Ry
     charge density cut-off    =     240.0000  Ry
     convergence threshold     =      1.0E-12
     beta                      =       0.7000
     number of iterations used =            4
     Exchange-correlation      = SLA  PW   PBE  PBE ( 1  4  3  4 0 0)


     celldm(1)=   10.34600  celldm(2)=    0.00000  celldm(3)=    0.00000
     celldm(4)=    0.00000  celldm(5)=    0.00000  celldm(6)=    0.00000

     crystal axes: (cart. coord. in units of alat)
               a(1) = ( -0.5000  0.0000  0.5000 )  
               a(2) = (  0.0000  0.5000  0.5000 )  
               a(3) = ( -0.5000  0.5000  0.0000 )  

     reciprocal axes: (cart. coord. in units 2 pi/alat)
               b(1) = ( -1.0000 -1.0000  1.0000 )  
               b(2) = (  1.0000  1.0000  1.0000 )  
               b(3) = ( -1.0000  1.0000 -1.0000 )  


     Atoms inside the unit cell: 

     Cartesian axes

     site n.  atom      mass           positions (alat units)
        1     Si  28.0860   tau(    1) = (    0.00000    0.00000    0.00000  )
        2     Si  28.0860   tau(    2) = (    0.25000    0.25000    0.25000  )

     Computing dynamical matrix for 
                    q = (  -0.5000000  -1.0000000   0.0000000 )

      8 Sym.Ops. (no q -> -q+G )


     G cutoff =  650.7234  (   4316 G-vectors)     FFT grid: ( 40, 40, 40)
     G cutoff =  325.3617  (   1546 G-vectors)  smooth grid: ( 25, 25, 25)
     number of k points=    64

     PseudoPot. # 1 for Si read from file:
     /home/s1333534/quantum_espresso/qe-6.1/pseudo/si_pbe_v1.uspp.F.UPF.txt
     MD5 check sum: a056efeee980c13900f22a371efd63c1
     Pseudo is Ultrasoft + core correction, Zval =  4.0
     Generated by new atomic code, or converted to UPF format
     Using radial grid of  899 points,  6 beta functions with: 
                l(1) =   0
                l(2) =   0
                l(3) =   1
                l(4) =   1
                l(5) =   2
                l(6) =   2
     Q(r) pseudized with  8 coefficients,  rinner =    0.900   0.900   0.900
                                                       0.900   0.900


     Atomic displacements:
     There are   3 irreducible representations

     Representation     1      2 modes -  To be done

     Representation     2      2 modes -  To be done

     Representation     3      2 modes -  To be done



     Alpha used in Ewald sum =   2.5000
     PHONON       :  2m 7.59s CPU     2m40.78s WALL



     Representation #  1 modes #   1  2

     Self-consistent Calculation

      iter #   1 total cpu time :   161.8 secs   av.it.:   5.7
      thresh= 1.000E-02 alpha_mix =  0.700 |ddv_scf|^2 =  7.854E-07

      iter #   2 total cpu time :   162.6 secs   av.it.:  11.8
      thresh= 8.862E-05 alpha_mix =  0.700 |ddv_scf|^2 =  4.443E-07

      iter #   3 total cpu time :   163.5 secs   av.it.:  11.3
      thresh= 6.665E-05 alpha_mix =  0.700 |ddv_scf|^2 =  4.283E-10

      iter #   4 total cpu time :   164.3 secs   av.it.:  11.1
      thresh= 2.070E-06 alpha_mix =  0.700 |ddv_scf|^2 =  1.928E-12

      iter #   5 total cpu time :   165.1 secs   av.it.:  11.3
      thresh= 1.389E-07 alpha_mix =  0.700 |ddv_scf|^2 =  5.055E-14

     End of self-consistent calculation

     Convergence has been achieved 


     Representation #  2 modes #   3  4

     Self-consistent Calculation

      iter #   1 total cpu time :   165.8 secs   av.it.:   5.6
      thresh= 1.000E-02 alpha_mix =  0.700 |ddv_scf|^2 =  1.221E-06

      iter #   2 total cpu time :   166.7 secs   av.it.:  11.8
      thresh= 1.105E-04 alpha_mix =  0.700 |ddv_scf|^2 =  1.662E-06

      iter #   3 total cpu time :   167.6 secs   av.it.:  11.0
      thresh= 1.289E-04 alpha_mix =  0.700 |ddv_scf|^2 =  5.098E-10

      iter #   4 total cpu time :   168.4 secs   av.it.:  11.1
      thresh= 2.258E-06 alpha_mix =  0.700 |ddv_scf|^2 =  8.100E-12

      iter #   5 total cpu time :   169.2 secs   av.it.:  11.3
      thresh= 2.846E-07 alpha_mix =  0.700 |ddv_scf|^2 =  1.326E-13

     End of self-consistent calculation

     Convergence has been achieved 


     Representation #  3 modes #   5  6

     Self-consistent Calculation

      iter #   1 total cpu time :   170.0 secs   av.it.:   5.3
      thresh= 1.000E-02 alpha_mix =  0.700 |ddv_scf|^2 =  3.191E-07

      iter #   2 total cpu time :   170.9 secs   av.it.:  11.8
      thresh= 5.649E-05 alpha_mix =  0.700 |ddv_scf|^2 =  1.863E-07

      iter #   3 total cpu time :   171.8 secs   av.it.:  11.2
      thresh= 4.316E-05 alpha_mix =  0.700 |ddv_scf|^2 =  3.716E-10

      iter #   4 total cpu time :   172.7 secs   av.it.:  11.1
      thresh= 1.928E-06 alpha_mix =  0.700 |ddv_scf|^2 =  4.416E-12

      iter #   5 total cpu time :   173.4 secs   av.it.:  11.2
      thresh= 2.101E-07 alpha_mix =  0.700 |ddv_scf|^2 =  6.064E-14

     End of self-consistent calculation

     Convergence has been achieved 

     Number of q in the star =    6
     List of q in the star:
          1  -0.500000000  -1.000000000   0.000000000
          2   0.000000000   1.000000000   0.500000000
          3   0.000000000  -1.000000000  -0.500000000
          4   0.500000000   1.000000000   0.000000000
          5  -1.000000000  -0.500000000   0.000000000
          6   0.000000000  -0.500000000  -1.000000000

     Diagonalizing the dynamical matrix

     q = (   -0.500000000  -1.000000000   0.000000000 ) 

 **************************************************************************
     freq (    1) =       6.028950 [THz] =     201.104117 [cm-1]
     freq (    2) =       6.028950 [THz] =     201.104117 [cm-1]
     freq (    3) =      10.280318 [THz] =     342.914496 [cm-1]
     freq (    4) =      10.280318 [THz] =     342.914496 [cm-1]
     freq (    5) =      13.482935 [THz] =     449.742318 [cm-1]
     freq (    6) =      13.482935 [THz] =     449.742318 [cm-1]
 **************************************************************************

     init_run     :      1.27s CPU      1.32s WALL (       7 calls)
     electrons    :      7.36s CPU      7.96s WALL (       7 calls)

     Called by init_run:
     wfcinit      :      0.00s CPU      0.03s WALL (       7 calls)
     potinit      :      0.10s CPU      0.11s WALL (       7 calls)

     Called by electrons:
     c_bands      :      7.35s CPU      7.95s WALL (       7 calls)
     v_of_rho     :      0.09s CPU      0.09s WALL (       8 calls)
     newd         :      0.12s CPU      0.12s WALL (       8 calls)

     Called by c_bands:
     init_us_2    :      1.63s CPU      1.58s WALL (   15896 calls)
     cegterg      :      6.15s CPU      6.65s WALL (     796 calls)

     Called by sum_band:

     Called by *egterg:
     h_psi        :     70.80s CPU     75.90s WALL (  154687 calls)
     s_psi        :      5.88s CPU      6.99s WALL (  311632 calls)
     g_psi        :      0.05s CPU      0.07s WALL (    9666 calls)
     cdiaghg      :      0.56s CPU      0.56s WALL (   10462 calls)

     Called by h_psi:
     h_psi:pot    :     70.37s CPU     75.38s WALL (  154687 calls)
     h_psi:calbec :      3.52s CPU      4.05s WALL (  154687 calls)
     vloc_psi     :     62.21s CPU     67.15s WALL (  154687 calls)
     add_vuspsi   :      4.28s CPU      3.71s WALL (  154687 calls)

     General routines
     calbec       :      7.98s CPU      8.46s WALL (  345940 calls)
     fft          :      1.86s CPU      1.94s WALL (    5233 calls)
     ffts         :      0.22s CPU      0.24s WALL (    3316 calls)
     fftw         :     64.17s CPU     68.10s WALL ( 1384882 calls)
     interpolate  :      0.26s CPU      0.28s WALL (     568 calls)
     davcio       :      0.34s CPU      1.17s WALL (   69130 calls)

     Parallel routines
     fft_scatter  :     15.76s CPU     20.14s WALL ( 1393431 calls)

     PHONON       :  2m17.46s CPU     2m53.98s WALL

     INITIALIZATION: 
     phq_setup    :      0.30s CPU      0.46s WALL (       8 calls)
     phq_init     :      6.73s CPU      7.09s WALL (       8 calls)

     phq_init     :      6.73s CPU      7.09s WALL (       8 calls)
     set_drhoc    :      1.83s CPU      1.84s WALL (      24 calls)
     init_vloc    :      0.03s CPU      0.03s WALL (       8 calls)
     init_us_1    :      0.97s CPU      0.98s WALL (       8 calls)
     newd         :      0.12s CPU      0.12s WALL (       8 calls)
     dvanqq       :      1.15s CPU      1.17s WALL (       8 calls)
     drho         :      2.61s CPU      2.70s WALL (       8 calls)

     DYNAMICAL MATRIX:
     dynmat0      :      1.75s CPU      1.86s WALL (       8 calls)
     phqscf       :    116.59s CPU    146.97s WALL (       8 calls)
     dynmatrix    :      0.01s CPU      0.19s WALL (       8 calls)

     phqscf       :    116.59s CPU    146.97s WALL (       8 calls)
     solve_linter :    115.71s CPU    144.42s WALL (      32 calls)
     drhodv       :      0.58s CPU      0.60s WALL (      32 calls)

     dynmat0      :      1.75s CPU      1.86s WALL (       8 calls)
     dynmat_us    :      0.38s CPU      0.39s WALL (       8 calls)
     d2ionq       :      0.04s CPU      0.04s WALL (       8 calls)
     dynmatcc     :      1.32s CPU      1.33s WALL (       8 calls)

     dynmat_us    :      0.38s CPU      0.39s WALL (       8 calls)
     addusdynmat  :      0.00s CPU      0.00s WALL (       8 calls)

     phqscf       :    116.59s CPU    146.97s WALL (       8 calls)
     solve_linter :    115.71s CPU    144.42s WALL (      32 calls)

     solve_linter :    115.71s CPU    144.42s WALL (      32 calls)
     dvqpsi_us    :      2.15s CPU      2.30s WALL (    2508 calls)
     ortho        :      0.95s CPU      1.10s WALL (   13486 calls)
     cgsolve      :     78.24s CPU     85.04s WALL (   13486 calls)
     incdrhoscf   :      6.44s CPU      7.02s WALL (   13486 calls)
     addusddens   :      7.09s CPU      7.17s WALL (     200 calls)
     vpsifft      :      4.60s CPU      5.00s WALL (   10858 calls)
     dv_of_drho   :      1.75s CPU      1.79s WALL (     254 calls)
     mix_pot      :      0.37s CPU     11.42s WALL (     173 calls)
     psymdvscf    :      5.83s CPU      5.89s WALL (     168 calls)
     newdq        :      7.68s CPU      7.71s WALL (     173 calls)
     adddvscf     :      0.47s CPU      0.43s WALL (   10978 calls)
     drhodvus     :      0.01s CPU      0.02s WALL (      32 calls)

     dvqpsi_us    :      2.15s CPU      2.30s WALL (    2508 calls)
     dvqpsi_us_on :      0.91s CPU      0.94s WALL (    2508 calls)

     cgsolve      :     78.24s CPU     85.04s WALL (   13486 calls)
     ch_psi       :     77.17s CPU     83.30s WALL (  143429 calls)

     ch_psi       :     77.17s CPU     83.30s WALL (  143429 calls)
     h_psi        :     70.80s CPU     75.90s WALL (  154687 calls)
     last         :      9.04s CPU      9.18s WALL (  143429 calls)

     h_psi        :     70.80s CPU     75.90s WALL (  154687 calls)
     add_vuspsi   :      4.28s CPU      3.71s WALL (  154687 calls)

     incdrhoscf   :      6.44s CPU      7.02s WALL (   13486 calls)
     addusdbec    :      0.47s CPU      0.51s WALL (   15934 calls)

     drhodvus     :      0.01s CPU      0.02s WALL (      32 calls)

      General routines
     calbec       :      7.98s CPU      8.46s WALL (  345940 calls)
     fft          :      1.86s CPU      1.94s WALL (    5233 calls)
     ffts         :      0.22s CPU      0.24s WALL (    3316 calls)
     fftw         :     64.17s CPU     68.10s WALL ( 1384882 calls)
     davcio       :      0.34s CPU      1.17s WALL (   69130 calls)
     write_rec    :      0.24s CPU     11.35s WALL (     205 calls)


     PHONON       :  2m17.46s CPU     2m53.98s WALL


   This run was terminated on:  15:36:40  10Nov2017            

=------------------------------------------------------------------------------=
   JOB DONE.
=------------------------------------------------------------------------------=
