
     Program PWSCF v.6.1 (svn rev. 13369) starts on 10Nov2017 at 10:15:29 

     This program is part of the open-source Quantum ESPRESSO suite
     for quantum simulation of materials; please cite
         "P. Giannozzi et al., J. Phys.:Condens. Matter 21 395502 (2009);
          URL http://www.quantum-espresso.org", 
     in publications or presentations arising from this work. More details at
     http://www.quantum-espresso.org/quote

     Parallel version (MPI), running on     4 processors
     R & G space division:  proc/nbgrp/npool/nimage =       4
     Waiting for input...
     Reading input from standard input
     Message from routine read_cards :
     DEPRECATED: no units specified in ATOMIC_POSITIONS card
     Message from routine read_cards :
     ATOMIC_POSITIONS: units set to alat

     Current dimensions of program PWSCF are:
     Max number of different atomic species (ntypx) = 10
     Max number of k-points (npk) =  40000
     Max angular momentum in pseudopotentials (lmaxx) =  3

     Subspace diagonalization in iterative solution of the eigenvalue problem:
     a serial algorithm will be used


     Parallelization info
     --------------------
     sticks:   dense  smooth     PW     G-vecs:    dense   smooth      PW
     Min         228     112     37                 4535     1593     309
     Max         229     113     38                 4538     1594     312
     Sum         913     451    151                18149     6375    1243



     bravais-lattice index     =            2
     lattice parameter (alat)  =      10.5000  a.u.
     unit-cell volume          =     289.4062 (a.u.)^3
     number of atoms/cell      =            2
     number of atomic types    =            1
     number of electrons       =         8.00
     number of Kohn-Sham states=            4
     kinetic-energy cutoff     =      30.0000  Ry
     charge density cutoff     =     240.0000  Ry
     convergence threshold     =      1.0E-08
     mixing beta               =       0.7000
     number of iterations used =            8  plain     mixing
     Exchange-correlation      = SLA  PW   PBE  PBE ( 1  4  3  4 0 0)

     celldm(1)=  10.500000  celldm(2)=   0.000000  celldm(3)=   0.000000
     celldm(4)=   0.000000  celldm(5)=   0.000000  celldm(6)=   0.000000

     crystal axes: (cart. coord. in units of alat)
               a(1) = (  -0.500000   0.000000   0.500000 )  
               a(2) = (   0.000000   0.500000   0.500000 )  
               a(3) = (  -0.500000   0.500000   0.000000 )  

     reciprocal axes: (cart. coord. in units 2 pi/alat)
               b(1) = ( -1.000000 -1.000000  1.000000 )  
               b(2) = (  1.000000  1.000000  1.000000 )  
               b(3) = ( -1.000000  1.000000 -1.000000 )  


     PseudoPot. # 1 for Si read from file:
     /home/max/quantum_espresso/qe-6.1/pseudo/si_pbe_v1.uspp.F.UPF.txt
     MD5 check sum: a056efeee980c13900f22a371efd63c1
     Pseudo is Ultrasoft + core correction, Zval =  4.0
     Generated by new atomic code, or converted to UPF format
     Using radial grid of  899 points,  6 beta functions with: 
                l(1) =   0
                l(2) =   0
                l(3) =   1
                l(4) =   1
                l(5) =   2
                l(6) =   2
     Q(r) pseudized with  8 coefficients,  rinner =    0.900   0.900   0.900
                                                       0.900   0.900

     atomic species   valence    mass     pseudopotential
        Si             4.00    28.08600     Si( 1.00)

     48 Sym. Ops., with inversion, found (24 have fractional translation)



   Cartesian axes

     site n.     atom                  positions (alat units)
         1           Si  tau(   1) = (   0.0000000   0.0000000   0.0000000  )
         2           Si  tau(   2) = (   0.2500000   0.2500000   0.2500000  )

     number of k points=    28
                       cart. coord. in units 2pi/alat
        k(    1) = (  -0.0833333   0.0833333   0.0833333), wk =   0.0185185
        k(    2) = (  -0.2500000   0.2500000  -0.0833333), wk =   0.0555556
        k(    3) = (  -0.4166667   0.4166667  -0.2500000), wk =   0.0555556
        k(    4) = (   0.4166667  -0.4166667   0.5833333), wk =   0.0555556
        k(    5) = (   0.2500000  -0.2500000   0.4166667), wk =   0.0555556
        k(    6) = (   0.0833333  -0.0833333   0.2500000), wk =   0.0555556
        k(    7) = (  -0.0833333   0.4166667   0.0833333), wk =   0.0555556
        k(    8) = (  -0.2500000   0.5833333  -0.0833333), wk =   0.1111111
        k(    9) = (   0.5833333  -0.2500000   0.7500000), wk =   0.1111111
        k(   10) = (   0.4166667  -0.0833333   0.5833333), wk =   0.1111111
        k(   11) = (   0.2500000   0.0833333   0.4166667), wk =   0.1111111
        k(   12) = (  -0.0833333   0.7500000   0.0833333), wk =   0.0555556
        k(   13) = (   0.7500000  -0.0833333   0.9166667), wk =   0.1111111
        k(   14) = (   0.5833333   0.0833333   0.7500000), wk =   0.1111111
        k(   15) = (   0.4166667   0.2500000   0.5833333), wk =   0.1111111
        k(   16) = (  -0.0833333  -0.9166667   0.0833333), wk =   0.0555556
        k(   17) = (  -0.2500000  -0.7500000  -0.0833333), wk =   0.1111111
        k(   18) = (  -0.0833333  -0.5833333   0.0833333), wk =   0.0555556
        k(   19) = (  -0.2500000   0.2500000   0.2500000), wk =   0.0185185
        k(   20) = (  -0.4166667   0.4166667   0.0833333), wk =   0.0555556
        k(   21) = (   0.4166667  -0.4166667   0.9166667), wk =   0.0555556
        k(   22) = (   0.2500000  -0.2500000   0.7500000), wk =   0.0555556
        k(   23) = (  -0.2500000   0.5833333   0.2500000), wk =   0.0555556
        k(   24) = (   0.5833333  -0.2500000   1.0833333), wk =   0.1111111
        k(   25) = (   0.4166667  -0.0833333   0.9166667), wk =   0.1111111
        k(   26) = (  -0.2500000  -1.0833333   0.2500000), wk =   0.0555556
        k(   27) = (  -0.4166667   0.4166667   0.4166667), wk =   0.0185185
        k(   28) = (   0.4166667  -0.4166667   1.2500000), wk =   0.0555556

     Dense  grid:    18149 G-vectors     FFT dimensions: (  40,  40,  40)

     Smooth grid:     6375 G-vectors     FFT dimensions: (  25,  25,  25)

     Estimated max dynamical RAM per process >       3.47MB

     Estimated total allocated dynamical RAM >      13.86MB

     Initial potential from superposition of free atoms

     starting charge    7.99866, renormalised to    8.00000
     Starting wfc are    8 randomized atomic wfcs

     total cpu time spent up to now is        0.6 secs

     per-process dynamical memory:    10.7 Mb

     Self-consistent Calculation

     iteration #  1     ecut=    30.00 Ry     beta=0.70
     Davidson diagonalization with overlap
     ethr =  1.00E-02,  avg # of iterations =  2.0

     Threshold (ethr) on eigenvalues was too large:
     Diagonalizing with lowered threshold

     Davidson diagonalization with overlap
     ethr =  6.24E-04,  avg # of iterations =  1.1

     total cpu time spent up to now is        1.3 secs

     total energy              =     -19.18973228 Ry
     Harris-Foulkes estimate   =     -19.20031349 Ry
     estimated scf accuracy    <       0.04958286 Ry

     iteration #  2     ecut=    30.00 Ry     beta=0.70
     Davidson diagonalization with overlap
     ethr =  6.20E-04,  avg # of iterations =  1.0

     total cpu time spent up to now is        1.5 secs

     total energy              =     -19.19118223 Ry
     Harris-Foulkes estimate   =     -19.19135084 Ry
     estimated scf accuracy    <       0.00245287 Ry

     iteration #  3     ecut=    30.00 Ry     beta=0.70
     Davidson diagonalization with overlap
     ethr =  3.07E-05,  avg # of iterations =  2.1

     total cpu time spent up to now is        1.8 secs

     total energy              =     -19.19147910 Ry
     Harris-Foulkes estimate   =     -19.19148811 Ry
     estimated scf accuracy    <       0.00003381 Ry

     iteration #  4     ecut=    30.00 Ry     beta=0.70
     Davidson diagonalization with overlap
     ethr =  4.23E-07,  avg # of iterations =  3.3

     total cpu time spent up to now is        2.3 secs

     total energy              =     -19.19151362 Ry
     Harris-Foulkes estimate   =     -19.19151390 Ry
     estimated scf accuracy    <       0.00000131 Ry

     iteration #  5     ecut=    30.00 Ry     beta=0.70
     Davidson diagonalization with overlap
     ethr =  1.64E-08,  avg # of iterations =  2.2

     total cpu time spent up to now is        2.6 secs

     End of self-consistent calculation

          k =-0.0833 0.0833 0.0833 (   815 PWs)   bands (ev):

    -5.9165   4.6328   5.3645   5.3645

          k =-0.2500 0.2500-0.0833 (   812 PWs)   bands (ev):

    -5.4666   2.6051   4.2029   5.1576

          k =-0.4167 0.4167-0.2500 (   808 PWs)   bands (ev):

    -4.4427  -0.0088   3.7429   4.5545

          k = 0.4167-0.4167 0.5833 (   801 PWs)   bands (ev):

    -3.8021  -1.0738   3.7943   4.1986

          k = 0.2500-0.2500 0.4167 (   800 PWs)   bands (ev):

    -4.8269   0.7894   4.2637   4.2664

          k = 0.0833-0.0833 0.2500 (   811 PWs)   bands (ev):

    -5.6892   3.5708   4.7631   4.9146

          k =-0.0833 0.4167 0.0833 (   816 PWs)   bands (ev):

    -5.2385   2.3775   4.0442   4.0755

          k =-0.2500 0.5833-0.0833 (   811 PWs)   bands (ev):

    -4.3817   0.6179   2.8153   3.7060

          k = 0.5833-0.2500 0.7500 (   803 PWs)   bands (ev):

    -3.3491  -1.0037   2.2288   3.4979

          k = 0.4167-0.0833 0.5833 (   803 PWs)   bands (ev):

    -4.0146  -0.0273   2.2119   3.9481

          k = 0.2500 0.0833 0.4167 (   813 PWs)   bands (ev):

    -5.0268   1.6053   3.4693   4.5654

          k =-0.0833 0.7500 0.0833 (   800 PWs)   bands (ev):

    -3.7081  -0.2019   2.7904   3.1004

          k = 0.7500-0.0833 0.9167 (   794 PWs)   bands (ev):

    -2.5879  -1.4742   2.0152   2.7289

          k = 0.5833 0.0833 0.7500 (   803 PWs)   bands (ev):

    -2.9520  -1.1287   1.5574   3.2393

          k = 0.4167 0.2500 0.5833 (   806 PWs)   bands (ev):

    -3.9164  -0.6255   3.0632   4.0365

          k =-0.0833-0.9167 0.0833 (   796 PWs)   bands (ev):

    -2.6671  -1.4786   2.5377   2.8958

          k =-0.2500-0.7500-0.0833 (   797 PWs)   bands (ev):

    -3.5536  -0.4076   2.3052   3.0499

          k =-0.0833-0.5833 0.0833 (   814 PWs)   bands (ev):

    -4.5733   1.1058   3.2972   3.5012

          k =-0.2500 0.2500 0.2500 (   812 PWs)   bands (ev):

    -5.2507   1.6886   4.7822   4.7822

          k =-0.4167 0.4167 0.0833 (   805 PWs)   bands (ev):

    -4.6119   0.7581   2.7797   4.6172

          k = 0.4167-0.4167 0.9167 (   798 PWs)   bands (ev):

    -3.5114  -0.6319   1.7495   3.8823

          k = 0.2500-0.2500 0.7500 (   803 PWs)   bands (ev):

    -3.4590  -0.7086   2.1880   3.4317

          k =-0.2500 0.5833 0.2500 (   800 PWs)   bands (ev):

    -4.2149   0.0026   3.1862   3.7836

          k = 0.5833-0.2500 1.0833 (   803 PWs)   bands (ev):

    -3.2763  -0.7634   1.8474   3.0543

          k = 0.4167-0.0833 0.9167 (   795 PWs)   bands (ev):

    -2.4976  -1.4818   1.7109   2.4351

          k =-0.2500-1.0833 0.2500 (   800 PWs)   bands (ev):

    -2.6979  -1.3760   1.5920   3.2479

          k =-0.4167 0.4167 0.4167 (   799 PWs)   bands (ev):

    -4.1406  -0.6979   4.4081   4.4081

          k = 0.4167-0.4167 1.2500 (   802 PWs)   bands (ev):

    -3.5786  -1.0043   2.6660   3.9998

     highest occupied level (ev):     5.3645

!    total energy              =     -19.19151386 Ry
     Harris-Foulkes estimate   =     -19.19151386 Ry
     estimated scf accuracy    <          3.8E-09 Ry

     The total energy is the sum of the following terms:

     one-electron contribution =       4.59011753 Ry
     hartree contribution      =       1.17658891 Ry
     xc contribution           =      -8.54131198 Ry
     ewald contribution        =     -16.41690833 Ry

     convergence has been achieved in   5 iterations

     Writing output data file silicon.10.50.save

     init_run     :      0.35s CPU      0.43s WALL (       1 calls)
     electrons    :      1.43s CPU      2.02s WALL (       1 calls)

     Called by init_run:
     wfcinit      :      0.08s CPU      0.10s WALL (       1 calls)
     potinit      :      0.03s CPU      0.04s WALL (       1 calls)

     Called by electrons:
     c_bands      :      0.87s CPU      1.17s WALL (       6 calls)
     sum_band     :      0.32s CPU      0.57s WALL (       6 calls)
     v_of_rho     :      0.11s CPU      0.14s WALL (       6 calls)
     newd         :      0.14s CPU      0.17s WALL (       6 calls)
     mix_rho      :      0.01s CPU      0.01s WALL (       6 calls)

     Called by c_bands:
     init_us_2    :      0.05s CPU      0.06s WALL (     364 calls)
     cegterg      :      0.75s CPU      1.03s WALL (     168 calls)

     Called by sum_band:
     sum_band:bec :      0.00s CPU      0.00s WALL (     168 calls)
     addusdens    :      0.15s CPU      0.21s WALL (       6 calls)

     Called by *egterg:
     h_psi        :      0.63s CPU      0.85s WALL (     524 calls)
     s_psi        :      0.05s CPU      0.07s WALL (     524 calls)
     g_psi        :      0.00s CPU      0.00s WALL (     328 calls)
     cdiaghg      :      0.04s CPU      0.06s WALL (     468 calls)

     Called by h_psi:
     h_psi:pot    :      0.63s CPU      0.84s WALL (     524 calls)
     h_psi:calbec :      0.07s CPU      0.09s WALL (     524 calls)
     vloc_psi     :      0.51s CPU      0.70s WALL (     524 calls)
     add_vuspsi   :      0.05s CPU      0.05s WALL (     524 calls)

     General routines
     calbec       :      0.09s CPU      0.12s WALL (     692 calls)
     fft          :      0.09s CPU      0.16s WALL (      96 calls)
     ffts         :      0.00s CPU      0.00s WALL (      12 calls)
     fftw         :      0.52s CPU      0.80s WALL (    4646 calls)
     interpolate  :      0.01s CPU      0.03s WALL (      12 calls)
     davcio       :      0.00s CPU      0.00s WALL (      28 calls)

     Parallel routines
     fft_scatter  :      0.31s CPU      0.61s WALL (    4754 calls)

     PWSCF        :     1.99s CPU         2.72s WALL


   This run was terminated on:  10:15:32  10Nov2017            

=------------------------------------------------------------------------------=
   JOB DONE.
=------------------------------------------------------------------------------=
