
     Program PWSCF v.6.1 (svn rev. 13369) starts on 10Nov2017 at 12: 7:58 

     This program is part of the open-source Quantum ESPRESSO suite
     for quantum simulation of materials; please cite
         "P. Giannozzi et al., J. Phys.:Condens. Matter 21 395502 (2009);
          URL http://www.quantum-espresso.org", 
     in publications or presentations arising from this work. More details at
     http://www.quantum-espresso.org/quote

     Parallel version (MPI), running on     4 processors
     R & G space division:  proc/nbgrp/npool/nimage =       4
     Waiting for input...
     Reading input from standard input
     Message from routine read_cards :
     DEPRECATED: no units specified in ATOMIC_POSITIONS card
     Message from routine read_cards :
     ATOMIC_POSITIONS: units set to alat

     Current dimensions of program PWSCF are:
     Max number of different atomic species (ntypx) = 10
     Max number of k-points (npk) =  40000
     Max angular momentum in pseudopotentials (lmaxx) =  3

     Subspace diagonalization in iterative solution of the eigenvalue problem:
     a serial algorithm will be used


     Parallelization info
     --------------------
     sticks:   dense  smooth     PW     G-vecs:    dense   smooth      PW
     Min         139      70     24                 2198      779     161
     Max         140      71     25                 2201      780     162
     Sum         559     283     97                 8801     3119     645



     bravais-lattice index     =            2
     lattice parameter (alat)  =      10.3330  a.u.
     unit-cell volume          =     275.8159 (a.u.)^3
     number of atoms/cell      =            2
     number of atomic types    =            1
     number of electrons       =         8.00
     number of Kohn-Sham states=            4
     kinetic-energy cutoff     =      19.0000  Ry
     charge density cutoff     =     152.0000  Ry
     convergence threshold     =      1.0E-08
     mixing beta               =       0.7000
     number of iterations used =            8  plain     mixing
     Exchange-correlation      = SLA  PW   PBE  PBE ( 1  4  3  4 0 0)

     celldm(1)=  10.333000  celldm(2)=   0.000000  celldm(3)=   0.000000
     celldm(4)=   0.000000  celldm(5)=   0.000000  celldm(6)=   0.000000

     crystal axes: (cart. coord. in units of alat)
               a(1) = (  -0.500000   0.000000   0.500000 )  
               a(2) = (   0.000000   0.500000   0.500000 )  
               a(3) = (  -0.500000   0.500000   0.000000 )  

     reciprocal axes: (cart. coord. in units 2 pi/alat)
               b(1) = ( -1.000000 -1.000000  1.000000 )  
               b(2) = (  1.000000  1.000000  1.000000 )  
               b(3) = ( -1.000000  1.000000 -1.000000 )  


     PseudoPot. # 1 for Si read from file:
     /home/max/quantum_espresso/qe-6.1/pseudo/si_pbe_v1.uspp.F.UPF.txt
     MD5 check sum: a056efeee980c13900f22a371efd63c1
     Pseudo is Ultrasoft + core correction, Zval =  4.0
     Generated by new atomic code, or converted to UPF format
     Using radial grid of  899 points,  6 beta functions with: 
                l(1) =   0
                l(2) =   0
                l(3) =   1
                l(4) =   1
                l(5) =   2
                l(6) =   2
     Q(r) pseudized with  8 coefficients,  rinner =    0.900   0.900   0.900
                                                       0.900   0.900

     atomic species   valence    mass     pseudopotential
        Si             4.00    28.08600     Si( 1.00)

     24 Sym. Ops. (no inversion) found
          (note: 24 additional sym.ops. were found but ignored
           their fractional translations are incommensurate with FFT grid)


   Cartesian axes

     site n.     atom                  positions (alat units)
         1           Si  tau(   1) = (   0.0000000   0.0000000   0.0000000  )
         2           Si  tau(   2) = (   0.2500000   0.2500000   0.2500000  )

     number of k points=    28
                       cart. coord. in units 2pi/alat
        k(    1) = (  -0.0833333   0.0833333   0.0833333), wk =   0.0185185
        k(    2) = (  -0.2500000   0.2500000  -0.0833333), wk =   0.0555556
        k(    3) = (  -0.4166667   0.4166667  -0.2500000), wk =   0.0555556
        k(    4) = (   0.4166667  -0.4166667   0.5833333), wk =   0.0555556
        k(    5) = (   0.2500000  -0.2500000   0.4166667), wk =   0.0555556
        k(    6) = (   0.0833333  -0.0833333   0.2500000), wk =   0.0555556
        k(    7) = (  -0.0833333   0.4166667   0.0833333), wk =   0.0555556
        k(    8) = (  -0.2500000   0.5833333  -0.0833333), wk =   0.1111111
        k(    9) = (   0.5833333  -0.2500000   0.7500000), wk =   0.1111111
        k(   10) = (   0.4166667  -0.0833333   0.5833333), wk =   0.1111111
        k(   11) = (   0.2500000   0.0833333   0.4166667), wk =   0.1111111
        k(   12) = (  -0.0833333   0.7500000   0.0833333), wk =   0.0555556
        k(   13) = (   0.7500000  -0.0833333   0.9166667), wk =   0.1111111
        k(   14) = (   0.5833333   0.0833333   0.7500000), wk =   0.1111111
        k(   15) = (   0.4166667   0.2500000   0.5833333), wk =   0.1111111
        k(   16) = (  -0.0833333  -0.9166667   0.0833333), wk =   0.0555556
        k(   17) = (  -0.2500000  -0.7500000  -0.0833333), wk =   0.1111111
        k(   18) = (  -0.0833333  -0.5833333   0.0833333), wk =   0.0555556
        k(   19) = (  -0.2500000   0.2500000   0.2500000), wk =   0.0185185
        k(   20) = (  -0.4166667   0.4166667   0.0833333), wk =   0.0555556
        k(   21) = (   0.4166667  -0.4166667   0.9166667), wk =   0.0555556
        k(   22) = (   0.2500000  -0.2500000   0.7500000), wk =   0.0555556
        k(   23) = (  -0.2500000   0.5833333   0.2500000), wk =   0.0555556
        k(   24) = (   0.5833333  -0.2500000   1.0833333), wk =   0.1111111
        k(   25) = (   0.4166667  -0.0833333   0.9166667), wk =   0.1111111
        k(   26) = (  -0.2500000  -1.0833333   0.2500000), wk =   0.0555556
        k(   27) = (  -0.4166667   0.4166667   0.4166667), wk =   0.0185185
        k(   28) = (   0.4166667  -0.4166667   1.2500000), wk =   0.0555556

     Dense  grid:     8801 G-vectors     FFT dimensions: (  30,  30,  30)

     Smooth grid:     3119 G-vectors     FFT dimensions: (  24,  24,  24)

     Estimated max dynamical RAM per process >       1.64MB

     Estimated total allocated dynamical RAM >       6.57MB

     Initial potential from superposition of free atoms

     starting charge    7.99866, renormalised to    8.00000
     Starting wfc are    8 randomized atomic wfcs

     total cpu time spent up to now is        0.4 secs

     per-process dynamical memory:     9.2 Mb

     Self-consistent Calculation

     iteration #  1     ecut=    19.00 Ry     beta=0.70
     Davidson diagonalization with overlap
     ethr =  1.00E-02,  avg # of iterations =  2.0

     Threshold (ethr) on eigenvalues was too large:
     Diagonalizing with lowered threshold

     Davidson diagonalization with overlap
     ethr =  6.76E-04,  avg # of iterations =  1.0

     total cpu time spent up to now is        0.7 secs

     total energy              =     -19.19002345 Ry
     Harris-Foulkes estimate   =     -19.20245910 Ry
     estimated scf accuracy    <       0.05374650 Ry

     iteration #  2     ecut=    19.00 Ry     beta=0.70
     Davidson diagonalization with overlap
     ethr =  6.72E-04,  avg # of iterations =  1.0

     total cpu time spent up to now is        1.0 secs

     total energy              =     -19.19176961 Ry
     Harris-Foulkes estimate   =     -19.19193791 Ry
     estimated scf accuracy    <       0.00244722 Ry

     iteration #  3     ecut=    19.00 Ry     beta=0.70
     Davidson diagonalization with overlap
     ethr =  3.06E-05,  avg # of iterations =  2.0

     total cpu time spent up to now is        1.1 secs

     total energy              =     -19.19206306 Ry
     Harris-Foulkes estimate   =     -19.19207637 Ry
     estimated scf accuracy    <       0.00004138 Ry

     iteration #  4     ecut=    19.00 Ry     beta=0.70
     Davidson diagonalization with overlap
     ethr =  5.17E-07,  avg # of iterations =  3.0

     total cpu time spent up to now is        1.3 secs

     total energy              =     -19.19208761 Ry
     Harris-Foulkes estimate   =     -19.19208822 Ry
     estimated scf accuracy    <       0.00000252 Ry

     iteration #  5     ecut=    19.00 Ry     beta=0.70
     Davidson diagonalization with overlap
     ethr =  3.15E-08,  avg # of iterations =  2.1

     total cpu time spent up to now is        1.4 secs

     total energy              =     -19.19208803 Ry
     Harris-Foulkes estimate   =     -19.19208804 Ry
     estimated scf accuracy    <       0.00000004 Ry

     iteration #  6     ecut=    19.00 Ry     beta=0.70
     Davidson diagonalization with overlap
     ethr =  4.63E-10,  avg # of iterations =  3.0

     total cpu time spent up to now is        1.6 secs

     End of self-consistent calculation

          k =-0.0833 0.0833 0.0833 (   375 PWs)   bands (ev):

    -5.7477   5.1224   5.8411   5.8411

          k =-0.2500 0.2500-0.0833 (   378 PWs)   bands (ev):

    -5.2780   3.0561   4.6235   5.6311

          k =-0.4167 0.4167-0.2500 (   384 PWs)   bands (ev):

    -4.2039   0.3312   4.1606   5.0023

          k = 0.4167-0.4167 0.5833 (   389 PWs)   bands (ev):

    -3.5209  -0.7928   4.2233   4.6277

          k = 0.2500-0.2500 0.4167 (   382 PWs)   bands (ev):

    -4.6084   1.1659   4.6891   4.7161

          k = 0.0833-0.0833 0.2500 (   372 PWs)   bands (ev):

    -5.5103   4.0566   5.2056   5.3841

          k =-0.0833 0.4167 0.0833 (   376 PWs)   bands (ev):

    -5.0402   2.8600   4.4673   4.4860

          k =-0.2500 0.5833-0.0833 (   388 PWs)   bands (ev):

    -4.1444   1.0400   3.1709   4.1034

          k = 0.5833-0.2500 0.7500 (   385 PWs)   bands (ev):

    -3.0497  -0.6781   2.5733   3.8810

          k = 0.4167-0.0833 0.5833 (   388 PWs)   bands (ev):

    -3.7572   0.3589   2.5376   4.3585

          k = 0.2500 0.0833 0.4167 (   380 PWs)   bands (ev):

    -4.8186   2.0386   3.8575   5.0144

          k =-0.0833 0.7500 0.0833 (   385 PWs)   bands (ev):

    -3.4427   0.2156   3.1380   3.4705

          k = 0.7500-0.0833 0.9167 (   386 PWs)   bands (ev):

    -2.2662  -1.1072   2.3124   3.0724

          k = 0.5833 0.0833 0.7500 (   391 PWs)   bands (ev):

    -2.6360  -0.7696   1.8355   3.6092

          k = 0.4167 0.2500 0.5833 (   386 PWs)   bands (ev):

    -3.6485  -0.3046   3.4577   4.4540

          k =-0.0833-0.9167 0.0833 (   387 PWs)   bands (ev):

    -2.3548  -1.1145   2.8725   3.2577

          k =-0.2500-0.7500-0.0833 (   389 PWs)   bands (ev):

    -3.2779  -0.0037   2.6263   3.4081

          k =-0.0833-0.5833 0.0833 (   384 PWs)   bands (ev):

    -4.3461   1.5666   3.6733   3.8875

          k =-0.2500 0.2500 0.2500 (   380 PWs)   bands (ev):

    -5.0522   2.0927   5.2343   5.2343

          k =-0.4167 0.4167 0.0833 (   388 PWs)   bands (ev):

    -4.3839   1.1606   3.1352   5.0660

          k = 0.4167-0.4167 0.9167 (   390 PWs)   bands (ev):

    -3.2255  -0.2673   2.0472   4.2923

          k = 0.2500-0.2500 0.7500 (   390 PWs)   bands (ev):

    -3.1734  -0.3457   2.5161   3.8182

          k =-0.2500 0.5833 0.2500 (   385 PWs)   bands (ev):

    -3.9669   0.3662   3.5857   4.1862

          k = 0.5833-0.2500 1.0833 (   386 PWs)   bands (ev):

    -2.9815  -0.3845   2.1467   3.4076

          k = 0.4167-0.0833 0.9167 (   390 PWs)   bands (ev):

    -2.1642  -1.1151   1.9893   2.7520

          k =-0.2500-1.0833 0.2500 (   386 PWs)   bands (ev):

    -2.3719  -1.0180   1.8649   3.6263

          k =-0.4167 0.4167 0.4167 (   386 PWs)   bands (ev):

    -3.8816  -0.3989   4.8494   4.8494

          k = 0.4167-0.4167 1.2500 (   387 PWs)   bands (ev):

    -3.2881  -0.7013   3.0391   4.4168

     highest occupied level (ev):     5.8411

!    total energy              =     -19.19208806 Ry
     Harris-Foulkes estimate   =     -19.19208806 Ry
     estimated scf accuracy    <          1.2E-09 Ry

     The total energy is the sum of the following terms:

     one-electron contribution =       4.95268751 Ry
     hartree contribution      =       1.13340551 Ry
     xc contribution           =      -8.59594574 Ry
     ewald contribution        =     -16.68223534 Ry

     convergence has been achieved in   6 iterations


     Computing stress (Cartesian axis) and pressure

          total   stress  (Ry/bohr**3)                   (kbar)     P=   -4.59
  -0.00003118   0.00000000   0.00000000         -4.59      0.00      0.00
   0.00000000  -0.00003118   0.00000000          0.00     -4.59      0.00
   0.00000000   0.00000000  -0.00003118          0.00      0.00     -4.59


     Writing output data file silicon.19.save

     init_run     :      0.25s CPU      0.27s WALL (       1 calls)
     electrons    :      0.97s CPU      1.26s WALL (       1 calls)
     stress       :      0.17s CPU      0.17s WALL (       1 calls)

     Called by init_run:
     wfcinit      :      0.05s CPU      0.06s WALL (       1 calls)
     potinit      :      0.02s CPU      0.03s WALL (       1 calls)

     Called by electrons:
     c_bands      :      0.63s CPU      0.83s WALL (       7 calls)
     sum_band     :      0.20s CPU      0.25s WALL (       7 calls)
     v_of_rho     :      0.07s CPU      0.07s WALL (       7 calls)
     newd         :      0.09s CPU      0.09s WALL (       7 calls)
     mix_rho      :      0.00s CPU      0.01s WALL (       7 calls)

     Called by c_bands:
     init_us_2    :      0.03s CPU      0.03s WALL (     448 calls)
     cegterg      :      0.56s CPU      0.75s WALL (     196 calls)

     Called by sum_band:
     sum_band:bec :      0.00s CPU      0.00s WALL (     196 calls)
     addusdens    :      0.08s CPU      0.09s WALL (       7 calls)

     Called by *egterg:
     h_psi        :      0.50s CPU      0.65s WALL (     622 calls)
     s_psi        :      0.03s CPU      0.03s WALL (     622 calls)
     g_psi        :      0.00s CPU      0.00s WALL (     398 calls)
     cdiaghg      :      0.04s CPU      0.05s WALL (     566 calls)

     Called by h_psi:
     h_psi:pot    :      0.50s CPU      0.65s WALL (     622 calls)
     h_psi:calbec :      0.05s CPU      0.10s WALL (     622 calls)
     vloc_psi     :      0.41s CPU      0.52s WALL (     622 calls)
     add_vuspsi   :      0.03s CPU      0.03s WALL (     622 calls)

     General routines
     calbec       :      0.07s CPU      0.12s WALL (     846 calls)
     fft          :      0.06s CPU      0.08s WALL (     126 calls)
     ffts         :      0.01s CPU      0.01s WALL (      14 calls)
     fftw         :      0.44s CPU      0.56s WALL (    5472 calls)
     interpolate  :      0.02s CPU      0.02s WALL (      14 calls)
     davcio       :      0.00s CPU      0.00s WALL (      28 calls)

     Parallel routines
     fft_scatter  :      0.13s CPU      0.24s WALL (    5612 calls)

     PWSCF        :     1.60s CPU         1.90s WALL


   This run was terminated on:  12: 7:59  10Nov2017            

=------------------------------------------------------------------------------=
   JOB DONE.
=------------------------------------------------------------------------------=
