
     Program PHONON v.6.1 (svn rev. 13369) starts on 10Nov2017 at 15:38:37 

     This program is part of the open-source Quantum ESPRESSO suite
     for quantum simulation of materials; please cite
         "P. Giannozzi et al., J. Phys.:Condens. Matter 21 395502 (2009);
          URL http://www.quantum-espresso.org", 
     in publications or presentations arising from this work. More details at
     http://www.quantum-espresso.org/quote

     Parallel version (MPI), running on     4 processors
     R & G space division:  proc/nbgrp/npool/nimage =       4

     Reading data from directory:
     ./silicon.10.286.save

   Info: using nr1, nr2, nr3 values from input

   Info: using nr1, nr2, nr3 values from input

     IMPORTANT: XC functional enforced from input :
     Exchange-correlation      = SLA  PW   PBE  PBE ( 1  4  3  4 0 0)
     Any further DFT definition will be discarded
     Please, verify this is what you really want


     Parallelization info
     --------------------
     sticks:   dense  smooth     PW     G-vecs:    dense   smooth      PW
     Min         217     108     37                 4240     1495     284
     Max         219     109     38                 4241     1498     285
     Sum         871     433    151                16961     5985    1139



     Dynamical matrices for ( 4, 4, 4)  uniform grid of q-points
     (   8q-points):
       N         xq(1)         xq(2)         xq(3) 
       1   0.000000000   0.000000000   0.000000000
       2  -0.250000000   0.250000000  -0.250000000
       3   0.500000000  -0.500000000   0.500000000
       4   0.000000000   0.500000000   0.000000000
       5   0.750000000  -0.250000000   0.750000000
       6   0.500000000   0.000000000   0.500000000
       7   0.000000000  -1.000000000   0.000000000
       8  -0.500000000  -1.000000000   0.000000000

     Calculation of q =    0.0000000   0.0000000   0.0000000

                                                                                

     bravais-lattice index     =            2
     lattice parameter (alat)  =      10.2860  a.u.
     unit-cell volume          =     272.0693 (a.u.)^3
     number of atoms/cell      =            2
     number of atomic types    =            1
     kinetic-energy cut-off    =      30.0000  Ry
     charge density cut-off    =     240.0000  Ry
     convergence threshold     =      1.0E-12
     beta                      =       0.7000
     number of iterations used =            4
     Exchange-correlation      = SLA  PW   PBE  PBE ( 1  4  3  4 0 0)


     celldm(1)=   10.28600  celldm(2)=    0.00000  celldm(3)=    0.00000
     celldm(4)=    0.00000  celldm(5)=    0.00000  celldm(6)=    0.00000

     crystal axes: (cart. coord. in units of alat)
               a(1) = ( -0.5000  0.0000  0.5000 )  
               a(2) = (  0.0000  0.5000  0.5000 )  
               a(3) = ( -0.5000  0.5000  0.0000 )  

     reciprocal axes: (cart. coord. in units 2 pi/alat)
               b(1) = ( -1.0000 -1.0000  1.0000 )  
               b(2) = (  1.0000  1.0000  1.0000 )  
               b(3) = ( -1.0000  1.0000 -1.0000 )  


     Atoms inside the unit cell: 

     Cartesian axes

     site n.  atom      mass           positions (alat units)
        1     Si  28.0860   tau(    1) = (    0.00000    0.00000    0.00000  )
        2     Si  28.0860   tau(    2) = (    0.25000    0.25000    0.25000  )

     Computing dynamical matrix for 
                    q = (   0.0000000   0.0000000   0.0000000 )

     49 Sym.Ops. (with q -> -q+G )


     G cutoff =  643.1978  (   4241 G-vectors)     FFT grid: ( 36, 36, 36)
     G cutoff =  321.5989  (   1497 G-vectors)  smooth grid: ( 25, 25, 25)
     number of k points=    10

     PseudoPot. # 1 for Si read from file:
     /home/s1333534/quantum_espresso/qe-6.1/pseudo/si_pbe_v1.uspp.F.UPF.txt
     MD5 check sum: a056efeee980c13900f22a371efd63c1
     Pseudo is Ultrasoft + core correction, Zval =  4.0
     Generated by new atomic code, or converted to UPF format
     Using radial grid of  899 points,  6 beta functions with: 
                l(1) =   0
                l(2) =   0
                l(3) =   1
                l(4) =   1
                l(5) =   2
                l(6) =   2
     Q(r) pseudized with  8 coefficients,  rinner =    0.900   0.900   0.900
                                                       0.900   0.900

     Mode symmetry, O_h (m-3m)  point group:


     Electric field:
     Dielectric constant
     Born effective charges in two ways 


     Atomic displacements:
     There are   2 irreducible representations

     Representation     1      3 modes -T_2g G_25' G_5+  To be done

     Representation     2      3 modes -T_1u G_15  G_4-  To be done



     Alpha used in Ewald sum =   2.5000
     PHONON       :     0.93s CPU         1.34s WALL


     Electric Fields Calculation

      iter #   1 total cpu time :     2.4 secs   av.it.:   5.7
      thresh= 1.000E-02 alpha_mix =  0.700 |ddv_scf|^2 =  1.338E-07

      iter #   2 total cpu time :     3.1 secs   av.it.:  11.7
      thresh= 3.659E-05 alpha_mix =  0.700 |ddv_scf|^2 =  7.735E-09

      iter #   3 total cpu time :     3.8 secs   av.it.:  11.5
      thresh= 8.795E-06 alpha_mix =  0.700 |ddv_scf|^2 =  5.078E-10

      iter #   4 total cpu time :     4.4 secs   av.it.:  10.2
      thresh= 2.254E-06 alpha_mix =  0.700 |ddv_scf|^2 =  3.253E-12

      iter #   5 total cpu time :     5.0 secs   av.it.:  11.1
      thresh= 1.804E-07 alpha_mix =  0.700 |ddv_scf|^2 =  3.233E-15

     End of electric fields calculation

          Dielectric constant in cartesian axis 

          (      13.876463632      -0.000000000      -0.000000000 )
          (      -0.000000000      13.876463632       0.000000000 )
          (      -0.000000000       0.000000000      13.876463632 )

          Effective charges (d Force / dE) in cartesian axis

           atom      1   Si 
      Ex  (       -0.03938        0.00000        0.00000 )
      Ey  (       -0.00000       -0.03938        0.00000 )
      Ez  (        0.00000        0.00000       -0.03938 )
           atom      2   Si 
      Ex  (       -0.03938       -0.00000        0.00000 )
      Ey  (       -0.00000       -0.03938       -0.00000 )
      Ez  (        0.00000       -0.00000       -0.03938 )


     Representation #  1 modes #   1  2  3

     Self-consistent Calculation

      iter #   1 total cpu time :     6.3 secs   av.it.:   5.1
      thresh= 1.000E-02 alpha_mix =  0.700 |ddv_scf|^2 =  2.357E-08

      iter #   2 total cpu time :     7.0 secs   av.it.:  11.6
      thresh= 1.535E-05 alpha_mix =  0.700 |ddv_scf|^2 =  9.674E-10

      iter #   3 total cpu time :     7.7 secs   av.it.:  11.1
      thresh= 3.110E-06 alpha_mix =  0.700 |ddv_scf|^2 =  6.579E-11

      iter #   4 total cpu time :     8.2 secs   av.it.:  10.1
      thresh= 8.111E-07 alpha_mix =  0.700 |ddv_scf|^2 =  1.600E-13

     End of self-consistent calculation

     Convergence has been achieved 


     Representation #  2 modes #   4  5  6

     Self-consistent Calculation

      iter #   1 total cpu time :     9.0 secs   av.it.:   5.2
      thresh= 1.000E-02 alpha_mix =  0.700 |ddv_scf|^2 =  1.861E-08

      iter #   2 total cpu time :     9.7 secs   av.it.:  11.6
      thresh= 1.364E-05 alpha_mix =  0.700 |ddv_scf|^2 =  1.098E-09

      iter #   3 total cpu time :    10.4 secs   av.it.:  11.1
      thresh= 3.314E-06 alpha_mix =  0.700 |ddv_scf|^2 =  6.791E-11

      iter #   4 total cpu time :    11.0 secs   av.it.:  11.3
      thresh= 8.240E-07 alpha_mix =  0.700 |ddv_scf|^2 =  2.615E-13

     End of self-consistent calculation

     Convergence has been achieved 

     Number of q in the star =    1
     List of q in the star:
          1   0.000000000   0.000000000   0.000000000

          Dielectric constant in cartesian axis 

          (      13.876463632      -0.000000000      -0.000000000 )
          (      -0.000000000      13.876463632       0.000000000 )
          (      -0.000000000       0.000000000      13.876463632 )

          Effective charges (d Force / dE) in cartesian axis

           atom      1   Si 
      Ex  (       -0.03938        0.00000        0.00000 )
      Ey  (       -0.00000       -0.03938        0.00000 )
      Ez  (        0.00000        0.00000       -0.03938 )
           atom      2   Si 
      Ex  (       -0.03938       -0.00000        0.00000 )
      Ey  (       -0.00000       -0.03938       -0.00000 )
      Ez  (        0.00000       -0.00000       -0.03938 )

          Effective charges (d P / du) in cartesian axis 

           atom      1   Si 
      Px  (       -0.07193        0.00000       -0.00000 )
      Py  (        0.00000       -0.07193       -0.00000 )
      Pz  (       -0.00000       -0.00000       -0.07193 )
           atom      2   Si 
      Px  (       -0.07193       -0.00000       -0.00000 )
      Py  (       -0.00000       -0.07193        0.00000 )
      Pz  (       -0.00000        0.00000       -0.07193 )

     Diagonalizing the dynamical matrix

     q = (    0.000000000   0.000000000   0.000000000 ) 

 **************************************************************************
     freq (    1) =      -0.470723 [THz] =     -15.701645 [cm-1]
     freq (    2) =      -0.470723 [THz] =     -15.701645 [cm-1]
     freq (    3) =      -0.470723 [THz] =     -15.701645 [cm-1]
     freq (    4) =      15.274120 [THz] =     509.489787 [cm-1]
     freq (    5) =      15.274120 [THz] =     509.489787 [cm-1]
     freq (    6) =      15.274120 [THz] =     509.489787 [cm-1]
 **************************************************************************

     Mode symmetry, O_h (m-3m)  point group:

     freq (  1 -  3) =        -15.7  [cm-1]   --> T_1u G_15  G_4- I  
     freq (  4 -  6) =        509.5  [cm-1]   --> T_2g G_25' G_5+ R  

     Calculation of q =   -0.2500000   0.2500000  -0.2500000

   Info: using nr1, nr2, nr3 values from input

   Info: using nr1, nr2, nr3 values from input

     Parallelization info
     --------------------
     sticks:   dense  smooth     PW     G-vecs:    dense   smooth      PW
     Min         217     108     37                 4240     1495     309
     Max         219     109     38                 4241     1498     312
     Sum         871     433    151                16961     5985    1243



     bravais-lattice index     =            2
     lattice parameter (alat)  =      10.2860  a.u.
     unit-cell volume          =     272.0693 (a.u.)^3
     number of atoms/cell      =            2
     number of atomic types    =            1
     number of electrons       =         8.00
     number of Kohn-Sham states=            4
     kinetic-energy cutoff     =      30.0000  Ry
     charge density cutoff     =     240.0000  Ry
     Exchange-correlation      = SLA  PW   PBE  PBE ( 1  4  3  4 0 0)

     celldm(1)=  10.286000  celldm(2)=   0.000000  celldm(3)=   0.000000
     celldm(4)=   0.000000  celldm(5)=   0.000000  celldm(6)=   0.000000

     crystal axes: (cart. coord. in units of alat)
               a(1) = (  -0.500000   0.000000   0.500000 )  
               a(2) = (   0.000000   0.500000   0.500000 )  
               a(3) = (  -0.500000   0.500000   0.000000 )  

     reciprocal axes: (cart. coord. in units 2 pi/alat)
               b(1) = ( -1.000000 -1.000000  1.000000 )  
               b(2) = (  1.000000  1.000000  1.000000 )  
               b(3) = ( -1.000000  1.000000 -1.000000 )  


     PseudoPot. # 1 for Si read from file:
     /home/s1333534/quantum_espresso/qe-6.1/pseudo/si_pbe_v1.uspp.F.UPF.txt
     MD5 check sum: a056efeee980c13900f22a371efd63c1
     Pseudo is Ultrasoft + core correction, Zval =  4.0
     Generated by new atomic code, or converted to UPF format
     Using radial grid of  899 points,  6 beta functions with: 
                l(1) =   0
                l(2) =   0
                l(3) =   1
                l(4) =   1
                l(5) =   2
                l(6) =   2
     Q(r) pseudized with  8 coefficients,  rinner =    0.900   0.900   0.900
                                                       0.900   0.900

     atomic species   valence    mass     pseudopotential
        Si             4.00    28.08600     Si( 1.00)

     48 Sym. Ops., with inversion, found



   Cartesian axes

     site n.     atom                  positions (alat units)
         1           Si  tau(   1) = (   0.0000000   0.0000000   0.0000000  )
         2           Si  tau(   2) = (   0.2500000   0.2500000   0.2500000  )

     number of k points=   120

     Number of k-points >= 100: set verbosity='high' to print them.

     Dense  grid:    16961 G-vectors     FFT dimensions: (  36,  36,  36)

     Smooth grid:     5985 G-vectors     FFT dimensions: (  25,  25,  25)

     Estimated max dynamical RAM per process >       1.51MB

     Estimated total allocated dynamical RAM >       6.02MB

     The potential is recalculated from file :
     ./_ph0/silicon.10.286.save/charge-density.dat

     Starting wfc are    8 atomic wfcs

     Band Structure Calculation
     Davidson diagonalization with overlap

     ethr =  1.25E-10,  avg # of iterations = 12.2

     total cpu time spent up to now is        1.4 secs

     End of band structure calculation

     Number of k-points >= 100: set verbosity='high' to print the bands.

     highest occupied level (ev):     5.8349

     Writing output data file silicon.10.286.save

                                                                                

     bravais-lattice index     =            2
     lattice parameter (alat)  =      10.2860  a.u.
     unit-cell volume          =     272.0693 (a.u.)^3
     number of atoms/cell      =            2
     number of atomic types    =            1
     kinetic-energy cut-off    =      30.0000  Ry
     charge density cut-off    =     240.0000  Ry
     convergence threshold     =      1.0E-12
     beta                      =       0.7000
     number of iterations used =            4
     Exchange-correlation      = SLA  PW   PBE  PBE ( 1  4  3  4 0 0)


     celldm(1)=   10.28600  celldm(2)=    0.00000  celldm(3)=    0.00000
     celldm(4)=    0.00000  celldm(5)=    0.00000  celldm(6)=    0.00000

     crystal axes: (cart. coord. in units of alat)
               a(1) = ( -0.5000  0.0000  0.5000 )  
               a(2) = (  0.0000  0.5000  0.5000 )  
               a(3) = ( -0.5000  0.5000  0.0000 )  

     reciprocal axes: (cart. coord. in units 2 pi/alat)
               b(1) = ( -1.0000 -1.0000  1.0000 )  
               b(2) = (  1.0000  1.0000  1.0000 )  
               b(3) = ( -1.0000  1.0000 -1.0000 )  


     Atoms inside the unit cell: 

     Cartesian axes

     site n.  atom      mass           positions (alat units)
        1     Si  28.0860   tau(    1) = (    0.00000    0.00000    0.00000  )
        2     Si  28.0860   tau(    2) = (    0.25000    0.25000    0.25000  )

     Computing dynamical matrix for 
                    q = (  -0.2500000   0.2500000  -0.2500000 )

      6 Sym.Ops. (no q -> -q+G )


     G cutoff =  643.1978  (   4241 G-vectors)     FFT grid: ( 36, 36, 36)
     G cutoff =  321.5989  (   1496 G-vectors)  smooth grid: ( 25, 25, 25)
     number of k points=   120

     PseudoPot. # 1 for Si read from file:
     /home/s1333534/quantum_espresso/qe-6.1/pseudo/si_pbe_v1.uspp.F.UPF.txt
     MD5 check sum: a056efeee980c13900f22a371efd63c1
     Pseudo is Ultrasoft + core correction, Zval =  4.0
     Generated by new atomic code, or converted to UPF format
     Using radial grid of  899 points,  6 beta functions with: 
                l(1) =   0
                l(2) =   0
                l(3) =   1
                l(4) =   1
                l(5) =   2
                l(6) =   2
     Q(r) pseudized with  8 coefficients,  rinner =    0.900   0.900   0.900
                                                       0.900   0.900

     Mode symmetry, C_3v (3m)   point group:


     Atomic displacements:
     There are   4 irreducible representations

     Representation     1      1 modes -A_1  L_1  To be done

     Representation     2      1 modes -A_1  L_1  To be done

     Representation     3      2 modes -E    L_3  To be done

     Representation     4      2 modes -E    L_3  To be done



     Alpha used in Ewald sum =   2.5000
     PHONON       :    10.63s CPU        14.36s WALL



     Representation #  1 mode #   1

     Self-consistent Calculation

      iter #   1 total cpu time :    14.8 secs   av.it.:   5.9
      thresh= 1.000E-02 alpha_mix =  0.700 |ddv_scf|^2 =  4.321E-04

      iter #   2 total cpu time :    15.4 secs   av.it.:   9.0
      thresh= 2.079E-03 alpha_mix =  0.700 |ddv_scf|^2 =  6.553E-03

      iter #   3 total cpu time :    15.9 secs   av.it.:   7.0
      thresh= 8.095E-03 alpha_mix =  0.700 |ddv_scf|^2 =  2.714E-07

      iter #   4 total cpu time :    16.5 secs   av.it.:   9.6
      thresh= 5.210E-05 alpha_mix =  0.700 |ddv_scf|^2 =  1.761E-08

      iter #   5 total cpu time :    17.1 secs   av.it.:   9.5
      thresh= 1.327E-05 alpha_mix =  0.700 |ddv_scf|^2 =  3.305E-10

      iter #   6 total cpu time :    17.7 secs   av.it.:   9.7
      thresh= 1.818E-06 alpha_mix =  0.700 |ddv_scf|^2 =  9.250E-10

      iter #   7 total cpu time :    18.3 secs   av.it.:   7.6
      thresh= 3.041E-06 alpha_mix =  0.700 |ddv_scf|^2 =  4.010E-11

      iter #   8 total cpu time :    18.8 secs   av.it.:   9.2
      thresh= 6.332E-07 alpha_mix =  0.700 |ddv_scf|^2 =  5.100E-13

     End of self-consistent calculation

     Convergence has been achieved 


     Representation #  2 mode #   2

     Self-consistent Calculation

      iter #   1 total cpu time :    19.5 secs   av.it.:   5.9
      thresh= 1.000E-02 alpha_mix =  0.700 |ddv_scf|^2 =  4.321E-04

      iter #   2 total cpu time :    20.0 secs   av.it.:   9.0
      thresh= 2.079E-03 alpha_mix =  0.700 |ddv_scf|^2 =  6.553E-03

      iter #   3 total cpu time :    20.5 secs   av.it.:   7.0
      thresh= 8.095E-03 alpha_mix =  0.700 |ddv_scf|^2 =  2.714E-07

      iter #   4 total cpu time :    21.1 secs   av.it.:   9.6
      thresh= 5.210E-05 alpha_mix =  0.700 |ddv_scf|^2 =  1.761E-08

      iter #   5 total cpu time :    21.8 secs   av.it.:   9.5
      thresh= 1.327E-05 alpha_mix =  0.700 |ddv_scf|^2 =  3.305E-10

      iter #   6 total cpu time :    22.4 secs   av.it.:   9.7
      thresh= 1.818E-06 alpha_mix =  0.700 |ddv_scf|^2 =  9.250E-10

      iter #   7 total cpu time :    22.9 secs   av.it.:   7.6
      thresh= 3.041E-06 alpha_mix =  0.700 |ddv_scf|^2 =  4.010E-11

      iter #   8 total cpu time :    23.4 secs   av.it.:   9.2
      thresh= 6.332E-07 alpha_mix =  0.700 |ddv_scf|^2 =  5.100E-13

     End of self-consistent calculation

     Convergence has been achieved 


     Representation #  3 modes #   3  4

     Self-consistent Calculation

      iter #   1 total cpu time :    24.3 secs   av.it.:   5.2
      thresh= 1.000E-02 alpha_mix =  0.700 |ddv_scf|^2 =  6.642E-08

      iter #   2 total cpu time :    25.6 secs   av.it.:  11.4
      thresh= 2.577E-05 alpha_mix =  0.700 |ddv_scf|^2 =  4.270E-09

      iter #   3 total cpu time :    26.8 secs   av.it.:  11.1
      thresh= 6.534E-06 alpha_mix =  0.700 |ddv_scf|^2 =  2.263E-10

      iter #   4 total cpu time :    28.0 secs   av.it.:  11.0
      thresh= 1.504E-06 alpha_mix =  0.700 |ddv_scf|^2 =  8.521E-13

     End of self-consistent calculation

     Convergence has been achieved 


     Representation #  4 modes #   5  6

     Self-consistent Calculation

      iter #   1 total cpu time :    28.9 secs   av.it.:   5.2
      thresh= 1.000E-02 alpha_mix =  0.700 |ddv_scf|^2 =  6.642E-08

      iter #   2 total cpu time :    30.2 secs   av.it.:  11.4
      thresh= 2.577E-05 alpha_mix =  0.700 |ddv_scf|^2 =  4.268E-09

      iter #   3 total cpu time :    31.4 secs   av.it.:  11.2
      thresh= 6.533E-06 alpha_mix =  0.700 |ddv_scf|^2 =  2.262E-10

      iter #   4 total cpu time :    32.6 secs   av.it.:  11.0
      thresh= 1.504E-06 alpha_mix =  0.700 |ddv_scf|^2 =  8.560E-13

     End of self-consistent calculation

     Convergence has been achieved 

     Number of q in the star =    8
     List of q in the star:
          1  -0.250000000   0.250000000  -0.250000000
          2   0.250000000  -0.250000000  -0.250000000
          3   0.250000000  -0.250000000   0.250000000
          4   0.250000000   0.250000000   0.250000000
          5  -0.250000000  -0.250000000  -0.250000000
          6  -0.250000000  -0.250000000   0.250000000
          7  -0.250000000   0.250000000   0.250000000
          8   0.250000000   0.250000000  -0.250000000

     Diagonalizing the dynamical matrix

     q = (   -0.250000000   0.250000000  -0.250000000 ) 

 **************************************************************************
     freq (    1) =       2.758162 [THz] =      92.002385 [cm-1]
     freq (    2) =       2.758162 [THz] =      92.002385 [cm-1]
     freq (    3) =       6.825754 [THz] =     227.682630 [cm-1]
     freq (    4) =      14.421311 [THz] =     481.043140 [cm-1]
     freq (    5) =      14.718913 [THz] =     490.970100 [cm-1]
     freq (    6) =      14.718913 [THz] =     490.970100 [cm-1]
 **************************************************************************

     Mode symmetry, C_3v (3m)   point group:

     freq (  1 -  2) =         92.0  [cm-1]   --> E    L_3           
     freq (  3 -  3) =        227.7  [cm-1]   --> A_1  L_1           
     freq (  4 -  4) =        481.0  [cm-1]   --> A_1  L_1           
     freq (  5 -  6) =        491.0  [cm-1]   --> E    L_3           

     Calculation of q =    0.5000000  -0.5000000   0.5000000

   Info: using nr1, nr2, nr3 values from input

   Info: using nr1, nr2, nr3 values from input

     Parallelization info
     --------------------
     sticks:   dense  smooth     PW     G-vecs:    dense   smooth      PW
     Min         217     108     40                 4240     1495     351
     Max         219     109     41                 4241     1498     354
     Sum         871     433    163                16961     5985    1411



     bravais-lattice index     =            2
     lattice parameter (alat)  =      10.2860  a.u.
     unit-cell volume          =     272.0693 (a.u.)^3
     number of atoms/cell      =            2
     number of atomic types    =            1
     number of electrons       =         8.00
     number of Kohn-Sham states=            4
     kinetic-energy cutoff     =      30.0000  Ry
     charge density cutoff     =     240.0000  Ry
     Exchange-correlation      = SLA  PW   PBE  PBE ( 1  4  3  4 0 0)

     celldm(1)=  10.286000  celldm(2)=   0.000000  celldm(3)=   0.000000
     celldm(4)=   0.000000  celldm(5)=   0.000000  celldm(6)=   0.000000

     crystal axes: (cart. coord. in units of alat)
               a(1) = (  -0.500000   0.000000   0.500000 )  
               a(2) = (   0.000000   0.500000   0.500000 )  
               a(3) = (  -0.500000   0.500000   0.000000 )  

     reciprocal axes: (cart. coord. in units 2 pi/alat)
               b(1) = ( -1.000000 -1.000000  1.000000 )  
               b(2) = (  1.000000  1.000000  1.000000 )  
               b(3) = ( -1.000000  1.000000 -1.000000 )  


     PseudoPot. # 1 for Si read from file:
     /home/s1333534/quantum_espresso/qe-6.1/pseudo/si_pbe_v1.uspp.F.UPF.txt
     MD5 check sum: a056efeee980c13900f22a371efd63c1
     Pseudo is Ultrasoft + core correction, Zval =  4.0
     Generated by new atomic code, or converted to UPF format
     Using radial grid of  899 points,  6 beta functions with: 
                l(1) =   0
                l(2) =   0
                l(3) =   1
                l(4) =   1
                l(5) =   2
                l(6) =   2
     Q(r) pseudized with  8 coefficients,  rinner =    0.900   0.900   0.900
                                                       0.900   0.900

     atomic species   valence    mass     pseudopotential
        Si             4.00    28.08600     Si( 1.00)

     48 Sym. Ops., with inversion, found



   Cartesian axes

     site n.     atom                  positions (alat units)
         1           Si  tau(   1) = (   0.0000000   0.0000000   0.0000000  )
         2           Si  tau(   2) = (   0.2500000   0.2500000   0.2500000  )

     number of k points=    60
                       cart. coord. in units 2pi/alat
        k(    1) = (  -0.1250000   0.1250000   0.1250000), wk =   0.0468750
        k(    2) = (   0.3750000  -0.3750000   0.6250000), wk =   0.0000000
        k(    3) = (  -0.3750000   0.3750000  -0.1250000), wk =   0.0468750
        k(    4) = (   0.1250000  -0.1250000   0.3750000), wk =   0.0000000
        k(    5) = (   0.3750000  -0.3750000   0.6250000), wk =   0.0468750
        k(    6) = (   0.8750000  -0.8750000   1.1250000), wk =   0.0000000
        k(    7) = (   0.1250000  -0.1250000   0.3750000), wk =   0.0468750
        k(    8) = (   0.6250000  -0.6250000   0.8750000), wk =   0.0000000
        k(    9) = (  -0.1250000   0.6250000   0.1250000), wk =   0.0937500
        k(   10) = (   0.3750000   0.1250000   0.6250000), wk =   0.0000000
        k(   11) = (   0.6250000  -0.1250000   0.8750000), wk =   0.0937500
        k(   12) = (   1.1250000  -0.6250000   1.3750000), wk =   0.0000000
        k(   13) = (   0.3750000   0.1250000   0.6250000), wk =   0.0937500
        k(   14) = (   0.8750000  -0.3750000   1.1250000), wk =   0.0000000
        k(   15) = (  -0.1250000  -0.8750000   0.1250000), wk =   0.0937500
        k(   16) = (   0.3750000  -1.3750000   0.6250000), wk =   0.0000000
        k(   17) = (  -0.3750000   0.3750000   0.3750000), wk =   0.0468750
        k(   18) = (   0.1250000  -0.1250000   0.8750000), wk =   0.0000000
        k(   19) = (   0.3750000  -0.3750000   1.1250000), wk =   0.0468750
        k(   20) = (   0.8750000  -0.8750000   1.6250000), wk =   0.0000000
        k(   21) = (   0.1250000  -0.1250000   0.1250000), wk =   0.0156250
        k(   22) = (   0.6250000  -0.6250000   0.6250000), wk =   0.0000000
        k(   23) = (  -0.3750000  -0.3750000  -0.1250000), wk =   0.0937500
        k(   24) = (   0.1250000  -0.8750000   0.3750000), wk =   0.0000000
        k(   25) = (  -0.1250000  -0.3750000   0.3750000), wk =   0.0468750
        k(   26) = (   0.3750000  -0.8750000   0.8750000), wk =   0.0000000
        k(   27) = (   0.3750000   0.3750000   0.6250000), wk =   0.0937500
        k(   28) = (   0.8750000  -0.1250000   1.1250000), wk =   0.0000000
        k(   29) = (   0.6250000   0.3750000  -0.3750000), wk =   0.0468750
        k(   30) = (   1.1250000  -0.1250000   0.1250000), wk =   0.0000000
        k(   31) = (   0.1250000   0.1250000   0.3750000), wk =   0.0937500
        k(   32) = (   0.6250000  -0.3750000   0.8750000), wk =   0.0000000
        k(   33) = (   0.3750000   0.1250000  -0.1250000), wk =   0.0468750
        k(   34) = (   0.8750000  -0.3750000   0.3750000), wk =   0.0000000
        k(   35) = (  -0.1250000  -0.6250000  -0.1250000), wk =   0.0468750
        k(   36) = (   0.3750000  -1.1250000   0.3750000), wk =   0.0000000
        k(   37) = (   0.1250000  -0.6250000   0.1250000), wk =   0.0468750
        k(   38) = (   0.6250000  -1.1250000   0.6250000), wk =   0.0000000
        k(   39) = (   0.6250000   0.1250000   0.8750000), wk =   0.0937500
        k(   40) = (   1.1250000  -0.3750000   1.3750000), wk =   0.0000000
        k(   41) = (  -0.8750000   0.1250000   0.6250000), wk =   0.0937500
        k(   42) = (  -0.3750000  -0.3750000   1.1250000), wk =   0.0000000
        k(   43) = (   0.8750000   0.1250000  -0.6250000), wk =   0.0937500
        k(   44) = (   1.3750000  -0.3750000  -0.1250000), wk =   0.0000000
        k(   45) = (   0.3750000  -0.1250000   0.6250000), wk =   0.0937500
        k(   46) = (   0.8750000  -0.6250000   1.1250000), wk =   0.0000000
        k(   47) = (  -0.6250000  -0.1250000   0.3750000), wk =   0.0937500
        k(   48) = (  -0.1250000  -0.6250000   0.8750000), wk =   0.0000000
        k(   49) = (   0.6250000  -0.1250000  -0.3750000), wk =   0.0937500
        k(   50) = (   1.1250000  -0.6250000   0.1250000), wk =   0.0000000
        k(   51) = (  -0.1250000   0.8750000  -0.1250000), wk =   0.0468750
        k(   52) = (   0.3750000   0.3750000   0.3750000), wk =   0.0000000
        k(   53) = (   0.1250000   0.8750000   0.1250000), wk =   0.0468750
        k(   54) = (   0.6250000   0.3750000   0.6250000), wk =   0.0000000
        k(   55) = (   0.3750000  -0.3750000   0.3750000), wk =   0.0156250
        k(   56) = (   0.8750000  -0.8750000   0.8750000), wk =   0.0000000
        k(   57) = (   0.3750000   0.3750000   1.1250000), wk =   0.0937500
        k(   58) = (   0.8750000  -0.1250000   1.6250000), wk =   0.0000000
        k(   59) = (   1.1250000   0.3750000  -0.3750000), wk =   0.0468750
        k(   60) = (   1.6250000  -0.1250000   0.1250000), wk =   0.0000000

     Dense  grid:    16961 G-vectors     FFT dimensions: (  36,  36,  36)

     Smooth grid:     5985 G-vectors     FFT dimensions: (  25,  25,  25)

     Estimated max dynamical RAM per process >       1.51MB

     Estimated total allocated dynamical RAM >       6.02MB

     The potential is recalculated from file :
     ./_ph0/silicon.10.286.save/charge-density.dat

     Starting wfc are    8 atomic wfcs

     Band Structure Calculation
     Davidson diagonalization with overlap

     ethr =  1.25E-10,  avg # of iterations = 12.2

     total cpu time spent up to now is        2.4 secs

     End of band structure calculation

          k =-0.1250 0.1250 0.1250 (   746 PWs)   bands (ev):

    -5.5870   4.5258   5.8349   5.8349

          k = 0.3750-0.3750 0.6250 (   755 PWs)   bands (ev):

    -3.3901  -0.5957   3.8535   4.5693

          k =-0.3750 0.3750-0.1250 (   757 PWs)   bands (ev):

    -4.5478   1.5111   3.8263   5.3514

          k = 0.1250-0.1250 0.3750 (   757 PWs)   bands (ev):

    -5.0530   2.9037   4.8131   4.8851

          k = 0.3750-0.3750 0.6250 (   755 PWs)   bands (ev):

    -3.3901  -0.5957   3.8535   4.5693

          k = 0.8750-0.8750 1.1250 (   746 PWs)   bands (ev):

    -5.5870   4.5258   5.8349   5.8349

          k = 0.1250-0.1250 0.3750 (   757 PWs)   bands (ev):

    -5.0530   2.9037   4.8131   4.8851

          k = 0.6250-0.6250 0.8750 (   757 PWs)   bands (ev):

    -4.5478   1.5111   3.8263   5.3514

          k =-0.1250 0.6250 0.1250 (   757 PWs)   bands (ev):

    -4.0093   1.1891   3.4704   3.9291

          k = 0.3750 0.1250 0.6250 (   756 PWs)   bands (ev):

    -3.5872   0.2982   2.8232   4.2066

          k = 0.6250-0.1250 0.8750 (   749 PWs)   bands (ev):

    -2.3463  -0.7920   2.0936   3.1853

          k = 1.1250-0.6250 1.3750 (   757 PWs)   bands (ev):

    -4.5478   1.5111   3.8263   5.3514

          k = 0.3750 0.1250 0.6250 (   756 PWs)   bands (ev):

    -3.5872   0.2982   2.8232   4.2066

          k = 0.8750-0.3750 1.1250 (   757 PWs)   bands (ev):

    -4.0093   1.1891   3.4704   3.9291

          k =-0.1250-0.8750 0.1250 (   757 PWs)   bands (ev):

    -2.5194  -0.6917   2.7128   3.4572

          k = 0.3750-1.3750 0.6250 (   755 PWs)   bands (ev):

    -3.3901  -0.5957   3.8535   4.5693

          k =-0.3750 0.3750 0.3750 (   763 PWs)   bands (ev):

    -4.1083   0.2007   5.0406   5.0406

          k = 0.1250-0.1250 0.8750 (   757 PWs)   bands (ev):

    -2.5194  -0.6917   2.7128   3.4572

          k = 0.3750-0.3750 1.1250 (   757 PWs)   bands (ev):

    -2.8889  -0.4967   2.1578   4.2477

          k = 0.8750-0.8750 1.6250 (   757 PWs)   bands (ev):

    -4.0093   1.1891   3.4704   3.9291

          k = 0.1250-0.1250 0.1250 (   746 PWs)   bands (ev):

    -5.5870   4.5258   5.8349   5.8349

          k = 0.6250-0.6250 0.6250 (   763 PWs)   bands (ev):

    -4.1083   0.2007   5.0406   5.0406

          k =-0.3750-0.3750-0.1250 (   757 PWs)   bands (ev):

    -4.5478   1.5111   3.8263   5.3514

          k = 0.1250-0.8750 0.3750 (   749 PWs)   bands (ev):

    -2.3463  -0.7920   2.0936   3.1853

          k =-0.1250-0.3750 0.3750 (   757 PWs)   bands (ev):

    -4.5478   1.5111   3.8263   5.3514

          k = 0.3750-0.8750 0.8750 (   757 PWs)   bands (ev):

    -4.0093   1.1891   3.4704   3.9291

          k = 0.3750 0.3750 0.6250 (   755 PWs)   bands (ev):

    -3.3901  -0.5957   3.8535   4.5693

          k = 0.8750-0.1250 1.1250 (   757 PWs)   bands (ev):

    -2.5194  -0.6917   2.7128   3.4572

          k = 0.6250 0.3750-0.3750 (   755 PWs)   bands (ev):

    -3.3901  -0.5957   3.8535   4.5693

          k = 1.1250-0.1250 0.1250 (   757 PWs)   bands (ev):

    -2.5194  -0.6917   2.7128   3.4572

          k = 0.1250 0.1250 0.3750 (   757 PWs)   bands (ev):

    -5.0530   2.9037   4.8131   4.8851

          k = 0.6250-0.3750 0.8750 (   756 PWs)   bands (ev):

    -3.5872   0.2982   2.8232   4.2066

          k = 0.3750 0.1250-0.1250 (   757 PWs)   bands (ev):

    -5.0530   2.9037   4.8131   4.8851

          k = 0.8750-0.3750 0.3750 (   757 PWs)   bands (ev):

    -2.8889  -0.4967   2.1578   4.2477

          k =-0.1250-0.6250-0.1250 (   757 PWs)   bands (ev):

    -4.0093   1.1891   3.4704   3.9291

          k = 0.3750-1.1250 0.3750 (   757 PWs)   bands (ev):

    -2.8889  -0.4967   2.1578   4.2477

          k = 0.1250-0.6250 0.1250 (   757 PWs)   bands (ev):

    -4.0093   1.1891   3.4704   3.9291

          k = 0.6250-1.1250 0.6250 (   757 PWs)   bands (ev):

    -4.5478   1.5111   3.8263   5.3514

          k = 0.6250 0.1250 0.8750 (   749 PWs)   bands (ev):

    -2.3463  -0.7920   2.0936   3.1853

          k = 1.1250-0.3750 1.3750 (   756 PWs)   bands (ev):

    -3.5872   0.2982   2.8232   4.2066

          k =-0.8750 0.1250 0.6250 (   749 PWs)   bands (ev):

    -2.3463  -0.7920   2.0936   3.1853

          k =-0.3750-0.3750 1.1250 (   757 PWs)   bands (ev):

    -2.8889  -0.4967   2.1578   4.2477

          k = 0.8750 0.1250-0.6250 (   749 PWs)   bands (ev):

    -2.3463  -0.7920   2.0936   3.1853

          k = 1.3750-0.3750-0.1250 (   756 PWs)   bands (ev):

    -3.5872   0.2982   2.8232   4.2066

          k = 0.3750-0.1250 0.6250 (   756 PWs)   bands (ev):

    -3.5872   0.2982   2.8232   4.2066

          k = 0.8750-0.6250 1.1250 (   757 PWs)   bands (ev):

    -5.0530   2.9037   4.8131   4.8851

          k =-0.6250-0.1250 0.3750 (   756 PWs)   bands (ev):

    -3.5872   0.2982   2.8232   4.2066

          k =-0.1250-0.6250 0.8750 (   749 PWs)   bands (ev):

    -2.3463  -0.7920   2.0936   3.1853

          k = 0.6250-0.1250-0.3750 (   756 PWs)   bands (ev):

    -3.5872   0.2982   2.8232   4.2066

          k = 1.1250-0.6250 0.1250 (   749 PWs)   bands (ev):

    -2.3463  -0.7920   2.0936   3.1853

          k =-0.1250 0.8750-0.1250 (   757 PWs)   bands (ev):

    -2.5194  -0.6917   2.7128   3.4572

          k = 0.3750 0.3750 0.3750 (   763 PWs)   bands (ev):

    -4.1083   0.2007   5.0406   5.0406

          k = 0.1250 0.8750 0.1250 (   757 PWs)   bands (ev):

    -2.5194  -0.6917   2.7128   3.4572

          k = 0.6250 0.3750 0.6250 (   755 PWs)   bands (ev):

    -3.3901  -0.5957   3.8535   4.5693

          k = 0.3750-0.3750 0.3750 (   763 PWs)   bands (ev):

    -4.1083   0.2007   5.0406   5.0406

          k = 0.8750-0.8750 0.8750 (   746 PWs)   bands (ev):

    -5.5870   4.5258   5.8349   5.8349

          k = 0.3750 0.3750 1.1250 (   757 PWs)   bands (ev):

    -2.8889  -0.4967   2.1578   4.2477

          k = 0.8750-0.1250 1.6250 (   749 PWs)   bands (ev):

    -2.3463  -0.7920   2.0936   3.1853

          k = 1.1250 0.3750-0.3750 (   757 PWs)   bands (ev):

    -2.8889  -0.4967   2.1578   4.2477

          k = 1.6250-0.1250 0.1250 (   757 PWs)   bands (ev):

    -5.0530   2.9037   4.8131   4.8851

     highest occupied level (ev):     5.8349

     Writing output data file silicon.10.286.save

                                                                                

     bravais-lattice index     =            2
     lattice parameter (alat)  =      10.2860  a.u.
     unit-cell volume          =     272.0693 (a.u.)^3
     number of atoms/cell      =            2
     number of atomic types    =            1
     kinetic-energy cut-off    =      30.0000  Ry
     charge density cut-off    =     240.0000  Ry
     convergence threshold     =      1.0E-12
     beta                      =       0.7000
     number of iterations used =            4
     Exchange-correlation      = SLA  PW   PBE  PBE ( 1  4  3  4 0 0)


     celldm(1)=   10.28600  celldm(2)=    0.00000  celldm(3)=    0.00000
     celldm(4)=    0.00000  celldm(5)=    0.00000  celldm(6)=    0.00000

     crystal axes: (cart. coord. in units of alat)
               a(1) = ( -0.5000  0.0000  0.5000 )  
               a(2) = (  0.0000  0.5000  0.5000 )  
               a(3) = ( -0.5000  0.5000  0.0000 )  

     reciprocal axes: (cart. coord. in units 2 pi/alat)
               b(1) = ( -1.0000 -1.0000  1.0000 )  
               b(2) = (  1.0000  1.0000  1.0000 )  
               b(3) = ( -1.0000  1.0000 -1.0000 )  


     Atoms inside the unit cell: 

     Cartesian axes

     site n.  atom      mass           positions (alat units)
        1     Si  28.0860   tau(    1) = (    0.00000    0.00000    0.00000  )
        2     Si  28.0860   tau(    2) = (    0.25000    0.25000    0.25000  )

     Computing dynamical matrix for 
                    q = (   0.5000000  -0.5000000   0.5000000 )

     13 Sym.Ops. (with q -> -q+G )


     G cutoff =  643.1978  (   4241 G-vectors)     FFT grid: ( 36, 36, 36)
     G cutoff =  321.5989  (   1497 G-vectors)  smooth grid: ( 25, 25, 25)
     number of k points=    60

     PseudoPot. # 1 for Si read from file:
     /home/s1333534/quantum_espresso/qe-6.1/pseudo/si_pbe_v1.uspp.F.UPF.txt
     MD5 check sum: a056efeee980c13900f22a371efd63c1
     Pseudo is Ultrasoft + core correction, Zval =  4.0
     Generated by new atomic code, or converted to UPF format
     Using radial grid of  899 points,  6 beta functions with: 
                l(1) =   0
                l(2) =   0
                l(3) =   1
                l(4) =   1
                l(5) =   2
                l(6) =   2
     Q(r) pseudized with  8 coefficients,  rinner =    0.900   0.900   0.900
                                                       0.900   0.900


     Atomic displacements:
     There are   4 irreducible representations

     Representation     1      1 modes -  To be done

     Representation     2      1 modes -  To be done

     Representation     3      2 modes -  To be done

     Representation     4      2 modes -  To be done



     Alpha used in Ewald sum =   2.5000
     PHONON       :    27.47s CPU        34.90s WALL



     Representation #  1 mode #   1

     Self-consistent Calculation

      iter #   1 total cpu time :    35.2 secs   av.it.:   5.1
      thresh= 1.000E-02 alpha_mix =  0.700 |ddv_scf|^2 =  4.238E-06

      iter #   2 total cpu time :    35.6 secs   av.it.:   9.9
      thresh= 2.059E-04 alpha_mix =  0.700 |ddv_scf|^2 =  3.845E-06

      iter #   3 total cpu time :    36.0 secs   av.it.:   9.2
      thresh= 1.961E-04 alpha_mix =  0.700 |ddv_scf|^2 =  2.347E-09

      iter #   4 total cpu time :    36.4 secs   av.it.:   9.4
      thresh= 4.845E-06 alpha_mix =  0.700 |ddv_scf|^2 =  2.274E-11

      iter #   5 total cpu time :    36.8 secs   av.it.:   9.3
      thresh= 4.769E-07 alpha_mix =  0.700 |ddv_scf|^2 =  3.048E-13

     End of self-consistent calculation

     Convergence has been achieved 


     Representation #  2 mode #   2

     Self-consistent Calculation

      iter #   1 total cpu time :    37.3 secs   av.it.:   6.0
      thresh= 1.000E-02 alpha_mix =  0.700 |ddv_scf|^2 =  6.030E-05

      iter #   2 total cpu time :    37.7 secs   av.it.:   9.8
      thresh= 7.765E-04 alpha_mix =  0.700 |ddv_scf|^2 =  1.870E-04

      iter #   3 total cpu time :    38.1 secs   av.it.:   8.6
      thresh= 1.368E-03 alpha_mix =  0.700 |ddv_scf|^2 =  1.270E-08

      iter #   4 total cpu time :    38.5 secs   av.it.:   9.8
      thresh= 1.127E-05 alpha_mix =  0.700 |ddv_scf|^2 =  6.426E-10

      iter #   5 total cpu time :    38.9 secs   av.it.:  10.2
      thresh= 2.535E-06 alpha_mix =  0.700 |ddv_scf|^2 =  1.981E-11

      iter #   6 total cpu time :    39.2 secs   av.it.:   9.7
      thresh= 4.450E-07 alpha_mix =  0.700 |ddv_scf|^2 =  1.508E-13

     End of self-consistent calculation

     Convergence has been achieved 


     Representation #  3 modes #   3  4

     Self-consistent Calculation

      iter #   1 total cpu time :    39.9 secs   av.it.:   5.1
      thresh= 1.000E-02 alpha_mix =  0.700 |ddv_scf|^2 =  2.708E-08

      iter #   2 total cpu time :    40.7 secs   av.it.:  10.9
      thresh= 1.646E-05 alpha_mix =  0.700 |ddv_scf|^2 =  1.601E-09

      iter #   3 total cpu time :    41.5 secs   av.it.:  10.7
      thresh= 4.002E-06 alpha_mix =  0.700 |ddv_scf|^2 =  5.286E-11

      iter #   4 total cpu time :    42.2 secs   av.it.:  10.7
      thresh= 7.271E-07 alpha_mix =  0.700 |ddv_scf|^2 =  4.345E-13

     End of self-consistent calculation

     Convergence has been achieved 


     Representation #  4 modes #   5  6

     Self-consistent Calculation

      iter #   1 total cpu time :    42.9 secs   av.it.:   5.1
      thresh= 1.000E-02 alpha_mix =  0.700 |ddv_scf|^2 =  1.384E-07

      iter #   2 total cpu time :    43.7 secs   av.it.:  11.1
      thresh= 3.720E-05 alpha_mix =  0.700 |ddv_scf|^2 =  1.109E-08

      iter #   3 total cpu time :    44.4 secs   av.it.:  10.9
      thresh= 1.053E-05 alpha_mix =  0.700 |ddv_scf|^2 =  2.922E-10

      iter #   4 total cpu time :    45.1 secs   av.it.:   9.9
      thresh= 1.710E-06 alpha_mix =  0.700 |ddv_scf|^2 =  5.194E-13

     End of self-consistent calculation

     Convergence has been achieved 

     Number of q in the star =    4
     List of q in the star:
          1   0.500000000  -0.500000000   0.500000000
          2   0.500000000   0.500000000   0.500000000
          3  -0.500000000   0.500000000   0.500000000
          4   0.500000000   0.500000000  -0.500000000

     Diagonalizing the dynamical matrix

     q = (    0.500000000  -0.500000000   0.500000000 ) 

 **************************************************************************
     freq (    1) =       3.228244 [THz] =     107.682645 [cm-1]
     freq (    2) =       3.228244 [THz] =     107.682645 [cm-1]
     freq (    3) =      11.152207 [THz] =     371.997589 [cm-1]
     freq (    4) =      12.236421 [THz] =     408.163081 [cm-1]
     freq (    5) =      14.525660 [THz] =     484.523866 [cm-1]
     freq (    6) =      14.525660 [THz] =     484.523866 [cm-1]
 **************************************************************************

     Calculation of q =    0.0000000   0.5000000   0.0000000

   Info: using nr1, nr2, nr3 values from input

   Info: using nr1, nr2, nr3 values from input

     Parallelization info
     --------------------
     sticks:   dense  smooth     PW     G-vecs:    dense   smooth      PW
     Min         217     108     37                 4240     1495     309
     Max         219     109     38                 4241     1498     312
     Sum         871     433    151                16961     5985    1243



     bravais-lattice index     =            2
     lattice parameter (alat)  =      10.2860  a.u.
     unit-cell volume          =     272.0693 (a.u.)^3
     number of atoms/cell      =            2
     number of atomic types    =            1
     number of electrons       =         8.00
     number of Kohn-Sham states=            4
     kinetic-energy cutoff     =      30.0000  Ry
     charge density cutoff     =     240.0000  Ry
     Exchange-correlation      = SLA  PW   PBE  PBE ( 1  4  3  4 0 0)

     celldm(1)=  10.286000  celldm(2)=   0.000000  celldm(3)=   0.000000
     celldm(4)=   0.000000  celldm(5)=   0.000000  celldm(6)=   0.000000

     crystal axes: (cart. coord. in units of alat)
               a(1) = (  -0.500000   0.000000   0.500000 )  
               a(2) = (   0.000000   0.500000   0.500000 )  
               a(3) = (  -0.500000   0.500000   0.000000 )  

     reciprocal axes: (cart. coord. in units 2 pi/alat)
               b(1) = ( -1.000000 -1.000000  1.000000 )  
               b(2) = (  1.000000  1.000000  1.000000 )  
               b(3) = ( -1.000000  1.000000 -1.000000 )  


     PseudoPot. # 1 for Si read from file:
     /home/s1333534/quantum_espresso/qe-6.1/pseudo/si_pbe_v1.uspp.F.UPF.txt
     MD5 check sum: a056efeee980c13900f22a371efd63c1
     Pseudo is Ultrasoft + core correction, Zval =  4.0
     Generated by new atomic code, or converted to UPF format
     Using radial grid of  899 points,  6 beta functions with: 
                l(1) =   0
                l(2) =   0
                l(3) =   1
                l(4) =   1
                l(5) =   2
                l(6) =   2
     Q(r) pseudized with  8 coefficients,  rinner =    0.900   0.900   0.900
                                                       0.900   0.900

     atomic species   valence    mass     pseudopotential
        Si             4.00    28.08600     Si( 1.00)

     48 Sym. Ops., with inversion, found



   Cartesian axes

     site n.     atom                  positions (alat units)
         1           Si  tau(   1) = (   0.0000000   0.0000000   0.0000000  )
         2           Si  tau(   2) = (   0.2500000   0.2500000   0.2500000  )

     number of k points=    80
                       cart. coord. in units 2pi/alat
        k(    1) = (  -0.1250000   0.1250000   0.1250000), wk =   0.0312500
        k(    2) = (  -0.1250000   0.6250000   0.1250000), wk =   0.0000000
        k(    3) = (  -0.3750000   0.3750000  -0.1250000), wk =   0.0625000
        k(    4) = (  -0.3750000   0.8750000  -0.1250000), wk =   0.0000000
        k(    5) = (   0.3750000  -0.3750000   0.6250000), wk =   0.0625000
        k(    6) = (   0.3750000   0.1250000   0.6250000), wk =   0.0000000
        k(    7) = (   0.1250000  -0.1250000   0.3750000), wk =   0.0625000
        k(    8) = (   0.1250000   0.3750000   0.3750000), wk =   0.0000000
        k(    9) = (  -0.1250000   0.6250000   0.1250000), wk =   0.0312500
        k(   10) = (  -0.1250000   1.1250000   0.1250000), wk =   0.0000000
        k(   11) = (   0.6250000  -0.1250000   0.8750000), wk =   0.0625000
        k(   12) = (   0.6250000   0.3750000   0.8750000), wk =   0.0000000
        k(   13) = (   0.3750000   0.1250000   0.6250000), wk =   0.0625000
        k(   14) = (   0.3750000   0.6250000   0.6250000), wk =   0.0000000
        k(   15) = (  -0.1250000  -0.8750000   0.1250000), wk =   0.0312500
        k(   16) = (  -0.1250000  -0.3750000   0.1250000), wk =   0.0000000
        k(   17) = (  -0.3750000   0.3750000   0.3750000), wk =   0.0312500
        k(   18) = (  -0.3750000   0.8750000   0.3750000), wk =   0.0000000
        k(   19) = (   0.3750000  -0.3750000   1.1250000), wk =   0.0625000
        k(   20) = (   0.3750000   0.1250000   1.1250000), wk =   0.0000000
        k(   21) = (  -0.1250000  -0.1250000   0.1250000), wk =   0.0312500
        k(   22) = (  -0.1250000   0.3750000   0.1250000), wk =   0.0000000
        k(   23) = (   0.1250000  -0.3750000   0.3750000), wk =   0.0625000
        k(   24) = (   0.1250000   0.1250000   0.3750000), wk =   0.0000000
        k(   25) = (   0.3750000  -0.1250000   0.3750000), wk =   0.0312500
        k(   26) = (   0.3750000   0.3750000   0.3750000), wk =   0.0000000
        k(   27) = (   0.3750000   0.1250000   0.3750000), wk =   0.0312500
        k(   28) = (   0.3750000   0.6250000   0.3750000), wk =   0.0000000
        k(   29) = (  -0.6250000   0.3750000  -0.3750000), wk =   0.0625000
        k(   30) = (  -0.6250000   0.8750000  -0.3750000), wk =   0.0000000
        k(   31) = (  -0.3750000   0.6250000  -0.3750000), wk =   0.0312500
        k(   32) = (  -0.3750000   1.1250000  -0.3750000), wk =   0.0000000
        k(   33) = (  -0.3750000  -0.6250000  -0.3750000), wk =   0.0312500
        k(   34) = (  -0.3750000  -0.1250000  -0.3750000), wk =   0.0000000
        k(   35) = (  -0.3750000   0.1250000  -0.1250000), wk =   0.0625000
        k(   36) = (  -0.3750000   0.6250000  -0.1250000), wk =   0.0000000
        k(   37) = (  -0.1250000   0.3750000  -0.1250000), wk =   0.0312500
        k(   38) = (  -0.1250000   0.8750000  -0.1250000), wk =   0.0000000
        k(   39) = (  -0.1250000  -0.3750000  -0.1250000), wk =   0.0312500
        k(   40) = (  -0.1250000   0.1250000  -0.1250000), wk =   0.0000000
        k(   41) = (  -0.1250000  -0.6250000   0.1250000), wk =   0.0312500
        k(   42) = (  -0.1250000  -0.1250000   0.1250000), wk =   0.0000000
        k(   43) = (   0.6250000  -0.1250000  -0.1250000), wk =   0.0625000
        k(   44) = (   0.6250000   0.3750000  -0.1250000), wk =   0.0000000
        k(   45) = (   0.6250000   0.1250000   0.1250000), wk =   0.0625000
        k(   46) = (   0.6250000   0.6250000   0.1250000), wk =   0.0000000
        k(   47) = (  -0.8750000   0.1250000  -0.6250000), wk =   0.0625000
        k(   48) = (  -0.8750000   0.6250000  -0.6250000), wk =   0.0000000
        k(   49) = (  -0.1250000   0.6250000  -0.8750000), wk =   0.0625000
        k(   50) = (  -0.1250000   1.1250000  -0.8750000), wk =   0.0000000
        k(   51) = (  -0.1250000   0.8750000  -0.6250000), wk =   0.0625000
        k(   52) = (  -0.1250000   1.3750000  -0.6250000), wk =   0.0000000
        k(   53) = (  -0.1250000  -0.8750000  -0.6250000), wk =   0.0625000
        k(   54) = (  -0.1250000  -0.3750000  -0.6250000), wk =   0.0000000
        k(   55) = (   0.8750000  -0.6250000   0.1250000), wk =   0.0625000
        k(   56) = (   0.8750000  -0.1250000   0.1250000), wk =   0.0000000
        k(   57) = (  -0.6250000  -0.1250000  -0.3750000), wk =   0.0625000
        k(   58) = (  -0.6250000   0.3750000  -0.3750000), wk =   0.0000000
        k(   59) = (   0.1250000   0.3750000  -0.6250000), wk =   0.0625000
        k(   60) = (   0.1250000   0.8750000  -0.6250000), wk =   0.0000000
        k(   61) = (   0.1250000   0.6250000  -0.3750000), wk =   0.0625000
        k(   62) = (   0.1250000   1.1250000  -0.3750000), wk =   0.0000000
        k(   63) = (   0.1250000  -0.6250000  -0.3750000), wk =   0.0625000
        k(   64) = (   0.1250000  -0.1250000  -0.3750000), wk =   0.0000000
        k(   65) = (   0.6250000  -0.3750000  -0.1250000), wk =   0.0625000
        k(   66) = (   0.6250000   0.1250000  -0.1250000), wk =   0.0000000
        k(   67) = (  -0.1250000   0.8750000   0.1250000), wk =   0.0312500
        k(   68) = (  -0.1250000   1.3750000   0.1250000), wk =   0.0000000
        k(   69) = (  -0.8750000  -0.1250000  -0.1250000), wk =   0.0625000
        k(   70) = (  -0.8750000   0.3750000  -0.1250000), wk =   0.0000000
        k(   71) = (  -0.8750000   0.1250000   0.1250000), wk =   0.0625000
        k(   72) = (  -0.8750000   0.6250000   0.1250000), wk =   0.0000000
        k(   73) = (  -0.3750000  -0.3750000   0.3750000), wk =   0.0312500
        k(   74) = (  -0.3750000   0.1250000   0.3750000), wk =   0.0000000
        k(   75) = (  -1.1250000   0.3750000  -0.3750000), wk =   0.0625000
        k(   76) = (  -1.1250000   0.8750000  -0.3750000), wk =   0.0000000
        k(   77) = (  -0.3750000   1.1250000  -0.3750000), wk =   0.0312500
        k(   78) = (  -0.3750000   1.6250000  -0.3750000), wk =   0.0000000
        k(   79) = (  -0.3750000  -1.1250000  -0.3750000), wk =   0.0312500
        k(   80) = (  -0.3750000  -0.6250000  -0.3750000), wk =   0.0000000

     Dense  grid:    16961 G-vectors     FFT dimensions: (  36,  36,  36)

     Smooth grid:     5985 G-vectors     FFT dimensions: (  25,  25,  25)

     Estimated max dynamical RAM per process >       1.51MB

     Estimated total allocated dynamical RAM >       6.02MB

     The potential is recalculated from file :
     ./_ph0/silicon.10.286.save/charge-density.dat

     Starting wfc are    8 atomic wfcs

     Band Structure Calculation
     Davidson diagonalization with overlap

     ethr =  1.25E-10,  avg # of iterations = 12.2

     total cpu time spent up to now is        3.5 secs

     End of band structure calculation

          k =-0.1250 0.1250 0.1250 (   746 PWs)   bands (ev):

    -5.5870   4.5258   5.8349   5.8349

          k =-0.1250 0.6250 0.1250 (   757 PWs)   bands (ev):

    -4.0093   1.1891   3.4704   3.9291

          k =-0.3750 0.3750-0.1250 (   757 PWs)   bands (ev):

    -4.5478   1.5111   3.8263   5.3514

          k =-0.3750 0.8750-0.1250 (   749 PWs)   bands (ev):

    -2.3463  -0.7920   2.0936   3.1853

          k = 0.3750-0.3750 0.6250 (   755 PWs)   bands (ev):

    -3.3901  -0.5957   3.8535   4.5693

          k = 0.3750 0.1250 0.6250 (   756 PWs)   bands (ev):

    -3.5872   0.2982   2.8232   4.2066

          k = 0.1250-0.1250 0.3750 (   757 PWs)   bands (ev):

    -5.0530   2.9037   4.8131   4.8851

          k = 0.1250 0.3750 0.3750 (   757 PWs)   bands (ev):

    -4.5478   1.5111   3.8263   5.3514

          k =-0.1250 0.6250 0.1250 (   757 PWs)   bands (ev):

    -4.0093   1.1891   3.4704   3.9291

          k =-0.1250 1.1250 0.1250 (   757 PWs)   bands (ev):

    -2.5194  -0.6917   2.7128   3.4572

          k = 0.6250-0.1250 0.8750 (   749 PWs)   bands (ev):

    -2.3463  -0.7920   2.0936   3.1853

          k = 0.6250 0.3750 0.8750 (   756 PWs)   bands (ev):

    -3.5872   0.2982   2.8232   4.2066

          k = 0.3750 0.1250 0.6250 (   756 PWs)   bands (ev):

    -3.5872   0.2982   2.8232   4.2066

          k = 0.3750 0.6250 0.6250 (   755 PWs)   bands (ev):

    -3.3901  -0.5957   3.8535   4.5693

          k =-0.1250-0.8750 0.1250 (   757 PWs)   bands (ev):

    -2.5194  -0.6917   2.7128   3.4572

          k =-0.1250-0.3750 0.1250 (   757 PWs)   bands (ev):

    -5.0530   2.9037   4.8131   4.8851

          k =-0.3750 0.3750 0.3750 (   763 PWs)   bands (ev):

    -4.1083   0.2007   5.0406   5.0406

          k =-0.3750 0.8750 0.3750 (   757 PWs)   bands (ev):

    -2.8889  -0.4967   2.1578   4.2477

          k = 0.3750-0.3750 1.1250 (   757 PWs)   bands (ev):

    -2.8889  -0.4967   2.1578   4.2477

          k = 0.3750 0.1250 1.1250 (   749 PWs)   bands (ev):

    -2.3463  -0.7920   2.0936   3.1853

          k =-0.1250-0.1250 0.1250 (   746 PWs)   bands (ev):

    -5.5870   4.5258   5.8349   5.8349

          k =-0.1250 0.3750 0.1250 (   757 PWs)   bands (ev):

    -5.0530   2.9037   4.8131   4.8851

          k = 0.1250-0.3750 0.3750 (   757 PWs)   bands (ev):

    -4.5478   1.5111   3.8263   5.3514

          k = 0.1250 0.1250 0.3750 (   757 PWs)   bands (ev):

    -5.0530   2.9037   4.8131   4.8851

          k = 0.3750-0.1250 0.3750 (   757 PWs)   bands (ev):

    -4.5478   1.5111   3.8263   5.3514

          k = 0.3750 0.3750 0.3750 (   763 PWs)   bands (ev):

    -4.1083   0.2007   5.0406   5.0406

          k = 0.3750 0.1250 0.3750 (   757 PWs)   bands (ev):

    -4.5478   1.5111   3.8263   5.3514

          k = 0.3750 0.6250 0.3750 (   755 PWs)   bands (ev):

    -3.3901  -0.5957   3.8535   4.5693

          k =-0.6250 0.3750-0.3750 (   755 PWs)   bands (ev):

    -3.3901  -0.5957   3.8535   4.5693

          k =-0.6250 0.8750-0.3750 (   756 PWs)   bands (ev):

    -3.5872   0.2982   2.8232   4.2066

          k =-0.3750 0.6250-0.3750 (   755 PWs)   bands (ev):

    -3.3901  -0.5957   3.8535   4.5693

          k =-0.3750 1.1250-0.3750 (   757 PWs)   bands (ev):

    -2.8889  -0.4967   2.1578   4.2477

          k =-0.3750-0.6250-0.3750 (   755 PWs)   bands (ev):

    -3.3901  -0.5957   3.8535   4.5693

          k =-0.3750-0.1250-0.3750 (   757 PWs)   bands (ev):

    -4.5478   1.5111   3.8263   5.3514

          k =-0.3750 0.1250-0.1250 (   757 PWs)   bands (ev):

    -5.0530   2.9037   4.8131   4.8851

          k =-0.3750 0.6250-0.1250 (   756 PWs)   bands (ev):

    -3.5872   0.2982   2.8232   4.2066

          k =-0.1250 0.3750-0.1250 (   757 PWs)   bands (ev):

    -5.0530   2.9037   4.8131   4.8851

          k =-0.1250 0.8750-0.1250 (   757 PWs)   bands (ev):

    -2.5194  -0.6917   2.7128   3.4572

          k =-0.1250-0.3750-0.1250 (   757 PWs)   bands (ev):

    -5.0530   2.9037   4.8131   4.8851

          k =-0.1250 0.1250-0.1250 (   746 PWs)   bands (ev):

    -5.5870   4.5258   5.8349   5.8349

          k =-0.1250-0.6250 0.1250 (   757 PWs)   bands (ev):

    -4.0093   1.1891   3.4704   3.9291

          k =-0.1250-0.1250 0.1250 (   746 PWs)   bands (ev):

    -5.5870   4.5258   5.8349   5.8349

          k = 0.6250-0.1250-0.1250 (   757 PWs)   bands (ev):

    -4.0093   1.1891   3.4704   3.9291

          k = 0.6250 0.3750-0.1250 (   756 PWs)   bands (ev):

    -3.5872   0.2982   2.8232   4.2066

          k = 0.6250 0.1250 0.1250 (   757 PWs)   bands (ev):

    -4.0093   1.1891   3.4704   3.9291

          k = 0.6250 0.6250 0.1250 (   757 PWs)   bands (ev):

    -2.8889  -0.4967   2.1578   4.2477

          k =-0.8750 0.1250-0.6250 (   749 PWs)   bands (ev):

    -2.3463  -0.7920   2.0936   3.1853

          k =-0.8750 0.6250-0.6250 (   757 PWs)   bands (ev):

    -4.5478   1.5111   3.8263   5.3514

          k =-0.1250 0.6250-0.8750 (   749 PWs)   bands (ev):

    -2.3463  -0.7920   2.0936   3.1853

          k =-0.1250 1.1250-0.8750 (   757 PWs)   bands (ev):

    -2.5194  -0.6917   2.7128   3.4572

          k =-0.1250 0.8750-0.6250 (   749 PWs)   bands (ev):

    -2.3463  -0.7920   2.0936   3.1853

          k =-0.1250 1.3750-0.6250 (   757 PWs)   bands (ev):

    -2.8889  -0.4967   2.1578   4.2477

          k =-0.1250-0.8750-0.6250 (   749 PWs)   bands (ev):

    -2.3463  -0.7920   2.0936   3.1853

          k =-0.1250-0.3750-0.6250 (   756 PWs)   bands (ev):

    -3.5872   0.2982   2.8232   4.2066

          k = 0.8750-0.6250 0.1250 (   749 PWs)   bands (ev):

    -2.3463  -0.7920   2.0936   3.1853

          k = 0.8750-0.1250 0.1250 (   757 PWs)   bands (ev):

    -2.5194  -0.6917   2.7128   3.4572

          k =-0.6250-0.1250-0.3750 (   756 PWs)   bands (ev):

    -3.5872   0.2982   2.8232   4.2066

          k =-0.6250 0.3750-0.3750 (   755 PWs)   bands (ev):

    -3.3901  -0.5957   3.8535   4.5693

          k = 0.1250 0.3750-0.6250 (   756 PWs)   bands (ev):

    -3.5872   0.2982   2.8232   4.2066

          k = 0.1250 0.8750-0.6250 (   749 PWs)   bands (ev):

    -2.3463  -0.7920   2.0936   3.1853

          k = 0.1250 0.6250-0.3750 (   756 PWs)   bands (ev):

    -3.5872   0.2982   2.8232   4.2066

          k = 0.1250 1.1250-0.3750 (   749 PWs)   bands (ev):

    -2.3463  -0.7920   2.0936   3.1853

          k = 0.1250-0.6250-0.3750 (   756 PWs)   bands (ev):

    -3.5872   0.2982   2.8232   4.2066

          k = 0.1250-0.1250-0.3750 (   757 PWs)   bands (ev):

    -5.0530   2.9037   4.8131   4.8851

          k = 0.6250-0.3750-0.1250 (   756 PWs)   bands (ev):

    -3.5872   0.2982   2.8232   4.2066

          k = 0.6250 0.1250-0.1250 (   757 PWs)   bands (ev):

    -4.0093   1.1891   3.4704   3.9291

          k =-0.1250 0.8750 0.1250 (   757 PWs)   bands (ev):

    -2.5194  -0.6917   2.7128   3.4572

          k =-0.1250 1.3750 0.1250 (   757 PWs)   bands (ev):

    -4.0093   1.1891   3.4704   3.9291

          k =-0.8750-0.1250-0.1250 (   757 PWs)   bands (ev):

    -2.5194  -0.6917   2.7128   3.4572

          k =-0.8750 0.3750-0.1250 (   749 PWs)   bands (ev):

    -2.3463  -0.7920   2.0936   3.1853

          k =-0.8750 0.1250 0.1250 (   757 PWs)   bands (ev):

    -2.5194  -0.6917   2.7128   3.4572

          k =-0.8750 0.6250 0.1250 (   749 PWs)   bands (ev):

    -2.3463  -0.7920   2.0936   3.1853

          k =-0.3750-0.3750 0.3750 (   763 PWs)   bands (ev):

    -4.1083   0.2007   5.0406   5.0406

          k =-0.3750 0.1250 0.3750 (   757 PWs)   bands (ev):

    -4.5478   1.5111   3.8263   5.3514

          k =-1.1250 0.3750-0.3750 (   757 PWs)   bands (ev):

    -2.8889  -0.4967   2.1578   4.2477

          k =-1.1250 0.8750-0.3750 (   757 PWs)   bands (ev):

    -4.0093   1.1891   3.4704   3.9291

          k =-0.3750 1.1250-0.3750 (   757 PWs)   bands (ev):

    -2.8889  -0.4967   2.1578   4.2477

          k =-0.3750 1.6250-0.3750 (   763 PWs)   bands (ev):

    -4.1083   0.2007   5.0406   5.0406

          k =-0.3750-1.1250-0.3750 (   757 PWs)   bands (ev):

    -2.8889  -0.4967   2.1578   4.2477

          k =-0.3750-0.6250-0.3750 (   755 PWs)   bands (ev):

    -3.3901  -0.5957   3.8535   4.5693

     highest occupied level (ev):     5.8349

     Writing output data file silicon.10.286.save

                                                                                

     bravais-lattice index     =            2
     lattice parameter (alat)  =      10.2860  a.u.
     unit-cell volume          =     272.0693 (a.u.)^3
     number of atoms/cell      =            2
     number of atomic types    =            1
     kinetic-energy cut-off    =      30.0000  Ry
     charge density cut-off    =     240.0000  Ry
     convergence threshold     =      1.0E-12
     beta                      =       0.7000
     number of iterations used =            4
     Exchange-correlation      = SLA  PW   PBE  PBE ( 1  4  3  4 0 0)


     celldm(1)=   10.28600  celldm(2)=    0.00000  celldm(3)=    0.00000
     celldm(4)=    0.00000  celldm(5)=    0.00000  celldm(6)=    0.00000

     crystal axes: (cart. coord. in units of alat)
               a(1) = ( -0.5000  0.0000  0.5000 )  
               a(2) = (  0.0000  0.5000  0.5000 )  
               a(3) = ( -0.5000  0.5000  0.0000 )  

     reciprocal axes: (cart. coord. in units 2 pi/alat)
               b(1) = ( -1.0000 -1.0000  1.0000 )  
               b(2) = (  1.0000  1.0000  1.0000 )  
               b(3) = ( -1.0000  1.0000 -1.0000 )  


     Atoms inside the unit cell: 

     Cartesian axes

     site n.  atom      mass           positions (alat units)
        1     Si  28.0860   tau(    1) = (    0.00000    0.00000    0.00000  )
        2     Si  28.0860   tau(    2) = (    0.25000    0.25000    0.25000  )

     Computing dynamical matrix for 
                    q = (   0.0000000   0.5000000   0.0000000 )

      8 Sym.Ops. (no q -> -q+G )


     G cutoff =  643.1978  (   4241 G-vectors)     FFT grid: ( 36, 36, 36)
     G cutoff =  321.5989  (   1496 G-vectors)  smooth grid: ( 25, 25, 25)
     number of k points=    80

     PseudoPot. # 1 for Si read from file:
     /home/s1333534/quantum_espresso/qe-6.1/pseudo/si_pbe_v1.uspp.F.UPF.txt
     MD5 check sum: a056efeee980c13900f22a371efd63c1
     Pseudo is Ultrasoft + core correction, Zval =  4.0
     Generated by new atomic code, or converted to UPF format
     Using radial grid of  899 points,  6 beta functions with: 
                l(1) =   0
                l(2) =   0
                l(3) =   1
                l(4) =   1
                l(5) =   2
                l(6) =   2
     Q(r) pseudized with  8 coefficients,  rinner =    0.900   0.900   0.900
                                                       0.900   0.900

     Mode symmetry, C_4v (4mm)  point group:


     Atomic displacements:
     There are   4 irreducible representations

     Representation     1      1 modes -A_1  G_1 D_1  To be done

     Representation     2      1 modes -B_2  G_4 D_2'  To be done

     Representation     3      2 modes -E    G_5 D_5  To be done

     Representation     4      2 modes -E    G_5 D_5  To be done



     Alpha used in Ewald sum =   2.5000
     PHONON       :    37.22s CPU        47.65s WALL



     Representation #  1 mode #   1

     Self-consistent Calculation

      iter #   1 total cpu time :    48.0 secs   av.it.:   6.2
      thresh= 1.000E-02 alpha_mix =  0.700 |ddv_scf|^2 =  5.192E-04

      iter #   2 total cpu time :    48.5 secs   av.it.:   9.2
      thresh= 2.279E-03 alpha_mix =  0.700 |ddv_scf|^2 =  6.849E-03

      iter #   3 total cpu time :    48.9 secs   av.it.:   7.3
      thresh= 8.276E-03 alpha_mix =  0.700 |ddv_scf|^2 =  1.037E-08

      iter #   4 total cpu time :    49.4 secs   av.it.:  10.2
      thresh= 1.018E-05 alpha_mix =  0.700 |ddv_scf|^2 =  9.878E-10

      iter #   5 total cpu time :    49.9 secs   av.it.:   9.6
      thresh= 3.143E-06 alpha_mix =  0.700 |ddv_scf|^2 =  1.170E-10

      iter #   6 total cpu time :    50.3 secs   av.it.:   9.3
      thresh= 1.082E-06 alpha_mix =  0.700 |ddv_scf|^2 =  3.346E-13

     End of self-consistent calculation

     Convergence has been achieved 


     Representation #  2 mode #   2

     Self-consistent Calculation

      iter #   1 total cpu time :    50.7 secs   av.it.:   5.1
      thresh= 1.000E-02 alpha_mix =  0.700 |ddv_scf|^2 =  8.148E-07

      iter #   2 total cpu time :    51.2 secs   av.it.:  10.4
      thresh= 9.027E-05 alpha_mix =  0.700 |ddv_scf|^2 =  2.185E-07

      iter #   3 total cpu time :    51.7 secs   av.it.:   9.9
      thresh= 4.674E-05 alpha_mix =  0.700 |ddv_scf|^2 =  2.211E-09

      iter #   4 total cpu time :    52.2 secs   av.it.:  10.1
      thresh= 4.702E-06 alpha_mix =  0.700 |ddv_scf|^2 =  8.409E-11

      iter #   5 total cpu time :    52.7 secs   av.it.:  10.3
      thresh= 9.170E-07 alpha_mix =  0.700 |ddv_scf|^2 =  5.140E-13

     End of self-consistent calculation

     Convergence has been achieved 


     Representation #  3 modes #   3  4

     Self-consistent Calculation

      iter #   1 total cpu time :    53.4 secs   av.it.:   5.2
      thresh= 1.000E-02 alpha_mix =  0.700 |ddv_scf|^2 =  1.447E-07

      iter #   2 total cpu time :    54.3 secs   av.it.:  11.5
      thresh= 3.804E-05 alpha_mix =  0.700 |ddv_scf|^2 =  1.992E-08

      iter #   3 total cpu time :    55.2 secs   av.it.:  11.1
      thresh= 1.411E-05 alpha_mix =  0.700 |ddv_scf|^2 =  3.356E-10

      iter #   4 total cpu time :    56.0 secs   av.it.:  10.8
      thresh= 1.832E-06 alpha_mix =  0.700 |ddv_scf|^2 =  7.766E-13

     End of self-consistent calculation

     Convergence has been achieved 


     Representation #  4 modes #   5  6

     Self-consistent Calculation

      iter #   1 total cpu time :    56.7 secs   av.it.:   5.3
      thresh= 1.000E-02 alpha_mix =  0.700 |ddv_scf|^2 =  1.327E-07

      iter #   2 total cpu time :    57.6 secs   av.it.:  11.4
      thresh= 3.642E-05 alpha_mix =  0.700 |ddv_scf|^2 =  1.777E-08

      iter #   3 total cpu time :    58.6 secs   av.it.:  11.2
      thresh= 1.333E-05 alpha_mix =  0.700 |ddv_scf|^2 =  3.440E-10

      iter #   4 total cpu time :    59.4 secs   av.it.:  11.0
      thresh= 1.855E-06 alpha_mix =  0.700 |ddv_scf|^2 =  8.383E-13

     End of self-consistent calculation

     Convergence has been achieved 

     Number of q in the star =    6
     List of q in the star:
          1   0.000000000   0.500000000   0.000000000
          2   0.000000000  -0.500000000   0.000000000
          3   0.500000000   0.000000000   0.000000000
          4   0.000000000   0.000000000   0.500000000
          5   0.000000000   0.000000000  -0.500000000
          6  -0.500000000   0.000000000   0.000000000

     Diagonalizing the dynamical matrix

     q = (    0.000000000   0.500000000   0.000000000 ) 

 **************************************************************************
     freq (    1) =       3.737557 [THz] =     124.671469 [cm-1]
     freq (    2) =       3.737557 [THz] =     124.671469 [cm-1]
     freq (    3) =       7.163460 [THz] =     238.947318 [cm-1]
     freq (    4) =      14.066028 [THz] =     469.192183 [cm-1]
     freq (    5) =      14.066028 [THz] =     469.192183 [cm-1]
     freq (    6) =      14.653066 [THz] =     488.773675 [cm-1]
 **************************************************************************

     Mode symmetry, C_4v (4mm)  point group:

     freq (  1 -  2) =        124.7  [cm-1]   --> E    G_5 D_5       
     freq (  3 -  3) =        238.9  [cm-1]   --> A_1  G_1 D_1       
     freq (  4 -  5) =        469.2  [cm-1]   --> E    G_5 D_5       
     freq (  6 -  6) =        488.8  [cm-1]   --> B_2  G_4 D_2'      

     Calculation of q =    0.7500000  -0.2500000   0.7500000

   Info: using nr1, nr2, nr3 values from input

   Info: using nr1, nr2, nr3 values from input

     Parallelization info
     --------------------
     sticks:   dense  smooth     PW     G-vecs:    dense   smooth      PW
     Min         217     108     40                 4240     1495     362
     Max         219     109     41                 4241     1498     366
     Sum         871     433    163                16961     5985    1459



     bravais-lattice index     =            2
     lattice parameter (alat)  =      10.2860  a.u.
     unit-cell volume          =     272.0693 (a.u.)^3
     number of atoms/cell      =            2
     number of atomic types    =            1
     number of electrons       =         8.00
     number of Kohn-Sham states=            4
     kinetic-energy cutoff     =      30.0000  Ry
     charge density cutoff     =     240.0000  Ry
     Exchange-correlation      = SLA  PW   PBE  PBE ( 1  4  3  4 0 0)

     celldm(1)=  10.286000  celldm(2)=   0.000000  celldm(3)=   0.000000
     celldm(4)=   0.000000  celldm(5)=   0.000000  celldm(6)=   0.000000

     crystal axes: (cart. coord. in units of alat)
               a(1) = (  -0.500000   0.000000   0.500000 )  
               a(2) = (   0.000000   0.500000   0.500000 )  
               a(3) = (  -0.500000   0.500000   0.000000 )  

     reciprocal axes: (cart. coord. in units 2 pi/alat)
               b(1) = ( -1.000000 -1.000000  1.000000 )  
               b(2) = (  1.000000  1.000000  1.000000 )  
               b(3) = ( -1.000000  1.000000 -1.000000 )  


     PseudoPot. # 1 for Si read from file:
     /home/s1333534/quantum_espresso/qe-6.1/pseudo/si_pbe_v1.uspp.F.UPF.txt
     MD5 check sum: a056efeee980c13900f22a371efd63c1
     Pseudo is Ultrasoft + core correction, Zval =  4.0
     Generated by new atomic code, or converted to UPF format
     Using radial grid of  899 points,  6 beta functions with: 
                l(1) =   0
                l(2) =   0
                l(3) =   1
                l(4) =   1
                l(5) =   2
                l(6) =   2
     Q(r) pseudized with  8 coefficients,  rinner =    0.900   0.900   0.900
                                                       0.900   0.900

     atomic species   valence    mass     pseudopotential
        Si             4.00    28.08600     Si( 1.00)

     48 Sym. Ops., with inversion, found



   Cartesian axes

     site n.     atom                  positions (alat units)
         1           Si  tau(   1) = (   0.0000000   0.0000000   0.0000000  )
         2           Si  tau(   2) = (   0.2500000   0.2500000   0.2500000  )

     number of k points=   288

     Number of k-points >= 100: set verbosity='high' to print them.

     Dense  grid:    16961 G-vectors     FFT dimensions: (  36,  36,  36)

     Smooth grid:     5985 G-vectors     FFT dimensions: (  25,  25,  25)

     Estimated max dynamical RAM per process >       1.51MB

     Estimated total allocated dynamical RAM >       6.02MB

     The potential is recalculated from file :
     ./_ph0/silicon.10.286.save/charge-density.dat

     Starting wfc are    8 atomic wfcs

     Band Structure Calculation
     Davidson diagonalization with overlap

     ethr =  1.25E-10,  avg # of iterations = 12.1

     total cpu time spent up to now is        6.7 secs

     End of band structure calculation

     Number of k-points >= 100: set verbosity='high' to print the bands.

     highest occupied level (ev):     5.8349

     Writing output data file silicon.10.286.save

                                                                                

     bravais-lattice index     =            2
     lattice parameter (alat)  =      10.2860  a.u.
     unit-cell volume          =     272.0693 (a.u.)^3
     number of atoms/cell      =            2
     number of atomic types    =            1
     kinetic-energy cut-off    =      30.0000  Ry
     charge density cut-off    =     240.0000  Ry
     convergence threshold     =      1.0E-12
     beta                      =       0.7000
     number of iterations used =            4
     Exchange-correlation      = SLA  PW   PBE  PBE ( 1  4  3  4 0 0)


     celldm(1)=   10.28600  celldm(2)=    0.00000  celldm(3)=    0.00000
     celldm(4)=    0.00000  celldm(5)=    0.00000  celldm(6)=    0.00000

     crystal axes: (cart. coord. in units of alat)
               a(1) = ( -0.5000  0.0000  0.5000 )  
               a(2) = (  0.0000  0.5000  0.5000 )  
               a(3) = ( -0.5000  0.5000  0.0000 )  

     reciprocal axes: (cart. coord. in units 2 pi/alat)
               b(1) = ( -1.0000 -1.0000  1.0000 )  
               b(2) = (  1.0000  1.0000  1.0000 )  
               b(3) = ( -1.0000  1.0000 -1.0000 )  


     Atoms inside the unit cell: 

     Cartesian axes

     site n.  atom      mass           positions (alat units)
        1     Si  28.0860   tau(    1) = (    0.00000    0.00000    0.00000  )
        2     Si  28.0860   tau(    2) = (    0.25000    0.25000    0.25000  )

     Computing dynamical matrix for 
                    q = (   0.7500000  -0.2500000   0.7500000 )

      2 Sym.Ops. (no q -> -q+G )


     G cutoff =  643.1978  (   4241 G-vectors)     FFT grid: ( 36, 36, 36)
     G cutoff =  321.5989  (   1497 G-vectors)  smooth grid: ( 25, 25, 25)
     number of k points=   288

     PseudoPot. # 1 for Si read from file:
     /home/s1333534/quantum_espresso/qe-6.1/pseudo/si_pbe_v1.uspp.F.UPF.txt
     MD5 check sum: a056efeee980c13900f22a371efd63c1
     Pseudo is Ultrasoft + core correction, Zval =  4.0
     Generated by new atomic code, or converted to UPF format
     Using radial grid of  899 points,  6 beta functions with: 
                l(1) =   0
                l(2) =   0
                l(3) =   1
                l(4) =   1
                l(5) =   2
                l(6) =   2
     Q(r) pseudized with  8 coefficients,  rinner =    0.900   0.900   0.900
                                                       0.900   0.900

     Mode symmetry, C_s (m)     point group:


     Atomic displacements:
     There are   6 irreducible representations

     Representation     1      1 modes -A'  To be done

     Representation     2      1 modes -A'  To be done

     Representation     3      1 modes -A'  To be done

     Representation     4      1 modes -A'  To be done

     Representation     5      1 modes -A''  To be done

     Representation     6      1 modes -A''  To be done



     Alpha used in Ewald sum =   2.5000
     PHONON       :  0m51.02s CPU     1m 4.48s WALL



     Representation #  1 mode #   1

     Self-consistent Calculation

      iter #   1 total cpu time :    65.4 secs   av.it.:   5.7
      thresh= 1.000E-02 alpha_mix =  0.700 |ddv_scf|^2 =  1.058E-05

      iter #   2 total cpu time :    66.7 secs   av.it.:  10.6
      thresh= 3.252E-04 alpha_mix =  0.700 |ddv_scf|^2 =  2.806E-05

      iter #   3 total cpu time :    68.0 secs   av.it.:   9.2
      thresh= 5.297E-04 alpha_mix =  0.700 |ddv_scf|^2 =  1.885E-07

      iter #   4 total cpu time :    69.3 secs   av.it.:   9.9
      thresh= 4.342E-05 alpha_mix =  0.700 |ddv_scf|^2 =  3.677E-09

      iter #   5 total cpu time :    70.6 secs   av.it.:  10.4
      thresh= 6.064E-06 alpha_mix =  0.700 |ddv_scf|^2 =  6.396E-10

      iter #   6 total cpu time :    71.9 secs   av.it.:  10.3
      thresh= 2.529E-06 alpha_mix =  0.700 |ddv_scf|^2 =  9.206E-12

      iter #   7 total cpu time :    73.3 secs   av.it.:  10.6
      thresh= 3.034E-07 alpha_mix =  0.700 |ddv_scf|^2 =  3.403E-13

     End of self-consistent calculation

     Convergence has been achieved 


     Representation #  2 mode #   2

     Self-consistent Calculation

      iter #   1 total cpu time :    74.3 secs   av.it.:   5.8
      thresh= 1.000E-02 alpha_mix =  0.700 |ddv_scf|^2 =  1.898E-05

      iter #   2 total cpu time :    75.6 secs   av.it.:  10.4
      thresh= 4.357E-04 alpha_mix =  0.700 |ddv_scf|^2 =  5.476E-05

      iter #   3 total cpu time :    76.8 secs   av.it.:   9.0
      thresh= 7.400E-04 alpha_mix =  0.700 |ddv_scf|^2 =  1.253E-07

      iter #   4 total cpu time :    78.1 secs   av.it.:  10.2
      thresh= 3.540E-05 alpha_mix =  0.700 |ddv_scf|^2 =  4.148E-09

      iter #   5 total cpu time :    79.4 secs   av.it.:  10.4
      thresh= 6.441E-06 alpha_mix =  0.700 |ddv_scf|^2 =  8.466E-10

      iter #   6 total cpu time :    80.7 secs   av.it.:  10.3
      thresh= 2.910E-06 alpha_mix =  0.700 |ddv_scf|^2 =  8.647E-12

      iter #   7 total cpu time :    82.0 secs   av.it.:  10.6
      thresh= 2.941E-07 alpha_mix =  0.700 |ddv_scf|^2 =  2.986E-13

     End of self-consistent calculation

     Convergence has been achieved 


     Representation #  3 mode #   3

     Self-consistent Calculation

      iter #   1 total cpu time :    83.0 secs   av.it.:   5.7
      thresh= 1.000E-02 alpha_mix =  0.700 |ddv_scf|^2 =  1.488E-05

      iter #   2 total cpu time :    84.3 secs   av.it.:  10.4
      thresh= 3.858E-04 alpha_mix =  0.700 |ddv_scf|^2 =  4.036E-05

      iter #   3 total cpu time :    85.5 secs   av.it.:   9.0
      thresh= 6.353E-04 alpha_mix =  0.700 |ddv_scf|^2 =  2.193E-07

      iter #   4 total cpu time :    86.8 secs   av.it.:  10.0
      thresh= 4.683E-05 alpha_mix =  0.700 |ddv_scf|^2 =  4.227E-09

      iter #   5 total cpu time :    88.1 secs   av.it.:  10.4
      thresh= 6.501E-06 alpha_mix =  0.700 |ddv_scf|^2 =  8.230E-10

      iter #   6 total cpu time :    89.4 secs   av.it.:  10.3
      thresh= 2.869E-06 alpha_mix =  0.700 |ddv_scf|^2 =  6.055E-12

      iter #   7 total cpu time :    90.7 secs   av.it.:  10.5
      thresh= 2.461E-07 alpha_mix =  0.700 |ddv_scf|^2 =  1.755E-13

     End of self-consistent calculation

     Convergence has been achieved 


     Representation #  4 mode #   4

     Self-consistent Calculation

      iter #   1 total cpu time :    91.7 secs   av.it.:   5.5
      thresh= 1.000E-02 alpha_mix =  0.700 |ddv_scf|^2 =  6.472E-06

      iter #   2 total cpu time :    93.1 secs   av.it.:  10.7
      thresh= 2.544E-04 alpha_mix =  0.700 |ddv_scf|^2 =  1.363E-05

      iter #   3 total cpu time :    94.3 secs   av.it.:   9.4
      thresh= 3.692E-04 alpha_mix =  0.700 |ddv_scf|^2 =  2.953E-07

      iter #   4 total cpu time :    95.6 secs   av.it.:   9.8
      thresh= 5.434E-05 alpha_mix =  0.700 |ddv_scf|^2 =  3.620E-09

      iter #   5 total cpu time :    96.9 secs   av.it.:  10.5
      thresh= 6.017E-06 alpha_mix =  0.700 |ddv_scf|^2 =  6.779E-10

      iter #   6 total cpu time :    98.2 secs   av.it.:  10.4
      thresh= 2.604E-06 alpha_mix =  0.700 |ddv_scf|^2 =  3.918E-12

      iter #   7 total cpu time :    99.7 secs   av.it.:  10.7
      thresh= 1.979E-07 alpha_mix =  0.700 |ddv_scf|^2 =  1.758E-13

     End of self-consistent calculation

     Convergence has been achieved 


     Representation #  5 mode #   5

     Self-consistent Calculation

      iter #   1 total cpu time :   100.7 secs   av.it.:   5.2
      thresh= 1.000E-02 alpha_mix =  0.700 |ddv_scf|^2 =  6.691E-07

      iter #   2 total cpu time :   102.0 secs   av.it.:  10.4
      thresh= 8.180E-05 alpha_mix =  0.700 |ddv_scf|^2 =  1.090E-07

      iter #   3 total cpu time :   103.3 secs   av.it.:  10.0
      thresh= 3.302E-05 alpha_mix =  0.700 |ddv_scf|^2 =  1.454E-09

      iter #   4 total cpu time :   104.6 secs   av.it.:   9.6
      thresh= 3.813E-06 alpha_mix =  0.700 |ddv_scf|^2 =  3.368E-12

      iter #   5 total cpu time :   105.8 secs   av.it.:  10.0
      thresh= 1.835E-07 alpha_mix =  0.700 |ddv_scf|^2 =  9.367E-14

     End of self-consistent calculation

     Convergence has been achieved 


     Representation #  6 mode #   6

     Self-consistent Calculation

      iter #   1 total cpu time :   106.8 secs   av.it.:   5.2
      thresh= 1.000E-02 alpha_mix =  0.700 |ddv_scf|^2 =  6.691E-07

      iter #   2 total cpu time :   108.2 secs   av.it.:  10.4
[...]
        k(   59) = (  -0.8750000   0.1250000  -0.1250000), wk =   0.0625000
        k(   60) = (  -1.3750000  -0.8750000  -0.1250000), wk =   0.0000000
        k(   61) = (  -1.1250000   0.3750000  -0.3750000), wk =   0.0625000
        k(   62) = (  -1.6250000  -0.6250000  -0.3750000), wk =   0.0000000
        k(   63) = (  -0.3750000   0.3750000   1.1250000), wk =   0.0625000
        k(   64) = (  -0.8750000  -0.6250000   1.1250000), wk =   0.0000000

     Dense  grid:    16961 G-vectors     FFT dimensions: (  36,  36,  36)

     Smooth grid:     5985 G-vectors     FFT dimensions: (  25,  25,  25)

     Estimated max dynamical RAM per process >       1.51MB

     Estimated total allocated dynamical RAM >       6.02MB

     The potential is recalculated from file :
     ./_ph0/silicon.10.286.save/charge-density.dat

     Starting wfc are    8 atomic wfcs

     Band Structure Calculation
     Davidson diagonalization with overlap

     ethr =  1.25E-10,  avg # of iterations = 12.1

     total cpu time spent up to now is       10.4 secs

     End of band structure calculation

          k =-0.1250 0.1250 0.1250 (   746 PWs)   bands (ev):

    -5.5870   4.5258   5.8349   5.8349

          k =-0.6250-0.8750 0.1250 (   749 PWs)   bands (ev):

    -2.3463  -0.7920   2.0936   3.1853

          k =-0.3750 0.3750-0.1250 (   757 PWs)   bands (ev):

    -4.5478   1.5111   3.8263   5.3514

          k =-0.8750-0.6250-0.1250 (   749 PWs)   bands (ev):

    -2.3463  -0.7920   2.0936   3.1853

          k = 0.3750-0.3750 0.6250 (   755 PWs)   bands (ev):

    -3.3901  -0.5957   3.8535   4.5693

          k =-0.1250-1.3750 0.6250 (   757 PWs)   bands (ev):

    -2.8889  -0.4967   2.1578   4.2477

          k = 0.1250-0.1250 0.3750 (   757 PWs)   bands (ev):

    -5.0530   2.9037   4.8131   4.8851

          k =-0.3750-1.1250 0.3750 (   757 PWs)   bands (ev):

    -2.8889  -0.4967   2.1578   4.2477

          k =-0.1250 0.6250 0.1250 (   757 PWs)   bands (ev):

    -4.0093   1.1891   3.4704   3.9291

          k =-0.6250-0.3750 0.1250 (   756 PWs)   bands (ev):

    -3.5872   0.2982   2.8232   4.2066

          k = 0.6250-0.1250 0.8750 (   749 PWs)   bands (ev):

    -2.3463  -0.7920   2.0936   3.1853

          k = 0.1250-1.1250 0.8750 (   757 PWs)   bands (ev):

    -2.5194  -0.6917   2.7128   3.4572

          k = 0.3750 0.1250 0.6250 (   756 PWs)   bands (ev):

    -3.5872   0.2982   2.8232   4.2066

          k =-0.1250-0.8750 0.6250 (   749 PWs)   bands (ev):

    -2.3463  -0.7920   2.0936   3.1853

          k =-0.1250-0.8750 0.1250 (   757 PWs)   bands (ev):

    -2.5194  -0.6917   2.7128   3.4572

          k =-0.6250-1.8750 0.1250 (   757 PWs)   bands (ev):

    -4.0093   1.1891   3.4704   3.9291

          k =-0.3750 0.3750 0.3750 (   763 PWs)   bands (ev):

    -4.1083   0.2007   5.0406   5.0406

          k =-0.8750-0.6250 0.3750 (   756 PWs)   bands (ev):

    -3.5872   0.2982   2.8232   4.2066

          k = 0.3750-0.3750 1.1250 (   757 PWs)   bands (ev):

    -2.8889  -0.4967   2.1578   4.2477

          k =-0.1250-1.3750 1.1250 (   749 PWs)   bands (ev):

    -2.3463  -0.7920   2.0936   3.1853

          k = 0.1250-0.3750 0.3750 (   757 PWs)   bands (ev):

    -4.5478   1.5111   3.8263   5.3514

          k =-0.3750-1.3750 0.3750 (   755 PWs)   bands (ev):

    -3.3901  -0.5957   3.8535   4.5693

          k = 0.3750-0.3750-0.1250 (   757 PWs)   bands (ev):

    -4.5478   1.5111   3.8263   5.3514

          k =-0.1250-1.3750-0.1250 (   757 PWs)   bands (ev):

    -4.0093   1.1891   3.4704   3.9291

          k =-0.6250 0.3750-0.3750 (   755 PWs)   bands (ev):

    -3.3901  -0.5957   3.8535   4.5693

          k =-1.1250-0.6250-0.3750 (   756 PWs)   bands (ev):

    -3.5872   0.2982   2.8232   4.2066

          k =-0.3750 0.3750 0.6250 (   755 PWs)   bands (ev):

    -3.3901  -0.5957   3.8535   4.5693

          k =-0.8750-0.6250 0.6250 (   757 PWs)   bands (ev):

    -4.5478   1.5111   3.8263   5.3514

          k =-0.3750 0.1250-0.1250 (   757 PWs)   bands (ev):

    -5.0530   2.9037   4.8131   4.8851

          k =-0.8750-0.8750-0.1250 (   757 PWs)   bands (ev):

    -2.5194  -0.6917   2.7128   3.4572

          k =-0.1250 0.1250 0.3750 (   757 PWs)   bands (ev):

    -5.0530   2.9037   4.8131   4.8851

          k =-0.6250-0.8750 0.3750 (   756 PWs)   bands (ev):

    -3.5872   0.2982   2.8232   4.2066

          k = 0.1250 0.6250-0.1250 (   757 PWs)   bands (ev):

    -4.0093   1.1891   3.4704   3.9291

          k =-0.3750-0.3750-0.1250 (   757 PWs)   bands (ev):

    -4.5478   1.5111   3.8263   5.3514

          k = 0.6250 0.1250-0.1250 (   757 PWs)   bands (ev):

    -4.0093   1.1891   3.4704   3.9291

          k = 0.1250-0.8750-0.1250 (   757 PWs)   bands (ev):

    -2.5194  -0.6917   2.7128   3.4572

          k =-0.8750 0.1250-0.6250 (   749 PWs)   bands (ev):

    -2.3463  -0.7920   2.0936   3.1853

          k =-1.3750-0.8750-0.6250 (   757 PWs)   bands (ev):

    -4.5478   1.5111   3.8263   5.3514

          k = 0.8750-0.1250 0.6250 (   749 PWs)   bands (ev):

    -2.3463  -0.7920   2.0936   3.1853

          k = 0.3750-1.1250 0.6250 (   756 PWs)   bands (ev):

    -3.5872   0.2982   2.8232   4.2066

          k =-0.6250 0.1250 0.8750 (   749 PWs)   bands (ev):

    -2.3463  -0.7920   2.0936   3.1853

          k =-1.1250-0.8750 0.8750 (   746 PWs)   bands (ev):

    -5.5870   4.5258   5.8349   5.8349

          k =-0.1250 0.8750 0.6250 (   749 PWs)   bands (ev):

    -2.3463  -0.7920   2.0936   3.1853

          k =-0.6250-0.1250 0.6250 (   757 PWs)   bands (ev):

    -2.8889  -0.4967   2.1578   4.2477

          k = 0.1250 0.8750-0.6250 (   749 PWs)   bands (ev):

    -2.3463  -0.7920   2.0936   3.1853

          k =-0.3750-0.1250-0.6250 (   756 PWs)   bands (ev):

    -3.5872   0.2982   2.8232   4.2066

          k =-0.6250-0.1250-0.3750 (   756 PWs)   bands (ev):

    -3.5872   0.2982   2.8232   4.2066

          k =-1.1250-1.1250-0.3750 (   757 PWs)   bands (ev):

    -4.0093   1.1891   3.4704   3.9291

          k = 0.6250 0.1250 0.3750 (   756 PWs)   bands (ev):

    -3.5872   0.2982   2.8232   4.2066

          k = 0.1250-0.8750 0.3750 (   749 PWs)   bands (ev):

    -2.3463  -0.7920   2.0936   3.1853

          k =-0.3750-0.1250 0.6250 (   756 PWs)   bands (ev):

    -3.5872   0.2982   2.8232   4.2066

          k =-0.8750-1.1250 0.6250 (   757 PWs)   bands (ev):

    -5.0530   2.9037   4.8131   4.8851

          k = 0.1250 0.6250 0.3750 (   756 PWs)   bands (ev):

    -3.5872   0.2982   2.8232   4.2066

          k =-0.3750-0.3750 0.3750 (   763 PWs)   bands (ev):

    -4.1083   0.2007   5.0406   5.0406

          k =-0.1250 0.6250-0.3750 (   756 PWs)   bands (ev):

    -3.5872   0.2982   2.8232   4.2066

          k =-0.6250-0.3750-0.3750 (   755 PWs)   bands (ev):

    -3.3901  -0.5957   3.8535   4.5693

          k = 0.1250-0.8750-0.1250 (   757 PWs)   bands (ev):

    -2.5194  -0.6917   2.7128   3.4572

          k =-0.3750-1.8750-0.1250 (   757 PWs)   bands (ev):

    -5.0530   2.9037   4.8131   4.8851

          k =-0.8750 0.1250-0.1250 (   757 PWs)   bands (ev):

    -2.5194  -0.6917   2.7128   3.4572

          k =-1.3750-0.8750-0.1250 (   749 PWs)   bands (ev):

    -2.3463  -0.7920   2.0936   3.1853

          k =-1.1250 0.3750-0.3750 (   757 PWs)   bands (ev):

    -2.8889  -0.4967   2.1578   4.2477

          k =-1.6250-0.6250-0.3750 (   755 PWs)   bands (ev):

    -3.3901  -0.5957   3.8535   4.5693

          k =-0.3750 0.3750 1.1250 (   757 PWs)   bands (ev):

    -2.8889  -0.4967   2.1578   4.2477

          k =-0.8750-0.6250 1.1250 (   757 PWs)   bands (ev):

    -5.0530   2.9037   4.8131   4.8851

     highest occupied level (ev):     5.8349

     Writing output data file silicon.10.286.save

                                                                                

     bravais-lattice index     =            2
     lattice parameter (alat)  =      10.2860  a.u.
     unit-cell volume          =     272.0693 (a.u.)^3
     number of atoms/cell      =            2
     number of atomic types    =            1
     kinetic-energy cut-off    =      30.0000  Ry
     charge density cut-off    =     240.0000  Ry
     convergence threshold     =      1.0E-12
     beta                      =       0.7000
     number of iterations used =            4
     Exchange-correlation      = SLA  PW   PBE  PBE ( 1  4  3  4 0 0)


     celldm(1)=   10.28600  celldm(2)=    0.00000  celldm(3)=    0.00000
     celldm(4)=    0.00000  celldm(5)=    0.00000  celldm(6)=    0.00000

     crystal axes: (cart. coord. in units of alat)
               a(1) = ( -0.5000  0.0000  0.5000 )  
               a(2) = (  0.0000  0.5000  0.5000 )  
               a(3) = ( -0.5000  0.5000  0.0000 )  

     reciprocal axes: (cart. coord. in units 2 pi/alat)
               b(1) = ( -1.0000 -1.0000  1.0000 )  
               b(2) = (  1.0000  1.0000  1.0000 )  
               b(3) = ( -1.0000  1.0000 -1.0000 )  


     Atoms inside the unit cell: 

     Cartesian axes

     site n.  atom      mass           positions (alat units)
        1     Si  28.0860   tau(    1) = (    0.00000    0.00000    0.00000  )
        2     Si  28.0860   tau(    2) = (    0.25000    0.25000    0.25000  )

     Computing dynamical matrix for 
                    q = (  -0.5000000  -1.0000000   0.0000000 )

      8 Sym.Ops. (no q -> -q+G )


     G cutoff =  643.1978  (   4241 G-vectors)     FFT grid: ( 36, 36, 36)
     G cutoff =  321.5989  (   1497 G-vectors)  smooth grid: ( 25, 25, 25)
     number of k points=    64

     PseudoPot. # 1 for Si read from file:
     /home/s1333534/quantum_espresso/qe-6.1/pseudo/si_pbe_v1.uspp.F.UPF.txt
     MD5 check sum: a056efeee980c13900f22a371efd63c1
     Pseudo is Ultrasoft + core correction, Zval =  4.0
     Generated by new atomic code, or converted to UPF format
     Using radial grid of  899 points,  6 beta functions with: 
                l(1) =   0
                l(2) =   0
                l(3) =   1
                l(4) =   1
                l(5) =   2
                l(6) =   2
     Q(r) pseudized with  8 coefficients,  rinner =    0.900   0.900   0.900
                                                       0.900   0.900


     Atomic displacements:
     There are   3 irreducible representations

     Representation     1      2 modes -  To be done

     Representation     2      2 modes -  To be done

     Representation     3      2 modes -  To be done



     Alpha used in Ewald sum =   2.5000
     PHONON       :  2m 3.28s CPU     2m32.89s WALL



     Representation #  1 modes #   1  2

     Self-consistent Calculation

      iter #   1 total cpu time :   153.7 secs   av.it.:   5.7
      thresh= 1.000E-02 alpha_mix =  0.700 |ddv_scf|^2 =  1.097E-06

      iter #   2 total cpu time :   154.5 secs   av.it.:  11.6
      thresh= 1.047E-04 alpha_mix =  0.700 |ddv_scf|^2 =  6.221E-07

      iter #   3 total cpu time :   155.3 secs   av.it.:  11.0
      thresh= 7.888E-05 alpha_mix =  0.700 |ddv_scf|^2 =  5.923E-10

      iter #   4 total cpu time :   156.2 secs   av.it.:  11.0
      thresh= 2.434E-06 alpha_mix =  0.700 |ddv_scf|^2 =  2.611E-12

      iter #   5 total cpu time :   157.0 secs   av.it.:  11.1
      thresh= 1.616E-07 alpha_mix =  0.700 |ddv_scf|^2 =  6.914E-14

     End of self-consistent calculation

     Convergence has been achieved 


     Representation #  2 modes #   3  4

     Self-consistent Calculation

      iter #   1 total cpu time :   157.7 secs   av.it.:   5.6
      thresh= 1.000E-02 alpha_mix =  0.700 |ddv_scf|^2 =  1.693E-06

      iter #   2 total cpu time :   158.5 secs   av.it.:  11.6
      thresh= 1.301E-04 alpha_mix =  0.700 |ddv_scf|^2 =  2.265E-06

      iter #   3 total cpu time :   159.3 secs   av.it.:  10.9
      thresh= 1.505E-04 alpha_mix =  0.700 |ddv_scf|^2 =  6.960E-10

      iter #   4 total cpu time :   160.1 secs   av.it.:  11.0
      thresh= 2.638E-06 alpha_mix =  0.700 |ddv_scf|^2 =  1.000E-11

      iter #   5 total cpu time :   160.8 secs   av.it.:  11.1
      thresh= 3.163E-07 alpha_mix =  0.700 |ddv_scf|^2 =  1.724E-13

     End of self-consistent calculation

     Convergence has been achieved 


     Representation #  3 modes #   5  6

     Self-consistent Calculation

      iter #   1 total cpu time :   161.6 secs   av.it.:   5.3
      thresh= 1.000E-02 alpha_mix =  0.700 |ddv_scf|^2 =  4.453E-07

      iter #   2 total cpu time :   162.4 secs   av.it.:  11.6
      thresh= 6.673E-05 alpha_mix =  0.700 |ddv_scf|^2 =  2.606E-07

      iter #   3 total cpu time :   163.2 secs   av.it.:  11.0
      thresh= 5.105E-05 alpha_mix =  0.700 |ddv_scf|^2 =  5.166E-10

      iter #   4 total cpu time :   164.3 secs   av.it.:  11.0
      thresh= 2.273E-06 alpha_mix =  0.700 |ddv_scf|^2 =  5.967E-12

      iter #   5 total cpu time :   165.5 secs   av.it.:  11.1
      thresh= 2.443E-07 alpha_mix =  0.700 |ddv_scf|^2 =  8.345E-14

     End of self-consistent calculation

     Convergence has been achieved 

     Number of q in the star =    6
     List of q in the star:
          1  -0.500000000  -1.000000000   0.000000000
          2   0.000000000   1.000000000   0.500000000
          3   0.000000000  -1.000000000  -0.500000000
          4   0.500000000   1.000000000   0.000000000
          5  -1.000000000  -0.500000000   0.000000000
          6   0.000000000  -0.500000000  -1.000000000

     Diagonalizing the dynamical matrix

     q = (   -0.500000000  -1.000000000   0.000000000 ) 

 **************************************************************************
     freq (    1) =       5.979658 [THz] =     199.459934 [cm-1]
     freq (    2) =       5.979658 [THz] =     199.459934 [cm-1]
     freq (    3) =      10.492488 [THz] =     349.991713 [cm-1]
     freq (    4) =      10.492488 [THz] =     349.991713 [cm-1]
     freq (    5) =      13.836276 [THz] =     461.528487 [cm-1]
     freq (    6) =      13.836276 [THz] =     461.528487 [cm-1]
 **************************************************************************

     init_run     :      1.24s CPU      1.29s WALL (       7 calls)
     electrons    :      7.16s CPU      7.79s WALL (       7 calls)

     Called by init_run:
     wfcinit      :      0.00s CPU      0.03s WALL (       7 calls)
     potinit      :      0.07s CPU      0.09s WALL (       7 calls)

     Called by electrons:
     c_bands      :      7.16s CPU      7.78s WALL (       7 calls)
     v_of_rho     :      0.06s CPU      0.07s WALL (       8 calls)
     newd         :      0.11s CPU      0.12s WALL (       8 calls)

     Called by c_bands:
     init_us_2    :      1.62s CPU      1.55s WALL (   16040 calls)
     cegterg      :      6.00s CPU      6.50s WALL (     796 calls)

     Called by sum_band:

     Called by *egterg:
     h_psi        :     69.23s CPU     74.33s WALL (  154434 calls)
     s_psi        :      5.63s CPU      6.98s WALL (  311270 calls)
     g_psi        :      0.05s CPU      0.07s WALL (    9666 calls)
     cdiaghg      :      0.57s CPU      0.57s WALL (   10462 calls)

     Called by h_psi:
     h_psi:pot    :     68.82s CPU     73.82s WALL (  154434 calls)
     h_psi:calbec :      3.42s CPU      3.97s WALL (  154434 calls)
     vloc_psi     :     60.80s CPU     65.72s WALL (  154434 calls)
     add_vuspsi   :      4.27s CPU      3.67s WALL (  154434 calls)

     General routines
     calbec       :      8.12s CPU      8.43s WALL (  345722 calls)
     fft          :      1.34s CPU      1.41s WALL (    5265 calls)
     ffts         :      0.21s CPU      0.22s WALL (    3320 calls)
     fftw         :     64.18s CPU     68.54s WALL ( 1383358 calls)
     interpolate  :      0.22s CPU      0.23s WALL (     572 calls)
     davcio       :      0.31s CPU      0.78s WALL (   69876 calls)

     Parallel routines
     fft_scatter  :     16.38s CPU     19.96s WALL ( 1391943 calls)

     PHONON       :  2m12.43s CPU     2m46.21s WALL

     INITIALIZATION: 
     phq_setup    :      0.22s CPU      0.39s WALL (       8 calls)
     phq_init     :      6.76s CPU      6.94s WALL (       8 calls)

     phq_init     :      6.76s CPU      6.94s WALL (       8 calls)
     set_drhoc    :      1.82s CPU      1.83s WALL (      24 calls)
     init_vloc    :      0.03s CPU      0.03s WALL (       8 calls)
     init_us_1    :      0.97s CPU      0.98s WALL (       8 calls)
     newd         :      0.11s CPU      0.12s WALL (       8 calls)
     dvanqq       :      1.15s CPU      1.15s WALL (       8 calls)
     drho         :      2.61s CPU      2.67s WALL (       8 calls)

     DYNAMICAL MATRIX:
     dynmat0      :      1.71s CPU      1.80s WALL (       8 calls)
     phqscf       :    112.32s CPU    140.13s WALL (       8 calls)
     dynmatrix    :      0.02s CPU      0.24s WALL (       8 calls)

     phqscf       :    112.32s CPU    140.13s WALL (       8 calls)
     solve_linter :    111.46s CPU    137.63s WALL (      32 calls)
     drhodv       :      0.57s CPU      0.60s WALL (      32 calls)

     dynmat0      :      1.71s CPU      1.80s WALL (       8 calls)
     dynmat_us    :      0.38s CPU      0.38s WALL (       8 calls)
     d2ionq       :      0.04s CPU      0.04s WALL (       8 calls)
     dynmatcc     :      1.28s CPU      1.28s WALL (       8 calls)

     dynmat_us    :      0.38s CPU      0.38s WALL (       8 calls)
     addusdynmat  :      0.00s CPU      0.00s WALL (       8 calls)

     phqscf       :    112.32s CPU    140.13s WALL (       8 calls)
     solve_linter :    111.46s CPU    137.63s WALL (      32 calls)

     solve_linter :    111.46s CPU    137.63s WALL (      32 calls)
     dvqpsi_us    :      2.15s CPU      2.28s WALL (    2508 calls)
     ortho        :      0.91s CPU      1.06s WALL (   13630 calls)
     cgsolve      :     76.71s CPU     83.50s WALL (   13630 calls)
     incdrhoscf   :      6.51s CPU      7.12s WALL (   13630 calls)
     addusddens   :      6.99s CPU      7.03s WALL (     202 calls)
     vpsifft      :      4.48s CPU      4.90s WALL (   11002 calls)
     dv_of_drho   :      1.21s CPU      1.25s WALL (     256 calls)
     mix_pot      :      0.33s CPU      9.57s WALL (     175 calls)
     psymdvscf    :      4.09s CPU      4.14s WALL (     170 calls)
     newdq        :      7.53s CPU      7.55s WALL (     175 calls)
     adddvscf     :      0.44s CPU      0.43s WALL (   11122 calls)
     drhodvus     :      0.01s CPU      0.02s WALL (      32 calls)

     dvqpsi_us    :      2.15s CPU      2.28s WALL (    2508 calls)
     dvqpsi_us_on :      0.92s CPU      0.95s WALL (    2508 calls)

     cgsolve      :     76.71s CPU     83.50s WALL (   13630 calls)
     ch_psi       :     75.61s CPU     81.79s WALL (  143176 calls)

     ch_psi       :     75.61s CPU     81.79s WALL (  143176 calls)
     h_psi        :     69.23s CPU     74.33s WALL (  154434 calls)
     last         :      8.85s CPU      9.05s WALL (  143176 calls)

     h_psi        :     69.23s CPU     74.33s WALL (  154434 calls)
     add_vuspsi   :      4.27s CPU      3.67s WALL (  154434 calls)

     incdrhoscf   :      6.51s CPU      7.12s WALL (   13630 calls)
     addusdbec    :      0.48s CPU      0.52s WALL (   16078 calls)

     drhodvus     :      0.01s CPU      0.02s WALL (      32 calls)

      General routines
     calbec       :      8.12s CPU      8.43s WALL (  345722 calls)
     fft          :      1.34s CPU      1.41s WALL (    5265 calls)
     ffts         :      0.21s CPU      0.22s WALL (    3320 calls)
     fftw         :     64.18s CPU     68.54s WALL ( 1383358 calls)
     davcio       :      0.31s CPU      0.78s WALL (   69876 calls)
     write_rec    :      0.22s CPU     10.71s WALL (     207 calls)


     PHONON       :  2m12.43s CPU     2m46.21s WALL


   This run was terminated on:  15:41:23  10Nov2017            

=------------------------------------------------------------------------------=
   JOB DONE.
=------------------------------------------------------------------------------=
