
     Program PWSCF v.6.1 (svn rev. 13369) starts on 10Nov2017 at 10:15: 8 

     This program is part of the open-source Quantum ESPRESSO suite
     for quantum simulation of materials; please cite
         "P. Giannozzi et al., J. Phys.:Condens. Matter 21 395502 (2009);
          URL http://www.quantum-espresso.org", 
     in publications or presentations arising from this work. More details at
     http://www.quantum-espresso.org/quote

     Parallel version (MPI), running on     4 processors
     R & G space division:  proc/nbgrp/npool/nimage =       4
     Waiting for input...
     Reading input from standard input
     Message from routine read_cards :
     DEPRECATED: no units specified in ATOMIC_POSITIONS card
     Message from routine read_cards :
     ATOMIC_POSITIONS: units set to alat

     Current dimensions of program PWSCF are:
     Max number of different atomic species (ntypx) = 10
     Max number of k-points (npk) =  40000
     Max angular momentum in pseudopotentials (lmaxx) =  3

     Subspace diagonalization in iterative solution of the eigenvalue problem:
     a serial algorithm will be used


     Parallelization info
     --------------------
     sticks:   dense  smooth     PW     G-vecs:    dense   smooth      PW
     Min         228     109     37                 4482     1557     309
     Max         229     110     38                 4484     1558     312
     Sum         913     439    151                17933     6231    1243



     bravais-lattice index     =            2
     lattice parameter (alat)  =      10.4200  a.u.
     unit-cell volume          =     282.8415 (a.u.)^3
     number of atoms/cell      =            2
     number of atomic types    =            1
     number of electrons       =         8.00
     number of Kohn-Sham states=            4
     kinetic-energy cutoff     =      30.0000  Ry
     charge density cutoff     =     240.0000  Ry
     convergence threshold     =      1.0E-08
     mixing beta               =       0.7000
     number of iterations used =            8  plain     mixing
     Exchange-correlation      = SLA  PW   PBE  PBE ( 1  4  3  4 0 0)

     celldm(1)=  10.420000  celldm(2)=   0.000000  celldm(3)=   0.000000
     celldm(4)=   0.000000  celldm(5)=   0.000000  celldm(6)=   0.000000

     crystal axes: (cart. coord. in units of alat)
               a(1) = (  -0.500000   0.000000   0.500000 )  
               a(2) = (   0.000000   0.500000   0.500000 )  
               a(3) = (  -0.500000   0.500000   0.000000 )  

     reciprocal axes: (cart. coord. in units 2 pi/alat)
               b(1) = ( -1.000000 -1.000000  1.000000 )  
               b(2) = (  1.000000  1.000000  1.000000 )  
               b(3) = ( -1.000000  1.000000 -1.000000 )  


     PseudoPot. # 1 for Si read from file:
     /home/max/quantum_espresso/qe-6.1/pseudo/si_pbe_v1.uspp.F.UPF.txt
     MD5 check sum: a056efeee980c13900f22a371efd63c1
     Pseudo is Ultrasoft + core correction, Zval =  4.0
     Generated by new atomic code, or converted to UPF format
     Using radial grid of  899 points,  6 beta functions with: 
                l(1) =   0
                l(2) =   0
                l(3) =   1
                l(4) =   1
                l(5) =   2
                l(6) =   2
     Q(r) pseudized with  8 coefficients,  rinner =    0.900   0.900   0.900
                                                       0.900   0.900

     atomic species   valence    mass     pseudopotential
        Si             4.00    28.08600     Si( 1.00)

     48 Sym. Ops., with inversion, found (24 have fractional translation)



   Cartesian axes

     site n.     atom                  positions (alat units)
         1           Si  tau(   1) = (   0.0000000   0.0000000   0.0000000  )
         2           Si  tau(   2) = (   0.2500000   0.2500000   0.2500000  )

     number of k points=    28
                       cart. coord. in units 2pi/alat
        k(    1) = (  -0.0833333   0.0833333   0.0833333), wk =   0.0185185
        k(    2) = (  -0.2500000   0.2500000  -0.0833333), wk =   0.0555556
        k(    3) = (  -0.4166667   0.4166667  -0.2500000), wk =   0.0555556
        k(    4) = (   0.4166667  -0.4166667   0.5833333), wk =   0.0555556
        k(    5) = (   0.2500000  -0.2500000   0.4166667), wk =   0.0555556
        k(    6) = (   0.0833333  -0.0833333   0.2500000), wk =   0.0555556
        k(    7) = (  -0.0833333   0.4166667   0.0833333), wk =   0.0555556
        k(    8) = (  -0.2500000   0.5833333  -0.0833333), wk =   0.1111111
        k(    9) = (   0.5833333  -0.2500000   0.7500000), wk =   0.1111111
        k(   10) = (   0.4166667  -0.0833333   0.5833333), wk =   0.1111111
        k(   11) = (   0.2500000   0.0833333   0.4166667), wk =   0.1111111
        k(   12) = (  -0.0833333   0.7500000   0.0833333), wk =   0.0555556
        k(   13) = (   0.7500000  -0.0833333   0.9166667), wk =   0.1111111
        k(   14) = (   0.5833333   0.0833333   0.7500000), wk =   0.1111111
        k(   15) = (   0.4166667   0.2500000   0.5833333), wk =   0.1111111
        k(   16) = (  -0.0833333  -0.9166667   0.0833333), wk =   0.0555556
        k(   17) = (  -0.2500000  -0.7500000  -0.0833333), wk =   0.1111111
        k(   18) = (  -0.0833333  -0.5833333   0.0833333), wk =   0.0555556
        k(   19) = (  -0.2500000   0.2500000   0.2500000), wk =   0.0185185
        k(   20) = (  -0.4166667   0.4166667   0.0833333), wk =   0.0555556
        k(   21) = (   0.4166667  -0.4166667   0.9166667), wk =   0.0555556
        k(   22) = (   0.2500000  -0.2500000   0.7500000), wk =   0.0555556
        k(   23) = (  -0.2500000   0.5833333   0.2500000), wk =   0.0555556
        k(   24) = (   0.5833333  -0.2500000   1.0833333), wk =   0.1111111
        k(   25) = (   0.4166667  -0.0833333   0.9166667), wk =   0.1111111
        k(   26) = (  -0.2500000  -1.0833333   0.2500000), wk =   0.0555556
        k(   27) = (  -0.4166667   0.4166667   0.4166667), wk =   0.0185185
        k(   28) = (   0.4166667  -0.4166667   1.2500000), wk =   0.0555556

     Dense  grid:    17933 G-vectors     FFT dimensions: (  40,  40,  40)

     Smooth grid:     6231 G-vectors     FFT dimensions: (  25,  25,  25)

     Estimated max dynamical RAM per process >       3.43MB

     Estimated total allocated dynamical RAM >      13.73MB

     Initial potential from superposition of free atoms

     starting charge    7.99866, renormalised to    8.00000
     Starting wfc are    8 randomized atomic wfcs

     total cpu time spent up to now is        0.8 secs

     per-process dynamical memory:     9.9 Mb

     Self-consistent Calculation

     iteration #  1     ecut=    30.00 Ry     beta=0.70
     Davidson diagonalization with overlap
     ethr =  1.00E-02,  avg # of iterations =  2.0

     Threshold (ethr) on eigenvalues was too large:
     Diagonalizing with lowered threshold

     Davidson diagonalization with overlap
     ethr =  6.50E-04,  avg # of iterations =  1.0

     total cpu time spent up to now is        1.2 secs

     total energy              =     -19.19091042 Ry
     Harris-Foulkes estimate   =     -19.20236459 Ry
     estimated scf accuracy    <       0.05151379 Ry

     iteration #  2     ecut=    30.00 Ry     beta=0.70
     Davidson diagonalization with overlap
     ethr =  6.44E-04,  avg # of iterations =  1.0

     total cpu time spent up to now is        1.4 secs

     total energy              =     -19.19250161 Ry
     Harris-Foulkes estimate   =     -19.19267047 Ry
     estimated scf accuracy    <       0.00244887 Ry

     iteration #  3     ecut=    30.00 Ry     beta=0.70
     Davidson diagonalization with overlap
     ethr =  3.06E-05,  avg # of iterations =  2.0

     total cpu time spent up to now is        1.7 secs

     total energy              =     -19.19281288 Ry
     Harris-Foulkes estimate   =     -19.19282300 Ry
     estimated scf accuracy    <       0.00003711 Ry

     iteration #  4     ecut=    30.00 Ry     beta=0.70
     Davidson diagonalization with overlap
     ethr =  4.64E-07,  avg # of iterations =  3.4

     total cpu time spent up to now is        2.1 secs

     total energy              =     -19.19285163 Ry
     Harris-Foulkes estimate   =     -19.19285200 Ry
     estimated scf accuracy    <       0.00000164 Ry

     iteration #  5     ecut=    30.00 Ry     beta=0.70
     Davidson diagonalization with overlap
     ethr =  2.05E-08,  avg # of iterations =  2.1

     total cpu time spent up to now is        2.8 secs

     End of self-consistent calculation

          k =-0.0833 0.0833 0.0833 (   791 PWs)   bands (ev):

    -5.8376   4.8644   5.5885   5.5885

          k =-0.2500 0.2500-0.0833 (   797 PWs)   bands (ev):

    -5.3784   2.8185   4.4007   5.3803

          k =-0.4167 0.4167-0.2500 (   786 PWs)   bands (ev):

    -4.3307   0.1519   3.9393   4.7652

          k = 0.4167-0.4167 0.5833 (   786 PWs)   bands (ev):

    -3.6701  -0.9408   3.9961   4.4006

          k = 0.2500-0.2500 0.4167 (   790 PWs)   bands (ev):

    -4.7245   0.9672   4.4639   4.4777

          k = 0.0833-0.0833 0.2500 (   793 PWs)   bands (ev):

    -5.6056   3.8008   4.9713   5.1352

          k =-0.0833 0.4167 0.0833 (   793 PWs)   bands (ev):

    -5.1457   2.6054   4.2429   4.2687

          k =-0.2500 0.5833-0.0833 (   786 PWs)   bands (ev):

    -4.2703   0.8172   2.9825   3.8931

          k = 0.5833-0.2500 0.7500 (   786 PWs)   bands (ev):

    -3.2086  -0.8497   2.3905   3.6783

          k = 0.4167-0.0833 0.5833 (   784 PWs)   bands (ev):

    -3.8936   0.1552   2.3649   4.1413

          k = 0.2500 0.0833 0.4167 (   790 PWs)   bands (ev):

    -4.9292   1.8100   3.6517   4.7765

          k =-0.0833 0.7500 0.0833 (   781 PWs)   bands (ev):

    -3.5834  -0.0054   2.9540   3.2746

          k = 0.7500-0.0833 0.9167 (   776 PWs)   bands (ev):

    -2.4368  -1.3016   2.1553   2.8907

          k = 0.5833 0.0833 0.7500 (   782 PWs)   bands (ev):

    -2.8035  -0.9593   1.6882   3.4135

          k = 0.4167 0.2500 0.5833 (   787 PWs)   bands (ev):

    -3.7906  -0.4737   3.2485   4.2330

          k =-0.0833-0.9167 0.0833 (   775 PWs)   bands (ev):

    -2.5203  -1.3072   2.6954   3.0662

          k =-0.2500-0.7500-0.0833 (   780 PWs)   bands (ev):

    -3.4240  -0.2173   2.4563   3.2186

          k =-0.0833-0.5833 0.0833 (   791 PWs)   bands (ev):

    -4.4667   1.3229   3.4741   3.6830

          k =-0.2500 0.2500 0.2500 (   790 PWs)   bands (ev):

    -5.1577   1.8795   4.9950   4.9950

          k =-0.4167 0.4167 0.0833 (   792 PWs)   bands (ev):

    -4.5049   0.9483   2.9467   4.8284

          k = 0.4167-0.4167 0.9167 (   785 PWs)   bands (ev):

    -3.3770  -0.4596   1.8894   4.0754

          k = 0.2500-0.2500 0.7500 (   781 PWs)   bands (ev):

    -3.3247  -0.5372   2.3421   3.6136

          k =-0.2500 0.5833 0.2500 (   789 PWs)   bands (ev):

    -4.0985   0.1744   3.3738   3.9731

          k = 0.5833-0.2500 1.0833 (   779 PWs)   bands (ev):

    -3.1378  -0.5848   1.9881   3.2206

          k = 0.4167-0.0833 0.9167 (   772 PWs)   bands (ev):

    -2.3409  -1.3092   1.8421   2.5844

          k =-0.2500-1.0833 0.2500 (   777 PWs)   bands (ev):

    -2.5448  -1.2074   1.7205   3.4260

          k =-0.4167 0.4167 0.4167 (   778 PWs)   bands (ev):

    -4.0192  -0.5565   4.6157   4.6157

          k = 0.4167-0.4167 1.2500 (   780 PWs)   bands (ev):

    -3.4423  -0.8609   2.8412   4.1962

     highest occupied level (ev):     5.5885

!    total energy              =     -19.19285189 Ry
     Harris-Foulkes estimate   =     -19.19285189 Ry
     estimated scf accuracy    <          3.9E-09 Ry

     The total energy is the sum of the following terms:

     one-electron contribution =       4.76160482 Ry
     hartree contribution      =       1.15603687 Ry
     xc contribution           =      -8.56754374 Ry
     ewald contribution        =     -16.54294985 Ry

     convergence has been achieved in   5 iterations

     Writing output data file silicon.10.42.save

     init_run     :      0.40s CPU      0.55s WALL (       1 calls)
     electrons    :      1.27s CPU      2.04s WALL (       1 calls)

     Called by init_run:
     wfcinit      :      0.08s CPU      0.09s WALL (       1 calls)
     potinit      :      0.02s CPU      0.03s WALL (       1 calls)

     Called by electrons:
     c_bands      :      0.74s CPU      1.16s WALL (       6 calls)
     sum_band     :      0.31s CPU      0.46s WALL (       6 calls)
     v_of_rho     :      0.10s CPU      0.17s WALL (       6 calls)
     newd         :      0.13s CPU      0.25s WALL (       6 calls)
     mix_rho      :      0.01s CPU      0.01s WALL (       6 calls)

     Called by c_bands:
     init_us_2    :      0.05s CPU      0.06s WALL (     364 calls)
     cegterg      :      0.62s CPU      1.00s WALL (     168 calls)

     Called by sum_band:
     sum_band:bec :      0.00s CPU      0.00s WALL (     168 calls)
     addusdens    :      0.13s CPU      0.20s WALL (       6 calls)

     Called by *egterg:
     h_psi        :      0.53s CPU      0.85s WALL (     519 calls)
     s_psi        :      0.04s CPU      0.05s WALL (     519 calls)
     g_psi        :      0.00s CPU      0.00s WALL (     323 calls)
     cdiaghg      :      0.04s CPU      0.06s WALL (     463 calls)

     Called by h_psi:
     h_psi:pot    :      0.53s CPU      0.85s WALL (     519 calls)
     h_psi:calbec :      0.07s CPU      0.12s WALL (     519 calls)
     vloc_psi     :      0.42s CPU      0.67s WALL (     519 calls)
     add_vuspsi   :      0.04s CPU      0.05s WALL (     519 calls)

     General routines
     calbec       :      0.09s CPU      0.16s WALL (     687 calls)
     fft          :      0.07s CPU      0.15s WALL (      96 calls)
     ffts         :      0.00s CPU      0.00s WALL (      12 calls)
     fftw         :      0.41s CPU      0.68s WALL (    4638 calls)
     interpolate  :      0.02s CPU      0.02s WALL (      12 calls)
     davcio       :      0.00s CPU      0.00s WALL (      28 calls)

     Parallel routines
     fft_scatter  :      0.19s CPU      0.48s WALL (    4746 calls)

     PWSCF        :     1.90s CPU         2.96s WALL


   This run was terminated on:  10:15:11  10Nov2017            

=------------------------------------------------------------------------------=
   JOB DONE.
=------------------------------------------------------------------------------=
