
     Program PHONON v.6.1 (svn rev. 13369) starts on  9Nov2017 at 17:46: 8 

     This program is part of the open-source Quantum ESPRESSO suite
     for quantum simulation of materials; please cite
         "P. Giannozzi et al., J. Phys.:Condens. Matter 21 395502 (2009);
          URL http://www.quantum-espresso.org", 
     in publications or presentations arising from this work. More details at
     http://www.quantum-espresso.org/quote

     Parallel version (MPI), running on     4 processors
     R & G space division:  proc/nbgrp/npool/nimage =       4

     Reading data from directory:
     ./silicon.10.406.save

   Info: using nr1, nr2, nr3 values from input

   Info: using nr1, nr2, nr3 values from input

     IMPORTANT: XC functional enforced from input :
     Exchange-correlation      = SLA  PW   PBE  PBE ( 1  4  3  4 0 0)
     Any further DFT definition will be discarded
     Please, verify this is what you really want


     Parallelization info
     --------------------
     sticks:   dense  smooth     PW     G-vecs:    dense   smooth      PW
     Min          66      66     22                  722      722     152
     Max          67      67     23                  724      724     153
     Sum         265     265     91                 2891     2891     609


     Check: negative/imaginary core charge=   -0.000006    0.000000


     Dynamical matrices for ( 4, 4, 4)  uniform grid of q-points
     (   8q-points):
       N         xq(1)         xq(2)         xq(3) 
       1   0.000000000   0.000000000   0.000000000
       2  -0.250000000   0.250000000  -0.250000000
       3   0.500000000  -0.500000000   0.500000000
       4   0.000000000   0.500000000   0.000000000
       5   0.750000000  -0.250000000   0.750000000
       6   0.500000000   0.000000000   0.500000000
       7   0.000000000  -1.000000000   0.000000000
       8  -0.500000000  -1.000000000   0.000000000

     Calculation of q =    0.0000000   0.0000000   0.0000000

                                                                                

     bravais-lattice index     =            2
     lattice parameter (alat)  =      10.4060  a.u.
     unit-cell volume          =     281.7030 (a.u.)^3
     number of atoms/cell      =            2
     number of atomic types    =            1
     kinetic-energy cut-off    =      18.0000  Ry
     charge density cut-off    =      72.0000  Ry
     convergence threshold     =      1.0E-12
     beta                      =       0.7000
     number of iterations used =            4
     Exchange-correlation      = SLA  PW   PBE  PBE ( 1  4  3  4 0 0)


     celldm(1)=   10.40600  celldm(2)=    0.00000  celldm(3)=    0.00000
     celldm(4)=    0.00000  celldm(5)=    0.00000  celldm(6)=    0.00000

     crystal axes: (cart. coord. in units of alat)
               a(1) = ( -0.5000  0.0000  0.5000 )  
               a(2) = (  0.0000  0.5000  0.5000 )  
               a(3) = ( -0.5000  0.5000  0.0000 )  

     reciprocal axes: (cart. coord. in units 2 pi/alat)
               b(1) = ( -1.0000 -1.0000  1.0000 )  
               b(2) = (  1.0000  1.0000  1.0000 )  
               b(3) = ( -1.0000  1.0000 -1.0000 )  


     Atoms inside the unit cell: 

     Cartesian axes

     site n.  atom      mass           positions (alat units)
        1     Si  28.0860   tau(    1) = (    0.00000    0.00000    0.00000  )
        2     Si  28.0860   tau(    2) = (    0.25000    0.25000    0.25000  )

     Computing dynamical matrix for 
                    q = (   0.0000000   0.0000000   0.0000000 )

     49 Sym.Ops. (with q -> -q+G )


     G cutoff =  197.4879  (    722 G-vectors)     FFT grid: ( 20, 20, 20)
     number of k points=    10

     PseudoPot. # 1 for Si read from file:
     /home/max/quantum_espresso/qe-6.1/pseudo/si_pbe_v1.uspp.F.UPF.txt
     MD5 check sum: a056efeee980c13900f22a371efd63c1
     Pseudo is Ultrasoft + core correction, Zval =  4.0
     Generated by new atomic code, or converted to UPF format
     Using radial grid of  899 points,  6 beta functions with: 
                l(1) =   0
                l(2) =   0
                l(3) =   1
                l(4) =   1
                l(5) =   2
                l(6) =   2
     Q(r) pseudized with  8 coefficients,  rinner =    0.900   0.900   0.900
                                                       0.900   0.900

     Mode symmetry, O_h (m-3m)  point group:


     Electric field:
     Dielectric constant
     Born effective charges in two ways 


     Atomic displacements:
     There are   2 irreducible representations

     Representation     1      3 modes -T_2g G_25' G_5+  To be done

     Representation     2      3 modes -T_1u G_15  G_4-  To be done



     Alpha used in Ewald sum =   0.7000
     PHONON       :     0.40s CPU         0.41s WALL


     Electric Fields Calculation

      iter #   1 total cpu time :     1.0 secs   av.it.:   5.6
      thresh= 1.000E-02 alpha_mix =  0.700 |ddv_scf|^2 =  9.593E-07

      iter #   2 total cpu time :     1.3 secs   av.it.:   9.9
      thresh= 9.795E-05 alpha_mix =  0.700 |ddv_scf|^2 =  6.272E-08

      iter #   3 total cpu time :     1.5 secs   av.it.:   9.8
      thresh= 2.504E-05 alpha_mix =  0.700 |ddv_scf|^2 =  4.985E-09

      iter #   4 total cpu time :     1.6 secs   av.it.:   9.0
      thresh= 7.061E-06 alpha_mix =  0.700 |ddv_scf|^2 =  3.023E-11

      iter #   5 total cpu time :     1.8 secs   av.it.:   9.2
      thresh= 5.499E-07 alpha_mix =  0.700 |ddv_scf|^2 =  1.549E-14

     End of electric fields calculation

          Dielectric constant in cartesian axis 

          (      14.036457656      -0.000000000      -0.000000000 )
          (      -0.000000000      14.036457656       0.000000000 )
          (      -0.000000000       0.000000000      14.036457656 )

          Effective charges (d Force / dE) in cartesian axis

           atom      1   Si 
      Ex  (       -0.03347        0.00000        0.00000 )
      Ey  (        0.00000       -0.03347       -0.00000 )
      Ez  (        0.00000       -0.00000       -0.03347 )
           atom      2   Si 
      Ex  (       -0.03347        0.00000        0.00000 )
      Ey  (        0.00000       -0.03347        0.00000 )
      Ez  (        0.00000       -0.00000       -0.03347 )


     Representation #  1 modes #   1  2  3

     Self-consistent Calculation

      iter #   1 total cpu time :     2.2 secs   av.it.:   5.0
      thresh= 1.000E-02 alpha_mix =  0.700 |ddv_scf|^2 =  1.855E-07

      iter #   2 total cpu time :     2.4 secs   av.it.:  10.0
      thresh= 4.307E-05 alpha_mix =  0.700 |ddv_scf|^2 =  1.026E-08

      iter #   3 total cpu time :     2.6 secs   av.it.:   9.5
      thresh= 1.013E-05 alpha_mix =  0.700 |ddv_scf|^2 =  7.096E-10

      iter #   4 total cpu time :     2.8 secs   av.it.:   9.1
      thresh= 2.664E-06 alpha_mix =  0.700 |ddv_scf|^2 =  1.829E-12

      iter #   5 total cpu time :     3.3 secs   av.it.:   9.4
      thresh= 1.353E-07 alpha_mix =  0.700 |ddv_scf|^2 =  1.546E-14

     End of self-consistent calculation

     Convergence has been achieved 


     Representation #  2 modes #   4  5  6

     Self-consistent Calculation

      iter #   1 total cpu time :     3.5 secs   av.it.:   5.0
      thresh= 1.000E-02 alpha_mix =  0.700 |ddv_scf|^2 =  1.931E-07

      iter #   2 total cpu time :     3.7 secs   av.it.:   9.6
      thresh= 4.395E-05 alpha_mix =  0.700 |ddv_scf|^2 =  1.597E-08

      iter #   3 total cpu time :     3.9 secs   av.it.:   9.2
      thresh= 1.264E-05 alpha_mix =  0.700 |ddv_scf|^2 =  9.579E-10

      iter #   4 total cpu time :     4.0 secs   av.it.:   9.5
      thresh= 3.095E-06 alpha_mix =  0.700 |ddv_scf|^2 =  5.577E-12

      iter #   5 total cpu time :     4.2 secs   av.it.:   9.1
      thresh= 2.362E-07 alpha_mix =  0.700 |ddv_scf|^2 =  5.130E-15

     End of self-consistent calculation

     Convergence has been achieved 

     Number of q in the star =    1
     List of q in the star:
          1   0.000000000   0.000000000   0.000000000

          Dielectric constant in cartesian axis 

          (      14.036457656      -0.000000000      -0.000000000 )
          (      -0.000000000      14.036457656       0.000000000 )
          (      -0.000000000       0.000000000      14.036457656 )

          Effective charges (d Force / dE) in cartesian axis

           atom      1   Si 
      Ex  (       -0.03347        0.00000        0.00000 )
      Ey  (        0.00000       -0.03347       -0.00000 )
      Ez  (        0.00000       -0.00000       -0.03347 )
           atom      2   Si 
      Ex  (       -0.03347        0.00000        0.00000 )
      Ey  (        0.00000       -0.03347        0.00000 )
      Ez  (        0.00000       -0.00000       -0.03347 )

          Effective charges (d P / du) in cartesian axis 

           atom      1   Si 
      Px  (       -0.07609        0.00000        0.00000 )
      Py  (        0.00000       -0.07609       -0.00000 )
      Pz  (        0.00000       -0.00000       -0.07609 )
           atom      2   Si 
      Px  (       -0.07609        0.00000       -0.00000 )
      Py  (        0.00000       -0.07609        0.00000 )
      Pz  (       -0.00000       -0.00000       -0.07609 )

     Diagonalizing the dynamical matrix

     q = (    0.000000000   0.000000000   0.000000000 ) 

 **************************************************************************
     freq (    1) =       1.766501 [THz] =      58.924131 [cm-1]
     freq (    2) =       1.766501 [THz] =      58.924131 [cm-1]
     freq (    3) =       1.766501 [THz] =      58.924131 [cm-1]
     freq (    4) =      15.548215 [THz] =     518.632643 [cm-1]
     freq (    5) =      15.548215 [THz] =     518.632643 [cm-1]
     freq (    6) =      15.548215 [THz] =     518.632643 [cm-1]
 **************************************************************************

     Mode symmetry, O_h (m-3m)  point group:

     freq (  1 -  3) =         58.9  [cm-1]   --> T_1u G_15  G_4- I  
     freq (  4 -  6) =        518.6  [cm-1]   --> T_2g G_25' G_5+ R  

     Calculation of q =   -0.2500000   0.2500000  -0.2500000

   Info: using nr1, nr2, nr3 values from input

   Info: using nr1, nr2, nr3 values from input

     Parallelization info
     --------------------
     sticks:   dense  smooth     PW     G-vecs:    dense   smooth      PW
     Min          66      66     27                  722      722     175
     Max          67      67     28                  724      724     176
     Sum         265     265    109                 2891     2891     701



     bravais-lattice index     =            2
     lattice parameter (alat)  =      10.4060  a.u.
     unit-cell volume          =     281.7030 (a.u.)^3
     number of atoms/cell      =            2
     number of atomic types    =            1
     number of electrons       =         8.00
     number of Kohn-Sham states=            4
     kinetic-energy cutoff     =      18.0000  Ry
     charge density cutoff     =      72.0000  Ry
     Exchange-correlation      = SLA  PW   PBE  PBE ( 1  4  3  4 0 0)

     celldm(1)=  10.406000  celldm(2)=   0.000000  celldm(3)=   0.000000
     celldm(4)=   0.000000  celldm(5)=   0.000000  celldm(6)=   0.000000

     crystal axes: (cart. coord. in units of alat)
               a(1) = (  -0.500000   0.000000   0.500000 )  
               a(2) = (   0.000000   0.500000   0.500000 )  
               a(3) = (  -0.500000   0.500000   0.000000 )  

     reciprocal axes: (cart. coord. in units 2 pi/alat)
               b(1) = ( -1.000000 -1.000000  1.000000 )  
               b(2) = (  1.000000  1.000000  1.000000 )  
               b(3) = ( -1.000000  1.000000 -1.000000 )  


     PseudoPot. # 1 for Si read from file:
     /home/max/quantum_espresso/qe-6.1/pseudo/si_pbe_v1.uspp.F.UPF.txt
     MD5 check sum: a056efeee980c13900f22a371efd63c1
     Pseudo is Ultrasoft + core correction, Zval =  4.0
     Generated by new atomic code, or converted to UPF format
     Using radial grid of  899 points,  6 beta functions with: 
                l(1) =   0
                l(2) =   0
                l(3) =   1
                l(4) =   1
                l(5) =   2
                l(6) =   2
     Q(r) pseudized with  8 coefficients,  rinner =    0.900   0.900   0.900
                                                       0.900   0.900

     atomic species   valence    mass     pseudopotential
        Si             4.00    28.08600     Si( 1.00)

     48 Sym. Ops., with inversion, found



   Cartesian axes

     site n.     atom                  positions (alat units)
         1           Si  tau(   1) = (   0.0000000   0.0000000   0.0000000  )
         2           Si  tau(   2) = (   0.2500000   0.2500000   0.2500000  )

     number of k points=   120

     Number of k-points >= 100: set verbosity='high' to print them.

     Dense  grid:     2891 G-vectors     FFT dimensions: (  20,  20,  20)

     Estimated max dynamical RAM per process >       0.33MB

     Estimated total allocated dynamical RAM >       1.33MB

     Check: negative/imaginary core charge=   -0.000006    0.000000

     The potential is recalculated from file :
     ./_ph0/silicon.10.406.save/charge-density.dat

     Starting wfc are    8 atomic wfcs

     Band Structure Calculation
     Davidson diagonalization with overlap

     ethr =  1.25E-10,  avg # of iterations = 11.7

     total cpu time spent up to now is        1.1 secs

     End of band structure calculation

     Number of k-points >= 100: set verbosity='high' to print the bands.

     highest occupied level (ev):     5.4931

     Writing output data file silicon.10.406.save

                                                                                

     bravais-lattice index     =            2
     lattice parameter (alat)  =      10.4060  a.u.
     unit-cell volume          =     281.7030 (a.u.)^3
     number of atoms/cell      =            2
     number of atomic types    =            1
     kinetic-energy cut-off    =      18.0000  Ry
     charge density cut-off    =      72.0000  Ry
     convergence threshold     =      1.0E-12
     beta                      =       0.7000
     number of iterations used =            4
     Exchange-correlation      = SLA  PW   PBE  PBE ( 1  4  3  4 0 0)


     celldm(1)=   10.40600  celldm(2)=    0.00000  celldm(3)=    0.00000
     celldm(4)=    0.00000  celldm(5)=    0.00000  celldm(6)=    0.00000

     crystal axes: (cart. coord. in units of alat)
               a(1) = ( -0.5000  0.0000  0.5000 )  
               a(2) = (  0.0000  0.5000  0.5000 )  
               a(3) = ( -0.5000  0.5000  0.0000 )  

     reciprocal axes: (cart. coord. in units 2 pi/alat)
               b(1) = ( -1.0000 -1.0000  1.0000 )  
               b(2) = (  1.0000  1.0000  1.0000 )  
               b(3) = ( -1.0000  1.0000 -1.0000 )  


     Atoms inside the unit cell: 

     Cartesian axes

     site n.  atom      mass           positions (alat units)
        1     Si  28.0860   tau(    1) = (    0.00000    0.00000    0.00000  )
        2     Si  28.0860   tau(    2) = (    0.25000    0.25000    0.25000  )

     Computing dynamical matrix for 
                    q = (  -0.2500000   0.2500000  -0.2500000 )

      6 Sym.Ops. (no q -> -q+G )


     G cutoff =  197.4879  (    722 G-vectors)     FFT grid: ( 20, 20, 20)
     number of k points=   120

     PseudoPot. # 1 for Si read from file:
     /home/max/quantum_espresso/qe-6.1/pseudo/si_pbe_v1.uspp.F.UPF.txt
     MD5 check sum: a056efeee980c13900f22a371efd63c1
     Pseudo is Ultrasoft + core correction, Zval =  4.0
     Generated by new atomic code, or converted to UPF format
     Using radial grid of  899 points,  6 beta functions with: 
                l(1) =   0
                l(2) =   0
                l(3) =   1
                l(4) =   1
                l(5) =   2
                l(6) =   2
     Q(r) pseudized with  8 coefficients,  rinner =    0.900   0.900   0.900
                                                       0.900   0.900

     Mode symmetry, C_3v (3m)   point group:


     Atomic displacements:
     There are   4 irreducible representations

     Representation     1      1 modes -A_1  L_1  To be done

     Representation     2      1 modes -A_1  L_1  To be done

     Representation     3      2 modes -E    L_3  To be done

     Representation     4      2 modes -E    L_3  To be done



     Alpha used in Ewald sum =   0.7000
     PHONON       :     5.52s CPU         5.78s WALL



     Representation #  1 mode #   1

     Self-consistent Calculation

      iter #   1 total cpu time :     6.0 secs   av.it.:   5.5
      thresh= 1.000E-02 alpha_mix =  0.700 |ddv_scf|^2 =  2.425E-03

      iter #   2 total cpu time :     6.2 secs   av.it.:   7.5
      thresh= 4.924E-03 alpha_mix =  0.700 |ddv_scf|^2 =  3.691E-02

      iter #   3 total cpu time :     6.5 secs   av.it.:   6.3
      thresh= 1.000E-02 alpha_mix =  0.700 |ddv_scf|^2 =  1.691E-06

      iter #   4 total cpu time :     6.7 secs   av.it.:   8.2
      thresh= 1.300E-04 alpha_mix =  0.700 |ddv_scf|^2 =  1.138E-07

      iter #   5 total cpu time :     7.3 secs   av.it.:   8.1
      thresh= 3.373E-05 alpha_mix =  0.700 |ddv_scf|^2 =  4.544E-09

      iter #   6 total cpu time :     7.6 secs   av.it.:   8.1
      thresh= 6.741E-06 alpha_mix =  0.700 |ddv_scf|^2 =  3.280E-09

      iter #   7 total cpu time :     7.8 secs   av.it.:   6.4
      thresh= 5.727E-06 alpha_mix =  0.700 |ddv_scf|^2 =  7.574E-10

      iter #   8 total cpu time :     8.0 secs   av.it.:   7.1
      thresh= 2.752E-06 alpha_mix =  0.700 |ddv_scf|^2 =  4.684E-12

      iter #   9 total cpu time :     8.3 secs   av.it.:   7.1
      thresh= 2.164E-07 alpha_mix =  0.700 |ddv_scf|^2 =  2.335E-13

     End of self-consistent calculation

     Convergence has been achieved 


     Representation #  2 mode #   2

     Self-consistent Calculation

      iter #   1 total cpu time :     8.5 secs   av.it.:   5.5
      thresh= 1.000E-02 alpha_mix =  0.700 |ddv_scf|^2 =  2.425E-03

      iter #   2 total cpu time :     8.8 secs   av.it.:   7.5
      thresh= 4.924E-03 alpha_mix =  0.700 |ddv_scf|^2 =  3.691E-02

      iter #   3 total cpu time :     9.3 secs   av.it.:   6.3
      thresh= 1.000E-02 alpha_mix =  0.700 |ddv_scf|^2 =  1.691E-06

      iter #   4 total cpu time :     9.6 secs   av.it.:   8.2
      thresh= 1.300E-04 alpha_mix =  0.700 |ddv_scf|^2 =  1.138E-07

      iter #   5 total cpu time :     9.8 secs   av.it.:   8.1
      thresh= 3.373E-05 alpha_mix =  0.700 |ddv_scf|^2 =  4.544E-09

      iter #   6 total cpu time :    10.1 secs   av.it.:   8.1
      thresh= 6.741E-06 alpha_mix =  0.700 |ddv_scf|^2 =  3.280E-09

      iter #   7 total cpu time :    10.3 secs   av.it.:   6.4
      thresh= 5.727E-06 alpha_mix =  0.700 |ddv_scf|^2 =  7.574E-10

      iter #   8 total cpu time :    10.6 secs   av.it.:   7.1
      thresh= 2.752E-06 alpha_mix =  0.700 |ddv_scf|^2 =  4.684E-12

      iter #   9 total cpu time :    11.2 secs   av.it.:   7.1
      thresh= 2.164E-07 alpha_mix =  0.700 |ddv_scf|^2 =  2.335E-13

     End of self-consistent calculation

     Convergence has been achieved 


     Representation #  3 modes #   3  4

     Self-consistent Calculation

      iter #   1 total cpu time :    11.6 secs   av.it.:   5.0
      thresh= 1.000E-02 alpha_mix =  0.700 |ddv_scf|^2 =  5.366E-07

      iter #   2 total cpu time :    12.2 secs   av.it.:   9.5
      thresh= 7.325E-05 alpha_mix =  0.700 |ddv_scf|^2 =  4.027E-08

      iter #   3 total cpu time :    12.7 secs   av.it.:   9.3
      thresh= 2.007E-05 alpha_mix =  0.700 |ddv_scf|^2 =  3.470E-09

      iter #   4 total cpu time :    13.6 secs   av.it.:   8.9
      thresh= 5.891E-06 alpha_mix =  0.700 |ddv_scf|^2 =  1.145E-11

      iter #   5 total cpu time :    14.2 secs   av.it.:   9.2
      thresh= 3.384E-07 alpha_mix =  0.700 |ddv_scf|^2 =  5.096E-13

     End of self-consistent calculation

     Convergence has been achieved 


     Representation #  4 modes #   5  6

     Self-consistent Calculation

      iter #   1 total cpu time :    14.6 secs   av.it.:   5.0
      thresh= 1.000E-02 alpha_mix =  0.700 |ddv_scf|^2 =  5.364E-07

      iter #   2 total cpu time :    15.6 secs   av.it.:   9.7
      thresh= 7.324E-05 alpha_mix =  0.700 |ddv_scf|^2 =  4.020E-08

      iter #   3 total cpu time :    16.2 secs   av.it.:   9.4
      thresh= 2.005E-05 alpha_mix =  0.700 |ddv_scf|^2 =  3.465E-09

      iter #   4 total cpu time :    16.8 secs   av.it.:   9.1
      thresh= 5.887E-06 alpha_mix =  0.700 |ddv_scf|^2 =  1.146E-11

      iter #   5 total cpu time :    17.7 secs   av.it.:   9.3
      thresh= 3.386E-07 alpha_mix =  0.700 |ddv_scf|^2 =  5.105E-13

     End of self-consistent calculation

     Convergence has been achieved 

     Number of q in the star =    8
     List of q in the star:
          1  -0.250000000   0.250000000  -0.250000000
          2   0.250000000  -0.250000000  -0.250000000
          3   0.250000000  -0.250000000   0.250000000
          4   0.250000000   0.250000000   0.250000000
          5  -0.250000000  -0.250000000  -0.250000000
          6  -0.250000000  -0.250000000   0.250000000
          7  -0.250000000   0.250000000   0.250000000
          8   0.250000000   0.250000000  -0.250000000

     Diagonalizing the dynamical matrix

     q = (   -0.250000000   0.250000000  -0.250000000 ) 

 **************************************************************************
     freq (    1) =       3.403508 [THz] =     113.528821 [cm-1]
     freq (    2) =       3.403508 [THz] =     113.528821 [cm-1]
     freq (    3) =       6.812528 [THz] =     227.241461 [cm-1]
     freq (    4) =      14.649285 [THz] =     488.647539 [cm-1]
     freq (    5) =      14.922808 [THz] =     497.771285 [cm-1]
     freq (    6) =      14.922808 [THz] =     497.771285 [cm-1]
 **************************************************************************

     Mode symmetry, C_3v (3m)   point group:

     freq (  1 -  2) =        113.5  [cm-1]   --> E    L_3           
     freq (  3 -  3) =        227.2  [cm-1]   --> A_1  L_1           
     freq (  4 -  4) =        488.6  [cm-1]   --> A_1  L_1           
     freq (  5 -  6) =        497.8  [cm-1]   --> E    L_3           

     Calculation of q =    0.5000000  -0.5000000   0.5000000

   Info: using nr1, nr2, nr3 values from input

   Info: using nr1, nr2, nr3 values from input

     Parallelization info
     --------------------
     sticks:   dense  smooth     PW     G-vecs:    dense   smooth      PW
     Min          66      66     27                  722      722     186
     Max          67      67     28                  724      724     189
     Sum         265     265    109                 2891     2891     749



     bravais-lattice index     =            2
     lattice parameter (alat)  =      10.4060  a.u.
     unit-cell volume          =     281.7030 (a.u.)^3
     number of atoms/cell      =            2
     number of atomic types    =            1
     number of electrons       =         8.00
     number of Kohn-Sham states=            4
     kinetic-energy cutoff     =      18.0000  Ry
     charge density cutoff     =      72.0000  Ry
     Exchange-correlation      = SLA  PW   PBE  PBE ( 1  4  3  4 0 0)

     celldm(1)=  10.406000  celldm(2)=   0.000000  celldm(3)=   0.000000
     celldm(4)=   0.000000  celldm(5)=   0.000000  celldm(6)=   0.000000

     crystal axes: (cart. coord. in units of alat)
               a(1) = (  -0.500000   0.000000   0.500000 )  
               a(2) = (   0.000000   0.500000   0.500000 )  
               a(3) = (  -0.500000   0.500000   0.000000 )  

     reciprocal axes: (cart. coord. in units 2 pi/alat)
               b(1) = ( -1.000000 -1.000000  1.000000 )  
               b(2) = (  1.000000  1.000000  1.000000 )  
               b(3) = ( -1.000000  1.000000 -1.000000 )  


     PseudoPot. # 1 for Si read from file:
     /home/max/quantum_espresso/qe-6.1/pseudo/si_pbe_v1.uspp.F.UPF.txt
     MD5 check sum: a056efeee980c13900f22a371efd63c1
     Pseudo is Ultrasoft + core correction, Zval =  4.0
     Generated by new atomic code, or converted to UPF format
     Using radial grid of  899 points,  6 beta functions with: 
                l(1) =   0
                l(2) =   0
                l(3) =   1
                l(4) =   1
                l(5) =   2
                l(6) =   2
     Q(r) pseudized with  8 coefficients,  rinner =    0.900   0.900   0.900
                                                       0.900   0.900

     atomic species   valence    mass     pseudopotential
        Si             4.00    28.08600     Si( 1.00)

     48 Sym. Ops., with inversion, found



   Cartesian axes

     site n.     atom                  positions (alat units)
         1           Si  tau(   1) = (   0.0000000   0.0000000   0.0000000  )
         2           Si  tau(   2) = (   0.2500000   0.2500000   0.2500000  )

     number of k points=    60
                       cart. coord. in units 2pi/alat
        k(    1) = (  -0.1250000   0.1250000   0.1250000), wk =   0.0468750
        k(    2) = (   0.3750000  -0.3750000   0.6250000), wk =   0.0000000
        k(    3) = (  -0.3750000   0.3750000  -0.1250000), wk =   0.0468750
        k(    4) = (   0.1250000  -0.1250000   0.3750000), wk =   0.0000000
        k(    5) = (   0.3750000  -0.3750000   0.6250000), wk =   0.0468750
        k(    6) = (   0.8750000  -0.8750000   1.1250000), wk =   0.0000000
        k(    7) = (   0.1250000  -0.1250000   0.3750000), wk =   0.0468750
        k(    8) = (   0.6250000  -0.6250000   0.8750000), wk =   0.0000000
        k(    9) = (  -0.1250000   0.6250000   0.1250000), wk =   0.0937500
        k(   10) = (   0.3750000   0.1250000   0.6250000), wk =   0.0000000
        k(   11) = (   0.6250000  -0.1250000   0.8750000), wk =   0.0937500
        k(   12) = (   1.1250000  -0.6250000   1.3750000), wk =   0.0000000
        k(   13) = (   0.3750000   0.1250000   0.6250000), wk =   0.0937500
        k(   14) = (   0.8750000  -0.3750000   1.1250000), wk =   0.0000000
        k(   15) = (  -0.1250000  -0.8750000   0.1250000), wk =   0.0937500
        k(   16) = (   0.3750000  -1.3750000   0.6250000), wk =   0.0000000
        k(   17) = (  -0.3750000   0.3750000   0.3750000), wk =   0.0468750
        k(   18) = (   0.1250000  -0.1250000   0.8750000), wk =   0.0000000
        k(   19) = (   0.3750000  -0.3750000   1.1250000), wk =   0.0468750
        k(   20) = (   0.8750000  -0.8750000   1.6250000), wk =   0.0000000
        k(   21) = (   0.1250000  -0.1250000   0.1250000), wk =   0.0156250
        k(   22) = (   0.6250000  -0.6250000   0.6250000), wk =   0.0000000
        k(   23) = (  -0.3750000  -0.3750000  -0.1250000), wk =   0.0937500
        k(   24) = (   0.1250000  -0.8750000   0.3750000), wk =   0.0000000
        k(   25) = (  -0.1250000  -0.3750000   0.3750000), wk =   0.0468750
        k(   26) = (   0.3750000  -0.8750000   0.8750000), wk =   0.0000000
        k(   27) = (   0.3750000   0.3750000   0.6250000), wk =   0.0937500
        k(   28) = (   0.8750000  -0.1250000   1.1250000), wk =   0.0000000
        k(   29) = (   0.6250000   0.3750000  -0.3750000), wk =   0.0468750
        k(   30) = (   1.1250000  -0.1250000   0.1250000), wk =   0.0000000
        k(   31) = (   0.1250000   0.1250000   0.3750000), wk =   0.0937500
        k(   32) = (   0.6250000  -0.3750000   0.8750000), wk =   0.0000000
        k(   33) = (   0.3750000   0.1250000  -0.1250000), wk =   0.0468750
        k(   34) = (   0.8750000  -0.3750000   0.3750000), wk =   0.0000000
        k(   35) = (  -0.1250000  -0.6250000  -0.1250000), wk =   0.0468750
        k(   36) = (   0.3750000  -1.1250000   0.3750000), wk =   0.0000000
        k(   37) = (   0.1250000  -0.6250000   0.1250000), wk =   0.0468750
        k(   38) = (   0.6250000  -1.1250000   0.6250000), wk =   0.0000000
        k(   39) = (   0.6250000   0.1250000   0.8750000), wk =   0.0937500
        k(   40) = (   1.1250000  -0.3750000   1.3750000), wk =   0.0000000
        k(   41) = (  -0.8750000   0.1250000   0.6250000), wk =   0.0937500
        k(   42) = (  -0.3750000  -0.3750000   1.1250000), wk =   0.0000000
        k(   43) = (   0.8750000   0.1250000  -0.6250000), wk =   0.0937500
        k(   44) = (   1.3750000  -0.3750000  -0.1250000), wk =   0.0000000
        k(   45) = (   0.3750000  -0.1250000   0.6250000), wk =   0.0937500
        k(   46) = (   0.8750000  -0.6250000   1.1250000), wk =   0.0000000
        k(   47) = (  -0.6250000  -0.1250000   0.3750000), wk =   0.0937500
        k(   48) = (  -0.1250000  -0.6250000   0.8750000), wk =   0.0000000
        k(   49) = (   0.6250000  -0.1250000  -0.3750000), wk =   0.0937500
        k(   50) = (   1.1250000  -0.6250000   0.1250000), wk =   0.0000000
        k(   51) = (  -0.1250000   0.8750000  -0.1250000), wk =   0.0468750
        k(   52) = (   0.3750000   0.3750000   0.3750000), wk =   0.0000000
        k(   53) = (   0.1250000   0.8750000   0.1250000), wk =   0.0468750
        k(   54) = (   0.6250000   0.3750000   0.6250000), wk =   0.0000000
        k(   55) = (   0.3750000  -0.3750000   0.3750000), wk =   0.0156250
        k(   56) = (   0.8750000  -0.8750000   0.8750000), wk =   0.0000000
        k(   57) = (   0.3750000   0.3750000   1.1250000), wk =   0.0937500
        k(   58) = (   0.8750000  -0.1250000   1.6250000), wk =   0.0000000
        k(   59) = (   1.1250000   0.3750000  -0.3750000), wk =   0.0468750
        k(   60) = (   1.6250000  -0.1250000   0.1250000), wk =   0.0000000

     Dense  grid:     2891 G-vectors     FFT dimensions: (  20,  20,  20)

     Estimated max dynamical RAM per process >       0.33MB

     Estimated total allocated dynamical RAM >       1.33MB

     Check: negative/imaginary core charge=   -0.000006    0.000000

     The potential is recalculated from file :
     ./_ph0/silicon.10.406.save/charge-density.dat

     Starting wfc are    8 atomic wfcs

     Band Structure Calculation
     Davidson diagonalization with overlap

     ethr =  1.25E-10,  avg # of iterations = 11.7

     total cpu time spent up to now is        1.6 secs

     End of band structure calculation

          k =-0.1250 0.1250 0.1250 (   353 PWs)   bands (ev):

    -5.7070   4.1817   5.4931   5.4931

          k = 0.3750-0.3750 0.6250 (   364 PWs)   bands (ev):

    -3.5950  -0.8022   3.5568   4.2640

          k =-0.3750 0.3750-0.1250 (   362 PWs)   bands (ev):

    -4.7025   1.2249   3.5479   5.0167

          k = 0.1250-0.1250 0.3750 (   358 PWs)   bands (ev):

    -5.1898   2.5732   4.5085   4.5601

          k = 0.3750-0.3750 0.6250 (   364 PWs)   bands (ev):

    -3.5950  -0.8022   3.5568   4.2640

          k = 0.8750-0.8750 1.1250 (   353 PWs)   bands (ev):

    -5.7070   4.1817   5.4931   5.4931

          k = 0.1250-0.1250 0.3750 (   358 PWs)   bands (ev):

    -5.1898   2.5732   4.5085   4.5601

          k = 0.6250-0.6250 0.8750 (   362 PWs)   bands (ev):

    -4.7025   1.2249   3.5479   5.0167

          k =-0.1250 0.6250 0.1250 (   357 PWs)   bands (ev):

    -4.1797   0.8683   3.2120   3.6513

          k = 0.3750 0.1250 0.6250 (   365 PWs)   bands (ev):

    -3.7761   0.0260   2.5810   3.9219

          k = 0.6250-0.1250 0.8750 (   368 PWs)   bands (ev):

    -2.5812  -1.0616   1.8993   2.9468

          k = 1.1250-0.6250 1.3750 (   362 PWs)   bands (ev):

    -4.7025   1.2249   3.5479   5.0167

          k = 0.3750 0.1250 0.6250 (   365 PWs)   bands (ev):

    -3.7761   0.0260   2.5810   3.9219

          k = 0.8750-0.3750 1.1250 (   357 PWs)   bands (ev):

    -4.1797   0.8683   3.2120   3.6513

          k =-0.1250-0.8750 0.1250 (   364 PWs)   bands (ev):

    -2.7389  -0.9692   2.4908   3.1928

          k = 0.3750-1.3750 0.6250 (   364 PWs)   bands (ev):

    -3.5950  -0.8022   3.5568   4.2640

          k =-0.3750 0.3750 0.3750 (   359 PWs)   bands (ev):

    -4.2812  -0.0282   4.7164   4.7164

          k = 0.1250-0.1250 0.8750 (   364 PWs)   bands (ev):

    -2.7389  -0.9692   2.4908   3.1928

          k = 0.3750-0.3750 1.1250 (   369 PWs)   bands (ev):

    -3.1089  -0.7454   1.9473   3.9550

          k = 0.8750-0.8750 1.6250 (   357 PWs)   bands (ev):

    -4.1797   0.8683   3.2120   3.6513

          k = 0.1250-0.1250 0.1250 (   353 PWs)   bands (ev):

    -5.7070   4.1817   5.4931   5.4931

          k = 0.6250-0.6250 0.6250 (   359 PWs)   bands (ev):

    -4.2812  -0.0282   4.7164   4.7164

          k =-0.3750-0.3750-0.1250 (   362 PWs)   bands (ev):

    -4.7025   1.2249   3.5479   5.0167

          k = 0.1250-0.8750 0.3750 (   368 PWs)   bands (ev):

    -2.5812  -1.0616   1.8993   2.9468

          k =-0.1250-0.3750 0.3750 (   362 PWs)   bands (ev):

    -4.7025   1.2249   3.5479   5.0167

          k = 0.3750-0.8750 0.8750 (   357 PWs)   bands (ev):

    -4.1797   0.8683   3.2120   3.6513

          k = 0.3750 0.3750 0.6250 (   364 PWs)   bands (ev):

    -3.5950  -0.8022   3.5568   4.2640

          k = 0.8750-0.1250 1.1250 (   364 PWs)   bands (ev):

    -2.7389  -0.9692   2.4908   3.1928

          k = 0.6250 0.3750-0.3750 (   364 PWs)   bands (ev):

    -3.5950  -0.8022   3.5568   4.2640

          k = 1.1250-0.1250 0.1250 (   364 PWs)   bands (ev):

    -2.7389  -0.9692   2.4908   3.1928

          k = 0.1250 0.1250 0.3750 (   358 PWs)   bands (ev):

    -5.1898   2.5732   4.5085   4.5601

          k = 0.6250-0.3750 0.8750 (   365 PWs)   bands (ev):

    -3.7761   0.0260   2.5810   3.9219

          k = 0.3750 0.1250-0.1250 (   358 PWs)   bands (ev):

    -5.1898   2.5732   4.5085   4.5601

          k = 0.8750-0.3750 0.3750 (   369 PWs)   bands (ev):

    -3.1089  -0.7454   1.9473   3.9550

          k =-0.1250-0.6250-0.1250 (   357 PWs)   bands (ev):

    -4.1797   0.8683   3.2120   3.6513

          k = 0.3750-1.1250 0.3750 (   369 PWs)   bands (ev):

    -3.1089  -0.7454   1.9473   3.9550

          k = 0.1250-0.6250 0.1250 (   357 PWs)   bands (ev):

    -4.1797   0.8683   3.2120   3.6513

          k = 0.6250-1.1250 0.6250 (   362 PWs)   bands (ev):

    -4.7025   1.2249   3.5479   5.0167

          k = 0.6250 0.1250 0.8750 (   368 PWs)   bands (ev):

    -2.5812  -1.0616   1.8993   2.9468

          k = 1.1250-0.3750 1.3750 (   365 PWs)   bands (ev):

    -3.7761   0.0260   2.5810   3.9219

          k =-0.8750 0.1250 0.6250 (   368 PWs)   bands (ev):

    -2.5812  -1.0616   1.8993   2.9468

          k =-0.3750-0.3750 1.1250 (   369 PWs)   bands (ev):

    -3.1089  -0.7454   1.9473   3.9550

          k = 0.8750 0.1250-0.6250 (   368 PWs)   bands (ev):

    -2.5812  -1.0616   1.8993   2.9468

          k = 1.3750-0.3750-0.1250 (   365 PWs)   bands (ev):

    -3.7761   0.0260   2.5810   3.9219

          k = 0.3750-0.1250 0.6250 (   365 PWs)   bands (ev):

    -3.7761   0.0260   2.5810   3.9219

          k = 0.8750-0.6250 1.1250 (   358 PWs)   bands (ev):

    -5.1898   2.5732   4.5085   4.5601

          k =-0.6250-0.1250 0.3750 (   365 PWs)   bands (ev):

    -3.7761   0.0260   2.5810   3.9219

          k =-0.1250-0.6250 0.8750 (   368 PWs)   bands (ev):

    -2.5812  -1.0616   1.8993   2.9468

          k = 0.6250-0.1250-0.3750 (   365 PWs)   bands (ev):

    -3.7761   0.0260   2.5810   3.9219

          k = 1.1250-0.6250 0.1250 (   368 PWs)   bands (ev):

    -2.5812  -1.0616   1.8993   2.9468

          k =-0.1250 0.8750-0.1250 (   364 PWs)   bands (ev):

    -2.7389  -0.9692   2.4908   3.1928

          k = 0.3750 0.3750 0.3750 (   359 PWs)   bands (ev):

    -4.2812  -0.0282   4.7164   4.7164

          k = 0.1250 0.8750 0.1250 (   364 PWs)   bands (ev):

    -2.7389  -0.9692   2.4908   3.1928

          k = 0.6250 0.3750 0.6250 (   364 PWs)   bands (ev):

    -3.5950  -0.8022   3.5568   4.2640

          k = 0.3750-0.3750 0.3750 (   359 PWs)   bands (ev):

    -4.2812  -0.0282   4.7164   4.7164

          k = 0.8750-0.8750 0.8750 (   353 PWs)   bands (ev):

    -5.7070   4.1817   5.4931   5.4931

          k = 0.3750 0.3750 1.1250 (   369 PWs)   bands (ev):

    -3.1089  -0.7454   1.9473   3.9550

          k = 0.8750-0.1250 1.6250 (   368 PWs)   bands (ev):

    -2.5812  -1.0616   1.8993   2.9468

          k = 1.1250 0.3750-0.3750 (   369 PWs)   bands (ev):

    -3.1089  -0.7454   1.9473   3.9550

          k = 1.6250-0.1250 0.1250 (   358 PWs)   bands (ev):

    -5.1898   2.5732   4.5085   4.5601

     highest occupied level (ev):     5.4931

     Writing output data file silicon.10.406.save

                                                                                

     bravais-lattice index     =            2
     lattice parameter (alat)  =      10.4060  a.u.
     unit-cell volume          =     281.7030 (a.u.)^3
     number of atoms/cell      =            2
     number of atomic types    =            1
     kinetic-energy cut-off    =      18.0000  Ry
     charge density cut-off    =      72.0000  Ry
     convergence threshold     =      1.0E-12
     beta                      =       0.7000
     number of iterations used =            4
     Exchange-correlation      = SLA  PW   PBE  PBE ( 1  4  3  4 0 0)


     celldm(1)=   10.40600  celldm(2)=    0.00000  celldm(3)=    0.00000
     celldm(4)=    0.00000  celldm(5)=    0.00000  celldm(6)=    0.00000

     crystal axes: (cart. coord. in units of alat)
               a(1) = ( -0.5000  0.0000  0.5000 )  
               a(2) = (  0.0000  0.5000  0.5000 )  
               a(3) = ( -0.5000  0.5000  0.0000 )  

     reciprocal axes: (cart. coord. in units 2 pi/alat)
               b(1) = ( -1.0000 -1.0000  1.0000 )  
               b(2) = (  1.0000  1.0000  1.0000 )  
               b(3) = ( -1.0000  1.0000 -1.0000 )  


     Atoms inside the unit cell: 

     Cartesian axes

     site n.  atom      mass           positions (alat units)
        1     Si  28.0860   tau(    1) = (    0.00000    0.00000    0.00000  )
        2     Si  28.0860   tau(    2) = (    0.25000    0.25000    0.25000  )

     Computing dynamical matrix for 
                    q = (   0.5000000  -0.5000000   0.5000000 )

     13 Sym.Ops. (with q -> -q+G )


     G cutoff =  197.4879  (    722 G-vectors)     FFT grid: ( 20, 20, 20)
     number of k points=    60

     PseudoPot. # 1 for Si read from file:
     /home/max/quantum_espresso/qe-6.1/pseudo/si_pbe_v1.uspp.F.UPF.txt
     MD5 check sum: a056efeee980c13900f22a371efd63c1
     Pseudo is Ultrasoft + core correction, Zval =  4.0
     Generated by new atomic code, or converted to UPF format
     Using radial grid of  899 points,  6 beta functions with: 
                l(1) =   0
                l(2) =   0
                l(3) =   1
                l(4) =   1
                l(5) =   2
                l(6) =   2
     Q(r) pseudized with  8 coefficients,  rinner =    0.900   0.900   0.900
                                                       0.900   0.900


     Atomic displacements:
     There are   4 irreducible representations

     Representation     1      1 modes -  To be done

     Representation     2      1 modes -  To be done

     Representation     3      2 modes -  To be done

     Representation     4      2 modes -  To be done



     Alpha used in Ewald sum =   0.7000
     PHONON       :    17.03s CPU        18.42s WALL



     Representation #  1 mode #   1

     Self-consistent Calculation

      iter #   1 total cpu time :    18.5 secs   av.it.:   4.8
      thresh= 1.000E-02 alpha_mix =  0.700 |ddv_scf|^2 =  2.427E-05

      iter #   2 total cpu time :    18.7 secs   av.it.:   8.4
      thresh= 4.926E-04 alpha_mix =  0.700 |ddv_scf|^2 =  2.221E-05

      iter #   3 total cpu time :    18.9 secs   av.it.:   7.5
      thresh= 4.712E-04 alpha_mix =  0.700 |ddv_scf|^2 =  3.825E-08

      iter #   4 total cpu time :    19.3 secs   av.it.:   7.6
      thresh= 1.956E-05 alpha_mix =  0.700 |ddv_scf|^2 =  1.446E-10

      iter #   5 total cpu time :    19.4 secs   av.it.:   7.9
      thresh= 1.202E-06 alpha_mix =  0.700 |ddv_scf|^2 =  4.143E-12

      iter #   6 total cpu time :    19.6 secs   av.it.:   7.7
      thresh= 2.035E-07 alpha_mix =  0.700 |ddv_scf|^2 =  7.398E-14

     End of self-consistent calculation

     Convergence has been achieved 


     Representation #  2 mode #   2

     Self-consistent Calculation

      iter #   1 total cpu time :    19.7 secs   av.it.:   5.7
      thresh= 1.000E-02 alpha_mix =  0.700 |ddv_scf|^2 =  3.406E-04

      iter #   2 total cpu time :    19.8 secs   av.it.:   8.3
      thresh= 1.846E-03 alpha_mix =  0.700 |ddv_scf|^2 =  1.054E-03

      iter #   3 total cpu time :    20.0 secs   av.it.:   7.1
      thresh= 3.246E-03 alpha_mix =  0.700 |ddv_scf|^2 =  1.460E-07

      iter #   4 total cpu time :    20.1 secs   av.it.:   8.2
      thresh= 3.821E-05 alpha_mix =  0.700 |ddv_scf|^2 =  1.003E-08

      iter #   5 total cpu time :    20.3 secs   av.it.:   8.4
      thresh= 1.002E-05 alpha_mix =  0.700 |ddv_scf|^2 =  1.626E-10

      iter #   6 total cpu time :    20.4 secs   av.it.:   8.2
      thresh= 1.275E-06 alpha_mix =  0.700 |ddv_scf|^2 =  3.883E-12

      iter #   7 total cpu time :    20.5 secs   av.it.:   7.5
      thresh= 1.970E-07 alpha_mix =  0.700 |ddv_scf|^2 =  1.760E-14

     End of self-consistent calculation

     Convergence has been achieved 


     Representation #  3 modes #   3  4

     Self-consistent Calculation

      iter #   1 total cpu time :    20.8 secs   av.it.:   4.7
      thresh= 1.000E-02 alpha_mix =  0.700 |ddv_scf|^2 =  3.423E-07

      iter #   2 total cpu time :    21.4 secs   av.it.:   9.0
      thresh= 5.851E-05 alpha_mix =  0.700 |ddv_scf|^2 =  2.954E-08

      iter #   3 total cpu time :    21.7 secs   av.it.:   8.4
      thresh= 1.719E-05 alpha_mix =  0.700 |ddv_scf|^2 =  5.137E-10

      iter #   4 total cpu time :    22.0 secs   av.it.:   8.9
      thresh= 2.267E-06 alpha_mix =  0.700 |ddv_scf|^2 =  6.459E-12

      iter #   5 total cpu time :    22.2 secs   av.it.:   8.7
      thresh= 2.541E-07 alpha_mix =  0.700 |ddv_scf|^2 =  3.601E-14

     End of self-consistent calculation

     Convergence has been achieved 


     Representation #  4 modes #   5  6

     Self-consistent Calculation

      iter #   1 total cpu time :    22.5 secs   av.it.:   5.0
      thresh= 1.000E-02 alpha_mix =  0.700 |ddv_scf|^2 =  9.421E-07

      iter #   2 total cpu time :    22.8 secs   av.it.:   9.5
      thresh= 9.706E-05 alpha_mix =  0.700 |ddv_scf|^2 =  7.492E-08

      iter #   3 total cpu time :    23.4 secs   av.it.:   9.3
      thresh= 2.737E-05 alpha_mix =  0.700 |ddv_scf|^2 =  4.486E-09

      iter #   4 total cpu time :    23.7 secs   av.it.:   8.5
      thresh= 6.698E-06 alpha_mix =  0.700 |ddv_scf|^2 =  6.549E-12

      iter #   5 total cpu time :    24.0 secs   av.it.:   8.8
      thresh= 2.559E-07 alpha_mix =  0.700 |ddv_scf|^2 =  2.571E-14

     End of self-consistent calculation

     Convergence has been achieved 

     Number of q in the star =    4
     List of q in the star:
          1   0.500000000  -0.500000000   0.500000000
          2   0.500000000   0.500000000   0.500000000
          3  -0.500000000   0.500000000   0.500000000
          4   0.500000000   0.500000000  -0.500000000

     Diagonalizing the dynamical matrix

     q = (    0.500000000  -0.500000000   0.500000000 ) 

 **************************************************************************
     freq (    1) =       5.109590 [THz] =     170.437570 [cm-1]
     freq (    2) =       5.109590 [THz] =     170.437570 [cm-1]
     freq (    3) =      11.891671 [THz] =     396.663463 [cm-1]
     freq (    4) =      12.177803 [THz] =     406.207795 [cm-1]
     freq (    5) =      14.688586 [THz] =     489.958482 [cm-1]
     freq (    6) =      14.688586 [THz] =     489.958482 [cm-1]
 **************************************************************************

     Calculation of q =    0.0000000   0.5000000   0.0000000

   Info: using nr1, nr2, nr3 values from input

   Info: using nr1, nr2, nr3 values from input

     Parallelization info
     --------------------
     sticks:   dense  smooth     PW     G-vecs:    dense   smooth      PW
     Min          66      66     27                  722      722     181
     Max          67      67     28                  724      724     182
     Sum         265     265    109                 2891     2891     725



     bravais-lattice index     =            2
     lattice parameter (alat)  =      10.4060  a.u.
     unit-cell volume          =     281.7030 (a.u.)^3
     number of atoms/cell      =            2
     number of atomic types    =            1
     number of electrons       =         8.00
     number of Kohn-Sham states=            4
     kinetic-energy cutoff     =      18.0000  Ry
     charge density cutoff     =      72.0000  Ry
     Exchange-correlation      = SLA  PW   PBE  PBE ( 1  4  3  4 0 0)

     celldm(1)=  10.406000  celldm(2)=   0.000000  celldm(3)=   0.000000
     celldm(4)=   0.000000  celldm(5)=   0.000000  celldm(6)=   0.000000

     crystal axes: (cart. coord. in units of alat)
               a(1) = (  -0.500000   0.000000   0.500000 )  
               a(2) = (   0.000000   0.500000   0.500000 )  
               a(3) = (  -0.500000   0.500000   0.000000 )  

     reciprocal axes: (cart. coord. in units 2 pi/alat)
               b(1) = ( -1.000000 -1.000000  1.000000 )  
               b(2) = (  1.000000  1.000000  1.000000 )  
               b(3) = ( -1.000000  1.000000 -1.000000 )  


     PseudoPot. # 1 for Si read from file:
     /home/max/quantum_espresso/qe-6.1/pseudo/si_pbe_v1.uspp.F.UPF.txt
     MD5 check sum: a056efeee980c13900f22a371efd63c1
     Pseudo is Ultrasoft + core correction, Zval =  4.0
     Generated by new atomic code, or converted to UPF format
     Using radial grid of  899 points,  6 beta functions with: 
                l(1) =   0
                l(2) =   0
                l(3) =   1
                l(4) =   1
                l(5) =   2
                l(6) =   2
     Q(r) pseudized with  8 coefficients,  rinner =    0.900   0.900   0.900
                                                       0.900   0.900

     atomic species   valence    mass     pseudopotential
        Si             4.00    28.08600     Si( 1.00)

     48 Sym. Ops., with inversion, found



   Cartesian axes

     site n.     atom                  positions (alat units)
         1           Si  tau(   1) = (   0.0000000   0.0000000   0.0000000  )
         2           Si  tau(   2) = (   0.2500000   0.2500000   0.2500000  )

     number of k points=    80
                       cart. coord. in units 2pi/alat
        k(    1) = (  -0.1250000   0.1250000   0.1250000), wk =   0.0312500
        k(    2) = (  -0.1250000   0.6250000   0.1250000), wk =   0.0000000
        k(    3) = (  -0.3750000   0.3750000  -0.1250000), wk =   0.0625000
        k(    4) = (  -0.3750000   0.8750000  -0.1250000), wk =   0.0000000
        k(    5) = (   0.3750000  -0.3750000   0.6250000), wk =   0.0625000
        k(    6) = (   0.3750000   0.1250000   0.6250000), wk =   0.0000000
        k(    7) = (   0.1250000  -0.1250000   0.3750000), wk =   0.0625000
        k(    8) = (   0.1250000   0.3750000   0.3750000), wk =   0.0000000
        k(    9) = (  -0.1250000   0.6250000   0.1250000), wk =   0.0312500
        k(   10) = (  -0.1250000   1.1250000   0.1250000), wk =   0.0000000
        k(   11) = (   0.6250000  -0.1250000   0.8750000), wk =   0.0625000
        k(   12) = (   0.6250000   0.3750000   0.8750000), wk =   0.0000000
        k(   13) = (   0.3750000   0.1250000   0.6250000), wk =   0.0625000
        k(   14) = (   0.3750000   0.6250000   0.6250000), wk =   0.0000000
        k(   15) = (  -0.1250000  -0.8750000   0.1250000), wk =   0.0312500
        k(   16) = (  -0.1250000  -0.3750000   0.1250000), wk =   0.0000000
        k(   17) = (  -0.3750000   0.3750000   0.3750000), wk =   0.0312500
        k(   18) = (  -0.3750000   0.8750000   0.3750000), wk =   0.0000000
        k(   19) = (   0.3750000  -0.3750000   1.1250000), wk =   0.0625000
        k(   20) = (   0.3750000   0.1250000   1.1250000), wk =   0.0000000
        k(   21) = (  -0.1250000  -0.1250000   0.1250000), wk =   0.0312500
        k(   22) = (  -0.1250000   0.3750000   0.1250000), wk =   0.0000000
        k(   23) = (   0.1250000  -0.3750000   0.3750000), wk =   0.0625000
        k(   24) = (   0.1250000   0.1250000   0.3750000), wk =   0.0000000
        k(   25) = (   0.3750000  -0.1250000   0.3750000), wk =   0.0312500
        k(   26) = (   0.3750000   0.3750000   0.3750000), wk =   0.0000000
        k(   27) = (   0.3750000   0.1250000   0.3750000), wk =   0.0312500
        k(   28) = (   0.3750000   0.6250000   0.3750000), wk =   0.0000000
        k(   29) = (  -0.6250000   0.3750000  -0.3750000), wk =   0.0625000
        k(   30) = (  -0.6250000   0.8750000  -0.3750000), wk =   0.0000000
        k(   31) = (  -0.3750000   0.6250000  -0.3750000), wk =   0.0312500
        k(   32) = (  -0.3750000   1.1250000  -0.3750000), wk =   0.0000000
        k(   33) = (  -0.3750000  -0.6250000  -0.3750000), wk =   0.0312500
        k(   34) = (  -0.3750000  -0.1250000  -0.3750000), wk =   0.0000000
        k(   35) = (  -0.3750000   0.1250000  -0.1250000), wk =   0.0625000
        k(   36) = (  -0.3750000   0.6250000  -0.1250000), wk =   0.0000000
        k(   37) = (  -0.1250000   0.3750000  -0.1250000), wk =   0.0312500
        k(   38) = (  -0.1250000   0.8750000  -0.1250000), wk =   0.0000000
        k(   39) = (  -0.1250000  -0.3750000  -0.1250000), wk =   0.0312500
        k(   40) = (  -0.1250000   0.1250000  -0.1250000), wk =   0.0000000
        k(   41) = (  -0.1250000  -0.6250000   0.1250000), wk =   0.0312500
        k(   42) = (  -0.1250000  -0.1250000   0.1250000), wk =   0.0000000
        k(   43) = (   0.6250000  -0.1250000  -0.1250000), wk =   0.0625000
        k(   44) = (   0.6250000   0.3750000  -0.1250000), wk =   0.0000000
        k(   45) = (   0.6250000   0.1250000   0.1250000), wk =   0.0625000
        k(   46) = (   0.6250000   0.6250000   0.1250000), wk =   0.0000000
        k(   47) = (  -0.8750000   0.1250000  -0.6250000), wk =   0.0625000
        k(   48) = (  -0.8750000   0.6250000  -0.6250000), wk =   0.0000000
        k(   49) = (  -0.1250000   0.6250000  -0.8750000), wk =   0.0625000
        k(   50) = (  -0.1250000   1.1250000  -0.8750000), wk =   0.0000000
        k(   51) = (  -0.1250000   0.8750000  -0.6250000), wk =   0.0625000
        k(   52) = (  -0.1250000   1.3750000  -0.6250000), wk =   0.0000000
        k(   53) = (  -0.1250000  -0.8750000  -0.6250000), wk =   0.0625000
        k(   54) = (  -0.1250000  -0.3750000  -0.6250000), wk =   0.0000000
        k(   55) = (   0.8750000  -0.6250000   0.1250000), wk =   0.0625000
        k(   56) = (   0.8750000  -0.1250000   0.1250000), wk =   0.0000000
        k(   57) = (  -0.6250000  -0.1250000  -0.3750000), wk =   0.0625000
        k(   58) = (  -0.6250000   0.3750000  -0.3750000), wk =   0.0000000
        k(   59) = (   0.1250000   0.3750000  -0.6250000), wk =   0.0625000
        k(   60) = (   0.1250000   0.8750000  -0.6250000), wk =   0.0000000
        k(   61) = (   0.1250000   0.6250000  -0.3750000), wk =   0.0625000
        k(   62) = (   0.1250000   1.1250000  -0.3750000), wk =   0.0000000
        k(   63) = (   0.1250000  -0.6250000  -0.3750000), wk =   0.0625000
        k(   64) = (   0.1250000  -0.1250000  -0.3750000), wk =   0.0000000
        k(   65) = (   0.6250000  -0.3750000  -0.1250000), wk =   0.0625000
        k(   66) = (   0.6250000   0.1250000  -0.1250000), wk =   0.0000000
        k(   67) = (  -0.1250000   0.8750000   0.1250000), wk =   0.0312500
        k(   68) = (  -0.1250000   1.3750000   0.1250000), wk =   0.0000000
        k(   69) = (  -0.8750000  -0.1250000  -0.1250000), wk =   0.0625000
        k(   70) = (  -0.8750000   0.3750000  -0.1250000), wk =   0.0000000
        k(   71) = (  -0.8750000   0.1250000   0.1250000), wk =   0.0625000
        k(   72) = (  -0.8750000   0.6250000   0.1250000), wk =   0.0000000
        k(   73) = (  -0.3750000  -0.3750000   0.3750000), wk =   0.0312500
        k(   74) = (  -0.3750000   0.1250000   0.3750000), wk =   0.0000000
        k(   75) = (  -1.1250000   0.3750000  -0.3750000), wk =   0.0625000
        k(   76) = (  -1.1250000   0.8750000  -0.3750000), wk =   0.0000000
        k(   77) = (  -0.3750000   1.1250000  -0.3750000), wk =   0.0312500
        k(   78) = (  -0.3750000   1.6250000  -0.3750000), wk =   0.0000000
        k(   79) = (  -0.3750000  -1.1250000  -0.3750000), wk =   0.0312500
        k(   80) = (  -0.3750000  -0.6250000  -0.3750000), wk =   0.0000000

     Dense  grid:     2891 G-vectors     FFT dimensions: (  20,  20,  20)

     Estimated max dynamical RAM per process >       0.33MB

     Estimated total allocated dynamical RAM >       1.33MB

     Check: negative/imaginary core charge=   -0.000006    0.000000

     The potential is recalculated from file :
     ./_ph0/silicon.10.406.save/charge-density.dat

     Starting wfc are    8 atomic wfcs

     Band Structure Calculation
     Davidson diagonalization with overlap

     ethr =  1.25E-10,  avg # of iterations = 11.7

     total cpu time spent up to now is        2.2 secs

     End of band structure calculation

          k =-0.1250 0.1250 0.1250 (   353 PWs)   bands (ev):

    -5.7070   4.1817   5.4931   5.4931

          k =-0.1250 0.6250 0.1250 (   357 PWs)   bands (ev):

    -4.1797   0.8683   3.2120   3.6513

          k =-0.3750 0.3750-0.1250 (   362 PWs)   bands (ev):

    -4.7025   1.2249   3.5479   5.0167

          k =-0.3750 0.8750-0.1250 (   368 PWs)   bands (ev):

    -2.5812  -1.0616   1.8993   2.9468

          k = 0.3750-0.3750 0.6250 (   364 PWs)   bands (ev):

    -3.5950  -0.8022   3.5568   4.2640

          k = 0.3750 0.1250 0.6250 (   365 PWs)   bands (ev):

    -3.7761   0.0260   2.5810   3.9219

          k = 0.1250-0.1250 0.3750 (   358 PWs)   bands (ev):

    -5.1898   2.5732   4.5085   4.5601

          k = 0.1250 0.3750 0.3750 (   362 PWs)   bands (ev):

    -4.7025   1.2249   3.5479   5.0167

          k =-0.1250 0.6250 0.1250 (   357 PWs)   bands (ev):

    -4.1797   0.8683   3.2120   3.6513

          k =-0.1250 1.1250 0.1250 (   364 PWs)   bands (ev):

    -2.7389  -0.9692   2.4908   3.1928

          k = 0.6250-0.1250 0.8750 (   368 PWs)   bands (ev):

    -2.5812  -1.0616   1.8993   2.9468

          k = 0.6250 0.3750 0.8750 (   365 PWs)   bands (ev):

    -3.7761   0.0260   2.5810   3.9219

          k = 0.3750 0.1250 0.6250 (   365 PWs)   bands (ev):

    -3.7761   0.0260   2.5810   3.9219

          k = 0.3750 0.6250 0.6250 (   364 PWs)   bands (ev):

    -3.5950  -0.8022   3.5568   4.2640

          k =-0.1250-0.8750 0.1250 (   364 PWs)   bands (ev):

    -2.7389  -0.9692   2.4908   3.1928

          k =-0.1250-0.3750 0.1250 (   358 PWs)   bands (ev):

    -5.1898   2.5732   4.5085   4.5601

          k =-0.3750 0.3750 0.3750 (   359 PWs)   bands (ev):

    -4.2812  -0.0282   4.7164   4.7164

          k =-0.3750 0.8750 0.3750 (   369 PWs)   bands (ev):

    -3.1089  -0.7454   1.9473   3.9550

          k = 0.3750-0.3750 1.1250 (   369 PWs)   bands (ev):

    -3.1089  -0.7454   1.9473   3.9550

          k = 0.3750 0.1250 1.1250 (   368 PWs)   bands (ev):

    -2.5812  -1.0616   1.8993   2.9468

          k =-0.1250-0.1250 0.1250 (   353 PWs)   bands (ev):

    -5.7070   4.1817   5.4931   5.4931

          k =-0.1250 0.3750 0.1250 (   358 PWs)   bands (ev):

    -5.1898   2.5732   4.5085   4.5601

          k = 0.1250-0.3750 0.3750 (   362 PWs)   bands (ev):

    -4.7025   1.2249   3.5479   5.0167

          k = 0.1250 0.1250 0.3750 (   358 PWs)   bands (ev):

    -5.1898   2.5732   4.5085   4.5601

          k = 0.3750-0.1250 0.3750 (   362 PWs)   bands (ev):

    -4.7025   1.2249   3.5479   5.0167

          k = 0.3750 0.3750 0.3750 (   359 PWs)   bands (ev):

    -4.2812  -0.0282   4.7164   4.7164

          k = 0.3750 0.1250 0.3750 (   362 PWs)   bands (ev):

    -4.7025   1.2249   3.5479   5.0167

          k = 0.3750 0.6250 0.3750 (   364 PWs)   bands (ev):

    -3.5950  -0.8022   3.5568   4.2640

          k =-0.6250 0.3750-0.3750 (   364 PWs)   bands (ev):

    -3.5950  -0.8022   3.5568   4.2640

          k =-0.6250 0.8750-0.3750 (   365 PWs)   bands (ev):

    -3.7761   0.0260   2.5810   3.9219

          k =-0.3750 0.6250-0.3750 (   364 PWs)   bands (ev):

    -3.5950  -0.8022   3.5568   4.2640

          k =-0.3750 1.1250-0.3750 (   369 PWs)   bands (ev):

    -3.1089  -0.7454   1.9473   3.9550

          k =-0.3750-0.6250-0.3750 (   364 PWs)   bands (ev):

    -3.5950  -0.8022   3.5568   4.2640

          k =-0.3750-0.1250-0.3750 (   362 PWs)   bands (ev):

    -4.7025   1.2249   3.5479   5.0167

          k =-0.3750 0.1250-0.1250 (   358 PWs)   bands (ev):

    -5.1898   2.5732   4.5085   4.5601

          k =-0.3750 0.6250-0.1250 (   365 PWs)   bands (ev):

    -3.7761   0.0260   2.5810   3.9219

          k =-0.1250 0.3750-0.1250 (   358 PWs)   bands (ev):

    -5.1898   2.5732   4.5085   4.5601

          k =-0.1250 0.8750-0.1250 (   364 PWs)   bands (ev):

    -2.7389  -0.9692   2.4908   3.1928

          k =-0.1250-0.3750-0.1250 (   358 PWs)   bands (ev):

    -5.1898   2.5732   4.5085   4.5601

          k =-0.1250 0.1250-0.1250 (   353 PWs)   bands (ev):

    -5.7070   4.1817   5.4931   5.4931

          k =-0.1250-0.6250 0.1250 (   357 PWs)   bands (ev):

    -4.1797   0.8683   3.2120   3.6513

          k =-0.1250-0.1250 0.1250 (   353 PWs)   bands (ev):

    -5.7070   4.1817   5.4931   5.4931

          k = 0.6250-0.1250-0.1250 (   357 PWs)   bands (ev):

    -4.1797   0.8683   3.2120   3.6513

          k = 0.6250 0.3750-0.1250 (   365 PWs)   bands (ev):

    -3.7761   0.0260   2.5810   3.9219

          k = 0.6250 0.1250 0.1250 (   357 PWs)   bands (ev):

    -4.1797   0.8683   3.2120   3.6513

          k = 0.6250 0.6250 0.1250 (   369 PWs)   bands (ev):

    -3.1089  -0.7454   1.9473   3.9550

          k =-0.8750 0.1250-0.6250 (   368 PWs)   bands (ev):

    -2.5812  -1.0616   1.8993   2.9468

          k =-0.8750 0.6250-0.6250 (   362 PWs)   bands (ev):

    -4.7025   1.2249   3.5479   5.0167

          k =-0.1250 0.6250-0.8750 (   368 PWs)   bands (ev):

    -2.5812  -1.0616   1.8993   2.9468

          k =-0.1250 1.1250-0.8750 (   364 PWs)   bands (ev):

    -2.7389  -0.9692   2.4908   3.1928

          k =-0.1250 0.8750-0.6250 (   368 PWs)   bands (ev):

    -2.5812  -1.0616   1.8993   2.9468

          k =-0.1250 1.3750-0.6250 (   369 PWs)   bands (ev):

    -3.1089  -0.7454   1.9473   3.9550

          k =-0.1250-0.8750-0.6250 (   368 PWs)   bands (ev):

    -2.5812  -1.0616   1.8993   2.9468

          k =-0.1250-0.3750-0.6250 (   365 PWs)   bands (ev):

    -3.7761   0.0260   2.5810   3.9219

          k = 0.8750-0.6250 0.1250 (   368 PWs)   bands (ev):

    -2.5812  -1.0616   1.8993   2.9468

          k = 0.8750-0.1250 0.1250 (   364 PWs)   bands (ev):

    -2.7389  -0.9692   2.4908   3.1928

          k =-0.6250-0.1250-0.3750 (   365 PWs)   bands (ev):

    -3.7761   0.0260   2.5810   3.9219

          k =-0.6250 0.3750-0.3750 (   364 PWs)   bands (ev):

    -3.5950  -0.8022   3.5568   4.2640

          k = 0.1250 0.3750-0.6250 (   365 PWs)   bands (ev):

    -3.7761   0.0260   2.5810   3.9219

          k = 0.1250 0.8750-0.6250 (   368 PWs)   bands (ev):

    -2.5812  -1.0616   1.8993   2.9468

          k = 0.1250 0.6250-0.3750 (   365 PWs)   bands (ev):

    -3.7761   0.0260   2.5810   3.9219

          k = 0.1250 1.1250-0.3750 (   368 PWs)   bands (ev):

    -2.5812  -1.0616   1.8993   2.9468

          k = 0.1250-0.6250-0.3750 (   365 PWs)   bands (ev):

    -3.7761   0.0260   2.5810   3.9219

          k = 0.1250-0.1250-0.3750 (   358 PWs)   bands (ev):

    -5.1898   2.5732   4.5085   4.5601

          k = 0.6250-0.3750-0.1250 (   365 PWs)   bands (ev):

    -3.7761   0.0260   2.5810   3.9219

          k = 0.6250 0.1250-0.1250 (   357 PWs)   bands (ev):

    -4.1797   0.8683   3.2120   3.6513

          k =-0.1250 0.8750 0.1250 (   364 PWs)   bands (ev):

    -2.7389  -0.9692   2.4908   3.1928

          k =-0.1250 1.3750 0.1250 (   357 PWs)   bands (ev):

    -4.1797   0.8683   3.2120   3.6513

          k =-0.8750-0.1250-0.1250 (   364 PWs)   bands (ev):

    -2.7389  -0.9692   2.4908   3.1928

          k =-0.8750 0.3750-0.1250 (   368 PWs)   bands (ev):

    -2.5812  -1.0616   1.8993   2.9468

          k =-0.8750 0.1250 0.1250 (   364 PWs)   bands (ev):

    -2.7389  -0.9692   2.4908   3.1928

          k =-0.8750 0.6250 0.1250 (   368 PWs)   bands (ev):

    -2.5812  -1.0616   1.8993   2.9468

          k =-0.3750-0.3750 0.3750 (   359 PWs)   bands (ev):

    -4.2812  -0.0282   4.7164   4.7164

          k =-0.3750 0.1250 0.3750 (   362 PWs)   bands (ev):

    -4.7025   1.2249   3.5479   5.0167

          k =-1.1250 0.3750-0.3750 (   369 PWs)   bands (ev):

    -3.1089  -0.7454   1.9473   3.9550

          k =-1.1250 0.8750-0.3750 (   357 PWs)   bands (ev):

    -4.1797   0.8683   3.2120   3.6513

          k =-0.3750 1.1250-0.3750 (   369 PWs)   bands (ev):

    -3.1089  -0.7454   1.9473   3.9550

          k =-0.3750 1.6250-0.3750 (   359 PWs)   bands (ev):

    -4.2812  -0.0282   4.7164   4.7164

          k =-0.3750-1.1250-0.3750 (   369 PWs)   bands (ev):

    -3.1089  -0.7454   1.9473   3.9550

          k =-0.3750-0.6250-0.3750 (   364 PWs)   bands (ev):

    -3.5950  -0.8022   3.5568   4.2640

     highest occupied level (ev):     5.4931

     Writing output data file silicon.10.406.save

                                                                                

     bravais-lattice index     =            2
     lattice parameter (alat)  =      10.4060  a.u.
     unit-cell volume          =     281.7030 (a.u.)^3
     number of atoms/cell      =            2
     number of atomic types    =            1
     kinetic-energy cut-off    =      18.0000  Ry
     charge density cut-off    =      72.0000  Ry
     convergence threshold     =      1.0E-12
     beta                      =       0.7000
     number of iterations used =            4
     Exchange-correlation      = SLA  PW   PBE  PBE ( 1  4  3  4 0 0)


     celldm(1)=   10.40600  celldm(2)=    0.00000  celldm(3)=    0.00000
     celldm(4)=    0.00000  celldm(5)=    0.00000  celldm(6)=    0.00000

     crystal axes: (cart. coord. in units of alat)
               a(1) = ( -0.5000  0.0000  0.5000 )  
               a(2) = (  0.0000  0.5000  0.5000 )  
               a(3) = ( -0.5000  0.5000  0.0000 )  

     reciprocal axes: (cart. coord. in units 2 pi/alat)
               b(1) = ( -1.0000 -1.0000  1.0000 )  
               b(2) = (  1.0000  1.0000  1.0000 )  
               b(3) = ( -1.0000  1.0000 -1.0000 )  


     Atoms inside the unit cell: 

     Cartesian axes

     site n.  atom      mass           positions (alat units)
        1     Si  28.0860   tau(    1) = (    0.00000    0.00000    0.00000  )
        2     Si  28.0860   tau(    2) = (    0.25000    0.25000    0.25000  )

     Computing dynamical matrix for 
                    q = (   0.0000000   0.5000000   0.0000000 )

      8 Sym.Ops. (no q -> -q+G )


     G cutoff =  197.4879  (    722 G-vectors)     FFT grid: ( 20, 20, 20)
     number of k points=    80

     PseudoPot. # 1 for Si read from file:
     /home/max/quantum_espresso/qe-6.1/pseudo/si_pbe_v1.uspp.F.UPF.txt
     MD5 check sum: a056efeee980c13900f22a371efd63c1
     Pseudo is Ultrasoft + core correction, Zval =  4.0
     Generated by new atomic code, or converted to UPF format
     Using radial grid of  899 points,  6 beta functions with: 
                l(1) =   0
                l(2) =   0
                l(3) =   1
                l(4) =   1
                l(5) =   2
                l(6) =   2
     Q(r) pseudized with  8 coefficients,  rinner =    0.900   0.900   0.900
                                                       0.900   0.900

     Mode symmetry, C_4v (4mm)  point group:


     Atomic displacements:
     There are   4 irreducible representations

     Representation     1      1 modes -A_1  G_1 D_1  To be done

     Representation     2      1 modes -B_2  G_4 D_2'  To be done

     Representation     3      2 modes -E    G_5 D_5  To be done

     Representation     4      2 modes -E    G_5 D_5  To be done



     Alpha used in Ewald sum =   0.7000
     PHONON       :    23.33s CPU        25.14s WALL



     Representation #  1 mode #   1

     Self-consistent Calculation

      iter #   1 total cpu time :    25.3 secs   av.it.:   5.8
      thresh= 1.000E-02 alpha_mix =  0.700 |ddv_scf|^2 =  2.921E-03

      iter #   2 total cpu time :    25.5 secs   av.it.:   7.7
      thresh= 5.404E-03 alpha_mix =  0.700 |ddv_scf|^2 =  3.883E-02

      iter #   3 total cpu time :    25.7 secs   av.it.:   6.8
      thresh= 1.000E-02 alpha_mix =  0.700 |ddv_scf|^2 =  1.461E-07

      iter #   4 total cpu time :    25.8 secs   av.it.:   8.1
      thresh= 3.823E-05 alpha_mix =  0.700 |ddv_scf|^2 =  1.643E-08

      iter #   5 total cpu time :    26.0 secs   av.it.:   7.8
      thresh= 1.282E-05 alpha_mix =  0.700 |ddv_scf|^2 =  6.883E-10

      iter #   6 total cpu time :    26.2 secs   av.it.:   8.0
      thresh= 2.624E-06 alpha_mix =  0.700 |ddv_scf|^2 =  2.895E-12

      iter #   7 total cpu time :    26.4 secs   av.it.:   7.9
      thresh= 1.702E-07 alpha_mix =  0.700 |ddv_scf|^2 =  5.328E-13

     End of self-consistent calculation

     Convergence has been achieved 


     Representation #  2 mode #   2

     Self-consistent Calculation

      iter #   1 total cpu time :    26.5 secs   av.it.:   4.9
      thresh= 1.000E-02 alpha_mix =  0.700 |ddv_scf|^2 =  5.136E-06

      iter #   2 total cpu time :    26.7 secs   av.it.:   8.7
      thresh= 2.266E-04 alpha_mix =  0.700 |ddv_scf|^2 =  1.345E-06

      iter #   3 total cpu time :    27.2 secs   av.it.:   8.6
      thresh= 1.160E-04 alpha_mix =  0.700 |ddv_scf|^2 =  3.178E-08

      iter #   4 total cpu time :    27.4 secs   av.it.:   8.2
      thresh= 1.783E-05 alpha_mix =  0.700 |ddv_scf|^2 =  7.764E-10

      iter #   5 total cpu time :    27.6 secs   av.it.:   8.6
      thresh= 2.786E-06 alpha_mix =  0.700 |ddv_scf|^2 =  8.409E-12

      iter #   6 total cpu time :    27.8 secs   av.it.:   7.8
      thresh= 2.900E-07 alpha_mix =  0.700 |ddv_scf|^2 =  9.547E-14

     End of self-consistent calculation

     Convergence has been achieved 


     Representation #  3 modes #   3  4

     Self-consistent Calculation

      iter #   1 total cpu time :    28.1 secs   av.it.:   5.0
      thresh= 1.000E-02 alpha_mix =  0.700 |ddv_scf|^2 =  9.392E-07

      iter #   2 total cpu time :    28.5 secs   av.it.:   9.8
      thresh= 9.691E-05 alpha_mix =  0.700 |ddv_scf|^2 =  1.192E-07

      iter #   3 total cpu time :    29.2 secs   av.it.:   9.5
      thresh= 3.452E-05 alpha_mix =  0.700 |ddv_scf|^2 =  4.953E-09

      iter #   4 total cpu time :    29.6 secs   av.it.:   8.8
      thresh= 7.038E-06 alpha_mix =  0.700 |ddv_scf|^2 =  8.854E-12

      iter #   5 total cpu time :    30.0 secs   av.it.:   9.1
      thresh= 2.976E-07 alpha_mix =  0.700 |ddv_scf|^2 =  3.027E-13

     End of self-consistent calculation

     Convergence has been achieved 


     Representation #  4 modes #   5  6

     Self-consistent Calculation

      iter #   1 total cpu time :    30.3 secs   av.it.:   5.0
      thresh= 1.000E-02 alpha_mix =  0.700 |ddv_scf|^2 =  9.433E-07

      iter #   2 total cpu time :    30.7 secs   av.it.:   9.8
      thresh= 9.712E-05 alpha_mix =  0.700 |ddv_scf|^2 =  1.197E-07

      iter #   3 total cpu time :    31.4 secs   av.it.:   9.5
      thresh= 3.460E-05 alpha_mix =  0.700 |ddv_scf|^2 =  7.393E-09

      iter #   4 total cpu time :    31.8 secs   av.it.:   8.9
      thresh= 8.598E-06 alpha_mix =  0.700 |ddv_scf|^2 =  1.552E-11

      iter #   5 total cpu time :    32.2 secs   av.it.:   9.2
      thresh= 3.939E-07 alpha_mix =  0.700 |ddv_scf|^2 =  4.591E-14

     End of self-consistent calculation

     Convergence has been achieved 

     Number of q in the star =    6
     List of q in the star:
          1   0.000000000   0.500000000   0.000000000
          2   0.000000000  -0.500000000   0.000000000
          3   0.500000000   0.000000000   0.000000000
          4   0.000000000   0.000000000   0.500000000
          5   0.000000000   0.000000000  -0.500000000
          6  -0.500000000   0.000000000   0.000000000

     Diagonalizing the dynamical matrix

     q = (    0.000000000   0.500000000   0.000000000 ) 

 **************************************************************************
     freq (    1) =       4.404977 [THz] =     146.934230 [cm-1]
     freq (    2) =       4.404977 [THz] =     146.934230 [cm-1]
     freq (    3) =       6.998078 [THz] =     233.430757 [cm-1]
     freq (    4) =      14.195920 [THz] =     473.524935 [cm-1]
     freq (    5) =      14.195920 [THz] =     473.524935 [cm-1]
     freq (    6) =      14.906019 [THz] =     497.211260 [cm-1]
 **************************************************************************

     Mode symmetry, C_4v (4mm)  point group:

     freq (  1 -  2) =        146.9  [cm-1]   --> E    G_5 D_5       
     freq (  3 -  3) =        233.4  [cm-1]   --> A_1  G_1 D_1       
     freq (  4 -  5) =        473.5  [cm-1]   --> E    G_5 D_5       
     freq (  6 -  6) =        497.2  [cm-1]   --> B_2  G_4 D_2'      

     Calculation of q =    0.7500000  -0.2500000   0.7500000

   Info: using nr1, nr2, nr3 values from input

   Info: using nr1, nr2, nr3 values from input

     Parallelization info
     --------------------
     sticks:   dense  smooth     PW     G-vecs:    dense   smooth      PW
     Min          65      65     30                  722      722     216
     Max          67      67     31                  723      723     218
     Sum         265     265    121                 2891     2891     869



     bravais-lattice index     =            2
     lattice parameter (alat)  =      10.4060  a.u.
     unit-cell volume          =     281.7030 (a.u.)^3
     number of atoms/cell      =            2
     number of atomic types    =            1
     number of electrons       =         8.00
     number of Kohn-Sham states=            4
     kinetic-energy cutoff     =      18.0000  Ry
     charge density cutoff     =      72.0000  Ry
     Exchange-correlation      = SLA  PW   PBE  PBE ( 1  4  3  4 0 0)

     celldm(1)=  10.406000  celldm(2)=   0.000000  celldm(3)=   0.000000
     celldm(4)=   0.000000  celldm(5)=   0.000000  celldm(6)=   0.000000

     crystal axes: (cart. coord. in units of alat)
               a(1) = (  -0.500000   0.000000   0.500000 )  
               a(2) = (   0.000000   0.500000   0.500000 )  
               a(3) = (  -0.500000   0.500000   0.000000 )  

     reciprocal axes: (cart. coord. in units 2 pi/alat)
               b(1) = ( -1.000000 -1.000000  1.000000 )  
               b(2) = (  1.000000  1.000000  1.000000 )  
               b(3) = ( -1.000000  1.000000 -1.000000 )  


     PseudoPot. # 1 for Si read from file:
     /home/max/quantum_espresso/qe-6.1/pseudo/si_pbe_v1.uspp.F.UPF.txt
     MD5 check sum: a056efeee980c13900f22a371efd63c1
     Pseudo is Ultrasoft + core correction, Zval =  4.0
     Generated by new atomic code, or converted to UPF format
     Using radial grid of  899 points,  6 beta functions with: 
                l(1) =   0
                l(2) =   0
                l(3) =   1
                l(4) =   1
                l(5) =   2
                l(6) =   2
     Q(r) pseudized with  8 coefficients,  rinner =    0.900   0.900   0.900
                                                       0.900   0.900

     atomic species   valence    mass     pseudopotential
        Si             4.00    28.08600     Si( 1.00)

     48 Sym. Ops., with inversion, found



   Cartesian axes

     site n.     atom                  positions (alat units)
         1           Si  tau(   1) = (   0.0000000   0.0000000   0.0000000  )
         2           Si  tau(   2) = (   0.2500000   0.2500000   0.2500000  )

     number of k points=   288

     Number of k-points >= 100: set verbosity='high' to print them.

     Dense  grid:     2891 G-vectors     FFT dimensions: (  20,  20,  20)

     Estimated max dynamical RAM per process >       0.33MB

     Estimated total allocated dynamical RAM >       1.33MB

     Check: negative/imaginary core charge=   -0.000006    0.000000

     The potential is recalculated from file :
     ./_ph0/silicon.10.406.save/charge-density.dat

     Starting wfc are    8 atomic wfcs

     Band Structure Calculation
     Davidson diagonalization with overlap

     ethr =  1.25E-10,  avg # of iterations = 11.6

     total cpu time spent up to now is        4.4 secs

     End of band structure calculation

     Number of k-points >= 100: set verbosity='high' to print the bands.

     highest occupied level (ev):     5.4931

     Writing output data file silicon.10.406.save

                                                                                

     bravais-lattice index     =            2
     lattice parameter (alat)  =      10.4060  a.u.
     unit-cell volume          =     281.7030 (a.u.)^3
     number of atoms/cell      =            2
     number of atomic types    =            1
     kinetic-energy cut-off    =      18.0000  Ry
     charge density cut-off    =      72.0000  Ry
     convergence threshold     =      1.0E-12
     beta                      =       0.7000
     number of iterations used =            4
     Exchange-correlation      = SLA  PW   PBE  PBE ( 1  4  3  4 0 0)


     celldm(1)=   10.40600  celldm(2)=    0.00000  celldm(3)=    0.00000
     celldm(4)=    0.00000  celldm(5)=    0.00000  celldm(6)=    0.00000

     crystal axes: (cart. coord. in units of alat)
               a(1) = ( -0.5000  0.0000  0.5000 )  
               a(2) = (  0.0000  0.5000  0.5000 )  
               a(3) = ( -0.5000  0.5000  0.0000 )  

     reciprocal axes: (cart. coord. in units 2 pi/alat)
               b(1) = ( -1.0000 -1.0000  1.0000 )  
               b(2) = (  1.0000  1.0000  1.0000 )  
               b(3) = ( -1.0000  1.0000 -1.0000 )  


     Atoms inside the unit cell: 

     Cartesian axes

     site n.  atom      mass           positions (alat units)
        1     Si  28.0860   tau(    1) = (    0.00000    0.00000    0.00000  )
        2     Si  28.0860   tau(    2) = (    0.25000    0.25000    0.25000  )

     Computing dynamical matrix for 
                    q = (   0.7500000  -0.2500000   0.7500000 )

      2 Sym.Ops. (no q -> -q+G )


     G cutoff =  197.4879  (    723 G-vectors)     FFT grid: ( 20, 20, 20)
     number of k points=   288

     PseudoPot. # 1 for Si read from file:
     /home/max/quantum_espresso/qe-6.1/pseudo/si_pbe_v1.uspp.F.UPF.txt
     MD5 check sum: a056efeee980c13900f22a371efd63c1
     Pseudo is Ultrasoft + core correction, Zval =  4.0
     Generated by new atomic code, or converted to UPF format
     Using radial grid of  899 points,  6 beta functions with: 
                l(1) =   0
                l(2) =   0
                l(3) =   1
                l(4) =   1
                l(5) =   2
                l(6) =   2
     Q(r) pseudized with  8 coefficients,  rinner =    0.900   0.900   0.900
                                                       0.900   0.900

     Mode symmetry, C_s (m)     point group:


     Atomic displacements:
     There are   6 irreducible representations

     Representation     1      1 modes -A'  To be done

     Representation     2      1 modes -A'  To be done

     Representation     3      1 modes -A'  To be done

     Representation     4      1 modes -A'  To be done

     Representation     5      1 modes -A''  To be done

     Representation     6      1 modes -A''  To be done



     Alpha used in Ewald sum =   0.7000
     PHONON       :    32.72s CPU        35.41s WALL



     Representation #  1 mode #   1

     Self-consistent Calculation

      iter #   1 total cpu time :    35.9 secs   av.it.:   5.3
      thresh= 1.000E-02 alpha_mix =  0.700 |ddv_scf|^2 =  6.034E-05

      iter #   2 total cpu time :    36.6 secs   av.it.:   8.9
      thresh= 7.768E-04 alpha_mix =  0.700 |ddv_scf|^2 =  1.604E-04

      iter #   3 total cpu time :    37.5 secs   av.it.:   7.6
      thresh= 1.267E-03 alpha_mix =  0.700 |ddv_scf|^2 =  1.128E-06

      iter #   4 total cpu time :    38.1 secs   av.it.:   8.4
      thresh= 1.062E-04 alpha_mix =  0.700 |ddv_scf|^2 =  5.812E-08

      iter #   5 total cpu time :    38.8 secs   av.it.:   8.3
      thresh= 2.411E-05 alpha_mix =  0.700 |ddv_scf|^2 =  7.329E-09

      iter #   6 total cpu time :    39.8 secs   av.it.:   8.5
      thresh= 8.561E-06 alpha_mix =  0.700 |ddv_scf|^2 =  9.787E-11

      iter #   7 total cpu time :    40.4 secs   av.it.:   8.7
      thresh= 9.893E-07 alpha_mix =  0.700 |ddv_scf|^2 =  3.374E-12

      iter #   8 total cpu time :    41.4 secs   av.it.:   8.6
      thresh= 1.837E-07 alpha_mix =  0.700 |ddv_scf|^2 =  2.193E-13

     End of self-consistent calculation

     Convergence has been achieved 


     Representation #  2 mode #   2

     Self-consistent Calculation

      iter #   1 total cpu time :    41.9 secs   av.it.:   5.4
      thresh= 1.000E-02 alpha_mix =  0.700 |ddv_scf|^2 =  1.076E-04

      iter #   2 total cpu time :    42.6 secs   av.it.:   8.7
      thresh= 1.037E-03 alpha_mix =  0.700 |ddv_scf|^2 =  3.092E-04

      iter #   3 total cpu time :    43.5 secs   av.it.:   7.4
      thresh= 1.758E-03 alpha_mix =  0.700 |ddv_scf|^2 =  8.084E-07

      iter #   4 total cpu time :    44.1 secs   av.it.:   8.5
      thresh= 8.991E-05 alpha_mix =  0.700 |ddv_scf|^2 =  5.614E-08

      iter #   5 total cpu time :    44.7 secs   av.it.:   8.3
      thresh= 2.369E-05 alpha_mix =  0.700 |ddv_scf|^2 =  1.068E-08

      iter #   6 total cpu time :    45.7 secs   av.it.:   8.5
      thresh= 1.033E-05 alpha_mix =  0.700 |ddv_scf|^2 =  9.837E-11

      iter #   7 total cpu time :    46.4 secs   av.it.:   8.7
      thresh= 9.918E-07 alpha_mix =  0.700 |ddv_scf|^2 =  3.025E-12

      iter #   8 total cpu time :    47.3 secs   av.it.:   8.7
      thresh= 1.739E-07 alpha_mix =  0.700 |ddv_scf|^2 =  8.422E-13

     End of self-consistent calculation

     Convergence has been achieved 


     Representation #  3 mode #   3

     Self-consistent Calculation

      iter #   1 total cpu time :    47.9 secs   av.it.:   5.3
      thresh= 1.000E-02 alpha_mix =  0.700 |ddv_scf|^2 =  8.445E-05

      iter #   2 total cpu time :    48.5 secs   av.it.:   8.8
      thresh= 9.190E-04 alpha_mix =  0.700 |ddv_scf|^2 =  2.263E-04

      iter #   3 total cpu time :    49.4 secs   av.it.:   7.4
      thresh= 1.504E-03 alpha_mix =  0.700 |ddv_scf|^2 =  1.377E-06

      iter #   4 total cpu time :    50.1 secs   av.it.:   8.2
      thresh= 1.173E-04 alpha_mix =  0.700 |ddv_scf|^2 =  5.788E-08

      iter #   5 total cpu time :    50.7 secs   av.it.:   8.4
      thresh= 2.406E-05 alpha_mix =  0.700 |ddv_scf|^2 =  1.099E-08

      iter #   6 total cpu time :    51.7 secs   av.it.:   8.5
      thresh= 1.048E-05 alpha_mix =  0.700 |ddv_scf|^2 =  5.655E-11

      iter #   7 total cpu time :    52.3 secs   av.it.:   8.7
      thresh= 7.520E-07 alpha_mix =  0.700 |ddv_scf|^2 =  2.156E-12

      iter #   8 total cpu time :    53.3 secs   av.it.:   8.8
      thresh= 1.468E-07 alpha_mix =  0.700 |ddv_scf|^2 =  5.110E-13

     End of self-consistent calculation

     Convergence has been achieved 


     Representation #  4 mode #   4

     Self-consistent Calculation

      iter #   1 total cpu time :    53.8 secs   av.it.:   5.2
      thresh= 1.000E-02 alpha_mix =  0.700 |ddv_scf|^2 =  3.720E-05

      iter #   2 total cpu time :    54.5 secs   av.it.:   9.0
[...]
        k(   59) = (  -0.8750000   0.1250000  -0.1250000), wk =   0.0625000
        k(   60) = (  -1.3750000  -0.8750000  -0.1250000), wk =   0.0000000
        k(   61) = (  -1.1250000   0.3750000  -0.3750000), wk =   0.0625000
        k(   62) = (  -1.6250000  -0.6250000  -0.3750000), wk =   0.0000000
        k(   63) = (  -0.3750000   0.3750000   1.1250000), wk =   0.0625000
        k(   64) = (  -0.8750000  -0.6250000   1.1250000), wk =   0.0000000

     Dense  grid:     2891 G-vectors     FFT dimensions: (  20,  20,  20)

     Estimated max dynamical RAM per process >       0.33MB

     Estimated total allocated dynamical RAM >       1.33MB

     Check: negative/imaginary core charge=   -0.000006    0.000000

     The potential is recalculated from file :
     ./_ph0/silicon.10.406.save/charge-density.dat

     Starting wfc are    8 atomic wfcs

     Band Structure Calculation
     Davidson diagonalization with overlap

     ethr =  1.25E-10,  avg # of iterations = 11.6

     total cpu time spent up to now is        7.4 secs

     End of band structure calculation

          k =-0.1250 0.1250 0.1250 (   353 PWs)   bands (ev):

    -5.7070   4.1817   5.4931   5.4931

          k =-0.6250-0.8750 0.1250 (   368 PWs)   bands (ev):

    -2.5812  -1.0616   1.8993   2.9468

          k =-0.3750 0.3750-0.1250 (   362 PWs)   bands (ev):

    -4.7025   1.2249   3.5479   5.0167

          k =-0.8750-0.6250-0.1250 (   368 PWs)   bands (ev):

    -2.5812  -1.0616   1.8993   2.9468

          k = 0.3750-0.3750 0.6250 (   364 PWs)   bands (ev):

    -3.5950  -0.8022   3.5568   4.2640

          k =-0.1250-1.3750 0.6250 (   369 PWs)   bands (ev):

    -3.1089  -0.7454   1.9473   3.9550

          k = 0.1250-0.1250 0.3750 (   358 PWs)   bands (ev):

    -5.1898   2.5732   4.5085   4.5601

          k =-0.3750-1.1250 0.3750 (   369 PWs)   bands (ev):

    -3.1089  -0.7454   1.9473   3.9550

          k =-0.1250 0.6250 0.1250 (   357 PWs)   bands (ev):

    -4.1797   0.8683   3.2120   3.6513

          k =-0.6250-0.3750 0.1250 (   365 PWs)   bands (ev):

    -3.7761   0.0260   2.5810   3.9219

          k = 0.6250-0.1250 0.8750 (   368 PWs)   bands (ev):

    -2.5812  -1.0616   1.8993   2.9468

          k = 0.1250-1.1250 0.8750 (   364 PWs)   bands (ev):

    -2.7389  -0.9692   2.4908   3.1928

          k = 0.3750 0.1250 0.6250 (   365 PWs)   bands (ev):

    -3.7761   0.0260   2.5810   3.9219

          k =-0.1250-0.8750 0.6250 (   368 PWs)   bands (ev):

    -2.5812  -1.0616   1.8993   2.9468

          k =-0.1250-0.8750 0.1250 (   364 PWs)   bands (ev):

    -2.7389  -0.9692   2.4908   3.1928

          k =-0.6250-1.8750 0.1250 (   357 PWs)   bands (ev):

    -4.1797   0.8683   3.2120   3.6513

          k =-0.3750 0.3750 0.3750 (   359 PWs)   bands (ev):

    -4.2812  -0.0282   4.7164   4.7164

          k =-0.8750-0.6250 0.3750 (   365 PWs)   bands (ev):

    -3.7761   0.0260   2.5810   3.9219

          k = 0.3750-0.3750 1.1250 (   369 PWs)   bands (ev):

    -3.1089  -0.7454   1.9473   3.9550

          k =-0.1250-1.3750 1.1250 (   368 PWs)   bands (ev):

    -2.5812  -1.0616   1.8993   2.9468

          k = 0.1250-0.3750 0.3750 (   362 PWs)   bands (ev):

    -4.7025   1.2249   3.5479   5.0167

          k =-0.3750-1.3750 0.3750 (   364 PWs)   bands (ev):

    -3.5950  -0.8022   3.5568   4.2640

          k = 0.3750-0.3750-0.1250 (   362 PWs)   bands (ev):

    -4.7025   1.2249   3.5479   5.0167

          k =-0.1250-1.3750-0.1250 (   357 PWs)   bands (ev):

    -4.1797   0.8683   3.2120   3.6513

          k =-0.6250 0.3750-0.3750 (   364 PWs)   bands (ev):

    -3.5950  -0.8022   3.5568   4.2640

          k =-1.1250-0.6250-0.3750 (   365 PWs)   bands (ev):

    -3.7761   0.0260   2.5810   3.9219

          k =-0.3750 0.3750 0.6250 (   364 PWs)   bands (ev):

    -3.5950  -0.8022   3.5568   4.2640

          k =-0.8750-0.6250 0.6250 (   362 PWs)   bands (ev):

    -4.7025   1.2249   3.5479   5.0167

          k =-0.3750 0.1250-0.1250 (   358 PWs)   bands (ev):

    -5.1898   2.5732   4.5085   4.5601

          k =-0.8750-0.8750-0.1250 (   364 PWs)   bands (ev):

    -2.7389  -0.9692   2.4908   3.1928

          k =-0.1250 0.1250 0.3750 (   358 PWs)   bands (ev):

    -5.1898   2.5732   4.5085   4.5601

          k =-0.6250-0.8750 0.3750 (   365 PWs)   bands (ev):

    -3.7761   0.0260   2.5810   3.9219

          k = 0.1250 0.6250-0.1250 (   357 PWs)   bands (ev):

    -4.1797   0.8683   3.2120   3.6513

          k =-0.3750-0.3750-0.1250 (   362 PWs)   bands (ev):

    -4.7025   1.2249   3.5479   5.0167

          k = 0.6250 0.1250-0.1250 (   357 PWs)   bands (ev):

    -4.1797   0.8683   3.2120   3.6513

          k = 0.1250-0.8750-0.1250 (   364 PWs)   bands (ev):

    -2.7389  -0.9692   2.4908   3.1928

          k =-0.8750 0.1250-0.6250 (   368 PWs)   bands (ev):

    -2.5812  -1.0616   1.8993   2.9468

          k =-1.3750-0.8750-0.6250 (   362 PWs)   bands (ev):

    -4.7025   1.2249   3.5479   5.0167

          k = 0.8750-0.1250 0.6250 (   368 PWs)   bands (ev):

    -2.5812  -1.0616   1.8993   2.9468

          k = 0.3750-1.1250 0.6250 (   365 PWs)   bands (ev):

    -3.7761   0.0260   2.5810   3.9219

          k =-0.6250 0.1250 0.8750 (   368 PWs)   bands (ev):

    -2.5812  -1.0616   1.8993   2.9468

          k =-1.1250-0.8750 0.8750 (   353 PWs)   bands (ev):

    -5.7070   4.1817   5.4931   5.4931

          k =-0.1250 0.8750 0.6250 (   368 PWs)   bands (ev):

    -2.5812  -1.0616   1.8993   2.9468

          k =-0.6250-0.1250 0.6250 (   369 PWs)   bands (ev):

    -3.1089  -0.7454   1.9473   3.9550

          k = 0.1250 0.8750-0.6250 (   368 PWs)   bands (ev):

    -2.5812  -1.0616   1.8993   2.9468

          k =-0.3750-0.1250-0.6250 (   365 PWs)   bands (ev):

    -3.7761   0.0260   2.5810   3.9219

          k =-0.6250-0.1250-0.3750 (   365 PWs)   bands (ev):

    -3.7761   0.0260   2.5810   3.9219

          k =-1.1250-1.1250-0.3750 (   357 PWs)   bands (ev):

    -4.1797   0.8683   3.2120   3.6513

          k = 0.6250 0.1250 0.3750 (   365 PWs)   bands (ev):

    -3.7761   0.0260   2.5810   3.9219

          k = 0.1250-0.8750 0.3750 (   368 PWs)   bands (ev):

    -2.5812  -1.0616   1.8993   2.9468

          k =-0.3750-0.1250 0.6250 (   365 PWs)   bands (ev):

    -3.7761   0.0260   2.5810   3.9219

          k =-0.8750-1.1250 0.6250 (   358 PWs)   bands (ev):

    -5.1898   2.5732   4.5085   4.5601

          k = 0.1250 0.6250 0.3750 (   365 PWs)   bands (ev):

    -3.7761   0.0260   2.5810   3.9219

          k =-0.3750-0.3750 0.3750 (   359 PWs)   bands (ev):

    -4.2812  -0.0282   4.7164   4.7164

          k =-0.1250 0.6250-0.3750 (   365 PWs)   bands (ev):

    -3.7761   0.0260   2.5810   3.9219

          k =-0.6250-0.3750-0.3750 (   364 PWs)   bands (ev):

    -3.5950  -0.8022   3.5568   4.2640

          k = 0.1250-0.8750-0.1250 (   364 PWs)   bands (ev):

    -2.7389  -0.9692   2.4908   3.1928

          k =-0.3750-1.8750-0.1250 (   358 PWs)   bands (ev):

    -5.1898   2.5732   4.5085   4.5601

          k =-0.8750 0.1250-0.1250 (   364 PWs)   bands (ev):

    -2.7389  -0.9692   2.4908   3.1928

          k =-1.3750-0.8750-0.1250 (   368 PWs)   bands (ev):

    -2.5812  -1.0616   1.8993   2.9468

          k =-1.1250 0.3750-0.3750 (   369 PWs)   bands (ev):

    -3.1089  -0.7454   1.9473   3.9550

          k =-1.6250-0.6250-0.3750 (   364 PWs)   bands (ev):

    -3.5950  -0.8022   3.5568   4.2640

          k =-0.3750 0.3750 1.1250 (   369 PWs)   bands (ev):

    -3.1089  -0.7454   1.9473   3.9550

          k =-0.8750-0.6250 1.1250 (   358 PWs)   bands (ev):

    -5.1898   2.5732   4.5085   4.5601

     highest occupied level (ev):     5.4931

     Writing output data file silicon.10.406.save

                                                                                

     bravais-lattice index     =            2
     lattice parameter (alat)  =      10.4060  a.u.
     unit-cell volume          =     281.7030 (a.u.)^3
     number of atoms/cell      =            2
     number of atomic types    =            1
     kinetic-energy cut-off    =      18.0000  Ry
     charge density cut-off    =      72.0000  Ry
     convergence threshold     =      1.0E-12
     beta                      =       0.7000
     number of iterations used =            4
     Exchange-correlation      = SLA  PW   PBE  PBE ( 1  4  3  4 0 0)


     celldm(1)=   10.40600  celldm(2)=    0.00000  celldm(3)=    0.00000
     celldm(4)=    0.00000  celldm(5)=    0.00000  celldm(6)=    0.00000

     crystal axes: (cart. coord. in units of alat)
               a(1) = ( -0.5000  0.0000  0.5000 )  
               a(2) = (  0.0000  0.5000  0.5000 )  
               a(3) = ( -0.5000  0.5000  0.0000 )  

     reciprocal axes: (cart. coord. in units 2 pi/alat)
               b(1) = ( -1.0000 -1.0000  1.0000 )  
               b(2) = (  1.0000  1.0000  1.0000 )  
               b(3) = ( -1.0000  1.0000 -1.0000 )  


     Atoms inside the unit cell: 

     Cartesian axes

     site n.  atom      mass           positions (alat units)
        1     Si  28.0860   tau(    1) = (    0.00000    0.00000    0.00000  )
        2     Si  28.0860   tau(    2) = (    0.25000    0.25000    0.25000  )

     Computing dynamical matrix for 
                    q = (  -0.5000000  -1.0000000   0.0000000 )

      8 Sym.Ops. (no q -> -q+G )


     G cutoff =  197.4879  (    722 G-vectors)     FFT grid: ( 20, 20, 20)
     number of k points=    64

     PseudoPot. # 1 for Si read from file:
     /home/max/quantum_espresso/qe-6.1/pseudo/si_pbe_v1.uspp.F.UPF.txt
     MD5 check sum: a056efeee980c13900f22a371efd63c1
     Pseudo is Ultrasoft + core correction, Zval =  4.0
     Generated by new atomic code, or converted to UPF format
     Using radial grid of  899 points,  6 beta functions with: 
                l(1) =   0
                l(2) =   0
                l(3) =   1
                l(4) =   1
                l(5) =   2
                l(6) =   2
     Q(r) pseudized with  8 coefficients,  rinner =    0.900   0.900   0.900
                                                       0.900   0.900


     Atomic displacements:
     There are   3 irreducible representations

     Representation     1      2 modes -  To be done

     Representation     2      2 modes -  To be done

     Representation     3      2 modes -  To be done



     Alpha used in Ewald sum =   0.7000
     PHONON       :  1m19.92s CPU     1m27.66s WALL



     Representation #  1 modes #   1  2

     Self-consistent Calculation

      iter #   1 total cpu time :    87.9 secs   av.it.:   5.3
      thresh= 1.000E-02 alpha_mix =  0.700 |ddv_scf|^2 =  6.326E-06

      iter #   2 total cpu time :    88.2 secs   av.it.:   9.8
      thresh= 2.515E-04 alpha_mix =  0.700 |ddv_scf|^2 =  3.403E-06

      iter #   3 total cpu time :    88.5 secs   av.it.:   9.3
      thresh= 1.845E-04 alpha_mix =  0.700 |ddv_scf|^2 =  8.560E-09

      iter #   4 total cpu time :    88.9 secs   av.it.:   9.1
      thresh= 9.252E-06 alpha_mix =  0.700 |ddv_scf|^2 =  2.756E-11

      iter #   5 total cpu time :    89.5 secs   av.it.:   9.0
      thresh= 5.250E-07 alpha_mix =  0.700 |ddv_scf|^2 =  7.149E-13

     End of self-consistent calculation

     Convergence has been achieved 


     Representation #  2 modes #   3  4

     Self-consistent Calculation

      iter #   1 total cpu time :    89.7 secs   av.it.:   5.3
      thresh= 1.000E-02 alpha_mix =  0.700 |ddv_scf|^2 =  9.693E-06

      iter #   2 total cpu time :    90.1 secs   av.it.:   9.9
      thresh= 3.113E-04 alpha_mix =  0.700 |ddv_scf|^2 =  1.320E-05

      iter #   3 total cpu time :    90.4 secs   av.it.:   9.1
      thresh= 3.634E-04 alpha_mix =  0.700 |ddv_scf|^2 =  1.021E-08

      iter #   4 total cpu time :    90.7 secs   av.it.:   8.9
      thresh= 1.011E-05 alpha_mix =  0.700 |ddv_scf|^2 =  9.781E-11

      iter #   5 total cpu time :    91.3 secs   av.it.:   9.4
      thresh= 9.890E-07 alpha_mix =  0.700 |ddv_scf|^2 =  1.872E-12

      iter #   6 total cpu time :    91.6 secs   av.it.:   9.1
      thresh= 1.368E-07 alpha_mix =  0.700 |ddv_scf|^2 =  1.624E-14

     End of self-consistent calculation

     Convergence has been achieved 


     Representation #  3 modes #   5  6

     Self-consistent Calculation

      iter #   1 total cpu time :    91.9 secs   av.it.:   5.1
      thresh= 1.000E-02 alpha_mix =  0.700 |ddv_scf|^2 =  2.626E-06

      iter #   2 total cpu time :    92.2 secs   av.it.:   9.7
      thresh= 1.621E-04 alpha_mix =  0.700 |ddv_scf|^2 =  1.435E-06

      iter #   3 total cpu time :    92.5 secs   av.it.:   9.1
      thresh= 1.198E-04 alpha_mix =  0.700 |ddv_scf|^2 =  8.154E-09

      iter #   4 total cpu time :    92.9 secs   av.it.:   8.7
      thresh= 9.030E-06 alpha_mix =  0.700 |ddv_scf|^2 =  4.840E-11

      iter #   5 total cpu time :    93.5 secs   av.it.:   9.1
      thresh= 6.957E-07 alpha_mix =  0.700 |ddv_scf|^2 =  7.379E-13

     End of self-consistent calculation

     Convergence has been achieved 

     Number of q in the star =    6
     List of q in the star:
          1  -0.500000000  -1.000000000   0.000000000
          2   0.000000000   1.000000000   0.500000000
          3   0.000000000  -1.000000000  -0.500000000
          4   0.500000000   1.000000000   0.000000000
          5  -1.000000000  -0.500000000   0.000000000
          6   0.000000000  -0.500000000  -1.000000000

     Diagonalizing the dynamical matrix

     q = (   -0.500000000  -1.000000000   0.000000000 ) 

 **************************************************************************
     freq (    1) =       7.812530 [THz] =     260.597947 [cm-1]
     freq (    2) =       7.812530 [THz] =     260.597947 [cm-1]
     freq (    3) =      11.013847 [THz] =     367.382380 [cm-1]
     freq (    4) =      11.013847 [THz] =     367.382380 [cm-1]
     freq (    5) =      13.727598 [THz] =     457.903390 [cm-1]
     freq (    6) =      13.727598 [THz] =     457.903390 [cm-1]
 **************************************************************************

     init_run     :      0.52s CPU      0.54s WALL (       7 calls)
     electrons    :      5.49s CPU      6.08s WALL (       7 calls)

     Called by init_run:
     wfcinit      :      0.00s CPU      0.00s WALL (       7 calls)
     potinit      :      0.02s CPU      0.02s WALL (       7 calls)

     Called by electrons:
     c_bands      :      5.48s CPU      6.04s WALL (       7 calls)
     v_of_rho     :      0.01s CPU      0.01s WALL (       8 calls)
     newd         :      0.03s CPU      0.03s WALL (       8 calls)

     Called by c_bands:
     init_us_2    :      0.68s CPU      0.74s WALL (   17588 calls)
     cegterg      :      4.59s CPU      5.03s WALL (     796 calls)

     Called by sum_band:

     Called by *egterg:
     h_psi        :     46.58s CPU     51.13s WALL (  152260 calls)
     s_psi        :      5.84s CPU      6.33s WALL (  309240 calls)
     g_psi        :      0.03s CPU      0.03s WALL (    9268 calls)
     cdiaghg      :      0.46s CPU      0.48s WALL (   10064 calls)

     Called by h_psi:
     h_psi:pot    :     46.39s CPU     50.93s WALL (  152260 calls)
     h_psi:calbec :      5.08s CPU      5.66s WALL (  152260 calls)
     vloc_psi     :     38.18s CPU     41.89s WALL (  152260 calls)
     add_vuspsi   :      2.92s CPU      3.16s WALL (  152260 calls)

     General routines
     calbec       :     11.10s CPU     12.26s WALL (  345612 calls)
     fft          :      0.67s CPU      0.76s WALL (    5239 calls)
     ffts         :      0.13s CPU      0.14s WALL (    2748 calls)
     fftw         :     44.49s CPU     48.86s WALL ( 1378548 calls)
     davcio       :      0.33s CPU      0.38s WALL (   79045 calls)

     Parallel routines
     fft_scatter  :     12.92s CPU     14.86s WALL ( 1386535 calls)

     PHONON       :  1m25.34s CPU     1m33.49s WALL

     INITIALIZATION: 
     phq_setup    :      0.05s CPU      0.05s WALL (       8 calls)
     phq_init     :      2.44s CPU      2.66s WALL (       8 calls)

     phq_init     :      2.44s CPU      2.66s WALL (       8 calls)
     set_drhoc    :      0.29s CPU      0.30s WALL (      24 calls)
     init_vloc    :      0.01s CPU      0.01s WALL (       8 calls)
     init_us_1    :      0.48s CPU      0.48s WALL (       8 calls)
     newd         :      0.03s CPU      0.03s WALL (       8 calls)
     dvanqq       :      0.24s CPU      0.24s WALL (       8 calls)
     drho         :      1.29s CPU      1.45s WALL (       8 calls)

     DYNAMICAL MATRIX:
     dynmat0      :      0.65s CPU      0.66s WALL (       8 calls)
     phqscf       :     74.10s CPU     81.30s WALL (       8 calls)
     dynmatrix    :      0.01s CPU      0.02s WALL (       8 calls)

     phqscf       :     74.10s CPU     81.30s WALL (       8 calls)
     solve_linter :     73.43s CPU     80.57s WALL (      32 calls)
     drhodv       :      0.46s CPU      0.51s WALL (      32 calls)

     dynmat0      :      0.65s CPU      0.66s WALL (       8 calls)
     dynmat_us    :      0.36s CPU      0.37s WALL (       8 calls)
     d2ionq       :      0.00s CPU      0.01s WALL (       8 calls)
     dynmatcc     :      0.25s CPU      0.25s WALL (       8 calls)

     dynmat_us    :      0.36s CPU      0.37s WALL (       8 calls)
     addusdynmat  :      0.00s CPU      0.00s WALL (       8 calls)

     phqscf       :     74.10s CPU     81.30s WALL (       8 calls)
     solve_linter :     73.43s CPU     80.57s WALL (      32 calls)

     solve_linter :     73.43s CPU     80.57s WALL (      32 calls)
     dvqpsi_us    :      1.60s CPU      1.66s WALL (    2508 calls)
     ortho        :      1.11s CPU      1.20s WALL (   15550 calls)
     cgsolve      :     57.94s CPU     63.67s WALL (   15550 calls)
     incdrhoscf   :      5.04s CPU      5.53s WALL (   15550 calls)
     addusddens   :      1.19s CPU      1.24s WALL (     228 calls)
     vpsifft      :      3.61s CPU      3.95s WALL (   12922 calls)
     dv_of_drho   :      0.41s CPU      0.43s WALL (     295 calls)
     mix_pot      :      0.06s CPU      0.06s WALL (     201 calls)
     psymdvscf    :      0.80s CPU      0.83s WALL (     196 calls)
     newdq        :      1.32s CPU      1.42s WALL (     201 calls)
     adddvscf     :      0.46s CPU      0.52s WALL (   13042 calls)
     drhodvus     :      0.00s CPU      0.00s WALL (      32 calls)

     dvqpsi_us    :      1.60s CPU      1.66s WALL (    2508 calls)
     dvqpsi_us_on :      0.82s CPU      0.85s WALL (    2508 calls)

     cgsolve      :     57.94s CPU     63.67s WALL (   15550 calls)
     ch_psi       :     55.23s CPU     60.58s WALL (  141400 calls)

     ch_psi       :     55.23s CPU     60.58s WALL (  141400 calls)
     h_psi        :     46.58s CPU     51.13s WALL (  152260 calls)
     last         :      9.38s CPU     10.35s WALL (  141400 calls)

     h_psi        :     46.58s CPU     51.13s WALL (  152260 calls)
     add_vuspsi   :      2.92s CPU      3.16s WALL (  152260 calls)

     incdrhoscf   :      5.04s CPU      5.53s WALL (   15550 calls)
     addusdbec    :      0.75s CPU      0.84s WALL (   17998 calls)

     drhodvus     :      0.00s CPU      0.00s WALL (      32 calls)

      General routines
     calbec       :     11.10s CPU     12.26s WALL (  345612 calls)
     fft          :      0.67s CPU      0.76s WALL (    5239 calls)
     ffts         :      0.13s CPU      0.14s WALL (    2748 calls)
     fftw         :     44.49s CPU     48.86s WALL ( 1378548 calls)
     davcio       :      0.33s CPU      0.38s WALL (   79045 calls)
     write_rec    :      0.23s CPU      0.24s WALL (     233 calls)


     PHONON       :  1m25.34s CPU     1m33.49s WALL


   This run was terminated on:  17:47:41   9Nov2017            

=------------------------------------------------------------------------------=
   JOB DONE.
=------------------------------------------------------------------------------=
