
     Program PHONON v.6.1 (svn rev. 13369) starts on  9Nov2017 at 12:32:37 

     This program is part of the open-source Quantum ESPRESSO suite
     for quantum simulation of materials; please cite
         "P. Giannozzi et al., J. Phys.:Condens. Matter 21 395502 (2009);
          URL http://www.quantum-espresso.org", 
     in publications or presentations arising from this work. More details at
     http://www.quantum-espresso.org/quote

     Parallel version (MPI), running on     4 processors
     R & G space division:  proc/nbgrp/npool/nimage =       4

     Reading data from directory:
     ./silicon.10.338.save

   Info: using nr1, nr2, nr3 values from input

   Info: using nr1, nr2, nr3 values from input

     IMPORTANT: XC functional enforced from input :
     Exchange-correlation      = SLA  PW   PBE  PBE ( 1  4  3  4 0 0)
     Any further DFT definition will be discarded
     Please, verify this is what you really want


     Parallelization info
     --------------------
     sticks:   dense  smooth     PW     G-vecs:    dense   smooth      PW
     Min          63      63     22                  684      684     140
     Max          64      64     23                  688      688     141
     Sum         253     253     91                 2741     2741     561


     Check: negative/imaginary core charge=   -0.000005    0.000000


     Dynamical matrices for ( 4, 4, 4)  uniform grid of q-points
     (   8q-points):
       N         xq(1)         xq(2)         xq(3) 
       1   0.000000000   0.000000000   0.000000000
       2  -0.250000000   0.250000000  -0.250000000
       3   0.500000000  -0.500000000   0.500000000
       4   0.000000000   0.500000000   0.000000000
       5   0.750000000  -0.250000000   0.750000000
       6   0.500000000   0.000000000   0.500000000
       7   0.000000000  -1.000000000   0.000000000
       8  -0.500000000  -1.000000000   0.000000000

     Calculation of q =    0.0000000   0.0000000   0.0000000

                                                                                

     bravais-lattice index     =            2
     lattice parameter (alat)  =      10.3380  a.u.
     unit-cell volume          =     276.2165 (a.u.)^3
     number of atoms/cell      =            2
     number of atomic types    =            1
     kinetic-energy cut-off    =      18.0000  Ry
     charge density cut-off    =      72.0000  Ry
     convergence threshold     =      1.0E-12
     beta                      =       0.7000
     number of iterations used =            4
     Exchange-correlation      = SLA  PW   PBE  PBE ( 1  4  3  4 0 0)


     celldm(1)=   10.33800  celldm(2)=    0.00000  celldm(3)=    0.00000
     celldm(4)=    0.00000  celldm(5)=    0.00000  celldm(6)=    0.00000

     crystal axes: (cart. coord. in units of alat)
               a(1) = ( -0.5000  0.0000  0.5000 )  
               a(2) = (  0.0000  0.5000  0.5000 )  
               a(3) = ( -0.5000  0.5000  0.0000 )  

     reciprocal axes: (cart. coord. in units 2 pi/alat)
               b(1) = ( -1.0000 -1.0000  1.0000 )  
               b(2) = (  1.0000  1.0000  1.0000 )  
               b(3) = ( -1.0000  1.0000 -1.0000 )  


     Atoms inside the unit cell: 

     Cartesian axes

     site n.  atom      mass           positions (alat units)
        1     Si  28.0860   tau(    1) = (    0.00000    0.00000    0.00000  )
        2     Si  28.0860   tau(    2) = (    0.25000    0.25000    0.25000  )

     Computing dynamical matrix for 
                    q = (   0.0000000   0.0000000   0.0000000 )

     49 Sym.Ops. (with q -> -q+G )


     G cutoff =  194.9152  (    685 G-vectors)     FFT grid: ( 20, 20, 20)
     number of k points=    10

     PseudoPot. # 1 for Si read from file:
     /home/max/quantum_espresso/qe-6.1/pseudo/si_pbe_v1.uspp.F.UPF.txt
     MD5 check sum: a056efeee980c13900f22a371efd63c1
     Pseudo is Ultrasoft + core correction, Zval =  4.0
     Generated by new atomic code, or converted to UPF format
     Using radial grid of  899 points,  6 beta functions with: 
                l(1) =   0
                l(2) =   0
                l(3) =   1
                l(4) =   1
                l(5) =   2
                l(6) =   2
     Q(r) pseudized with  8 coefficients,  rinner =    0.900   0.900   0.900
                                                       0.900   0.900

     Mode symmetry, O_h (m-3m)  point group:


     Electric field:
     Dielectric constant
     Born effective charges in two ways 


     Atomic displacements:
     There are   2 irreducible representations

     Representation     1      3 modes -T_2g G_25' G_5+  To be done

     Representation     2      3 modes -T_1u G_15  G_4-  To be done



     Alpha used in Ewald sum =   0.7000
     PHONON       :     0.41s CPU         0.43s WALL


     Electric Fields Calculation

      iter #   1 total cpu time :     0.9 secs   av.it.:   5.6
      thresh= 1.000E-02 alpha_mix =  0.700 |ddv_scf|^2 =  9.059E-07

      iter #   2 total cpu time :     1.1 secs   av.it.:   9.9
      thresh= 9.518E-05 alpha_mix =  0.700 |ddv_scf|^2 =  5.587E-08

      iter #   3 total cpu time :     1.4 secs   av.it.:   9.8
      thresh= 2.364E-05 alpha_mix =  0.700 |ddv_scf|^2 =  4.241E-09

      iter #   4 total cpu time :     1.6 secs   av.it.:   9.0
      thresh= 6.513E-06 alpha_mix =  0.700 |ddv_scf|^2 =  2.512E-11

      iter #   5 total cpu time :     1.8 secs   av.it.:   9.2
      thresh= 5.012E-07 alpha_mix =  0.700 |ddv_scf|^2 =  1.334E-14

     End of electric fields calculation

          Dielectric constant in cartesian axis 

          (      13.880187711      -0.000000000       0.000000000 )
          (      -0.000000000      13.880187711      -0.000000000 )
          (      -0.000000000      -0.000000000      13.880187711 )

          Effective charges (d Force / dE) in cartesian axis

           atom      1   Si 
      Ex  (       -0.03106       -0.00000        0.00000 )
      Ey  (       -0.00000       -0.03106        0.00000 )
      Ez  (        0.00000        0.00000       -0.03106 )
           atom      2   Si 
      Ex  (       -0.03106       -0.00000       -0.00000 )
      Ey  (       -0.00000       -0.03106        0.00000 )
      Ez  (       -0.00000        0.00000       -0.03106 )


     Representation #  1 modes #   1  2  3

     Self-consistent Calculation

      iter #   1 total cpu time :     2.2 secs   av.it.:   4.9
      thresh= 1.000E-02 alpha_mix =  0.700 |ddv_scf|^2 =  2.259E-07

      iter #   2 total cpu time :     2.4 secs   av.it.:   9.8
      thresh= 4.753E-05 alpha_mix =  0.700 |ddv_scf|^2 =  1.402E-08

      iter #   3 total cpu time :     2.6 secs   av.it.:   9.3
      thresh= 1.184E-05 alpha_mix =  0.700 |ddv_scf|^2 =  8.624E-10

      iter #   4 total cpu time :     2.8 secs   av.it.:   9.0
      thresh= 2.937E-06 alpha_mix =  0.700 |ddv_scf|^2 =  1.896E-12

      iter #   5 total cpu time :     3.0 secs   av.it.:   9.5
      thresh= 1.377E-07 alpha_mix =  0.700 |ddv_scf|^2 =  1.233E-14

     End of self-consistent calculation

     Convergence has been achieved 


     Representation #  2 modes #   4  5  6

     Self-consistent Calculation

      iter #   1 total cpu time :     3.4 secs   av.it.:   5.0
      thresh= 1.000E-02 alpha_mix =  0.700 |ddv_scf|^2 =  1.712E-07

      iter #   2 total cpu time :     3.6 secs   av.it.:   9.6
      thresh= 4.137E-05 alpha_mix =  0.700 |ddv_scf|^2 =  1.337E-08

      iter #   3 total cpu time :     3.8 secs   av.it.:   9.3
      thresh= 1.156E-05 alpha_mix =  0.700 |ddv_scf|^2 =  8.515E-10

      iter #   4 total cpu time :     4.0 secs   av.it.:   9.5
      thresh= 2.918E-06 alpha_mix =  0.700 |ddv_scf|^2 =  5.100E-12

      iter #   5 total cpu time :     4.2 secs   av.it.:   9.0
      thresh= 2.258E-07 alpha_mix =  0.700 |ddv_scf|^2 =  4.447E-15

     End of self-consistent calculation

     Convergence has been achieved 

     Number of q in the star =    1
     List of q in the star:
          1   0.000000000   0.000000000   0.000000000

          Dielectric constant in cartesian axis 

          (      13.880187711      -0.000000000       0.000000000 )
          (      -0.000000000      13.880187711      -0.000000000 )
          (      -0.000000000      -0.000000000      13.880187711 )

          Effective charges (d Force / dE) in cartesian axis

           atom      1   Si 
      Ex  (       -0.03106       -0.00000        0.00000 )
      Ey  (       -0.00000       -0.03106        0.00000 )
      Ez  (        0.00000        0.00000       -0.03106 )
           atom      2   Si 
      Ex  (       -0.03106       -0.00000       -0.00000 )
      Ey  (       -0.00000       -0.03106        0.00000 )
      Ez  (       -0.00000        0.00000       -0.03106 )

          Effective charges (d P / du) in cartesian axis 

           atom      1   Si 
      Px  (       -0.07267        0.00000       -0.00000 )
      Py  (        0.00000       -0.07267        0.00000 )
      Pz  (       -0.00000       -0.00000       -0.07267 )
           atom      2   Si 
      Px  (       -0.07267        0.00000       -0.00000 )
      Py  (        0.00000       -0.07267        0.00000 )
      Pz  (       -0.00000        0.00000       -0.07267 )

     Diagonalizing the dynamical matrix

     q = (    0.000000000   0.000000000   0.000000000 ) 

 **************************************************************************
     freq (    1) =       1.950105 [THz] =      65.048493 [cm-1]
     freq (    2) =       1.950105 [THz] =      65.048493 [cm-1]
     freq (    3) =       1.950105 [THz] =      65.048493 [cm-1]
     freq (    4) =      14.990417 [THz] =     500.026480 [cm-1]
     freq (    5) =      14.990417 [THz] =     500.026480 [cm-1]
     freq (    6) =      14.990417 [THz] =     500.026480 [cm-1]
 **************************************************************************

     Mode symmetry, O_h (m-3m)  point group:

     freq (  1 -  3) =         65.0  [cm-1]   --> T_1u G_15  G_4- I  
     freq (  4 -  6) =        500.0  [cm-1]   --> T_2g G_25' G_5+ R  

     Calculation of q =   -0.2500000   0.2500000  -0.2500000

   Info: using nr1, nr2, nr3 values from input

   Info: using nr1, nr2, nr3 values from input

     Parallelization info
     --------------------
     sticks:   dense  smooth     PW     G-vecs:    dense   smooth      PW
     Min          63      63     24                  684      684     161
     Max          64      64     25                  688      688     162
     Sum         253     253     97                 2741     2741     645



     bravais-lattice index     =            2
     lattice parameter (alat)  =      10.3380  a.u.
     unit-cell volume          =     276.2165 (a.u.)^3
     number of atoms/cell      =            2
     number of atomic types    =            1
     number of electrons       =         8.00
     number of Kohn-Sham states=            4
     kinetic-energy cutoff     =      18.0000  Ry
     charge density cutoff     =      72.0000  Ry
     Exchange-correlation      = SLA  PW   PBE  PBE ( 1  4  3  4 0 0)

     celldm(1)=  10.338000  celldm(2)=   0.000000  celldm(3)=   0.000000
     celldm(4)=   0.000000  celldm(5)=   0.000000  celldm(6)=   0.000000

     crystal axes: (cart. coord. in units of alat)
               a(1) = (  -0.500000   0.000000   0.500000 )  
               a(2) = (   0.000000   0.500000   0.500000 )  
               a(3) = (  -0.500000   0.500000   0.000000 )  

     reciprocal axes: (cart. coord. in units 2 pi/alat)
               b(1) = ( -1.000000 -1.000000  1.000000 )  
               b(2) = (  1.000000  1.000000  1.000000 )  
               b(3) = ( -1.000000  1.000000 -1.000000 )  


     PseudoPot. # 1 for Si read from file:
     /home/max/quantum_espresso/qe-6.1/pseudo/si_pbe_v1.uspp.F.UPF.txt
     MD5 check sum: a056efeee980c13900f22a371efd63c1
     Pseudo is Ultrasoft + core correction, Zval =  4.0
     Generated by new atomic code, or converted to UPF format
     Using radial grid of  899 points,  6 beta functions with: 
                l(1) =   0
                l(2) =   0
                l(3) =   1
                l(4) =   1
                l(5) =   2
                l(6) =   2
     Q(r) pseudized with  8 coefficients,  rinner =    0.900   0.900   0.900
                                                       0.900   0.900

     atomic species   valence    mass     pseudopotential
        Si             4.00    28.08600     Si( 1.00)

     48 Sym. Ops., with inversion, found



   Cartesian axes

     site n.     atom                  positions (alat units)
         1           Si  tau(   1) = (   0.0000000   0.0000000   0.0000000  )
         2           Si  tau(   2) = (   0.2500000   0.2500000   0.2500000  )

     number of k points=   120

     Number of k-points >= 100: set verbosity='high' to print them.

     Dense  grid:     2741 G-vectors     FFT dimensions: (  20,  20,  20)

     Estimated max dynamical RAM per process >       0.33MB

     Estimated total allocated dynamical RAM >       1.31MB

     Check: negative/imaginary core charge=   -0.000005    0.000000

     The potential is recalculated from file :
     ./_ph0/silicon.10.338.save/charge-density.dat

     Starting wfc are    8 atomic wfcs

     Band Structure Calculation
     Davidson diagonalization with overlap

     ethr =  1.25E-10,  avg # of iterations = 11.7

     total cpu time spent up to now is        1.0 secs

     End of band structure calculation

     Number of k-points >= 100: set verbosity='high' to print the bands.

     highest occupied level (ev):     5.6872

     Writing output data file silicon.10.338.save

                                                                                

     bravais-lattice index     =            2
     lattice parameter (alat)  =      10.3380  a.u.
     unit-cell volume          =     276.2165 (a.u.)^3
     number of atoms/cell      =            2
     number of atomic types    =            1
     kinetic-energy cut-off    =      18.0000  Ry
     charge density cut-off    =      72.0000  Ry
     convergence threshold     =      1.0E-12
     beta                      =       0.7000
     number of iterations used =            4
     Exchange-correlation      = SLA  PW   PBE  PBE ( 1  4  3  4 0 0)


     celldm(1)=   10.33800  celldm(2)=    0.00000  celldm(3)=    0.00000
     celldm(4)=    0.00000  celldm(5)=    0.00000  celldm(6)=    0.00000

     crystal axes: (cart. coord. in units of alat)
               a(1) = ( -0.5000  0.0000  0.5000 )  
               a(2) = (  0.0000  0.5000  0.5000 )  
               a(3) = ( -0.5000  0.5000  0.0000 )  

     reciprocal axes: (cart. coord. in units 2 pi/alat)
               b(1) = ( -1.0000 -1.0000  1.0000 )  
               b(2) = (  1.0000  1.0000  1.0000 )  
               b(3) = ( -1.0000  1.0000 -1.0000 )  


     Atoms inside the unit cell: 

     Cartesian axes

     site n.  atom      mass           positions (alat units)
        1     Si  28.0860   tau(    1) = (    0.00000    0.00000    0.00000  )
        2     Si  28.0860   tau(    2) = (    0.25000    0.25000    0.25000  )

     Computing dynamical matrix for 
                    q = (  -0.2500000   0.2500000  -0.2500000 )

      6 Sym.Ops. (no q -> -q+G )


     G cutoff =  194.9152  (    685 G-vectors)     FFT grid: ( 20, 20, 20)
     number of k points=   120

     PseudoPot. # 1 for Si read from file:
     /home/max/quantum_espresso/qe-6.1/pseudo/si_pbe_v1.uspp.F.UPF.txt
     MD5 check sum: a056efeee980c13900f22a371efd63c1
     Pseudo is Ultrasoft + core correction, Zval =  4.0
     Generated by new atomic code, or converted to UPF format
     Using radial grid of  899 points,  6 beta functions with: 
                l(1) =   0
                l(2) =   0
                l(3) =   1
                l(4) =   1
                l(5) =   2
                l(6) =   2
     Q(r) pseudized with  8 coefficients,  rinner =    0.900   0.900   0.900
                                                       0.900   0.900

     Mode symmetry, C_3v (3m)   point group:


     Atomic displacements:
     There are   4 irreducible representations

     Representation     1      1 modes -A_1  L_1  To be done

     Representation     2      1 modes -A_1  L_1  To be done

     Representation     3      2 modes -E    L_3  To be done

     Representation     4      2 modes -E    L_3  To be done



     Alpha used in Ewald sum =   0.7000
     PHONON       :     5.21s CPU         5.75s WALL



     Representation #  1 mode #   1

     Self-consistent Calculation

      iter #   1 total cpu time :     6.0 secs   av.it.:   5.5
      thresh= 1.000E-02 alpha_mix =  0.700 |ddv_scf|^2 =  2.468E-03

      iter #   2 total cpu time :     6.3 secs   av.it.:   7.5
      thresh= 4.967E-03 alpha_mix =  0.700 |ddv_scf|^2 =  3.726E-02

      iter #   3 total cpu time :     6.5 secs   av.it.:   6.3
      thresh= 1.000E-02 alpha_mix =  0.700 |ddv_scf|^2 =  1.715E-06

      iter #   4 total cpu time :     6.8 secs   av.it.:   8.2
      thresh= 1.310E-04 alpha_mix =  0.700 |ddv_scf|^2 =  1.152E-07

      iter #   5 total cpu time :     7.3 secs   av.it.:   8.1
      thresh= 3.394E-05 alpha_mix =  0.700 |ddv_scf|^2 =  4.392E-09

      iter #   6 total cpu time :     7.6 secs   av.it.:   8.0
      thresh= 6.628E-06 alpha_mix =  0.700 |ddv_scf|^2 =  4.612E-09

      iter #   7 total cpu time :     7.8 secs   av.it.:   6.1
      thresh= 6.791E-06 alpha_mix =  0.700 |ddv_scf|^2 =  4.396E-10

      iter #   8 total cpu time :     8.1 secs   av.it.:   7.3
      thresh= 2.097E-06 alpha_mix =  0.700 |ddv_scf|^2 =  3.771E-12

      iter #   9 total cpu time :     8.4 secs   av.it.:   7.1
      thresh= 1.942E-07 alpha_mix =  0.700 |ddv_scf|^2 =  1.355E-13

     End of self-consistent calculation

     Convergence has been achieved 


     Representation #  2 mode #   2

     Self-consistent Calculation

      iter #   1 total cpu time :     8.6 secs   av.it.:   5.5
      thresh= 1.000E-02 alpha_mix =  0.700 |ddv_scf|^2 =  2.468E-03

      iter #   2 total cpu time :     8.9 secs   av.it.:   7.5
      thresh= 4.967E-03 alpha_mix =  0.700 |ddv_scf|^2 =  3.726E-02

      iter #   3 total cpu time :     9.4 secs   av.it.:   6.3
      thresh= 1.000E-02 alpha_mix =  0.700 |ddv_scf|^2 =  1.715E-06

      iter #   4 total cpu time :     9.6 secs   av.it.:   8.2
      thresh= 1.310E-04 alpha_mix =  0.700 |ddv_scf|^2 =  1.152E-07

      iter #   5 total cpu time :     9.9 secs   av.it.:   8.1
      thresh= 3.394E-05 alpha_mix =  0.700 |ddv_scf|^2 =  4.392E-09

      iter #   6 total cpu time :    10.2 secs   av.it.:   8.0
      thresh= 6.628E-06 alpha_mix =  0.700 |ddv_scf|^2 =  4.612E-09

      iter #   7 total cpu time :    10.5 secs   av.it.:   6.1
      thresh= 6.791E-06 alpha_mix =  0.700 |ddv_scf|^2 =  4.396E-10

      iter #   8 total cpu time :    10.8 secs   av.it.:   7.3
      thresh= 2.097E-06 alpha_mix =  0.700 |ddv_scf|^2 =  3.771E-12

      iter #   9 total cpu time :    11.0 secs   av.it.:   7.1
      thresh= 1.942E-07 alpha_mix =  0.700 |ddv_scf|^2 =  1.355E-13

     End of self-consistent calculation

     Convergence has been achieved 


     Representation #  3 modes #   3  4

     Self-consistent Calculation

      iter #   1 total cpu time :    11.7 secs   av.it.:   4.9
      thresh= 1.000E-02 alpha_mix =  0.700 |ddv_scf|^2 =  5.576E-07

      iter #   2 total cpu time :    12.3 secs   av.it.:   9.5
      thresh= 7.467E-05 alpha_mix =  0.700 |ddv_scf|^2 =  4.121E-08

      iter #   3 total cpu time :    13.0 secs   av.it.:   9.2
      thresh= 2.030E-05 alpha_mix =  0.700 |ddv_scf|^2 =  3.544E-09

      iter #   4 total cpu time :    13.8 secs   av.it.:   9.0
      thresh= 5.953E-06 alpha_mix =  0.700 |ddv_scf|^2 =  1.088E-11

      iter #   5 total cpu time :    14.5 secs   av.it.:   9.2
      thresh= 3.298E-07 alpha_mix =  0.700 |ddv_scf|^2 =  4.942E-13

     End of self-consistent calculation

     Convergence has been achieved 


     Representation #  4 modes #   5  6

     Self-consistent Calculation

      iter #   1 total cpu time :    14.9 secs   av.it.:   5.0
      thresh= 1.000E-02 alpha_mix =  0.700 |ddv_scf|^2 =  5.575E-07

      iter #   2 total cpu time :    15.8 secs   av.it.:   9.6
      thresh= 7.467E-05 alpha_mix =  0.700 |ddv_scf|^2 =  4.116E-08

      iter #   3 total cpu time :    16.4 secs   av.it.:   9.4
      thresh= 2.029E-05 alpha_mix =  0.700 |ddv_scf|^2 =  3.541E-09

      iter #   4 total cpu time :    17.3 secs   av.it.:   9.1
      thresh= 5.950E-06 alpha_mix =  0.700 |ddv_scf|^2 =  1.089E-11

      iter #   5 total cpu time :    17.9 secs   av.it.:   9.2
      thresh= 3.299E-07 alpha_mix =  0.700 |ddv_scf|^2 =  4.946E-13

     End of self-consistent calculation

     Convergence has been achieved 

     Number of q in the star =    8
     List of q in the star:
          1  -0.250000000   0.250000000  -0.250000000
          2   0.250000000  -0.250000000  -0.250000000
          3   0.250000000  -0.250000000   0.250000000
          4   0.250000000   0.250000000   0.250000000
          5  -0.250000000  -0.250000000  -0.250000000
          6  -0.250000000  -0.250000000   0.250000000
          7  -0.250000000   0.250000000   0.250000000
          8   0.250000000   0.250000000  -0.250000000

     Diagonalizing the dynamical matrix

     q = (   -0.250000000   0.250000000  -0.250000000 ) 

 **************************************************************************
     freq (    1) =       3.396100 [THz] =     113.281705 [cm-1]
     freq (    2) =       3.396100 [THz] =     113.281705 [cm-1]
     freq (    3) =       6.927840 [THz] =     231.087862 [cm-1]
     freq (    4) =      14.065172 [THz] =     469.163649 [cm-1]
     freq (    5) =      14.373815 [THz] =     479.458848 [cm-1]
     freq (    6) =      14.373815 [THz] =     479.458848 [cm-1]
 **************************************************************************

     Mode symmetry, C_3v (3m)   point group:

     freq (  1 -  2) =        113.3  [cm-1]   --> E    L_3           
     freq (  3 -  3) =        231.1  [cm-1]   --> A_1  L_1           
     freq (  4 -  4) =        469.2  [cm-1]   --> A_1  L_1           
     freq (  5 -  6) =        479.5  [cm-1]   --> E    L_3           

     Calculation of q =    0.5000000  -0.5000000   0.5000000

   Info: using nr1, nr2, nr3 values from input

   Info: using nr1, nr2, nr3 values from input

     Parallelization info
     --------------------
     sticks:   dense  smooth     PW     G-vecs:    dense   smooth      PW
     Min          63      63     27                  684      684     186
     Max          64      64     28                  688      688     189
     Sum         253     253    109                 2741     2741     749



     bravais-lattice index     =            2
     lattice parameter (alat)  =      10.3380  a.u.
     unit-cell volume          =     276.2165 (a.u.)^3
     number of atoms/cell      =            2
     number of atomic types    =            1
     number of electrons       =         8.00
     number of Kohn-Sham states=            4
     kinetic-energy cutoff     =      18.0000  Ry
     charge density cutoff     =      72.0000  Ry
     Exchange-correlation      = SLA  PW   PBE  PBE ( 1  4  3  4 0 0)

     celldm(1)=  10.338000  celldm(2)=   0.000000  celldm(3)=   0.000000
     celldm(4)=   0.000000  celldm(5)=   0.000000  celldm(6)=   0.000000

     crystal axes: (cart. coord. in units of alat)
               a(1) = (  -0.500000   0.000000   0.500000 )  
               a(2) = (   0.000000   0.500000   0.500000 )  
               a(3) = (  -0.500000   0.500000   0.000000 )  

     reciprocal axes: (cart. coord. in units 2 pi/alat)
               b(1) = ( -1.000000 -1.000000  1.000000 )  
               b(2) = (  1.000000  1.000000  1.000000 )  
               b(3) = ( -1.000000  1.000000 -1.000000 )  


     PseudoPot. # 1 for Si read from file:
     /home/max/quantum_espresso/qe-6.1/pseudo/si_pbe_v1.uspp.F.UPF.txt
     MD5 check sum: a056efeee980c13900f22a371efd63c1
     Pseudo is Ultrasoft + core correction, Zval =  4.0
     Generated by new atomic code, or converted to UPF format
     Using radial grid of  899 points,  6 beta functions with: 
                l(1) =   0
                l(2) =   0
                l(3) =   1
                l(4) =   1
                l(5) =   2
                l(6) =   2
     Q(r) pseudized with  8 coefficients,  rinner =    0.900   0.900   0.900
                                                       0.900   0.900

     atomic species   valence    mass     pseudopotential
        Si             4.00    28.08600     Si( 1.00)

     48 Sym. Ops., with inversion, found



   Cartesian axes

     site n.     atom                  positions (alat units)
         1           Si  tau(   1) = (   0.0000000   0.0000000   0.0000000  )
         2           Si  tau(   2) = (   0.2500000   0.2500000   0.2500000  )

     number of k points=    60
                       cart. coord. in units 2pi/alat
        k(    1) = (  -0.1250000   0.1250000   0.1250000), wk =   0.0468750
        k(    2) = (   0.3750000  -0.3750000   0.6250000), wk =   0.0000000
        k(    3) = (  -0.3750000   0.3750000  -0.1250000), wk =   0.0468750
        k(    4) = (   0.1250000  -0.1250000   0.3750000), wk =   0.0000000
        k(    5) = (   0.3750000  -0.3750000   0.6250000), wk =   0.0468750
        k(    6) = (   0.8750000  -0.8750000   1.1250000), wk =   0.0000000
        k(    7) = (   0.1250000  -0.1250000   0.3750000), wk =   0.0468750
        k(    8) = (   0.6250000  -0.6250000   0.8750000), wk =   0.0000000
        k(    9) = (  -0.1250000   0.6250000   0.1250000), wk =   0.0937500
        k(   10) = (   0.3750000   0.1250000   0.6250000), wk =   0.0000000
        k(   11) = (   0.6250000  -0.1250000   0.8750000), wk =   0.0937500
        k(   12) = (   1.1250000  -0.6250000   1.3750000), wk =   0.0000000
        k(   13) = (   0.3750000   0.1250000   0.6250000), wk =   0.0937500
        k(   14) = (   0.8750000  -0.3750000   1.1250000), wk =   0.0000000
        k(   15) = (  -0.1250000  -0.8750000   0.1250000), wk =   0.0937500
        k(   16) = (   0.3750000  -1.3750000   0.6250000), wk =   0.0000000
        k(   17) = (  -0.3750000   0.3750000   0.3750000), wk =   0.0468750
        k(   18) = (   0.1250000  -0.1250000   0.8750000), wk =   0.0000000
        k(   19) = (   0.3750000  -0.3750000   1.1250000), wk =   0.0468750
        k(   20) = (   0.8750000  -0.8750000   1.6250000), wk =   0.0000000
        k(   21) = (   0.1250000  -0.1250000   0.1250000), wk =   0.0156250
        k(   22) = (   0.6250000  -0.6250000   0.6250000), wk =   0.0000000
        k(   23) = (  -0.3750000  -0.3750000  -0.1250000), wk =   0.0937500
        k(   24) = (   0.1250000  -0.8750000   0.3750000), wk =   0.0000000
        k(   25) = (  -0.1250000  -0.3750000   0.3750000), wk =   0.0468750
        k(   26) = (   0.3750000  -0.8750000   0.8750000), wk =   0.0000000
        k(   27) = (   0.3750000   0.3750000   0.6250000), wk =   0.0937500
        k(   28) = (   0.8750000  -0.1250000   1.1250000), wk =   0.0000000
        k(   29) = (   0.6250000   0.3750000  -0.3750000), wk =   0.0468750
        k(   30) = (   1.1250000  -0.1250000   0.1250000), wk =   0.0000000
        k(   31) = (   0.1250000   0.1250000   0.3750000), wk =   0.0937500
        k(   32) = (   0.6250000  -0.3750000   0.8750000), wk =   0.0000000
        k(   33) = (   0.3750000   0.1250000  -0.1250000), wk =   0.0468750
        k(   34) = (   0.8750000  -0.3750000   0.3750000), wk =   0.0000000
        k(   35) = (  -0.1250000  -0.6250000  -0.1250000), wk =   0.0468750
        k(   36) = (   0.3750000  -1.1250000   0.3750000), wk =   0.0000000
        k(   37) = (   0.1250000  -0.6250000   0.1250000), wk =   0.0468750
        k(   38) = (   0.6250000  -1.1250000   0.6250000), wk =   0.0000000
        k(   39) = (   0.6250000   0.1250000   0.8750000), wk =   0.0937500
        k(   40) = (   1.1250000  -0.3750000   1.3750000), wk =   0.0000000
        k(   41) = (  -0.8750000   0.1250000   0.6250000), wk =   0.0937500
        k(   42) = (  -0.3750000  -0.3750000   1.1250000), wk =   0.0000000
        k(   43) = (   0.8750000   0.1250000  -0.6250000), wk =   0.0937500
        k(   44) = (   1.3750000  -0.3750000  -0.1250000), wk =   0.0000000
        k(   45) = (   0.3750000  -0.1250000   0.6250000), wk =   0.0937500
        k(   46) = (   0.8750000  -0.6250000   1.1250000), wk =   0.0000000
        k(   47) = (  -0.6250000  -0.1250000   0.3750000), wk =   0.0937500
        k(   48) = (  -0.1250000  -0.6250000   0.8750000), wk =   0.0000000
        k(   49) = (   0.6250000  -0.1250000  -0.3750000), wk =   0.0937500
        k(   50) = (   1.1250000  -0.6250000   0.1250000), wk =   0.0000000
        k(   51) = (  -0.1250000   0.8750000  -0.1250000), wk =   0.0468750
        k(   52) = (   0.3750000   0.3750000   0.3750000), wk =   0.0000000
        k(   53) = (   0.1250000   0.8750000   0.1250000), wk =   0.0468750
        k(   54) = (   0.6250000   0.3750000   0.6250000), wk =   0.0000000
        k(   55) = (   0.3750000  -0.3750000   0.3750000), wk =   0.0156250
        k(   56) = (   0.8750000  -0.8750000   0.8750000), wk =   0.0000000
        k(   57) = (   0.3750000   0.3750000   1.1250000), wk =   0.0937500
        k(   58) = (   0.8750000  -0.1250000   1.6250000), wk =   0.0000000
        k(   59) = (   1.1250000   0.3750000  -0.3750000), wk =   0.0468750
        k(   60) = (   1.6250000  -0.1250000   0.1250000), wk =   0.0000000

     Dense  grid:     2741 G-vectors     FFT dimensions: (  20,  20,  20)

     Estimated max dynamical RAM per process >       0.33MB

     Estimated total allocated dynamical RAM >       1.31MB

     Check: negative/imaginary core charge=   -0.000005    0.000000

     The potential is recalculated from file :
     ./_ph0/silicon.10.338.save/charge-density.dat

     Starting wfc are    8 atomic wfcs

     Band Structure Calculation
     Davidson diagonalization with overlap

     ethr =  1.25E-10,  avg # of iterations = 11.7

     total cpu time spent up to now is        1.6 secs

     End of band structure calculation

          k =-0.1250 0.1250 0.1250 (   338 PWs)   bands (ev):

    -5.6353   4.3784   5.6872   5.6872

          k = 0.3750-0.3750 0.6250 (   361 PWs)   bands (ev):

    -3.4793  -0.6814   3.7263   4.4368

          k =-0.3750 0.3750-0.1250 (   352 PWs)   bands (ev):

    -4.6127   1.3882   3.7086   5.2057

          k = 0.1250-0.1250 0.3750 (   353 PWs)   bands (ev):

    -5.1096   2.7604   4.6816   4.7446

          k = 0.3750-0.3750 0.6250 (   361 PWs)   bands (ev):

    -3.4793  -0.6814   3.7263   4.4368

          k = 0.8750-0.8750 1.1250 (   338 PWs)   bands (ev):

    -5.6353   4.3784   5.6872   5.6872

          k = 0.1250-0.1250 0.3750 (   353 PWs)   bands (ev):

    -5.1096   2.7604   4.6816   4.7446

          k = 0.6250-0.6250 0.8750 (   352 PWs)   bands (ev):

    -4.6127   1.3882   3.7086   5.2057

          k =-0.1250 0.6250 0.1250 (   351 PWs)   bands (ev):

    -4.0817   1.0486   3.3619   3.8096

          k = 0.3750 0.1250 0.6250 (   357 PWs)   bands (ev):

    -3.6684   0.1811   2.7228   4.0849

          k = 0.6250-0.1250 0.8750 (   361 PWs)   bands (ev):

    -2.4486  -0.9102   2.0162   3.0859

          k = 1.1250-0.6250 1.3750 (   352 PWs)   bands (ev):

    -4.6127   1.3882   3.7086   5.2057

          k = 0.3750 0.1250 0.6250 (   357 PWs)   bands (ev):

    -3.6684   0.1811   2.7228   4.0849

          k = 0.8750-0.3750 1.1250 (   351 PWs)   bands (ev):

    -4.0817   1.0486   3.3619   3.8096

          k =-0.1250-0.8750 0.1250 (   358 PWs)   bands (ev):

    -2.6145  -0.8135   2.6213   3.3436

          k = 0.3750-1.3750 0.6250 (   361 PWs)   bands (ev):

    -3.4793  -0.6814   3.7263   4.4368

          k =-0.3750 0.3750 0.3750 (   353 PWs)   bands (ev):

    -4.1824   0.1048   4.8998   4.8998

          k = 0.1250-0.1250 0.8750 (   358 PWs)   bands (ev):

    -2.6145  -0.8135   2.6213   3.3436

          k = 0.3750-0.3750 1.1250 (   361 PWs)   bands (ev):

    -2.9847  -0.6032   2.0725   4.1215

          k = 0.8750-0.8750 1.6250 (   351 PWs)   bands (ev):

    -4.0817   1.0486   3.3619   3.8096

          k = 0.1250-0.1250 0.1250 (   338 PWs)   bands (ev):

    -5.6353   4.3784   5.6872   5.6872

          k = 0.6250-0.6250 0.6250 (   353 PWs)   bands (ev):

    -4.1824   0.1048   4.8998   4.8998

          k =-0.3750-0.3750-0.1250 (   352 PWs)   bands (ev):

    -4.6127   1.3882   3.7086   5.2057

          k = 0.1250-0.8750 0.3750 (   361 PWs)   bands (ev):

    -2.4486  -0.9102   2.0162   3.0859

          k =-0.1250-0.3750 0.3750 (   352 PWs)   bands (ev):

    -4.6127   1.3882   3.7086   5.2057

          k = 0.3750-0.8750 0.8750 (   351 PWs)   bands (ev):

    -4.0817   1.0486   3.3619   3.8096

          k = 0.3750 0.3750 0.6250 (   361 PWs)   bands (ev):

    -3.4793  -0.6814   3.7263   4.4368

          k = 0.8750-0.1250 1.1250 (   358 PWs)   bands (ev):

    -2.6145  -0.8135   2.6213   3.3436

          k = 0.6250 0.3750-0.3750 (   361 PWs)   bands (ev):

    -3.4793  -0.6814   3.7263   4.4368

          k = 1.1250-0.1250 0.1250 (   358 PWs)   bands (ev):

    -2.6145  -0.8135   2.6213   3.3436

          k = 0.1250 0.1250 0.3750 (   353 PWs)   bands (ev):

    -5.1096   2.7604   4.6816   4.7446

          k = 0.6250-0.3750 0.8750 (   357 PWs)   bands (ev):

    -3.6684   0.1811   2.7228   4.0849

          k = 0.3750 0.1250-0.1250 (   353 PWs)   bands (ev):

    -5.1096   2.7604   4.6816   4.7446

          k = 0.8750-0.3750 0.3750 (   361 PWs)   bands (ev):

    -2.9847  -0.6032   2.0725   4.1215

          k =-0.1250-0.6250-0.1250 (   351 PWs)   bands (ev):

    -4.0817   1.0486   3.3619   3.8096

          k = 0.3750-1.1250 0.3750 (   361 PWs)   bands (ev):

    -2.9847  -0.6032   2.0725   4.1215

          k = 0.1250-0.6250 0.1250 (   351 PWs)   bands (ev):

    -4.0817   1.0486   3.3619   3.8096

          k = 0.6250-1.1250 0.6250 (   352 PWs)   bands (ev):

    -4.6127   1.3882   3.7086   5.2057

          k = 0.6250 0.1250 0.8750 (   361 PWs)   bands (ev):

    -2.4486  -0.9102   2.0162   3.0859

          k = 1.1250-0.3750 1.3750 (   357 PWs)   bands (ev):

    -3.6684   0.1811   2.7228   4.0849

          k =-0.8750 0.1250 0.6250 (   361 PWs)   bands (ev):

    -2.4486  -0.9102   2.0162   3.0859

          k =-0.3750-0.3750 1.1250 (   361 PWs)   bands (ev):

    -2.9847  -0.6032   2.0725   4.1215

          k = 0.8750 0.1250-0.6250 (   361 PWs)   bands (ev):

    -2.4486  -0.9102   2.0162   3.0859

          k = 1.3750-0.3750-0.1250 (   357 PWs)   bands (ev):

    -3.6684   0.1811   2.7228   4.0849

          k = 0.3750-0.1250 0.6250 (   357 PWs)   bands (ev):

    -3.6684   0.1811   2.7228   4.0849

          k = 0.8750-0.6250 1.1250 (   353 PWs)   bands (ev):

    -5.1096   2.7604   4.6816   4.7446

          k =-0.6250-0.1250 0.3750 (   357 PWs)   bands (ev):

    -3.6684   0.1811   2.7228   4.0849

          k =-0.1250-0.6250 0.8750 (   361 PWs)   bands (ev):

    -2.4486  -0.9102   2.0162   3.0859

          k = 0.6250-0.1250-0.3750 (   357 PWs)   bands (ev):

    -3.6684   0.1811   2.7228   4.0849

          k = 1.1250-0.6250 0.1250 (   361 PWs)   bands (ev):

    -2.4486  -0.9102   2.0162   3.0859

          k =-0.1250 0.8750-0.1250 (   358 PWs)   bands (ev):

    -2.6145  -0.8135   2.6213   3.3436

          k = 0.3750 0.3750 0.3750 (   353 PWs)   bands (ev):

    -4.1824   0.1048   4.8998   4.8998

          k = 0.1250 0.8750 0.1250 (   358 PWs)   bands (ev):

    -2.6145  -0.8135   2.6213   3.3436

          k = 0.6250 0.3750 0.6250 (   361 PWs)   bands (ev):

    -3.4793  -0.6814   3.7263   4.4368

          k = 0.3750-0.3750 0.3750 (   353 PWs)   bands (ev):

    -4.1824   0.1048   4.8998   4.8998

          k = 0.8750-0.8750 0.8750 (   338 PWs)   bands (ev):

    -5.6353   4.3784   5.6872   5.6872

          k = 0.3750 0.3750 1.1250 (   361 PWs)   bands (ev):

    -2.9847  -0.6032   2.0725   4.1215

          k = 0.8750-0.1250 1.6250 (   361 PWs)   bands (ev):

    -2.4486  -0.9102   2.0162   3.0859

          k = 1.1250 0.3750-0.3750 (   361 PWs)   bands (ev):

    -2.9847  -0.6032   2.0725   4.1215

          k = 1.6250-0.1250 0.1250 (   353 PWs)   bands (ev):

    -5.1096   2.7604   4.6816   4.7446

     highest occupied level (ev):     5.6872

     Writing output data file silicon.10.338.save

                                                                                

     bravais-lattice index     =            2
     lattice parameter (alat)  =      10.3380  a.u.
     unit-cell volume          =     276.2165 (a.u.)^3
     number of atoms/cell      =            2
     number of atomic types    =            1
     kinetic-energy cut-off    =      18.0000  Ry
     charge density cut-off    =      72.0000  Ry
     convergence threshold     =      1.0E-12
     beta                      =       0.7000
     number of iterations used =            4
     Exchange-correlation      = SLA  PW   PBE  PBE ( 1  4  3  4 0 0)


     celldm(1)=   10.33800  celldm(2)=    0.00000  celldm(3)=    0.00000
     celldm(4)=    0.00000  celldm(5)=    0.00000  celldm(6)=    0.00000

     crystal axes: (cart. coord. in units of alat)
               a(1) = ( -0.5000  0.0000  0.5000 )  
               a(2) = (  0.0000  0.5000  0.5000 )  
               a(3) = ( -0.5000  0.5000  0.0000 )  

     reciprocal axes: (cart. coord. in units 2 pi/alat)
               b(1) = ( -1.0000 -1.0000  1.0000 )  
               b(2) = (  1.0000  1.0000  1.0000 )  
               b(3) = ( -1.0000  1.0000 -1.0000 )  


     Atoms inside the unit cell: 

     Cartesian axes

     site n.  atom      mass           positions (alat units)
        1     Si  28.0860   tau(    1) = (    0.00000    0.00000    0.00000  )
        2     Si  28.0860   tau(    2) = (    0.25000    0.25000    0.25000  )

     Computing dynamical matrix for 
                    q = (   0.5000000  -0.5000000   0.5000000 )

     13 Sym.Ops. (with q -> -q+G )


     G cutoff =  194.9152  (    685 G-vectors)     FFT grid: ( 20, 20, 20)
     number of k points=    60

     PseudoPot. # 1 for Si read from file:
     /home/max/quantum_espresso/qe-6.1/pseudo/si_pbe_v1.uspp.F.UPF.txt
     MD5 check sum: a056efeee980c13900f22a371efd63c1
     Pseudo is Ultrasoft + core correction, Zval =  4.0
     Generated by new atomic code, or converted to UPF format
     Using radial grid of  899 points,  6 beta functions with: 
                l(1) =   0
                l(2) =   0
                l(3) =   1
                l(4) =   1
                l(5) =   2
                l(6) =   2
     Q(r) pseudized with  8 coefficients,  rinner =    0.900   0.900   0.900
                                                       0.900   0.900


     Atomic displacements:
     There are   4 irreducible representations

     Representation     1      1 modes -  To be done

     Representation     2      1 modes -  To be done

     Representation     3      2 modes -  To be done

     Representation     4      2 modes -  To be done



     Alpha used in Ewald sum =   0.7000
     PHONON       :    17.01s CPU        18.74s WALL



     Representation #  1 mode #   1

     Self-consistent Calculation

      iter #   1 total cpu time :    18.9 secs   av.it.:   4.8
      thresh= 1.000E-02 alpha_mix =  0.700 |ddv_scf|^2 =  2.479E-05

      iter #   2 total cpu time :    19.0 secs   av.it.:   8.3
      thresh= 4.979E-04 alpha_mix =  0.700 |ddv_scf|^2 =  2.211E-05

      iter #   3 total cpu time :    19.3 secs   av.it.:   7.5
      thresh= 4.702E-04 alpha_mix =  0.700 |ddv_scf|^2 =  4.225E-08

      iter #   4 total cpu time :    19.5 secs   av.it.:   7.5
      thresh= 2.056E-05 alpha_mix =  0.700 |ddv_scf|^2 =  1.405E-10

      iter #   5 total cpu time :    19.6 secs   av.it.:   7.9
      thresh= 1.185E-06 alpha_mix =  0.700 |ddv_scf|^2 =  3.634E-12

      iter #   6 total cpu time :    19.8 secs   av.it.:   7.9
      thresh= 1.906E-07 alpha_mix =  0.700 |ddv_scf|^2 =  5.598E-14

     End of self-consistent calculation

     Convergence has been achieved 


     Representation #  2 mode #   2

     Self-consistent Calculation

      iter #   1 total cpu time :    20.0 secs   av.it.:   5.6
      thresh= 1.000E-02 alpha_mix =  0.700 |ddv_scf|^2 =  3.443E-04

      iter #   2 total cpu time :    20.1 secs   av.it.:   8.3
      thresh= 1.856E-03 alpha_mix =  0.700 |ddv_scf|^2 =  1.062E-03

      iter #   3 total cpu time :    20.3 secs   av.it.:   7.1
      thresh= 3.258E-03 alpha_mix =  0.700 |ddv_scf|^2 =  1.149E-07

      iter #   4 total cpu time :    20.5 secs   av.it.:   8.2
      thresh= 3.390E-05 alpha_mix =  0.700 |ddv_scf|^2 =  7.417E-09

      iter #   5 total cpu time :    20.6 secs   av.it.:   8.5
      thresh= 8.612E-06 alpha_mix =  0.700 |ddv_scf|^2 =  1.307E-10

      iter #   6 total cpu time :    20.8 secs   av.it.:   8.3
      thresh= 1.143E-06 alpha_mix =  0.700 |ddv_scf|^2 =  2.077E-12

      iter #   7 total cpu time :    21.0 secs   av.it.:   7.8
      thresh= 1.441E-07 alpha_mix =  0.700 |ddv_scf|^2 =  3.127E-15

     End of self-consistent calculation

     Convergence has been achieved 


     Representation #  3 modes #   3  4

     Self-consistent Calculation

      iter #   1 total cpu time :    21.4 secs   av.it.:   4.7
      thresh= 1.000E-02 alpha_mix =  0.700 |ddv_scf|^2 =  3.047E-07

      iter #   2 total cpu time :    21.7 secs   av.it.:   9.0
      thresh= 5.520E-05 alpha_mix =  0.700 |ddv_scf|^2 =  2.517E-08

      iter #   3 total cpu time :    22.0 secs   av.it.:   8.4
      thresh= 1.586E-05 alpha_mix =  0.700 |ddv_scf|^2 =  4.945E-10

      iter #   4 total cpu time :    22.4 secs   av.it.:   8.9
      thresh= 2.224E-06 alpha_mix =  0.700 |ddv_scf|^2 =  6.207E-12

      iter #   5 total cpu time :    22.7 secs   av.it.:   8.7
      thresh= 2.491E-07 alpha_mix =  0.700 |ddv_scf|^2 =  3.233E-14

     End of self-consistent calculation

     Convergence has been achieved 


     Representation #  4 modes #   5  6

     Self-consistent Calculation

      iter #   1 total cpu time :    22.9 secs   av.it.:   4.9
      thresh= 1.000E-02 alpha_mix =  0.700 |ddv_scf|^2 =  9.808E-07

      iter #   2 total cpu time :    23.5 secs   av.it.:   9.4
      thresh= 9.903E-05 alpha_mix =  0.700 |ddv_scf|^2 =  7.675E-08

      iter #   3 total cpu time :    23.8 secs   av.it.:   9.3
      thresh= 2.770E-05 alpha_mix =  0.700 |ddv_scf|^2 =  4.943E-09

      iter #   4 total cpu time :    24.1 secs   av.it.:   8.5
      thresh= 7.031E-06 alpha_mix =  0.700 |ddv_scf|^2 =  6.640E-12

      iter #   5 total cpu time :    24.4 secs   av.it.:   8.8
      thresh= 2.577E-07 alpha_mix =  0.700 |ddv_scf|^2 =  2.297E-14

     End of self-consistent calculation

     Convergence has been achieved 

     Number of q in the star =    4
     List of q in the star:
          1   0.500000000  -0.500000000   0.500000000
          2   0.500000000   0.500000000   0.500000000
          3  -0.500000000   0.500000000   0.500000000
          4   0.500000000   0.500000000  -0.500000000

     Diagonalizing the dynamical matrix

     q = (    0.500000000  -0.500000000   0.500000000 ) 

 **************************************************************************
     freq (    1) =       4.569463 [THz] =     152.420885 [cm-1]
     freq (    2) =       4.569463 [THz] =     152.420885 [cm-1]
     freq (    3) =      11.549169 [THz] =     385.238805 [cm-1]
     freq (    4) =      12.112155 [THz] =     404.017994 [cm-1]
     freq (    5) =      14.389840 [THz] =     479.993410 [cm-1]
     freq (    6) =      14.389840 [THz] =     479.993410 [cm-1]
 **************************************************************************

     Calculation of q =    0.0000000   0.5000000   0.0000000

   Info: using nr1, nr2, nr3 values from input

   Info: using nr1, nr2, nr3 values from input

     Parallelization info
     --------------------
     sticks:   dense  smooth     PW     G-vecs:    dense   smooth      PW
     Min          63      63     27                  684      684     175
     Max          64      64     28                  688      688     176
     Sum         253     253    109                 2741     2741     701



     bravais-lattice index     =            2
     lattice parameter (alat)  =      10.3380  a.u.
     unit-cell volume          =     276.2165 (a.u.)^3
     number of atoms/cell      =            2
     number of atomic types    =            1
     number of electrons       =         8.00
     number of Kohn-Sham states=            4
     kinetic-energy cutoff     =      18.0000  Ry
     charge density cutoff     =      72.0000  Ry
     Exchange-correlation      = SLA  PW   PBE  PBE ( 1  4  3  4 0 0)

     celldm(1)=  10.338000  celldm(2)=   0.000000  celldm(3)=   0.000000
     celldm(4)=   0.000000  celldm(5)=   0.000000  celldm(6)=   0.000000

     crystal axes: (cart. coord. in units of alat)
               a(1) = (  -0.500000   0.000000   0.500000 )  
               a(2) = (   0.000000   0.500000   0.500000 )  
               a(3) = (  -0.500000   0.500000   0.000000 )  

     reciprocal axes: (cart. coord. in units 2 pi/alat)
               b(1) = ( -1.000000 -1.000000  1.000000 )  
               b(2) = (  1.000000  1.000000  1.000000 )  
               b(3) = ( -1.000000  1.000000 -1.000000 )  


     PseudoPot. # 1 for Si read from file:
     /home/max/quantum_espresso/qe-6.1/pseudo/si_pbe_v1.uspp.F.UPF.txt
     MD5 check sum: a056efeee980c13900f22a371efd63c1
     Pseudo is Ultrasoft + core correction, Zval =  4.0
     Generated by new atomic code, or converted to UPF format
     Using radial grid of  899 points,  6 beta functions with: 
                l(1) =   0
                l(2) =   0
                l(3) =   1
                l(4) =   1
                l(5) =   2
                l(6) =   2
     Q(r) pseudized with  8 coefficients,  rinner =    0.900   0.900   0.900
                                                       0.900   0.900

     atomic species   valence    mass     pseudopotential
        Si             4.00    28.08600     Si( 1.00)

     48 Sym. Ops., with inversion, found



   Cartesian axes

     site n.     atom                  positions (alat units)
         1           Si  tau(   1) = (   0.0000000   0.0000000   0.0000000  )
         2           Si  tau(   2) = (   0.2500000   0.2500000   0.2500000  )

     number of k points=    80
                       cart. coord. in units 2pi/alat
        k(    1) = (  -0.1250000   0.1250000   0.1250000), wk =   0.0312500
        k(    2) = (  -0.1250000   0.6250000   0.1250000), wk =   0.0000000
        k(    3) = (  -0.3750000   0.3750000  -0.1250000), wk =   0.0625000
        k(    4) = (  -0.3750000   0.8750000  -0.1250000), wk =   0.0000000
        k(    5) = (   0.3750000  -0.3750000   0.6250000), wk =   0.0625000
        k(    6) = (   0.3750000   0.1250000   0.6250000), wk =   0.0000000
        k(    7) = (   0.1250000  -0.1250000   0.3750000), wk =   0.0625000
        k(    8) = (   0.1250000   0.3750000   0.3750000), wk =   0.0000000
        k(    9) = (  -0.1250000   0.6250000   0.1250000), wk =   0.0312500
        k(   10) = (  -0.1250000   1.1250000   0.1250000), wk =   0.0000000
        k(   11) = (   0.6250000  -0.1250000   0.8750000), wk =   0.0625000
        k(   12) = (   0.6250000   0.3750000   0.8750000), wk =   0.0000000
        k(   13) = (   0.3750000   0.1250000   0.6250000), wk =   0.0625000
        k(   14) = (   0.3750000   0.6250000   0.6250000), wk =   0.0000000
        k(   15) = (  -0.1250000  -0.8750000   0.1250000), wk =   0.0312500
        k(   16) = (  -0.1250000  -0.3750000   0.1250000), wk =   0.0000000
        k(   17) = (  -0.3750000   0.3750000   0.3750000), wk =   0.0312500
        k(   18) = (  -0.3750000   0.8750000   0.3750000), wk =   0.0000000
        k(   19) = (   0.3750000  -0.3750000   1.1250000), wk =   0.0625000
        k(   20) = (   0.3750000   0.1250000   1.1250000), wk =   0.0000000
        k(   21) = (  -0.1250000  -0.1250000   0.1250000), wk =   0.0312500
        k(   22) = (  -0.1250000   0.3750000   0.1250000), wk =   0.0000000
        k(   23) = (   0.1250000  -0.3750000   0.3750000), wk =   0.0625000
        k(   24) = (   0.1250000   0.1250000   0.3750000), wk =   0.0000000
        k(   25) = (   0.3750000  -0.1250000   0.3750000), wk =   0.0312500
        k(   26) = (   0.3750000   0.3750000   0.3750000), wk =   0.0000000
        k(   27) = (   0.3750000   0.1250000   0.3750000), wk =   0.0312500
        k(   28) = (   0.3750000   0.6250000   0.3750000), wk =   0.0000000
        k(   29) = (  -0.6250000   0.3750000  -0.3750000), wk =   0.0625000
        k(   30) = (  -0.6250000   0.8750000  -0.3750000), wk =   0.0000000
        k(   31) = (  -0.3750000   0.6250000  -0.3750000), wk =   0.0312500
        k(   32) = (  -0.3750000   1.1250000  -0.3750000), wk =   0.0000000
        k(   33) = (  -0.3750000  -0.6250000  -0.3750000), wk =   0.0312500
        k(   34) = (  -0.3750000  -0.1250000  -0.3750000), wk =   0.0000000
        k(   35) = (  -0.3750000   0.1250000  -0.1250000), wk =   0.0625000
        k(   36) = (  -0.3750000   0.6250000  -0.1250000), wk =   0.0000000
        k(   37) = (  -0.1250000   0.3750000  -0.1250000), wk =   0.0312500
        k(   38) = (  -0.1250000   0.8750000  -0.1250000), wk =   0.0000000
        k(   39) = (  -0.1250000  -0.3750000  -0.1250000), wk =   0.0312500
        k(   40) = (  -0.1250000   0.1250000  -0.1250000), wk =   0.0000000
        k(   41) = (  -0.1250000  -0.6250000   0.1250000), wk =   0.0312500
        k(   42) = (  -0.1250000  -0.1250000   0.1250000), wk =   0.0000000
        k(   43) = (   0.6250000  -0.1250000  -0.1250000), wk =   0.0625000
        k(   44) = (   0.6250000   0.3750000  -0.1250000), wk =   0.0000000
        k(   45) = (   0.6250000   0.1250000   0.1250000), wk =   0.0625000
        k(   46) = (   0.6250000   0.6250000   0.1250000), wk =   0.0000000
        k(   47) = (  -0.8750000   0.1250000  -0.6250000), wk =   0.0625000
        k(   48) = (  -0.8750000   0.6250000  -0.6250000), wk =   0.0000000
        k(   49) = (  -0.1250000   0.6250000  -0.8750000), wk =   0.0625000
        k(   50) = (  -0.1250000   1.1250000  -0.8750000), wk =   0.0000000
        k(   51) = (  -0.1250000   0.8750000  -0.6250000), wk =   0.0625000
        k(   52) = (  -0.1250000   1.3750000  -0.6250000), wk =   0.0000000
        k(   53) = (  -0.1250000  -0.8750000  -0.6250000), wk =   0.0625000
        k(   54) = (  -0.1250000  -0.3750000  -0.6250000), wk =   0.0000000
        k(   55) = (   0.8750000  -0.6250000   0.1250000), wk =   0.0625000
        k(   56) = (   0.8750000  -0.1250000   0.1250000), wk =   0.0000000
        k(   57) = (  -0.6250000  -0.1250000  -0.3750000), wk =   0.0625000
        k(   58) = (  -0.6250000   0.3750000  -0.3750000), wk =   0.0000000
        k(   59) = (   0.1250000   0.3750000  -0.6250000), wk =   0.0625000
        k(   60) = (   0.1250000   0.8750000  -0.6250000), wk =   0.0000000
        k(   61) = (   0.1250000   0.6250000  -0.3750000), wk =   0.0625000
        k(   62) = (   0.1250000   1.1250000  -0.3750000), wk =   0.0000000
        k(   63) = (   0.1250000  -0.6250000  -0.3750000), wk =   0.0625000
        k(   64) = (   0.1250000  -0.1250000  -0.3750000), wk =   0.0000000
        k(   65) = (   0.6250000  -0.3750000  -0.1250000), wk =   0.0625000
        k(   66) = (   0.6250000   0.1250000  -0.1250000), wk =   0.0000000
        k(   67) = (  -0.1250000   0.8750000   0.1250000), wk =   0.0312500
        k(   68) = (  -0.1250000   1.3750000   0.1250000), wk =   0.0000000
        k(   69) = (  -0.8750000  -0.1250000  -0.1250000), wk =   0.0625000
        k(   70) = (  -0.8750000   0.3750000  -0.1250000), wk =   0.0000000
        k(   71) = (  -0.8750000   0.1250000   0.1250000), wk =   0.0625000
        k(   72) = (  -0.8750000   0.6250000   0.1250000), wk =   0.0000000
        k(   73) = (  -0.3750000  -0.3750000   0.3750000), wk =   0.0312500
        k(   74) = (  -0.3750000   0.1250000   0.3750000), wk =   0.0000000
        k(   75) = (  -1.1250000   0.3750000  -0.3750000), wk =   0.0625000
        k(   76) = (  -1.1250000   0.8750000  -0.3750000), wk =   0.0000000
        k(   77) = (  -0.3750000   1.1250000  -0.3750000), wk =   0.0312500
        k(   78) = (  -0.3750000   1.6250000  -0.3750000), wk =   0.0000000
        k(   79) = (  -0.3750000  -1.1250000  -0.3750000), wk =   0.0312500
        k(   80) = (  -0.3750000  -0.6250000  -0.3750000), wk =   0.0000000

     Dense  grid:     2741 G-vectors     FFT dimensions: (  20,  20,  20)

     Estimated max dynamical RAM per process >       0.33MB

     Estimated total allocated dynamical RAM >       1.31MB

     Check: negative/imaginary core charge=   -0.000005    0.000000

     The potential is recalculated from file :
     ./_ph0/silicon.10.338.save/charge-density.dat

     Starting wfc are    8 atomic wfcs

     Band Structure Calculation
     Davidson diagonalization with overlap

     ethr =  1.25E-10,  avg # of iterations = 11.7

     total cpu time spent up to now is        2.4 secs

     End of band structure calculation

          k =-0.1250 0.1250 0.1250 (   338 PWs)   bands (ev):

    -5.6353   4.3784   5.6872   5.6872

          k =-0.1250 0.6250 0.1250 (   351 PWs)   bands (ev):

    -4.0817   1.0486   3.3619   3.8096

          k =-0.3750 0.3750-0.1250 (   352 PWs)   bands (ev):

    -4.6127   1.3882   3.7086   5.2057

          k =-0.3750 0.8750-0.1250 (   361 PWs)   bands (ev):

    -2.4486  -0.9102   2.0162   3.0859

          k = 0.3750-0.3750 0.6250 (   361 PWs)   bands (ev):

    -3.4793  -0.6814   3.7263   4.4368

          k = 0.3750 0.1250 0.6250 (   357 PWs)   bands (ev):

    -3.6684   0.1811   2.7228   4.0849

          k = 0.1250-0.1250 0.3750 (   353 PWs)   bands (ev):

    -5.1096   2.7604   4.6816   4.7446

          k = 0.1250 0.3750 0.3750 (   352 PWs)   bands (ev):

    -4.6127   1.3882   3.7086   5.2057

          k =-0.1250 0.6250 0.1250 (   351 PWs)   bands (ev):

    -4.0817   1.0486   3.3619   3.8096

          k =-0.1250 1.1250 0.1250 (   358 PWs)   bands (ev):

    -2.6145  -0.8135   2.6213   3.3436

          k = 0.6250-0.1250 0.8750 (   361 PWs)   bands (ev):

    -2.4486  -0.9102   2.0162   3.0859

          k = 0.6250 0.3750 0.8750 (   357 PWs)   bands (ev):

    -3.6684   0.1811   2.7228   4.0849

          k = 0.3750 0.1250 0.6250 (   357 PWs)   bands (ev):

    -3.6684   0.1811   2.7228   4.0849

          k = 0.3750 0.6250 0.6250 (   361 PWs)   bands (ev):

    -3.4793  -0.6814   3.7263   4.4368

          k =-0.1250-0.8750 0.1250 (   358 PWs)   bands (ev):

    -2.6145  -0.8135   2.6213   3.3436

          k =-0.1250-0.3750 0.1250 (   353 PWs)   bands (ev):

    -5.1096   2.7604   4.6816   4.7446

          k =-0.3750 0.3750 0.3750 (   353 PWs)   bands (ev):

    -4.1824   0.1048   4.8998   4.8998

          k =-0.3750 0.8750 0.3750 (   361 PWs)   bands (ev):

    -2.9847  -0.6032   2.0725   4.1215

          k = 0.3750-0.3750 1.1250 (   361 PWs)   bands (ev):

    -2.9847  -0.6032   2.0725   4.1215

          k = 0.3750 0.1250 1.1250 (   361 PWs)   bands (ev):

    -2.4486  -0.9102   2.0162   3.0859

          k =-0.1250-0.1250 0.1250 (   338 PWs)   bands (ev):

    -5.6353   4.3784   5.6872   5.6872

          k =-0.1250 0.3750 0.1250 (   353 PWs)   bands (ev):

    -5.1096   2.7604   4.6816   4.7446

          k = 0.1250-0.3750 0.3750 (   352 PWs)   bands (ev):

    -4.6127   1.3882   3.7086   5.2057

          k = 0.1250 0.1250 0.3750 (   353 PWs)   bands (ev):

    -5.1096   2.7604   4.6816   4.7446

          k = 0.3750-0.1250 0.3750 (   352 PWs)   bands (ev):

    -4.6127   1.3882   3.7086   5.2057

          k = 0.3750 0.3750 0.3750 (   353 PWs)   bands (ev):

    -4.1824   0.1048   4.8998   4.8998

          k = 0.3750 0.1250 0.3750 (   352 PWs)   bands (ev):

    -4.6127   1.3882   3.7086   5.2057

          k = 0.3750 0.6250 0.3750 (   361 PWs)   bands (ev):

    -3.4793  -0.6814   3.7263   4.4368

          k =-0.6250 0.3750-0.3750 (   361 PWs)   bands (ev):

    -3.4793  -0.6814   3.7263   4.4368

          k =-0.6250 0.8750-0.3750 (   357 PWs)   bands (ev):

    -3.6684   0.1811   2.7228   4.0849

          k =-0.3750 0.6250-0.3750 (   361 PWs)   bands (ev):

    -3.4793  -0.6814   3.7263   4.4368

          k =-0.3750 1.1250-0.3750 (   361 PWs)   bands (ev):

    -2.9847  -0.6032   2.0725   4.1215

          k =-0.3750-0.6250-0.3750 (   361 PWs)   bands (ev):

    -3.4793  -0.6814   3.7263   4.4368

          k =-0.3750-0.1250-0.3750 (   352 PWs)   bands (ev):

    -4.6127   1.3882   3.7086   5.2057

          k =-0.3750 0.1250-0.1250 (   353 PWs)   bands (ev):

    -5.1096   2.7604   4.6816   4.7446

          k =-0.3750 0.6250-0.1250 (   357 PWs)   bands (ev):

    -3.6684   0.1811   2.7228   4.0849

          k =-0.1250 0.3750-0.1250 (   353 PWs)   bands (ev):

    -5.1096   2.7604   4.6816   4.7446

          k =-0.1250 0.8750-0.1250 (   358 PWs)   bands (ev):

    -2.6145  -0.8135   2.6213   3.3436

          k =-0.1250-0.3750-0.1250 (   353 PWs)   bands (ev):

    -5.1096   2.7604   4.6816   4.7446

          k =-0.1250 0.1250-0.1250 (   338 PWs)   bands (ev):

    -5.6353   4.3784   5.6872   5.6872

          k =-0.1250-0.6250 0.1250 (   351 PWs)   bands (ev):

    -4.0817   1.0486   3.3619   3.8096

          k =-0.1250-0.1250 0.1250 (   338 PWs)   bands (ev):

    -5.6353   4.3784   5.6872   5.6872

          k = 0.6250-0.1250-0.1250 (   351 PWs)   bands (ev):

    -4.0817   1.0486   3.3619   3.8096

          k = 0.6250 0.3750-0.1250 (   357 PWs)   bands (ev):

    -3.6684   0.1811   2.7228   4.0849

          k = 0.6250 0.1250 0.1250 (   351 PWs)   bands (ev):

    -4.0817   1.0486   3.3619   3.8096

          k = 0.6250 0.6250 0.1250 (   361 PWs)   bands (ev):

    -2.9847  -0.6032   2.0725   4.1215

          k =-0.8750 0.1250-0.6250 (   361 PWs)   bands (ev):

    -2.4486  -0.9102   2.0162   3.0859

          k =-0.8750 0.6250-0.6250 (   352 PWs)   bands (ev):

    -4.6127   1.3882   3.7086   5.2057

          k =-0.1250 0.6250-0.8750 (   361 PWs)   bands (ev):

    -2.4486  -0.9102   2.0162   3.0859

          k =-0.1250 1.1250-0.8750 (   358 PWs)   bands (ev):

    -2.6145  -0.8135   2.6213   3.3436

          k =-0.1250 0.8750-0.6250 (   361 PWs)   bands (ev):

    -2.4486  -0.9102   2.0162   3.0859

          k =-0.1250 1.3750-0.6250 (   361 PWs)   bands (ev):

    -2.9847  -0.6032   2.0725   4.1215

          k =-0.1250-0.8750-0.6250 (   361 PWs)   bands (ev):

    -2.4486  -0.9102   2.0162   3.0859

          k =-0.1250-0.3750-0.6250 (   357 PWs)   bands (ev):

    -3.6684   0.1811   2.7228   4.0849

          k = 0.8750-0.6250 0.1250 (   361 PWs)   bands (ev):

    -2.4486  -0.9102   2.0162   3.0859

          k = 0.8750-0.1250 0.1250 (   358 PWs)   bands (ev):

    -2.6145  -0.8135   2.6213   3.3436

          k =-0.6250-0.1250-0.3750 (   357 PWs)   bands (ev):

    -3.6684   0.1811   2.7228   4.0849

          k =-0.6250 0.3750-0.3750 (   361 PWs)   bands (ev):

    -3.4793  -0.6814   3.7263   4.4368

          k = 0.1250 0.3750-0.6250 (   357 PWs)   bands (ev):

    -3.6684   0.1811   2.7228   4.0849

          k = 0.1250 0.8750-0.6250 (   361 PWs)   bands (ev):

    -2.4486  -0.9102   2.0162   3.0859

          k = 0.1250 0.6250-0.3750 (   357 PWs)   bands (ev):

    -3.6684   0.1811   2.7228   4.0849

          k = 0.1250 1.1250-0.3750 (   361 PWs)   bands (ev):

    -2.4486  -0.9102   2.0162   3.0859

          k = 0.1250-0.6250-0.3750 (   357 PWs)   bands (ev):

    -3.6684   0.1811   2.7228   4.0849

          k = 0.1250-0.1250-0.3750 (   353 PWs)   bands (ev):

    -5.1096   2.7604   4.6816   4.7446

          k = 0.6250-0.3750-0.1250 (   357 PWs)   bands (ev):

    -3.6684   0.1811   2.7228   4.0849

          k = 0.6250 0.1250-0.1250 (   351 PWs)   bands (ev):

    -4.0817   1.0486   3.3619   3.8096

          k =-0.1250 0.8750 0.1250 (   358 PWs)   bands (ev):

    -2.6145  -0.8135   2.6213   3.3436

          k =-0.1250 1.3750 0.1250 (   351 PWs)   bands (ev):

    -4.0817   1.0486   3.3619   3.8096

          k =-0.8750-0.1250-0.1250 (   358 PWs)   bands (ev):

    -2.6145  -0.8135   2.6213   3.3436

          k =-0.8750 0.3750-0.1250 (   361 PWs)   bands (ev):

    -2.4486  -0.9102   2.0162   3.0859

          k =-0.8750 0.1250 0.1250 (   358 PWs)   bands (ev):

    -2.6145  -0.8135   2.6213   3.3436

          k =-0.8750 0.6250 0.1250 (   361 PWs)   bands (ev):

    -2.4486  -0.9102   2.0162   3.0859

          k =-0.3750-0.3750 0.3750 (   353 PWs)   bands (ev):

    -4.1824   0.1048   4.8998   4.8998

          k =-0.3750 0.1250 0.3750 (   352 PWs)   bands (ev):

    -4.6127   1.3882   3.7086   5.2057

          k =-1.1250 0.3750-0.3750 (   361 PWs)   bands (ev):

    -2.9847  -0.6032   2.0725   4.1215

          k =-1.1250 0.8750-0.3750 (   351 PWs)   bands (ev):

    -4.0817   1.0486   3.3619   3.8096

          k =-0.3750 1.1250-0.3750 (   361 PWs)   bands (ev):

    -2.9847  -0.6032   2.0725   4.1215

          k =-0.3750 1.6250-0.3750 (   353 PWs)   bands (ev):

    -4.1824   0.1048   4.8998   4.8998

          k =-0.3750-1.1250-0.3750 (   361 PWs)   bands (ev):

    -2.9847  -0.6032   2.0725   4.1215

          k =-0.3750-0.6250-0.3750 (   361 PWs)   bands (ev):

    -3.4793  -0.6814   3.7263   4.4368

     highest occupied level (ev):     5.6872

     Writing output data file silicon.10.338.save

                                                                                

     bravais-lattice index     =            2
     lattice parameter (alat)  =      10.3380  a.u.
     unit-cell volume          =     276.2165 (a.u.)^3
     number of atoms/cell      =            2
     number of atomic types    =            1
     kinetic-energy cut-off    =      18.0000  Ry
     charge density cut-off    =      72.0000  Ry
     convergence threshold     =      1.0E-12
     beta                      =       0.7000
     number of iterations used =            4
     Exchange-correlation      = SLA  PW   PBE  PBE ( 1  4  3  4 0 0)


     celldm(1)=   10.33800  celldm(2)=    0.00000  celldm(3)=    0.00000
     celldm(4)=    0.00000  celldm(5)=    0.00000  celldm(6)=    0.00000

     crystal axes: (cart. coord. in units of alat)
               a(1) = ( -0.5000  0.0000  0.5000 )  
               a(2) = (  0.0000  0.5000  0.5000 )  
               a(3) = ( -0.5000  0.5000  0.0000 )  

     reciprocal axes: (cart. coord. in units 2 pi/alat)
               b(1) = ( -1.0000 -1.0000  1.0000 )  
               b(2) = (  1.0000  1.0000  1.0000 )  
               b(3) = ( -1.0000  1.0000 -1.0000 )  


     Atoms inside the unit cell: 

     Cartesian axes

     site n.  atom      mass           positions (alat units)
        1     Si  28.0860   tau(    1) = (    0.00000    0.00000    0.00000  )
        2     Si  28.0860   tau(    2) = (    0.25000    0.25000    0.25000  )

     Computing dynamical matrix for 
                    q = (   0.0000000   0.5000000   0.0000000 )

      8 Sym.Ops. (no q -> -q+G )


     G cutoff =  194.9152  (    685 G-vectors)     FFT grid: ( 20, 20, 20)
     number of k points=    80

     PseudoPot. # 1 for Si read from file:
     /home/max/quantum_espresso/qe-6.1/pseudo/si_pbe_v1.uspp.F.UPF.txt
     MD5 check sum: a056efeee980c13900f22a371efd63c1
     Pseudo is Ultrasoft + core correction, Zval =  4.0
     Generated by new atomic code, or converted to UPF format
     Using radial grid of  899 points,  6 beta functions with: 
                l(1) =   0
                l(2) =   0
                l(3) =   1
                l(4) =   1
                l(5) =   2
                l(6) =   2
     Q(r) pseudized with  8 coefficients,  rinner =    0.900   0.900   0.900
                                                       0.900   0.900

     Mode symmetry, C_4v (4mm)  point group:


     Atomic displacements:
     There are   4 irreducible representations

     Representation     1      1 modes -A_1  G_1 D_1  To be done

     Representation     2      1 modes -B_2  G_4 D_2'  To be done

     Representation     3      2 modes -E    G_5 D_5  To be done

     Representation     4      2 modes -E    G_5 D_5  To be done



     Alpha used in Ewald sum =   0.7000
     PHONON       :    22.88s CPU        25.57s WALL



     Representation #  1 mode #   1

     Self-consistent Calculation

      iter #   1 total cpu time :    25.7 secs   av.it.:   5.8
      thresh= 1.000E-02 alpha_mix =  0.700 |ddv_scf|^2 =  2.968E-03

      iter #   2 total cpu time :    25.9 secs   av.it.:   7.7
      thresh= 5.448E-03 alpha_mix =  0.700 |ddv_scf|^2 =  3.906E-02

      iter #   3 total cpu time :    26.1 secs   av.it.:   6.7
      thresh= 1.000E-02 alpha_mix =  0.700 |ddv_scf|^2 =  1.378E-07

      iter #   4 total cpu time :    26.3 secs   av.it.:   8.2
      thresh= 3.712E-05 alpha_mix =  0.700 |ddv_scf|^2 =  1.264E-08

      iter #   5 total cpu time :    26.5 secs   av.it.:   7.8
      thresh= 1.124E-05 alpha_mix =  0.700 |ddv_scf|^2 =  7.394E-10

      iter #   6 total cpu time :    26.7 secs   av.it.:   7.8
      thresh= 2.719E-06 alpha_mix =  0.700 |ddv_scf|^2 =  2.673E-12

      iter #   7 total cpu time :    26.9 secs   av.it.:   8.0
      thresh= 1.635E-07 alpha_mix =  0.700 |ddv_scf|^2 =  5.322E-13

     End of self-consistent calculation

     Convergence has been achieved 


     Representation #  2 mode #   2

     Self-consistent Calculation

      iter #   1 total cpu time :    27.3 secs   av.it.:   4.9
      thresh= 1.000E-02 alpha_mix =  0.700 |ddv_scf|^2 =  5.518E-06

      iter #   2 total cpu time :    27.5 secs   av.it.:   8.6
      thresh= 2.349E-04 alpha_mix =  0.700 |ddv_scf|^2 =  1.338E-06

      iter #   3 total cpu time :    27.8 secs   av.it.:   8.5
      thresh= 1.157E-04 alpha_mix =  0.700 |ddv_scf|^2 =  4.317E-08

      iter #   4 total cpu time :    28.0 secs   av.it.:   8.1
      thresh= 2.078E-05 alpha_mix =  0.700 |ddv_scf|^2 =  7.037E-10

      iter #   5 total cpu time :    28.2 secs   av.it.:   8.6
      thresh= 2.653E-06 alpha_mix =  0.700 |ddv_scf|^2 =  6.927E-12

      iter #   6 total cpu time :    28.4 secs   av.it.:   7.9
      thresh= 2.632E-07 alpha_mix =  0.700 |ddv_scf|^2 =  7.046E-14

     End of self-consistent calculation

     Convergence has been achieved 


     Representation #  3 modes #   3  4

     Self-consistent Calculation

      iter #   1 total cpu time :    28.7 secs   av.it.:   5.0
      thresh= 1.000E-02 alpha_mix =  0.700 |ddv_scf|^2 =  1.026E-06

      iter #   2 total cpu time :    29.3 secs   av.it.:   9.7
      thresh= 1.013E-04 alpha_mix =  0.700 |ddv_scf|^2 =  1.269E-07

      iter #   3 total cpu time :    29.8 secs   av.it.:   9.5
      thresh= 3.562E-05 alpha_mix =  0.700 |ddv_scf|^2 =  6.746E-09

      iter #   4 total cpu time :    30.2 secs   av.it.:   8.8
      thresh= 8.214E-06 alpha_mix =  0.700 |ddv_scf|^2 =  9.415E-12

      iter #   5 total cpu time :    30.7 secs   av.it.:   9.2
      thresh= 3.068E-07 alpha_mix =  0.700 |ddv_scf|^2 =  2.865E-13

     End of self-consistent calculation

     Convergence has been achieved 


     Representation #  4 modes #   5  6

     Self-consistent Calculation

      iter #   1 total cpu time :    31.1 secs   av.it.:   5.0
      thresh= 1.000E-02 alpha_mix =  0.700 |ddv_scf|^2 =  9.088E-07

      iter #   2 total cpu time :    31.7 secs   av.it.:   9.8
      thresh= 9.533E-05 alpha_mix =  0.700 |ddv_scf|^2 =  1.151E-07

      iter #   3 total cpu time :    32.2 secs   av.it.:   9.4
      thresh= 3.392E-05 alpha_mix =  0.700 |ddv_scf|^2 =  6.186E-09

      iter #   4 total cpu time :    32.6 secs   av.it.:   8.9
      thresh= 7.865E-06 alpha_mix =  0.700 |ddv_scf|^2 =  1.408E-11

      iter #   5 total cpu time :    33.3 secs   av.it.:   9.2
      thresh= 3.752E-07 alpha_mix =  0.700 |ddv_scf|^2 =  4.336E-14

     End of self-consistent calculation

     Convergence has been achieved 

     Number of q in the star =    6
     List of q in the star:
          1   0.000000000   0.500000000   0.000000000
          2   0.000000000  -0.500000000   0.000000000
          3   0.500000000   0.000000000   0.000000000
          4   0.000000000   0.000000000   0.500000000
          5   0.000000000   0.000000000  -0.500000000
          6  -0.500000000   0.000000000   0.000000000

     Diagonalizing the dynamical matrix

     q = (    0.000000000   0.500000000   0.000000000 ) 

 **************************************************************************
     freq (    1) =       4.222495 [THz] =     140.847287 [cm-1]
     freq (    2) =       4.222495 [THz] =     140.847287 [cm-1]
     freq (    3) =       7.176437 [THz] =     239.380171 [cm-1]
     freq (    4) =      13.681507 [THz] =     456.365962 [cm-1]
     freq (    5) =      13.681507 [THz] =     456.365962 [cm-1]
     freq (    6) =      14.299093 [THz] =     476.966404 [cm-1]
 **************************************************************************

     Mode symmetry, C_4v (4mm)  point group:

     freq (  1 -  2) =        140.8  [cm-1]   --> E    G_5 D_5       
     freq (  3 -  3) =        239.4  [cm-1]   --> A_1  G_1 D_1       
     freq (  4 -  5) =        456.4  [cm-1]   --> E    G_5 D_5       
     freq (  6 -  6) =        477.0  [cm-1]   --> B_2  G_4 D_2'      

     Calculation of q =    0.7500000  -0.2500000   0.7500000

   Info: using nr1, nr2, nr3 values from input

   Info: using nr1, nr2, nr3 values from input

     Parallelization info
     --------------------
     sticks:   dense  smooth     PW     G-vecs:    dense   smooth      PW
     Min          63      63     30                  684      684     216
     Max          64      64     31                  688      688     218
     Sum         253     253    121                 2741     2741     869



     bravais-lattice index     =            2
     lattice parameter (alat)  =      10.3380  a.u.
     unit-cell volume          =     276.2165 (a.u.)^3
     number of atoms/cell      =            2
     number of atomic types    =            1
     number of electrons       =         8.00
     number of Kohn-Sham states=            4
     kinetic-energy cutoff     =      18.0000  Ry
     charge density cutoff     =      72.0000  Ry
     Exchange-correlation      = SLA  PW   PBE  PBE ( 1  4  3  4 0 0)

     celldm(1)=  10.338000  celldm(2)=   0.000000  celldm(3)=   0.000000
     celldm(4)=   0.000000  celldm(5)=   0.000000  celldm(6)=   0.000000

     crystal axes: (cart. coord. in units of alat)
               a(1) = (  -0.500000   0.000000   0.500000 )  
               a(2) = (   0.000000   0.500000   0.500000 )  
               a(3) = (  -0.500000   0.500000   0.000000 )  

     reciprocal axes: (cart. coord. in units 2 pi/alat)
               b(1) = ( -1.000000 -1.000000  1.000000 )  
               b(2) = (  1.000000  1.000000  1.000000 )  
               b(3) = ( -1.000000  1.000000 -1.000000 )  


     PseudoPot. # 1 for Si read from file:
     /home/max/quantum_espresso/qe-6.1/pseudo/si_pbe_v1.uspp.F.UPF.txt
     MD5 check sum: a056efeee980c13900f22a371efd63c1
     Pseudo is Ultrasoft + core correction, Zval =  4.0
     Generated by new atomic code, or converted to UPF format
     Using radial grid of  899 points,  6 beta functions with: 
                l(1) =   0
                l(2) =   0
                l(3) =   1
                l(4) =   1
                l(5) =   2
                l(6) =   2
     Q(r) pseudized with  8 coefficients,  rinner =    0.900   0.900   0.900
                                                       0.900   0.900

     atomic species   valence    mass     pseudopotential
        Si             4.00    28.08600     Si( 1.00)

     48 Sym. Ops., with inversion, found



   Cartesian axes

     site n.     atom                  positions (alat units)
         1           Si  tau(   1) = (   0.0000000   0.0000000   0.0000000  )
         2           Si  tau(   2) = (   0.2500000   0.2500000   0.2500000  )

     number of k points=   288

     Number of k-points >= 100: set verbosity='high' to print them.

     Dense  grid:     2741 G-vectors     FFT dimensions: (  20,  20,  20)

     Estimated max dynamical RAM per process >       0.33MB

     Estimated total allocated dynamical RAM >       1.31MB

     Check: negative/imaginary core charge=   -0.000005    0.000000

     The potential is recalculated from file :
     ./_ph0/silicon.10.338.save/charge-density.dat

     Starting wfc are    8 atomic wfcs

     Band Structure Calculation
     Davidson diagonalization with overlap

     ethr =  1.25E-10,  avg # of iterations = 11.6

     total cpu time spent up to now is        4.9 secs

     End of band structure calculation

     Number of k-points >= 100: set verbosity='high' to print the bands.

     highest occupied level (ev):     5.6872

     Writing output data file silicon.10.338.save

                                                                                

     bravais-lattice index     =            2
     lattice parameter (alat)  =      10.3380  a.u.
     unit-cell volume          =     276.2165 (a.u.)^3
     number of atoms/cell      =            2
     number of atomic types    =            1
     kinetic-energy cut-off    =      18.0000  Ry
     charge density cut-off    =      72.0000  Ry
     convergence threshold     =      1.0E-12
     beta                      =       0.7000
     number of iterations used =            4
     Exchange-correlation      = SLA  PW   PBE  PBE ( 1  4  3  4 0 0)


     celldm(1)=   10.33800  celldm(2)=    0.00000  celldm(3)=    0.00000
     celldm(4)=    0.00000  celldm(5)=    0.00000  celldm(6)=    0.00000

     crystal axes: (cart. coord. in units of alat)
               a(1) = ( -0.5000  0.0000  0.5000 )  
               a(2) = (  0.0000  0.5000  0.5000 )  
               a(3) = ( -0.5000  0.5000  0.0000 )  

     reciprocal axes: (cart. coord. in units 2 pi/alat)
               b(1) = ( -1.0000 -1.0000  1.0000 )  
               b(2) = (  1.0000  1.0000  1.0000 )  
               b(3) = ( -1.0000  1.0000 -1.0000 )  


     Atoms inside the unit cell: 

     Cartesian axes

     site n.  atom      mass           positions (alat units)
        1     Si  28.0860   tau(    1) = (    0.00000    0.00000    0.00000  )
        2     Si  28.0860   tau(    2) = (    0.25000    0.25000    0.25000  )

     Computing dynamical matrix for 
                    q = (   0.7500000  -0.2500000   0.7500000 )

      2 Sym.Ops. (no q -> -q+G )


     G cutoff =  194.9152  (    685 G-vectors)     FFT grid: ( 20, 20, 20)
     number of k points=   288

     PseudoPot. # 1 for Si read from file:
     /home/max/quantum_espresso/qe-6.1/pseudo/si_pbe_v1.uspp.F.UPF.txt
     MD5 check sum: a056efeee980c13900f22a371efd63c1
     Pseudo is Ultrasoft + core correction, Zval =  4.0
     Generated by new atomic code, or converted to UPF format
     Using radial grid of  899 points,  6 beta functions with: 
                l(1) =   0
                l(2) =   0
                l(3) =   1
                l(4) =   1
                l(5) =   2
                l(6) =   2
     Q(r) pseudized with  8 coefficients,  rinner =    0.900   0.900   0.900
                                                       0.900   0.900

     Mode symmetry, C_s (m)     point group:


     Atomic displacements:
     There are   6 irreducible representations

     Representation     1      1 modes -A'  To be done

     Representation     2      1 modes -A'  To be done

     Representation     3      1 modes -A'  To be done

     Representation     4      1 modes -A'  To be done

     Representation     5      1 modes -A''  To be done

     Representation     6      1 modes -A''  To be done



     Alpha used in Ewald sum =   0.7000
     PHONON       :    32.53s CPU        36.39s WALL



     Representation #  1 mode #   1

     Self-consistent Calculation

      iter #   1 total cpu time :    37.0 secs   av.it.:   5.3
      thresh= 1.000E-02 alpha_mix =  0.700 |ddv_scf|^2 =  6.114E-05

      iter #   2 total cpu time :    37.9 secs   av.it.:   8.9
      thresh= 7.819E-04 alpha_mix =  0.700 |ddv_scf|^2 =  1.601E-04

      iter #   3 total cpu time :    38.6 secs   av.it.:   7.6
      thresh= 1.265E-03 alpha_mix =  0.700 |ddv_scf|^2 =  1.139E-06

      iter #   4 total cpu time :    39.6 secs   av.it.:   8.4
      thresh= 1.067E-04 alpha_mix =  0.700 |ddv_scf|^2 =  5.691E-08

      iter #   5 total cpu time :    40.3 secs   av.it.:   8.3
      thresh= 2.386E-05 alpha_mix =  0.700 |ddv_scf|^2 =  7.293E-09

      iter #   6 total cpu time :    41.3 secs   av.it.:   8.5
      thresh= 8.540E-06 alpha_mix =  0.700 |ddv_scf|^2 =  7.980E-11

      iter #   7 total cpu time :    42.0 secs   av.it.:   8.8
      thresh= 8.933E-07 alpha_mix =  0.700 |ddv_scf|^2 =  2.884E-12

      iter #   8 total cpu time :    42.8 secs   av.it.:   8.6
      thresh= 1.698E-07 alpha_mix =  0.700 |ddv_scf|^2 =  1.685E-13

     End of self-consistent calculation

     Convergence has been achieved 


     Representation #  2 mode #   2

     Self-consistent Calculation

      iter #   1 total cpu time :    43.6 secs   av.it.:   5.4
      thresh= 1.000E-02 alpha_mix =  0.700 |ddv_scf|^2 =  1.088E-04

      iter #   2 total cpu time :    44.4 secs   av.it.:   8.7
      thresh= 1.043E-03 alpha_mix =  0.700 |ddv_scf|^2 =  3.103E-04

      iter #   3 total cpu time :    45.3 secs   av.it.:   7.4
      thresh= 1.762E-03 alpha_mix =  0.700 |ddv_scf|^2 =  7.837E-07

      iter #   4 total cpu time :    46.1 secs   av.it.:   8.5
      thresh= 8.853E-05 alpha_mix =  0.700 |ddv_scf|^2 =  5.635E-08

      iter #   5 total cpu time :    46.8 secs   av.it.:   8.2
      thresh= 2.374E-05 alpha_mix =  0.700 |ddv_scf|^2 =  1.031E-08

      iter #   6 total cpu time :    47.8 secs   av.it.:   8.5
      thresh= 1.015E-05 alpha_mix =  0.700 |ddv_scf|^2 =  7.933E-11

      iter #   7 total cpu time :    48.6 secs   av.it.:   8.8
      thresh= 8.907E-07 alpha_mix =  0.700 |ddv_scf|^2 =  2.587E-12

      iter #   8 total cpu time :    49.5 secs   av.it.:   8.7
      thresh= 1.608E-07 alpha_mix =  0.700 |ddv_scf|^2 =  7.063E-13

     End of self-consistent calculation

     Convergence has been achieved 


     Representation #  3 mode #   3

     Self-consistent Calculation

      iter #   1 total cpu time :    50.2 secs   av.it.:   5.3
      thresh= 1.000E-02 alpha_mix =  0.700 |ddv_scf|^2 =  8.530E-05

      iter #   2 total cpu time :    50.9 secs   av.it.:   8.8
      thresh= 9.236E-04 alpha_mix =  0.700 |ddv_scf|^2 =  2.277E-04

      iter #   3 total cpu time :    51.8 secs   av.it.:   7.4
      thresh= 1.509E-03 alpha_mix =  0.700 |ddv_scf|^2 =  1.338E-06

      iter #   4 total cpu time :    52.6 secs   av.it.:   8.2
      thresh= 1.157E-04 alpha_mix =  0.700 |ddv_scf|^2 =  5.743E-08

      iter #   5 total cpu time :    53.5 secs   av.it.:   8.4
      thresh= 2.396E-05 alpha_mix =  0.700 |ddv_scf|^2 =  1.058E-08

      iter #   6 total cpu time :    54.3 secs   av.it.:   8.5
      thresh= 1.029E-05 alpha_mix =  0.700 |ddv_scf|^2 =  4.636E-11

      iter #   7 total cpu time :    55.1 secs   av.it.:   8.7
      thresh= 6.809E-07 alpha_mix =  0.700 |ddv_scf|^2 =  1.582E-12

      iter #   8 total cpu time :    56.0 secs   av.it.:   8.8
      thresh= 1.258E-07 alpha_mix =  0.700 |ddv_scf|^2 =  2.213E-13

     End of self-consistent calculation

     Convergence has been achieved 


     Representation #  4 mode #   4

     Self-consistent Calculation

      iter #   1 total cpu time :    56.6 secs   av.it.:   5.2
      thresh= 1.000E-02 alpha_mix =  0.700 |ddv_scf|^2 =  3.766E-05

      iter #   2 total cpu time :    57.6 secs   av.it.:   8.9
[...]
        k(   59) = (  -0.8750000   0.1250000  -0.1250000), wk =   0.0625000
        k(   60) = (  -1.3750000  -0.8750000  -0.1250000), wk =   0.0000000
        k(   61) = (  -1.1250000   0.3750000  -0.3750000), wk =   0.0625000
        k(   62) = (  -1.6250000  -0.6250000  -0.3750000), wk =   0.0000000
        k(   63) = (  -0.3750000   0.3750000   1.1250000), wk =   0.0625000
        k(   64) = (  -0.8750000  -0.6250000   1.1250000), wk =   0.0000000

     Dense  grid:     2741 G-vectors     FFT dimensions: (  20,  20,  20)

     Estimated max dynamical RAM per process >       0.33MB

     Estimated total allocated dynamical RAM >       1.31MB

     Check: negative/imaginary core charge=   -0.000005    0.000000

     The potential is recalculated from file :
     ./_ph0/silicon.10.338.save/charge-density.dat

     Starting wfc are    8 atomic wfcs

     Band Structure Calculation
     Davidson diagonalization with overlap

     ethr =  1.25E-10,  avg # of iterations = 11.6

     total cpu time spent up to now is        7.3 secs

     End of band structure calculation

          k =-0.1250 0.1250 0.1250 (   338 PWs)   bands (ev):

    -5.6353   4.3784   5.6872   5.6872

          k =-0.6250-0.8750 0.1250 (   361 PWs)   bands (ev):

    -2.4486  -0.9102   2.0162   3.0859

          k =-0.3750 0.3750-0.1250 (   352 PWs)   bands (ev):

    -4.6127   1.3882   3.7086   5.2057

          k =-0.8750-0.6250-0.1250 (   361 PWs)   bands (ev):

    -2.4486  -0.9102   2.0162   3.0859

          k = 0.3750-0.3750 0.6250 (   361 PWs)   bands (ev):

    -3.4793  -0.6814   3.7263   4.4368

          k =-0.1250-1.3750 0.6250 (   361 PWs)   bands (ev):

    -2.9847  -0.6032   2.0725   4.1215

          k = 0.1250-0.1250 0.3750 (   353 PWs)   bands (ev):

    -5.1096   2.7604   4.6816   4.7446

          k =-0.3750-1.1250 0.3750 (   361 PWs)   bands (ev):

    -2.9847  -0.6032   2.0725   4.1215

          k =-0.1250 0.6250 0.1250 (   351 PWs)   bands (ev):

    -4.0817   1.0486   3.3619   3.8096

          k =-0.6250-0.3750 0.1250 (   357 PWs)   bands (ev):

    -3.6684   0.1811   2.7228   4.0849

          k = 0.6250-0.1250 0.8750 (   361 PWs)   bands (ev):

    -2.4486  -0.9102   2.0162   3.0859

          k = 0.1250-1.1250 0.8750 (   358 PWs)   bands (ev):

    -2.6145  -0.8135   2.6213   3.3436

          k = 0.3750 0.1250 0.6250 (   357 PWs)   bands (ev):

    -3.6684   0.1811   2.7228   4.0849

          k =-0.1250-0.8750 0.6250 (   361 PWs)   bands (ev):

    -2.4486  -0.9102   2.0162   3.0859

          k =-0.1250-0.8750 0.1250 (   358 PWs)   bands (ev):

    -2.6145  -0.8135   2.6213   3.3436

          k =-0.6250-1.8750 0.1250 (   351 PWs)   bands (ev):

    -4.0817   1.0486   3.3619   3.8096

          k =-0.3750 0.3750 0.3750 (   353 PWs)   bands (ev):

    -4.1824   0.1048   4.8998   4.8998

          k =-0.8750-0.6250 0.3750 (   357 PWs)   bands (ev):

    -3.6684   0.1811   2.7228   4.0849

          k = 0.3750-0.3750 1.1250 (   361 PWs)   bands (ev):

    -2.9847  -0.6032   2.0725   4.1215

          k =-0.1250-1.3750 1.1250 (   361 PWs)   bands (ev):

    -2.4486  -0.9102   2.0162   3.0859

          k = 0.1250-0.3750 0.3750 (   352 PWs)   bands (ev):

    -4.6127   1.3882   3.7086   5.2057

          k =-0.3750-1.3750 0.3750 (   361 PWs)   bands (ev):

    -3.4793  -0.6814   3.7263   4.4368

          k = 0.3750-0.3750-0.1250 (   352 PWs)   bands (ev):

    -4.6127   1.3882   3.7086   5.2057

          k =-0.1250-1.3750-0.1250 (   351 PWs)   bands (ev):

    -4.0817   1.0486   3.3619   3.8096

          k =-0.6250 0.3750-0.3750 (   361 PWs)   bands (ev):

    -3.4793  -0.6814   3.7263   4.4368

          k =-1.1250-0.6250-0.3750 (   357 PWs)   bands (ev):

    -3.6684   0.1811   2.7228   4.0849

          k =-0.3750 0.3750 0.6250 (   361 PWs)   bands (ev):

    -3.4793  -0.6814   3.7263   4.4368

          k =-0.8750-0.6250 0.6250 (   352 PWs)   bands (ev):

    -4.6127   1.3882   3.7086   5.2057

          k =-0.3750 0.1250-0.1250 (   353 PWs)   bands (ev):

    -5.1096   2.7604   4.6816   4.7446

          k =-0.8750-0.8750-0.1250 (   358 PWs)   bands (ev):

    -2.6145  -0.8135   2.6213   3.3436

          k =-0.1250 0.1250 0.3750 (   353 PWs)   bands (ev):

    -5.1096   2.7604   4.6816   4.7446

          k =-0.6250-0.8750 0.3750 (   357 PWs)   bands (ev):

    -3.6684   0.1811   2.7228   4.0849

          k = 0.1250 0.6250-0.1250 (   351 PWs)   bands (ev):

    -4.0817   1.0486   3.3619   3.8096

          k =-0.3750-0.3750-0.1250 (   352 PWs)   bands (ev):

    -4.6127   1.3882   3.7086   5.2057

          k = 0.6250 0.1250-0.1250 (   351 PWs)   bands (ev):

    -4.0817   1.0486   3.3619   3.8096

          k = 0.1250-0.8750-0.1250 (   358 PWs)   bands (ev):

    -2.6145  -0.8135   2.6213   3.3436

          k =-0.8750 0.1250-0.6250 (   361 PWs)   bands (ev):

    -2.4486  -0.9102   2.0162   3.0859

          k =-1.3750-0.8750-0.6250 (   352 PWs)   bands (ev):

    -4.6127   1.3882   3.7086   5.2057

          k = 0.8750-0.1250 0.6250 (   361 PWs)   bands (ev):

    -2.4486  -0.9102   2.0162   3.0859

          k = 0.3750-1.1250 0.6250 (   357 PWs)   bands (ev):

    -3.6684   0.1811   2.7228   4.0849

          k =-0.6250 0.1250 0.8750 (   361 PWs)   bands (ev):

    -2.4486  -0.9102   2.0162   3.0859

          k =-1.1250-0.8750 0.8750 (   338 PWs)   bands (ev):

    -5.6353   4.3784   5.6872   5.6872

          k =-0.1250 0.8750 0.6250 (   361 PWs)   bands (ev):

    -2.4486  -0.9102   2.0162   3.0859

          k =-0.6250-0.1250 0.6250 (   361 PWs)   bands (ev):

    -2.9847  -0.6032   2.0725   4.1215

          k = 0.1250 0.8750-0.6250 (   361 PWs)   bands (ev):

    -2.4486  -0.9102   2.0162   3.0859

          k =-0.3750-0.1250-0.6250 (   357 PWs)   bands (ev):

    -3.6684   0.1811   2.7228   4.0849

          k =-0.6250-0.1250-0.3750 (   357 PWs)   bands (ev):

    -3.6684   0.1811   2.7228   4.0849

          k =-1.1250-1.1250-0.3750 (   351 PWs)   bands (ev):

    -4.0817   1.0486   3.3619   3.8096

          k = 0.6250 0.1250 0.3750 (   357 PWs)   bands (ev):

    -3.6684   0.1811   2.7228   4.0849

          k = 0.1250-0.8750 0.3750 (   361 PWs)   bands (ev):

    -2.4486  -0.9102   2.0162   3.0859

          k =-0.3750-0.1250 0.6250 (   357 PWs)   bands (ev):

    -3.6684   0.1811   2.7228   4.0849

          k =-0.8750-1.1250 0.6250 (   353 PWs)   bands (ev):

    -5.1096   2.7604   4.6816   4.7446

          k = 0.1250 0.6250 0.3750 (   357 PWs)   bands (ev):

    -3.6684   0.1811   2.7228   4.0849

          k =-0.3750-0.3750 0.3750 (   353 PWs)   bands (ev):

    -4.1824   0.1048   4.8998   4.8998

          k =-0.1250 0.6250-0.3750 (   357 PWs)   bands (ev):

    -3.6684   0.1811   2.7228   4.0849

          k =-0.6250-0.3750-0.3750 (   361 PWs)   bands (ev):

    -3.4793  -0.6814   3.7263   4.4368

          k = 0.1250-0.8750-0.1250 (   358 PWs)   bands (ev):

    -2.6145  -0.8135   2.6213   3.3436

          k =-0.3750-1.8750-0.1250 (   353 PWs)   bands (ev):

    -5.1096   2.7604   4.6816   4.7446

          k =-0.8750 0.1250-0.1250 (   358 PWs)   bands (ev):

    -2.6145  -0.8135   2.6213   3.3436

          k =-1.3750-0.8750-0.1250 (   361 PWs)   bands (ev):

    -2.4486  -0.9102   2.0162   3.0859

          k =-1.1250 0.3750-0.3750 (   361 PWs)   bands (ev):

    -2.9847  -0.6032   2.0725   4.1215

          k =-1.6250-0.6250-0.3750 (   361 PWs)   bands (ev):

    -3.4793  -0.6814   3.7263   4.4368

          k =-0.3750 0.3750 1.1250 (   361 PWs)   bands (ev):

    -2.9847  -0.6032   2.0725   4.1215

          k =-0.8750-0.6250 1.1250 (   353 PWs)   bands (ev):

    -5.1096   2.7604   4.6816   4.7446

     highest occupied level (ev):     5.6872

     Writing output data file silicon.10.338.save

                                                                                

     bravais-lattice index     =            2
     lattice parameter (alat)  =      10.3380  a.u.
     unit-cell volume          =     276.2165 (a.u.)^3
     number of atoms/cell      =            2
     number of atomic types    =            1
     kinetic-energy cut-off    =      18.0000  Ry
     charge density cut-off    =      72.0000  Ry
     convergence threshold     =      1.0E-12
     beta                      =       0.7000
     number of iterations used =            4
     Exchange-correlation      = SLA  PW   PBE  PBE ( 1  4  3  4 0 0)


     celldm(1)=   10.33800  celldm(2)=    0.00000  celldm(3)=    0.00000
     celldm(4)=    0.00000  celldm(5)=    0.00000  celldm(6)=    0.00000

     crystal axes: (cart. coord. in units of alat)
               a(1) = ( -0.5000  0.0000  0.5000 )  
               a(2) = (  0.0000  0.5000  0.5000 )  
               a(3) = ( -0.5000  0.5000  0.0000 )  

     reciprocal axes: (cart. coord. in units 2 pi/alat)
               b(1) = ( -1.0000 -1.0000  1.0000 )  
               b(2) = (  1.0000  1.0000  1.0000 )  
               b(3) = ( -1.0000  1.0000 -1.0000 )  


     Atoms inside the unit cell: 

     Cartesian axes

     site n.  atom      mass           positions (alat units)
        1     Si  28.0860   tau(    1) = (    0.00000    0.00000    0.00000  )
        2     Si  28.0860   tau(    2) = (    0.25000    0.25000    0.25000  )

     Computing dynamical matrix for 
                    q = (  -0.5000000  -1.0000000   0.0000000 )

      8 Sym.Ops. (no q -> -q+G )


     G cutoff =  194.9152  (    685 G-vectors)     FFT grid: ( 20, 20, 20)
     number of k points=    64

     PseudoPot. # 1 for Si read from file:
     /home/max/quantum_espresso/qe-6.1/pseudo/si_pbe_v1.uspp.F.UPF.txt
     MD5 check sum: a056efeee980c13900f22a371efd63c1
     Pseudo is Ultrasoft + core correction, Zval =  4.0
     Generated by new atomic code, or converted to UPF format
     Using radial grid of  899 points,  6 beta functions with: 
                l(1) =   0
                l(2) =   0
                l(3) =   1
                l(4) =   1
                l(5) =   2
                l(6) =   2
     Q(r) pseudized with  8 coefficients,  rinner =    0.900   0.900   0.900
                                                       0.900   0.900


     Atomic displacements:
     There are   3 irreducible representations

     Representation     1      2 modes -  To be done

     Representation     2      2 modes -  To be done

     Representation     3      2 modes -  To be done



     Alpha used in Ewald sum =   0.7000
     PHONON       :  1m24.09s CPU     1m32.56s WALL



     Representation #  1 modes #   1  2

     Self-consistent Calculation

      iter #   1 total cpu time :    92.8 secs   av.it.:   5.3
      thresh= 1.000E-02 alpha_mix =  0.700 |ddv_scf|^2 =  6.326E-06

      iter #   2 total cpu time :    93.4 secs   av.it.:   9.9
      thresh= 2.515E-04 alpha_mix =  0.700 |ddv_scf|^2 =  3.424E-06

      iter #   3 total cpu time :    93.8 secs   av.it.:   9.2
      thresh= 1.850E-04 alpha_mix =  0.700 |ddv_scf|^2 =  8.473E-09

      iter #   4 total cpu time :    94.2 secs   av.it.:   9.1
      thresh= 9.205E-06 alpha_mix =  0.700 |ddv_scf|^2 =  1.918E-11

      iter #   5 total cpu time :    94.5 secs   av.it.:   9.2
      thresh= 4.379E-07 alpha_mix =  0.700 |ddv_scf|^2 =  5.318E-13

     End of self-consistent calculation

     Convergence has been achieved 


     Representation #  2 modes #   3  4

     Self-consistent Calculation

      iter #   1 total cpu time :    94.8 secs   av.it.:   5.2
      thresh= 1.000E-02 alpha_mix =  0.700 |ddv_scf|^2 =  9.809E-06

      iter #   2 total cpu time :    95.4 secs   av.it.:   9.9
      thresh= 3.132E-04 alpha_mix =  0.700 |ddv_scf|^2 =  1.307E-05

      iter #   3 total cpu time :    95.8 secs   av.it.:   9.1
      thresh= 3.615E-04 alpha_mix =  0.700 |ddv_scf|^2 =  9.968E-09

      iter #   4 total cpu time :    96.2 secs   av.it.:   8.9
      thresh= 9.984E-06 alpha_mix =  0.700 |ddv_scf|^2 =  8.158E-11

      iter #   5 total cpu time :    96.5 secs   av.it.:   9.4
      thresh= 9.032E-07 alpha_mix =  0.700 |ddv_scf|^2 =  1.748E-12

      iter #   6 total cpu time :    96.9 secs   av.it.:   9.1
      thresh= 1.322E-07 alpha_mix =  0.700 |ddv_scf|^2 =  1.452E-14

     End of self-consistent calculation

     Convergence has been achieved 


     Representation #  3 modes #   5  6

     Self-consistent Calculation

      iter #   1 total cpu time :    97.4 secs   av.it.:   5.1
      thresh= 1.000E-02 alpha_mix =  0.700 |ddv_scf|^2 =  2.648E-06

      iter #   2 total cpu time :    97.8 secs   av.it.:   9.7
      thresh= 1.627E-04 alpha_mix =  0.700 |ddv_scf|^2 =  1.445E-06

      iter #   3 total cpu time :    98.1 secs   av.it.:   9.1
      thresh= 1.202E-04 alpha_mix =  0.700 |ddv_scf|^2 =  8.352E-09

      iter #   4 total cpu time :    98.5 secs   av.it.:   8.8
      thresh= 9.139E-06 alpha_mix =  0.700 |ddv_scf|^2 =  4.281E-11

      iter #   5 total cpu time :    98.9 secs   av.it.:   9.1
      thresh= 6.543E-07 alpha_mix =  0.700 |ddv_scf|^2 =  6.993E-13

     End of self-consistent calculation

     Convergence has been achieved 

     Number of q in the star =    6
     List of q in the star:
          1  -0.500000000  -1.000000000   0.000000000
          2   0.000000000   1.000000000   0.500000000
          3   0.000000000  -1.000000000  -0.500000000
          4   0.500000000   1.000000000   0.000000000
          5  -1.000000000  -0.500000000   0.000000000
          6   0.000000000  -0.500000000  -1.000000000

     Diagonalizing the dynamical matrix

     q = (   -0.500000000  -1.000000000   0.000000000 ) 

 **************************************************************************
     freq (    1) =       7.011889 [THz] =     233.891435 [cm-1]
     freq (    2) =       7.011889 [THz] =     233.891435 [cm-1]
     freq (    3) =      10.772571 [THz] =     359.334288 [cm-1]
     freq (    4) =      10.772571 [THz] =     359.334288 [cm-1]
     freq (    5) =      13.760807 [THz] =     459.011107 [cm-1]
     freq (    6) =      13.760807 [THz] =     459.011107 [cm-1]
 **************************************************************************

     init_run     :      0.55s CPU      0.59s WALL (       7 calls)
     electrons    :      5.17s CPU      5.80s WALL (       7 calls)

     Called by init_run:
     wfcinit      :      0.00s CPU      0.00s WALL (       7 calls)
     potinit      :      0.02s CPU      0.02s WALL (       7 calls)

     Called by electrons:
     c_bands      :      5.16s CPU      5.78s WALL (       7 calls)
     v_of_rho     :      0.01s CPU      0.01s WALL (       8 calls)
     newd         :      0.02s CPU      0.03s WALL (       8 calls)

     Called by c_bands:
     init_us_2    :      0.69s CPU      0.74s WALL (   17588 calls)
     cegterg      :      4.37s CPU      4.89s WALL (     796 calls)

     Called by sum_band:

     Called by *egterg:
     h_psi        :     49.56s CPU     54.24s WALL (  152225 calls)
     s_psi        :      5.92s CPU      6.46s WALL (  309170 calls)
     g_psi        :      0.03s CPU      0.03s WALL (    9268 calls)
     cdiaghg      :      0.48s CPU      0.54s WALL (   10064 calls)

     Called by h_psi:
     h_psi:pot    :     49.37s CPU     54.02s WALL (  152225 calls)
     h_psi:calbec :      5.15s CPU      5.67s WALL (  152225 calls)
     vloc_psi     :     41.03s CPU     44.87s WALL (  152225 calls)
     add_vuspsi   :      2.96s CPU      3.24s WALL (  152225 calls)

     General routines
     calbec       :     11.51s CPU     12.72s WALL (  345542 calls)
     fft          :      0.57s CPU      0.62s WALL (    5239 calls)
     ffts         :      0.18s CPU      0.20s WALL (    2748 calls)
     fftw         :     47.89s CPU     52.47s WALL ( 1378558 calls)
     davcio       :      0.31s CPU      0.34s WALL (   79045 calls)

     Parallel routines
     fft_scatter  :     14.16s CPU     15.75s WALL ( 1386545 calls)

     PHONON       :  1m30.00s CPU     1m38.87s WALL

     INITIALIZATION: 
     phq_setup    :      0.07s CPU      0.09s WALL (       8 calls)
     phq_init     :      2.11s CPU      2.21s WALL (       8 calls)

     phq_init     :      2.11s CPU      2.21s WALL (       8 calls)
     set_drhoc    :      0.28s CPU      0.31s WALL (      24 calls)
     init_vloc    :      0.01s CPU      0.01s WALL (       8 calls)
     init_us_1    :      0.52s CPU      0.53s WALL (       8 calls)
     newd         :      0.02s CPU      0.03s WALL (       8 calls)
     dvanqq       :      0.25s CPU      0.25s WALL (       8 calls)
     drho         :      1.11s CPU      1.14s WALL (       8 calls)

     DYNAMICAL MATRIX:
     dynmat0      :      0.51s CPU      0.53s WALL (       8 calls)
     phqscf       :     79.42s CPU     87.19s WALL (       8 calls)
     dynmatrix    :      0.01s CPU      0.02s WALL (       8 calls)

     phqscf       :     79.42s CPU     87.19s WALL (       8 calls)
     solve_linter :     78.37s CPU     86.06s WALL (      32 calls)
     drhodv       :      0.71s CPU      0.78s WALL (      32 calls)

     dynmat0      :      0.51s CPU      0.53s WALL (       8 calls)
     dynmat_us    :      0.29s CPU      0.30s WALL (       8 calls)
     d2ionq       :      0.01s CPU      0.01s WALL (       8 calls)
     dynmatcc     :      0.21s CPU      0.21s WALL (       8 calls)

     dynmat_us    :      0.29s CPU      0.30s WALL (       8 calls)
     addusdynmat  :      0.00s CPU      0.00s WALL (       8 calls)

     phqscf       :     79.42s CPU     87.19s WALL (       8 calls)
     solve_linter :     78.37s CPU     86.06s WALL (      32 calls)

     solve_linter :     78.37s CPU     86.06s WALL (      32 calls)
     dvqpsi_us    :      1.79s CPU      1.98s WALL (    2508 calls)
     ortho        :      1.33s CPU      1.46s WALL (   15550 calls)
     cgsolve      :     61.65s CPU     67.61s WALL (   15550 calls)
     incdrhoscf   :      5.43s CPU      6.02s WALL (   15550 calls)
     addusddens   :      1.17s CPU      1.24s WALL (     228 calls)
     vpsifft      :      3.93s CPU      4.32s WALL (   12922 calls)
     dv_of_drho   :      0.24s CPU      0.26s WALL (     295 calls)
     mix_pot      :      0.05s CPU      0.06s WALL (     201 calls)
     psymdvscf    :      0.82s CPU      0.85s WALL (     196 calls)
     newdq        :      1.31s CPU      1.48s WALL (     201 calls)
     adddvscf     :      0.47s CPU      0.51s WALL (   13042 calls)
     drhodvus     :      0.01s CPU      0.01s WALL (      32 calls)

     dvqpsi_us    :      1.79s CPU      1.98s WALL (    2508 calls)
     dvqpsi_us_on :      0.83s CPU      0.91s WALL (    2508 calls)

     cgsolve      :     61.65s CPU     67.61s WALL (   15550 calls)
     ch_psi       :     59.03s CPU     64.61s WALL (  141365 calls)

     ch_psi       :     59.03s CPU     64.61s WALL (  141365 calls)
     h_psi        :     49.56s CPU     54.24s WALL (  152225 calls)
     last         :      9.94s CPU     10.98s WALL (  141365 calls)

     h_psi        :     49.56s CPU     54.24s WALL (  152225 calls)
     add_vuspsi   :      2.96s CPU      3.24s WALL (  152225 calls)

     incdrhoscf   :      5.43s CPU      6.02s WALL (   15550 calls)
     addusdbec    :      0.80s CPU      0.89s WALL (   17998 calls)

     drhodvus     :      0.01s CPU      0.01s WALL (      32 calls)

      General routines
     calbec       :     11.51s CPU     12.72s WALL (  345542 calls)
     fft          :      0.57s CPU      0.62s WALL (    5239 calls)
     ffts         :      0.18s CPU      0.20s WALL (    2748 calls)
     fftw         :     47.89s CPU     52.47s WALL ( 1378558 calls)
     davcio       :      0.31s CPU      0.34s WALL (   79045 calls)
     write_rec    :      0.22s CPU      0.24s WALL (     233 calls)


     PHONON       :  1m30.00s CPU     1m38.87s WALL


   This run was terminated on:  12:34:16   9Nov2017            

=------------------------------------------------------------------------------=
   JOB DONE.
=------------------------------------------------------------------------------=
