
     Program PWSCF v.6.1 (svn rev. 13369) starts on 10Nov2017 at 10:28:20 

     This program is part of the open-source Quantum ESPRESSO suite
     for quantum simulation of materials; please cite
         "P. Giannozzi et al., J. Phys.:Condens. Matter 21 395502 (2009);
          URL http://www.quantum-espresso.org", 
     in publications or presentations arising from this work. More details at
     http://www.quantum-espresso.org/quote

     Parallel version (MPI), running on     4 processors
     R & G space division:  proc/nbgrp/npool/nimage =       4
     Waiting for input...
     Reading input from standard input
     Message from routine read_cards :
     DEPRECATED: no units specified in ATOMIC_POSITIONS card
     Message from routine read_cards :
     ATOMIC_POSITIONS: units set to alat

     Current dimensions of program PWSCF are:
     Max number of different atomic species (ntypx) = 10
     Max number of k-points (npk) =  40000
     Max angular momentum in pseudopotentials (lmaxx) =  3

     Subspace diagonalization in iterative solution of the eigenvalue problem:
     a serial algorithm will be used


     Parallelization info
     --------------------
     sticks:   dense  smooth     PW     G-vecs:    dense   smooth      PW
     Min         214     108     37                 4156     1489     284
     Max         217     109     38                 4157     1492     285
     Sum         859     433    151                16625     5961    1139



     bravais-lattice index     =            2
     lattice parameter (alat)  =      10.2000  a.u.
     unit-cell volume          =     265.3020 (a.u.)^3
     number of atoms/cell      =            2
     number of atomic types    =            1
     number of electrons       =         8.00
     number of Kohn-Sham states=            4
     kinetic-energy cutoff     =      30.0000  Ry
     charge density cutoff     =     240.0000  Ry
     convergence threshold     =      1.0E-08
     mixing beta               =       0.7000
     number of iterations used =            8  plain     mixing
     Exchange-correlation      = SLA  PW   PBE  PBE ( 1  4  3  4 0 0)

     celldm(1)=  10.200000  celldm(2)=   0.000000  celldm(3)=   0.000000
     celldm(4)=   0.000000  celldm(5)=   0.000000  celldm(6)=   0.000000

     crystal axes: (cart. coord. in units of alat)
               a(1) = (  -0.500000   0.000000   0.500000 )  
               a(2) = (   0.000000   0.500000   0.500000 )  
               a(3) = (  -0.500000   0.500000   0.000000 )  

     reciprocal axes: (cart. coord. in units 2 pi/alat)
               b(1) = ( -1.000000 -1.000000  1.000000 )  
               b(2) = (  1.000000  1.000000  1.000000 )  
               b(3) = ( -1.000000  1.000000 -1.000000 )  


     PseudoPot. # 1 for Si read from file:
     /home/max/quantum_espresso/qe-6.1/pseudo/si_pbe_v1.uspp.F.UPF.txt
     MD5 check sum: a056efeee980c13900f22a371efd63c1
     Pseudo is Ultrasoft + core correction, Zval =  4.0
     Generated by new atomic code, or converted to UPF format
     Using radial grid of  899 points,  6 beta functions with: 
                l(1) =   0
                l(2) =   0
                l(3) =   1
                l(4) =   1
                l(5) =   2
                l(6) =   2
     Q(r) pseudized with  8 coefficients,  rinner =    0.900   0.900   0.900
                                                       0.900   0.900

     atomic species   valence    mass     pseudopotential
        Si             4.00    28.08600     Si( 1.00)

     48 Sym. Ops., with inversion, found (24 have fractional translation)



   Cartesian axes

     site n.     atom                  positions (alat units)
         1           Si  tau(   1) = (   0.0000000   0.0000000   0.0000000  )
         2           Si  tau(   2) = (   0.2500000   0.2500000   0.2500000  )

     number of k points=    28
                       cart. coord. in units 2pi/alat
        k(    1) = (  -0.0833333   0.0833333   0.0833333), wk =   0.0185185
        k(    2) = (  -0.2500000   0.2500000  -0.0833333), wk =   0.0555556
        k(    3) = (  -0.4166667   0.4166667  -0.2500000), wk =   0.0555556
        k(    4) = (   0.4166667  -0.4166667   0.5833333), wk =   0.0555556
        k(    5) = (   0.2500000  -0.2500000   0.4166667), wk =   0.0555556
        k(    6) = (   0.0833333  -0.0833333   0.2500000), wk =   0.0555556
        k(    7) = (  -0.0833333   0.4166667   0.0833333), wk =   0.0555556
        k(    8) = (  -0.2500000   0.5833333  -0.0833333), wk =   0.1111111
        k(    9) = (   0.5833333  -0.2500000   0.7500000), wk =   0.1111111
        k(   10) = (   0.4166667  -0.0833333   0.5833333), wk =   0.1111111
        k(   11) = (   0.2500000   0.0833333   0.4166667), wk =   0.1111111
        k(   12) = (  -0.0833333   0.7500000   0.0833333), wk =   0.0555556
        k(   13) = (   0.7500000  -0.0833333   0.9166667), wk =   0.1111111
        k(   14) = (   0.5833333   0.0833333   0.7500000), wk =   0.1111111
        k(   15) = (   0.4166667   0.2500000   0.5833333), wk =   0.1111111
        k(   16) = (  -0.0833333  -0.9166667   0.0833333), wk =   0.0555556
        k(   17) = (  -0.2500000  -0.7500000  -0.0833333), wk =   0.1111111
        k(   18) = (  -0.0833333  -0.5833333   0.0833333), wk =   0.0555556
        k(   19) = (  -0.2500000   0.2500000   0.2500000), wk =   0.0185185
        k(   20) = (  -0.4166667   0.4166667   0.0833333), wk =   0.0555556
        k(   21) = (   0.4166667  -0.4166667   0.9166667), wk =   0.0555556
        k(   22) = (   0.2500000  -0.2500000   0.7500000), wk =   0.0555556
        k(   23) = (  -0.2500000   0.5833333   0.2500000), wk =   0.0555556
        k(   24) = (   0.5833333  -0.2500000   1.0833333), wk =   0.1111111
        k(   25) = (   0.4166667  -0.0833333   0.9166667), wk =   0.1111111
        k(   26) = (  -0.2500000  -1.0833333   0.2500000), wk =   0.0555556
        k(   27) = (  -0.4166667   0.4166667   0.4166667), wk =   0.0185185
        k(   28) = (   0.4166667  -0.4166667   1.2500000), wk =   0.0555556

     Dense  grid:    16625 G-vectors     FFT dimensions: (  36,  36,  36)

     Smooth grid:     5961 G-vectors     FFT dimensions: (  25,  25,  25)

     Estimated max dynamical RAM per process >       2.97MB

     Estimated total allocated dynamical RAM >      11.89MB

     Initial potential from superposition of free atoms

     starting charge    7.99866, renormalised to    8.00000
     Starting wfc are    8 randomized atomic wfcs

     total cpu time spent up to now is        0.5 secs

     per-process dynamical memory:    10.0 Mb

     Self-consistent Calculation

     iteration #  1     ecut=    30.00 Ry     beta=0.70
     Davidson diagonalization with overlap
     ethr =  1.00E-02,  avg # of iterations =  2.0

     Threshold (ethr) on eigenvalues was too large:
     Diagonalizing with lowered threshold

     Davidson diagonalization with overlap
     ethr =  7.21E-04,  avg # of iterations =  1.0

     total cpu time spent up to now is        0.9 secs

     total energy              =     -19.18959946 Ry
     Harris-Foulkes estimate   =     -19.20370599 Ry
     estimated scf accuracy    <       0.05716245 Ry

     iteration #  2     ecut=    30.00 Ry     beta=0.70
     Davidson diagonalization with overlap
     ethr =  7.15E-04,  avg # of iterations =  1.0

     total cpu time spent up to now is        1.4 secs

     total energy              =     -19.19165810 Ry
     Harris-Foulkes estimate   =     -19.19182503 Ry
     estimated scf accuracy    <       0.00243656 Ry

     iteration #  3     ecut=    30.00 Ry     beta=0.70
     Davidson diagonalization with overlap
     ethr =  3.05E-05,  avg # of iterations =  2.2

     total cpu time spent up to now is        1.9 secs

     total energy              =     -19.19203610 Ry
     Harris-Foulkes estimate   =     -19.19205161 Ry
     estimated scf accuracy    <       0.00004819 Ry

     iteration #  4     ecut=    30.00 Ry     beta=0.70
     Davidson diagonalization with overlap
     ethr =  6.02E-07,  avg # of iterations =  3.4

     total cpu time spent up to now is        2.2 secs

     total energy              =     -19.19207661 Ry
     Harris-Foulkes estimate   =     -19.19207792 Ry
     estimated scf accuracy    <       0.00000442 Ry

     iteration #  5     ecut=    30.00 Ry     beta=0.70
     Davidson diagonalization with overlap
     ethr =  5.52E-08,  avg # of iterations =  2.0

     total cpu time spent up to now is        2.4 secs

     total energy              =     -19.19207717 Ry
     Harris-Foulkes estimate   =     -19.19207717 Ry
     estimated scf accuracy    <       0.00000002 Ry

     iteration #  6     ecut=    30.00 Ry     beta=0.70
     Davidson diagonalization with overlap
     ethr =  1.88E-10,  avg # of iterations =  4.0

     total cpu time spent up to now is        2.7 secs

     End of self-consistent calculation

          k =-0.0833 0.0833 0.0833 (   731 PWs)   bands (ev):

    -5.6084   5.5258   6.2386   6.2386

          k =-0.2500 0.2500-0.0833 (   739 PWs)   bands (ev):

    -5.1225   3.4265   4.9757   6.0280

          k =-0.4167 0.4167-0.2500 (   745 PWs)   bands (ev):

    -4.0062   0.6110   4.5108   5.3786

          k = 0.4167-0.4167 0.5833 (   743 PWs)   bands (ev):

    -3.2865  -0.5621   4.5835   4.9886

          k = 0.2500-0.2500 0.4167 (   742 PWs)   bands (ev):

    -4.4278   1.4749   5.0460   5.0929

          k = 0.0833-0.0833 0.2500 (   731 PWs)   bands (ev):

    -5.3631   4.4544   5.5755   5.7773

          k =-0.0833 0.4167 0.0833 (   736 PWs)   bands (ev):

    -4.8768   3.2555   4.8232   4.8299

          k =-0.2500 0.5833-0.0833 (   737 PWs)   bands (ev):

    -3.9478   1.3880   3.4705   4.4371

          k = 0.5833-0.2500 0.7500 (   733 PWs)   bands (ev):

    -2.8009  -0.4115   2.8647   4.2022

          k = 0.4167-0.0833 0.5833 (   739 PWs)   bands (ev):

    -3.5435   0.6772   2.8125   4.7028

          k = 0.2500 0.0833 0.4167 (   737 PWs)   bands (ev):

    -4.6466   2.3939   4.1833   5.3911

          k =-0.0833 0.7500 0.0833 (   735 PWs)   bands (ev):

    -3.2231   0.5609   3.4297   3.7816

          k = 0.7500-0.0833 0.9167 (   736 PWs)   bands (ev):

    -2.0000  -0.8031   2.5619   3.3611

          k = 0.5833 0.0833 0.7500 (   730 PWs)   bands (ev):

    -2.3728  -0.4731   2.0700   3.9198

          k = 0.4167 0.2500 0.5833 (   737 PWs)   bands (ev):

    -3.4262  -0.0409   3.7896   4.8044

          k =-0.0833-0.9167 0.0833 (   736 PWs)   bands (ev):

    -2.0967  -0.8127   3.1538   3.5624

          k =-0.2500-0.7500-0.0833 (   737 PWs)   bands (ev):

    -3.0494   0.3307   2.8962   3.7085

          k =-0.0833-0.5833 0.0833 (   732 PWs)   bands (ev):

    -4.1583   1.9467   3.9893   4.2117

          k =-0.2500 0.2500 0.2500 (   745 PWs)   bands (ev):

    -4.8882   2.4246   5.6136   5.6136

          k =-0.4167 0.4167 0.0833 (   740 PWs)   bands (ev):

    -4.1950   1.4916   3.4344   5.4431

          k = 0.4167-0.4167 0.9167 (   734 PWs)   bands (ev):

    -2.9880   0.0333   2.2986   4.6372

          k = 0.2500-0.2500 0.7500 (   735 PWs)   bands (ev):

    -2.9360  -0.0469   2.7929   4.1433

          k =-0.2500 0.5833 0.2500 (   738 PWs)   bands (ev):

    -3.7615   0.6646   3.9225   4.5242

          k = 0.5833-0.2500 1.0833 (   732 PWs)   bands (ev):

    -2.7368  -0.0715   2.3992   3.7033

          k = 0.4167-0.0833 0.9167 (   732 PWs)   bands (ev):

    -1.8869  -0.8109   2.2230   3.0176

          k =-0.2500-1.0833 0.2500 (   732 PWs)   bands (ev):

    -2.1011  -0.7221   2.0941   3.9448

          k =-0.4167 0.4167 0.4167 (   739 PWs)   bands (ev):

    -3.6671  -0.1524   5.2203   5.2203

          k = 0.4167-0.4167 1.2500 (   737 PWs)   bands (ev):

    -3.0467  -0.4531   3.3535   4.7676

     highest occupied level (ev):     6.2386

!    total energy              =     -19.19207722 Ry
     Harris-Foulkes estimate   =     -19.19207722 Ry
     estimated scf accuracy    <          7.6E-10 Ry

     The total energy is the sum of the following terms:

     one-electron contribution =       5.25112361 Ry
     hartree contribution      =       1.09977289 Ry
     xc contribution           =      -8.64321514 Ry
     ewald contribution        =     -16.89975857 Ry

     convergence has been achieved in   6 iterations

     Writing output data file silicon.10.20.save

     init_run     :      0.32s CPU      0.38s WALL (       1 calls)
     electrons    :      1.47s CPU      2.22s WALL (       1 calls)

     Called by init_run:
     wfcinit      :      0.07s CPU      0.09s WALL (       1 calls)
     potinit      :      0.02s CPU      0.02s WALL (       1 calls)

     Called by electrons:
     c_bands      :      0.91s CPU      1.36s WALL (       7 calls)
     sum_band     :      0.33s CPU      0.54s WALL (       7 calls)
     v_of_rho     :      0.10s CPU      0.13s WALL (       7 calls)
     newd         :      0.15s CPU      0.18s WALL (       7 calls)
     mix_rho      :      0.01s CPU      0.01s WALL (       7 calls)

     Called by c_bands:
     init_us_2    :      0.05s CPU      0.06s WALL (     420 calls)
     cegterg      :      0.78s CPU      1.19s WALL (     196 calls)

     Called by sum_band:
     sum_band:bec :      0.00s CPU      0.00s WALL (     196 calls)
     addusdens    :      0.15s CPU      0.18s WALL (       7 calls)

     Called by *egterg:
     h_psi        :      0.64s CPU      0.97s WALL (     662 calls)
     s_psi        :      0.05s CPU      0.06s WALL (     662 calls)
     g_psi        :      0.00s CPU      0.00s WALL (     438 calls)
     cdiaghg      :      0.05s CPU      0.09s WALL (     606 calls)

     Called by h_psi:
     h_psi:pot    :      0.64s CPU      0.97s WALL (     662 calls)
     h_psi:calbec :      0.07s CPU      0.11s WALL (     662 calls)
     vloc_psi     :      0.52s CPU      0.80s WALL (     662 calls)
     add_vuspsi   :      0.05s CPU      0.06s WALL (     662 calls)

     General routines
     calbec       :      0.10s CPU      0.16s WALL (     858 calls)
     fft          :      0.07s CPU      0.13s WALL (     112 calls)
     ffts         :      0.00s CPU      0.00s WALL (      14 calls)
     fftw         :      0.54s CPU      0.93s WALL (    5694 calls)
     interpolate  :      0.01s CPU      0.02s WALL (      14 calls)
     davcio       :      0.00s CPU      0.00s WALL (      28 calls)

     Parallel routines
     fft_scatter  :      0.28s CPU      0.67s WALL (    5820 calls)

     PWSCF        :     2.00s CPU         2.83s WALL


   This run was terminated on:  10:28:23  10Nov2017            

=------------------------------------------------------------------------------=
   JOB DONE.
=------------------------------------------------------------------------------=
