
     Program PHONON v.6.1 (svn rev. 13369) starts on 10Nov2017 at 15:45:38 

     This program is part of the open-source Quantum ESPRESSO suite
     for quantum simulation of materials; please cite
         "P. Giannozzi et al., J. Phys.:Condens. Matter 21 395502 (2009);
          URL http://www.quantum-espresso.org", 
     in publications or presentations arising from this work. More details at
     http://www.quantum-espresso.org/quote

     Parallel version (MPI), running on     4 processors
     R & G space division:  proc/nbgrp/npool/nimage =       4

     Reading data from directory:
     ./silicon.10.368.save

   Info: using nr1, nr2, nr3 values from input

   Info: using nr1, nr2, nr3 values from input

     IMPORTANT: XC functional enforced from input :
     Exchange-correlation      = SLA  PW   PBE  PBE ( 1  4  3  4 0 0)
     Any further DFT definition will be discarded
     Please, verify this is what you really want


     Parallelization info
     --------------------
     sticks:   dense  smooth     PW     G-vecs:    dense   smooth      PW
     Min         222     109     37                 4369     1545     284
     Max         223     110     38                 4370     1546     285
     Sum         889     439    151                17477     6183    1139



     Dynamical matrices for ( 4, 4, 4)  uniform grid of q-points
     (   8q-points):
       N         xq(1)         xq(2)         xq(3) 
       1   0.000000000   0.000000000   0.000000000
       2  -0.250000000   0.250000000  -0.250000000
       3   0.500000000  -0.500000000   0.500000000
       4   0.000000000   0.500000000   0.000000000
       5   0.750000000  -0.250000000   0.750000000
       6   0.500000000   0.000000000   0.500000000
       7   0.000000000  -1.000000000   0.000000000
       8  -0.500000000  -1.000000000   0.000000000

     Calculation of q =    0.0000000   0.0000000   0.0000000

                                                                                

     bravais-lattice index     =            2
     lattice parameter (alat)  =      10.3680  a.u.
     unit-cell volume          =     278.6281 (a.u.)^3
     number of atoms/cell      =            2
     number of atomic types    =            1
     kinetic-energy cut-off    =      30.0000  Ry
     charge density cut-off    =     240.0000  Ry
     convergence threshold     =      1.0E-12
     beta                      =       0.7000
     number of iterations used =            4
     Exchange-correlation      = SLA  PW   PBE  PBE ( 1  4  3  4 0 0)


     celldm(1)=   10.36800  celldm(2)=    0.00000  celldm(3)=    0.00000
     celldm(4)=    0.00000  celldm(5)=    0.00000  celldm(6)=    0.00000

     crystal axes: (cart. coord. in units of alat)
               a(1) = ( -0.5000  0.0000  0.5000 )  
               a(2) = (  0.0000  0.5000  0.5000 )  
               a(3) = ( -0.5000  0.5000  0.0000 )  

     reciprocal axes: (cart. coord. in units 2 pi/alat)
               b(1) = ( -1.0000 -1.0000  1.0000 )  
               b(2) = (  1.0000  1.0000  1.0000 )  
               b(3) = ( -1.0000  1.0000 -1.0000 )  


     Atoms inside the unit cell: 

     Cartesian axes

     site n.  atom      mass           positions (alat units)
        1     Si  28.0860   tau(    1) = (    0.00000    0.00000    0.00000  )
        2     Si  28.0860   tau(    2) = (    0.25000    0.25000    0.25000  )

     Computing dynamical matrix for 
                    q = (   0.0000000   0.0000000   0.0000000 )

     49 Sym.Ops. (with q -> -q+G )


     G cutoff =  653.4938  (   4369 G-vectors)     FFT grid: ( 40, 40, 40)
     G cutoff =  326.7469  (   1546 G-vectors)  smooth grid: ( 25, 25, 25)
     number of k points=    10

     PseudoPot. # 1 for Si read from file:
     /home/s1333534/quantum_espresso/qe-6.1/pseudo/si_pbe_v1.uspp.F.UPF.txt
     MD5 check sum: a056efeee980c13900f22a371efd63c1
     Pseudo is Ultrasoft + core correction, Zval =  4.0
     Generated by new atomic code, or converted to UPF format
     Using radial grid of  899 points,  6 beta functions with: 
                l(1) =   0
                l(2) =   0
                l(3) =   1
                l(4) =   1
                l(5) =   2
                l(6) =   2
     Q(r) pseudized with  8 coefficients,  rinner =    0.900   0.900   0.900
                                                       0.900   0.900

     Mode symmetry, O_h (m-3m)  point group:


     Electric field:
     Dielectric constant
     Born effective charges in two ways 


     Atomic displacements:
     There are   2 irreducible representations

     Representation     1      3 modes -T_2g G_25' G_5+  To be done

     Representation     2      3 modes -T_1u G_15  G_4-  To be done



     Alpha used in Ewald sum =   2.5000
     PHONON       :     0.99s CPU         1.25s WALL


     Electric Fields Calculation

      iter #   1 total cpu time :     2.4 secs   av.it.:   5.7
      thresh= 1.000E-02 alpha_mix =  0.700 |ddv_scf|^2 =  9.662E-08

      iter #   2 total cpu time :     3.2 secs   av.it.:  11.9
      thresh= 3.108E-05 alpha_mix =  0.700 |ddv_scf|^2 =  5.777E-09

      iter #   3 total cpu time :     3.9 secs   av.it.:  11.7
      thresh= 7.601E-06 alpha_mix =  0.700 |ddv_scf|^2 =  3.909E-10

      iter #   4 total cpu time :     4.8 secs   av.it.:  10.6
      thresh= 1.977E-06 alpha_mix =  0.700 |ddv_scf|^2 =  2.633E-12

      iter #   5 total cpu time :     5.4 secs   av.it.:  11.2
      thresh= 1.623E-07 alpha_mix =  0.700 |ddv_scf|^2 =  2.644E-15

     End of electric fields calculation

          Dielectric constant in cartesian axis 

          (      14.039829737       0.000000000      -0.000000000 )
          (      -0.000000000      14.039829737       0.000000000 )
          (      -0.000000000       0.000000000      14.039829737 )

          Effective charges (d Force / dE) in cartesian axis

           atom      1   Si 
      Ex  (       -0.03793       -0.00000       -0.00000 )
      Ey  (       -0.00000       -0.03793       -0.00000 )
      Ez  (        0.00000        0.00000       -0.03793 )
           atom      2   Si 
      Ex  (       -0.03793       -0.00000        0.00000 )
      Ey  (       -0.00000       -0.03793        0.00000 )
      Ez  (        0.00000        0.00000       -0.03793 )


     Representation #  1 modes #   1  2  3

     Self-consistent Calculation

      iter #   1 total cpu time :     6.9 secs   av.it.:   5.1
      thresh= 1.000E-02 alpha_mix =  0.700 |ddv_scf|^2 =  1.711E-08

      iter #   2 total cpu time :     7.7 secs   av.it.:  11.8
      thresh= 1.308E-05 alpha_mix =  0.700 |ddv_scf|^2 =  6.988E-10

      iter #   3 total cpu time :     8.5 secs   av.it.:  11.2
      thresh= 2.643E-06 alpha_mix =  0.700 |ddv_scf|^2 =  4.751E-11

      iter #   4 total cpu time :     9.2 secs   av.it.:  10.4
      thresh= 6.893E-07 alpha_mix =  0.700 |ddv_scf|^2 =  1.181E-13

     End of self-consistent calculation

     Convergence has been achieved 


     Representation #  2 modes #   4  5  6

     Self-consistent Calculation

      iter #   1 total cpu time :    10.2 secs   av.it.:   5.2
      thresh= 1.000E-02 alpha_mix =  0.700 |ddv_scf|^2 =  1.348E-08

      iter #   2 total cpu time :    11.0 secs   av.it.:  11.8
      thresh= 1.161E-05 alpha_mix =  0.700 |ddv_scf|^2 =  7.913E-10

      iter #   3 total cpu time :    11.8 secs   av.it.:  11.4
      thresh= 2.813E-06 alpha_mix =  0.700 |ddv_scf|^2 =  4.919E-11

      iter #   4 total cpu time :    12.5 secs   av.it.:  11.5
      thresh= 7.014E-07 alpha_mix =  0.700 |ddv_scf|^2 =  1.931E-13

     End of self-consistent calculation

     Convergence has been achieved 

     Number of q in the star =    1
     List of q in the star:
          1   0.000000000   0.000000000   0.000000000

          Dielectric constant in cartesian axis 

          (      14.039829737       0.000000000      -0.000000000 )
          (      -0.000000000      14.039829737       0.000000000 )
          (      -0.000000000       0.000000000      14.039829737 )

          Effective charges (d Force / dE) in cartesian axis

           atom      1   Si 
      Ex  (       -0.03793       -0.00000       -0.00000 )
      Ey  (       -0.00000       -0.03793       -0.00000 )
      Ez  (        0.00000        0.00000       -0.03793 )
           atom      2   Si 
      Ex  (       -0.03793       -0.00000        0.00000 )
      Ey  (       -0.00000       -0.03793        0.00000 )
      Ez  (        0.00000        0.00000       -0.03793 )

          Effective charges (d P / du) in cartesian axis 

           atom      1   Si 
      Px  (       -0.07300       -0.00000       -0.00000 )
      Py  (       -0.00000       -0.07300       -0.00000 )
      Pz  (       -0.00000        0.00000       -0.07300 )
           atom      2   Si 
      Px  (       -0.07300       -0.00000        0.00000 )
      Py  (        0.00000       -0.07300       -0.00000 )
      Pz  (        0.00000       -0.00000       -0.07300 )

     Diagonalizing the dynamical matrix

     q = (    0.000000000   0.000000000   0.000000000 ) 

 **************************************************************************
     freq (    1) =      -0.477902 [THz] =     -15.941110 [cm-1]
     freq (    2) =      -0.477902 [THz] =     -15.941110 [cm-1]
     freq (    3) =      -0.477902 [THz] =     -15.941110 [cm-1]
     freq (    4) =      14.920207 [THz] =     497.684533 [cm-1]
     freq (    5) =      14.920207 [THz] =     497.684533 [cm-1]
     freq (    6) =      14.920207 [THz] =     497.684533 [cm-1]
 **************************************************************************

     Mode symmetry, O_h (m-3m)  point group:

     freq (  1 -  3) =        -15.9  [cm-1]   --> T_1u G_15  G_4- I  
     freq (  4 -  6) =        497.7  [cm-1]   --> T_2g G_25' G_5+ R  

     Calculation of q =   -0.2500000   0.2500000  -0.2500000

   Info: using nr1, nr2, nr3 values from input

   Info: using nr1, nr2, nr3 values from input

     Parallelization info
     --------------------
     sticks:   dense  smooth     PW     G-vecs:    dense   smooth      PW
     Min         222     109     37                 4369     1545     309
     Max         223     110     38                 4370     1546     312
     Sum         889     439    151                17477     6183    1243



     bravais-lattice index     =            2
     lattice parameter (alat)  =      10.3680  a.u.
     unit-cell volume          =     278.6281 (a.u.)^3
     number of atoms/cell      =            2
     number of atomic types    =            1
     number of electrons       =         8.00
     number of Kohn-Sham states=            4
     kinetic-energy cutoff     =      30.0000  Ry
     charge density cutoff     =     240.0000  Ry
     Exchange-correlation      = SLA  PW   PBE  PBE ( 1  4  3  4 0 0)

     celldm(1)=  10.368000  celldm(2)=   0.000000  celldm(3)=   0.000000
     celldm(4)=   0.000000  celldm(5)=   0.000000  celldm(6)=   0.000000

     crystal axes: (cart. coord. in units of alat)
               a(1) = (  -0.500000   0.000000   0.500000 )  
               a(2) = (   0.000000   0.500000   0.500000 )  
               a(3) = (  -0.500000   0.500000   0.000000 )  

     reciprocal axes: (cart. coord. in units 2 pi/alat)
               b(1) = ( -1.000000 -1.000000  1.000000 )  
               b(2) = (  1.000000  1.000000  1.000000 )  
               b(3) = ( -1.000000  1.000000 -1.000000 )  


     PseudoPot. # 1 for Si read from file:
     /home/s1333534/quantum_espresso/qe-6.1/pseudo/si_pbe_v1.uspp.F.UPF.txt
     MD5 check sum: a056efeee980c13900f22a371efd63c1
     Pseudo is Ultrasoft + core correction, Zval =  4.0
     Generated by new atomic code, or converted to UPF format
     Using radial grid of  899 points,  6 beta functions with: 
                l(1) =   0
                l(2) =   0
                l(3) =   1
                l(4) =   1
                l(5) =   2
                l(6) =   2
     Q(r) pseudized with  8 coefficients,  rinner =    0.900   0.900   0.900
                                                       0.900   0.900

     atomic species   valence    mass     pseudopotential
        Si             4.00    28.08600     Si( 1.00)

     48 Sym. Ops., with inversion, found



   Cartesian axes

     site n.     atom                  positions (alat units)
         1           Si  tau(   1) = (   0.0000000   0.0000000   0.0000000  )
         2           Si  tau(   2) = (   0.2500000   0.2500000   0.2500000  )

     number of k points=   120

     Number of k-points >= 100: set verbosity='high' to print them.

     Dense  grid:    17477 G-vectors     FFT dimensions: (  40,  40,  40)

     Smooth grid:     6183 G-vectors     FFT dimensions: (  25,  25,  25)

     Estimated max dynamical RAM per process >       1.79MB

     Estimated total allocated dynamical RAM >       7.17MB

     The potential is recalculated from file :
     ./_ph0/silicon.10.368.save/charge-density.dat

     Starting wfc are    8 atomic wfcs

     Band Structure Calculation
     Davidson diagonalization with overlap

     ethr =  1.25E-10,  avg # of iterations = 12.2

     total cpu time spent up to now is        1.4 secs

     End of band structure calculation

     Number of k-points >= 100: set verbosity='high' to print the bands.

     highest occupied level (ev):     5.5973

     Writing output data file silicon.10.368.save

                                                                                

     bravais-lattice index     =            2
     lattice parameter (alat)  =      10.3680  a.u.
     unit-cell volume          =     278.6281 (a.u.)^3
     number of atoms/cell      =            2
     number of atomic types    =            1
     kinetic-energy cut-off    =      30.0000  Ry
     charge density cut-off    =     240.0000  Ry
     convergence threshold     =      1.0E-12
     beta                      =       0.7000
     number of iterations used =            4
     Exchange-correlation      = SLA  PW   PBE  PBE ( 1  4  3  4 0 0)


     celldm(1)=   10.36800  celldm(2)=    0.00000  celldm(3)=    0.00000
     celldm(4)=    0.00000  celldm(5)=    0.00000  celldm(6)=    0.00000

     crystal axes: (cart. coord. in units of alat)
               a(1) = ( -0.5000  0.0000  0.5000 )  
               a(2) = (  0.0000  0.5000  0.5000 )  
               a(3) = ( -0.5000  0.5000  0.0000 )  

     reciprocal axes: (cart. coord. in units 2 pi/alat)
               b(1) = ( -1.0000 -1.0000  1.0000 )  
               b(2) = (  1.0000  1.0000  1.0000 )  
               b(3) = ( -1.0000  1.0000 -1.0000 )  


     Atoms inside the unit cell: 

     Cartesian axes

     site n.  atom      mass           positions (alat units)
        1     Si  28.0860   tau(    1) = (    0.00000    0.00000    0.00000  )
        2     Si  28.0860   tau(    2) = (    0.25000    0.25000    0.25000  )

     Computing dynamical matrix for 
                    q = (  -0.2500000   0.2500000  -0.2500000 )

      6 Sym.Ops. (no q -> -q+G )


     G cutoff =  653.4938  (   4369 G-vectors)     FFT grid: ( 40, 40, 40)
     G cutoff =  326.7469  (   1546 G-vectors)  smooth grid: ( 25, 25, 25)
     number of k points=   120

     PseudoPot. # 1 for Si read from file:
     /home/s1333534/quantum_espresso/qe-6.1/pseudo/si_pbe_v1.uspp.F.UPF.txt
     MD5 check sum: a056efeee980c13900f22a371efd63c1
     Pseudo is Ultrasoft + core correction, Zval =  4.0
     Generated by new atomic code, or converted to UPF format
     Using radial grid of  899 points,  6 beta functions with: 
                l(1) =   0
                l(2) =   0
                l(3) =   1
                l(4) =   1
                l(5) =   2
                l(6) =   2
     Q(r) pseudized with  8 coefficients,  rinner =    0.900   0.900   0.900
                                                       0.900   0.900

     Mode symmetry, C_3v (3m)   point group:


     Atomic displacements:
     There are   4 irreducible representations

     Representation     1      1 modes -A_1  L_1  To be done

     Representation     2      1 modes -A_1  L_1  To be done

     Representation     3      2 modes -E    L_3  To be done

     Representation     4      2 modes -E    L_3  To be done



     Alpha used in Ewald sum =   2.5000
     PHONON       :    12.00s CPU        16.42s WALL



     Representation #  1 mode #   1

     Self-consistent Calculation

      iter #   1 total cpu time :    16.9 secs   av.it.:   5.9
      thresh= 1.000E-02 alpha_mix =  0.700 |ddv_scf|^2 =  3.077E-04

      iter #   2 total cpu time :    17.5 secs   av.it.:   9.2
      thresh= 1.754E-03 alpha_mix =  0.700 |ddv_scf|^2 =  4.709E-03

      iter #   3 total cpu time :    18.1 secs   av.it.:   7.1
      thresh= 6.862E-03 alpha_mix =  0.700 |ddv_scf|^2 =  1.952E-07

      iter #   4 total cpu time :    18.7 secs   av.it.:   9.7
      thresh= 4.418E-05 alpha_mix =  0.700 |ddv_scf|^2 =  1.309E-08

      iter #   5 total cpu time :    19.4 secs   av.it.:   9.8
      thresh= 1.144E-05 alpha_mix =  0.700 |ddv_scf|^2 =  2.253E-10

      iter #   6 total cpu time :    20.0 secs   av.it.:   9.9
      thresh= 1.501E-06 alpha_mix =  0.700 |ddv_scf|^2 =  3.804E-10

      iter #   7 total cpu time :    20.7 secs   av.it.:   8.0
      thresh= 1.950E-06 alpha_mix =  0.700 |ddv_scf|^2 =  5.612E-11

      iter #   8 total cpu time :    21.3 secs   av.it.:   9.2
      thresh= 7.491E-07 alpha_mix =  0.700 |ddv_scf|^2 =  4.028E-13

     End of self-consistent calculation

     Convergence has been achieved 


     Representation #  2 mode #   2

     Self-consistent Calculation

      iter #   1 total cpu time :    21.8 secs   av.it.:   5.9
      thresh= 1.000E-02 alpha_mix =  0.700 |ddv_scf|^2 =  3.077E-04

      iter #   2 total cpu time :    22.5 secs   av.it.:   9.2
      thresh= 1.754E-03 alpha_mix =  0.700 |ddv_scf|^2 =  4.709E-03

      iter #   3 total cpu time :    23.1 secs   av.it.:   7.1
      thresh= 6.862E-03 alpha_mix =  0.700 |ddv_scf|^2 =  1.952E-07

      iter #   4 total cpu time :    23.7 secs   av.it.:   9.7
      thresh= 4.418E-05 alpha_mix =  0.700 |ddv_scf|^2 =  1.309E-08

      iter #   5 total cpu time :    24.4 secs   av.it.:   9.8
      thresh= 1.144E-05 alpha_mix =  0.700 |ddv_scf|^2 =  2.253E-10

      iter #   6 total cpu time :    25.1 secs   av.it.:   9.9
      thresh= 1.501E-06 alpha_mix =  0.700 |ddv_scf|^2 =  3.804E-10

      iter #   7 total cpu time :    25.7 secs   av.it.:   8.0
      thresh= 1.950E-06 alpha_mix =  0.700 |ddv_scf|^2 =  5.612E-11

      iter #   8 total cpu time :    26.3 secs   av.it.:   9.2
      thresh= 7.491E-07 alpha_mix =  0.700 |ddv_scf|^2 =  4.028E-13

     End of self-consistent calculation

     Convergence has been achieved 


     Representation #  3 modes #   3  4

     Self-consistent Calculation

      iter #   1 total cpu time :    27.2 secs   av.it.:   5.2
      thresh= 1.000E-02 alpha_mix =  0.700 |ddv_scf|^2 =  4.808E-08

      iter #   2 total cpu time :    28.6 secs   av.it.:  11.7
      thresh= 2.193E-05 alpha_mix =  0.700 |ddv_scf|^2 =  3.090E-09

      iter #   3 total cpu time :    30.0 secs   av.it.:  11.2
      thresh= 5.559E-06 alpha_mix =  0.700 |ddv_scf|^2 =  1.631E-10

      iter #   4 total cpu time :    31.2 secs   av.it.:  11.1
      thresh= 1.277E-06 alpha_mix =  0.700 |ddv_scf|^2 =  6.312E-13

     End of self-consistent calculation

     Convergence has been achieved 


     Representation #  4 modes #   5  6

     Self-consistent Calculation

      iter #   1 total cpu time :    32.2 secs   av.it.:   5.2
      thresh= 1.000E-02 alpha_mix =  0.700 |ddv_scf|^2 =  4.808E-08

      iter #   2 total cpu time :    33.6 secs   av.it.:  11.7
      thresh= 2.193E-05 alpha_mix =  0.700 |ddv_scf|^2 =  3.089E-09

      iter #   3 total cpu time :    35.2 secs   av.it.:  11.4
      thresh= 5.558E-06 alpha_mix =  0.700 |ddv_scf|^2 =  1.630E-10

      iter #   4 total cpu time :    36.4 secs   av.it.:  11.2
      thresh= 1.277E-06 alpha_mix =  0.700 |ddv_scf|^2 =  6.348E-13

     End of self-consistent calculation

     Convergence has been achieved 

     Number of q in the star =    8
     List of q in the star:
          1  -0.250000000   0.250000000  -0.250000000
          2   0.250000000  -0.250000000  -0.250000000
          3   0.250000000  -0.250000000   0.250000000
          4   0.250000000   0.250000000   0.250000000
          5  -0.250000000  -0.250000000  -0.250000000
          6  -0.250000000  -0.250000000   0.250000000
          7  -0.250000000   0.250000000   0.250000000
          8   0.250000000   0.250000000  -0.250000000

     Diagonalizing the dynamical matrix

     q = (   -0.250000000   0.250000000  -0.250000000 ) 

 **************************************************************************
     freq (    1) =       2.803359 [THz] =      93.510000 [cm-1]
     freq (    2) =       2.803359 [THz] =      93.510000 [cm-1]
     freq (    3) =       6.660694 [THz] =     222.176823 [cm-1]
     freq (    4) =      14.076003 [THz] =     469.524936 [cm-1]
     freq (    5) =      14.329973 [THz] =     477.996432 [cm-1]
     freq (    6) =      14.329973 [THz] =     477.996432 [cm-1]
 **************************************************************************

     Mode symmetry, C_3v (3m)   point group:

     freq (  1 -  2) =         93.5  [cm-1]   --> E    L_3           
     freq (  3 -  3) =        222.2  [cm-1]   --> A_1  L_1           
     freq (  4 -  4) =        469.5  [cm-1]   --> A_1  L_1           
     freq (  5 -  6) =        478.0  [cm-1]   --> E    L_3           

     Calculation of q =    0.5000000  -0.5000000   0.5000000

   Info: using nr1, nr2, nr3 values from input

   Info: using nr1, nr2, nr3 values from input

     Parallelization info
     --------------------
     sticks:   dense  smooth     PW     G-vecs:    dense   smooth      PW
     Min         222     109     40                 4369     1545     351
     Max         223     110     41                 4370     1546     354
     Sum         889     439    163                17477     6183    1411



     bravais-lattice index     =            2
     lattice parameter (alat)  =      10.3680  a.u.
     unit-cell volume          =     278.6281 (a.u.)^3
     number of atoms/cell      =            2
     number of atomic types    =            1
     number of electrons       =         8.00
     number of Kohn-Sham states=            4
     kinetic-energy cutoff     =      30.0000  Ry
     charge density cutoff     =     240.0000  Ry
     Exchange-correlation      = SLA  PW   PBE  PBE ( 1  4  3  4 0 0)

     celldm(1)=  10.368000  celldm(2)=   0.000000  celldm(3)=   0.000000
     celldm(4)=   0.000000  celldm(5)=   0.000000  celldm(6)=   0.000000

     crystal axes: (cart. coord. in units of alat)
               a(1) = (  -0.500000   0.000000   0.500000 )  
               a(2) = (   0.000000   0.500000   0.500000 )  
               a(3) = (  -0.500000   0.500000   0.000000 )  

     reciprocal axes: (cart. coord. in units 2 pi/alat)
               b(1) = ( -1.000000 -1.000000  1.000000 )  
               b(2) = (  1.000000  1.000000  1.000000 )  
               b(3) = ( -1.000000  1.000000 -1.000000 )  


     PseudoPot. # 1 for Si read from file:
     /home/s1333534/quantum_espresso/qe-6.1/pseudo/si_pbe_v1.uspp.F.UPF.txt
     MD5 check sum: a056efeee980c13900f22a371efd63c1
     Pseudo is Ultrasoft + core correction, Zval =  4.0
     Generated by new atomic code, or converted to UPF format
     Using radial grid of  899 points,  6 beta functions with: 
                l(1) =   0
                l(2) =   0
                l(3) =   1
                l(4) =   1
                l(5) =   2
                l(6) =   2
     Q(r) pseudized with  8 coefficients,  rinner =    0.900   0.900   0.900
                                                       0.900   0.900

     atomic species   valence    mass     pseudopotential
        Si             4.00    28.08600     Si( 1.00)

     48 Sym. Ops., with inversion, found



   Cartesian axes

     site n.     atom                  positions (alat units)
         1           Si  tau(   1) = (   0.0000000   0.0000000   0.0000000  )
         2           Si  tau(   2) = (   0.2500000   0.2500000   0.2500000  )

     number of k points=    60
                       cart. coord. in units 2pi/alat
        k(    1) = (  -0.1250000   0.1250000   0.1250000), wk =   0.0468750
        k(    2) = (   0.3750000  -0.3750000   0.6250000), wk =   0.0000000
        k(    3) = (  -0.3750000   0.3750000  -0.1250000), wk =   0.0468750
        k(    4) = (   0.1250000  -0.1250000   0.3750000), wk =   0.0000000
        k(    5) = (   0.3750000  -0.3750000   0.6250000), wk =   0.0468750
        k(    6) = (   0.8750000  -0.8750000   1.1250000), wk =   0.0000000
        k(    7) = (   0.1250000  -0.1250000   0.3750000), wk =   0.0468750
        k(    8) = (   0.6250000  -0.6250000   0.8750000), wk =   0.0000000
        k(    9) = (  -0.1250000   0.6250000   0.1250000), wk =   0.0937500
        k(   10) = (   0.3750000   0.1250000   0.6250000), wk =   0.0000000
        k(   11) = (   0.6250000  -0.1250000   0.8750000), wk =   0.0937500
        k(   12) = (   1.1250000  -0.6250000   1.3750000), wk =   0.0000000
        k(   13) = (   0.3750000   0.1250000   0.6250000), wk =   0.0937500
        k(   14) = (   0.8750000  -0.3750000   1.1250000), wk =   0.0000000
        k(   15) = (  -0.1250000  -0.8750000   0.1250000), wk =   0.0937500
        k(   16) = (   0.3750000  -1.3750000   0.6250000), wk =   0.0000000
        k(   17) = (  -0.3750000   0.3750000   0.3750000), wk =   0.0468750
        k(   18) = (   0.1250000  -0.1250000   0.8750000), wk =   0.0000000
        k(   19) = (   0.3750000  -0.3750000   1.1250000), wk =   0.0468750
        k(   20) = (   0.8750000  -0.8750000   1.6250000), wk =   0.0000000
        k(   21) = (   0.1250000  -0.1250000   0.1250000), wk =   0.0156250
        k(   22) = (   0.6250000  -0.6250000   0.6250000), wk =   0.0000000
        k(   23) = (  -0.3750000  -0.3750000  -0.1250000), wk =   0.0937500
        k(   24) = (   0.1250000  -0.8750000   0.3750000), wk =   0.0000000
        k(   25) = (  -0.1250000  -0.3750000   0.3750000), wk =   0.0468750
        k(   26) = (   0.3750000  -0.8750000   0.8750000), wk =   0.0000000
        k(   27) = (   0.3750000   0.3750000   0.6250000), wk =   0.0937500
        k(   28) = (   0.8750000  -0.1250000   1.1250000), wk =   0.0000000
        k(   29) = (   0.6250000   0.3750000  -0.3750000), wk =   0.0468750
        k(   30) = (   1.1250000  -0.1250000   0.1250000), wk =   0.0000000
        k(   31) = (   0.1250000   0.1250000   0.3750000), wk =   0.0937500
        k(   32) = (   0.6250000  -0.3750000   0.8750000), wk =   0.0000000
        k(   33) = (   0.3750000   0.1250000  -0.1250000), wk =   0.0468750
        k(   34) = (   0.8750000  -0.3750000   0.3750000), wk =   0.0000000
        k(   35) = (  -0.1250000  -0.6250000  -0.1250000), wk =   0.0468750
        k(   36) = (   0.3750000  -1.1250000   0.3750000), wk =   0.0000000
        k(   37) = (   0.1250000  -0.6250000   0.1250000), wk =   0.0468750
        k(   38) = (   0.6250000  -1.1250000   0.6250000), wk =   0.0000000
        k(   39) = (   0.6250000   0.1250000   0.8750000), wk =   0.0937500
        k(   40) = (   1.1250000  -0.3750000   1.3750000), wk =   0.0000000
        k(   41) = (  -0.8750000   0.1250000   0.6250000), wk =   0.0937500
        k(   42) = (  -0.3750000  -0.3750000   1.1250000), wk =   0.0000000
        k(   43) = (   0.8750000   0.1250000  -0.6250000), wk =   0.0937500
        k(   44) = (   1.3750000  -0.3750000  -0.1250000), wk =   0.0000000
        k(   45) = (   0.3750000  -0.1250000   0.6250000), wk =   0.0937500
        k(   46) = (   0.8750000  -0.6250000   1.1250000), wk =   0.0000000
        k(   47) = (  -0.6250000  -0.1250000   0.3750000), wk =   0.0937500
        k(   48) = (  -0.1250000  -0.6250000   0.8750000), wk =   0.0000000
        k(   49) = (   0.6250000  -0.1250000  -0.3750000), wk =   0.0937500
        k(   50) = (   1.1250000  -0.6250000   0.1250000), wk =   0.0000000
        k(   51) = (  -0.1250000   0.8750000  -0.1250000), wk =   0.0468750
        k(   52) = (   0.3750000   0.3750000   0.3750000), wk =   0.0000000
        k(   53) = (   0.1250000   0.8750000   0.1250000), wk =   0.0468750
        k(   54) = (   0.6250000   0.3750000   0.6250000), wk =   0.0000000
        k(   55) = (   0.3750000  -0.3750000   0.3750000), wk =   0.0156250
        k(   56) = (   0.8750000  -0.8750000   0.8750000), wk =   0.0000000
        k(   57) = (   0.3750000   0.3750000   1.1250000), wk =   0.0937500
        k(   58) = (   0.8750000  -0.1250000   1.6250000), wk =   0.0000000
        k(   59) = (   1.1250000   0.3750000  -0.3750000), wk =   0.0468750
        k(   60) = (   1.6250000  -0.1250000   0.1250000), wk =   0.0000000

     Dense  grid:    17477 G-vectors     FFT dimensions: (  40,  40,  40)

     Smooth grid:     6183 G-vectors     FFT dimensions: (  25,  25,  25)

     Estimated max dynamical RAM per process >       1.79MB

     Estimated total allocated dynamical RAM >       7.17MB

     The potential is recalculated from file :
     ./_ph0/silicon.10.368.save/charge-density.dat

     Starting wfc are    8 atomic wfcs

     Band Structure Calculation
     Davidson diagonalization with overlap

     ethr =  1.25E-10,  avg # of iterations = 12.2

     total cpu time spent up to now is        2.4 secs

     End of band structure calculation

          k =-0.1250 0.1250 0.1250 (   779 PWs)   bands (ev):

    -5.6743   4.2875   5.5973   5.5973

          k = 0.3750-0.3750 0.6250 (   776 PWs)   bands (ev):

    -3.5321  -0.7430   3.6452   4.3569

          k =-0.3750 0.3750-0.1250 (   781 PWs)   bands (ev):

    -4.6575   1.3124   3.6292   5.1199

          k = 0.1250-0.1250 0.3750 (   785 PWs)   bands (ev):

    -5.1513   2.6762   4.6003   4.6584

          k = 0.3750-0.3750 0.6250 (   776 PWs)   bands (ev):

    -3.5321  -0.7430   3.6452   4.3569

          k = 0.8750-0.8750 1.1250 (   779 PWs)   bands (ev):

    -5.6743   4.2875   5.5973   5.5973

          k = 0.1250-0.1250 0.3750 (   785 PWs)   bands (ev):

    -5.1513   2.6762   4.6003   4.6584

          k = 0.6250-0.6250 0.8750 (   781 PWs)   bands (ev):

    -4.6575   1.3124   3.6292   5.1199

          k =-0.1250 0.6250 0.1250 (   777 PWs)   bands (ev):

    -4.1297   0.9695   3.2864   3.7343

          k = 0.3750 0.1250 0.6250 (   775 PWs)   bands (ev):

    -3.7193   0.1100   2.6489   4.0066

          k = 0.6250-0.1250 0.8750 (   764 PWs)   bands (ev):

    -2.5082  -0.9770   1.9496   3.0143

          k = 1.1250-0.6250 1.3750 (   781 PWs)   bands (ev):

    -4.6575   1.3124   3.6292   5.1199

          k = 0.3750 0.1250 0.6250 (   775 PWs)   bands (ev):

    -3.7193   0.1100   2.6489   4.0066

          k = 0.8750-0.3750 1.1250 (   777 PWs)   bands (ev):

    -4.1297   0.9695   3.2864   3.7343

          k =-0.1250-0.8750 0.1250 (   766 PWs)   bands (ev):

    -2.6718  -0.8819   2.5522   3.2715

          k = 0.3750-1.3750 0.6250 (   776 PWs)   bands (ev):

    -3.5321  -0.7430   3.6452   4.3569

          k =-0.3750 0.3750 0.3750 (   775 PWs)   bands (ev):

    -4.2298   0.0383   4.8160   4.8160

          k = 0.1250-0.1250 0.8750 (   766 PWs)   bands (ev):

    -2.6718  -0.8819   2.5522   3.2715

          k = 0.3750-0.3750 1.1250 (   773 PWs)   bands (ev):

    -3.0408  -0.6692   2.0034   4.0436

          k = 0.8750-0.8750 1.6250 (   777 PWs)   bands (ev):

    -4.1297   0.9695   3.2864   3.7343

          k = 0.1250-0.1250 0.1250 (   779 PWs)   bands (ev):

    -5.6743   4.2875   5.5973   5.5973

          k = 0.6250-0.6250 0.6250 (   775 PWs)   bands (ev):

    -4.2298   0.0383   4.8160   4.8160

          k =-0.3750-0.3750-0.1250 (   781 PWs)   bands (ev):

    -4.6575   1.3124   3.6292   5.1199

          k = 0.1250-0.8750 0.3750 (   764 PWs)   bands (ev):

    -2.5082  -0.9770   1.9496   3.0143

          k =-0.1250-0.3750 0.3750 (   781 PWs)   bands (ev):

    -4.6575   1.3124   3.6292   5.1199

          k = 0.3750-0.8750 0.8750 (   777 PWs)   bands (ev):

    -4.1297   0.9695   3.2864   3.7343

          k = 0.3750 0.3750 0.6250 (   776 PWs)   bands (ev):

    -3.5321  -0.7430   3.6452   4.3569

          k = 0.8750-0.1250 1.1250 (   766 PWs)   bands (ev):

    -2.6718  -0.8819   2.5522   3.2715

          k = 0.6250 0.3750-0.3750 (   776 PWs)   bands (ev):

    -3.5321  -0.7430   3.6452   4.3569

          k = 1.1250-0.1250 0.1250 (   766 PWs)   bands (ev):

    -2.6718  -0.8819   2.5522   3.2715

          k = 0.1250 0.1250 0.3750 (   785 PWs)   bands (ev):

    -5.1513   2.6762   4.6003   4.6584

          k = 0.6250-0.3750 0.8750 (   775 PWs)   bands (ev):

    -3.7193   0.1100   2.6489   4.0066

          k = 0.3750 0.1250-0.1250 (   785 PWs)   bands (ev):

    -5.1513   2.6762   4.6003   4.6584

          k = 0.8750-0.3750 0.3750 (   773 PWs)   bands (ev):

    -3.0408  -0.6692   2.0034   4.0436

          k =-0.1250-0.6250-0.1250 (   777 PWs)   bands (ev):

    -4.1297   0.9695   3.2864   3.7343

          k = 0.3750-1.1250 0.3750 (   773 PWs)   bands (ev):

    -3.0408  -0.6692   2.0034   4.0436

          k = 0.1250-0.6250 0.1250 (   777 PWs)   bands (ev):

    -4.1297   0.9695   3.2864   3.7343

          k = 0.6250-1.1250 0.6250 (   781 PWs)   bands (ev):

    -4.6575   1.3124   3.6292   5.1199

          k = 0.6250 0.1250 0.8750 (   764 PWs)   bands (ev):

    -2.5082  -0.9770   1.9496   3.0143

          k = 1.1250-0.3750 1.3750 (   775 PWs)   bands (ev):

    -3.7193   0.1100   2.6489   4.0066

          k =-0.8750 0.1250 0.6250 (   764 PWs)   bands (ev):

    -2.5082  -0.9770   1.9496   3.0143

          k =-0.3750-0.3750 1.1250 (   773 PWs)   bands (ev):

    -3.0408  -0.6692   2.0034   4.0436

          k = 0.8750 0.1250-0.6250 (   764 PWs)   bands (ev):

    -2.5082  -0.9770   1.9496   3.0143

          k = 1.3750-0.3750-0.1250 (   775 PWs)   bands (ev):

    -3.7193   0.1100   2.6489   4.0066

          k = 0.3750-0.1250 0.6250 (   775 PWs)   bands (ev):

    -3.7193   0.1100   2.6489   4.0066

          k = 0.8750-0.6250 1.1250 (   785 PWs)   bands (ev):

    -5.1513   2.6762   4.6003   4.6584

          k =-0.6250-0.1250 0.3750 (   775 PWs)   bands (ev):

    -3.7193   0.1100   2.6489   4.0066

          k =-0.1250-0.6250 0.8750 (   764 PWs)   bands (ev):

    -2.5082  -0.9770   1.9496   3.0143

          k = 0.6250-0.1250-0.3750 (   775 PWs)   bands (ev):

    -3.7193   0.1100   2.6489   4.0066

          k = 1.1250-0.6250 0.1250 (   764 PWs)   bands (ev):

    -2.5082  -0.9770   1.9496   3.0143

          k =-0.1250 0.8750-0.1250 (   766 PWs)   bands (ev):

    -2.6718  -0.8819   2.5522   3.2715

          k = 0.3750 0.3750 0.3750 (   775 PWs)   bands (ev):

    -4.2298   0.0383   4.8160   4.8160

          k = 0.1250 0.8750 0.1250 (   766 PWs)   bands (ev):

    -2.6718  -0.8819   2.5522   3.2715

          k = 0.6250 0.3750 0.6250 (   776 PWs)   bands (ev):

    -3.5321  -0.7430   3.6452   4.3569

          k = 0.3750-0.3750 0.3750 (   775 PWs)   bands (ev):

    -4.2298   0.0383   4.8160   4.8160

          k = 0.8750-0.8750 0.8750 (   779 PWs)   bands (ev):

    -5.6743   4.2875   5.5973   5.5973

          k = 0.3750 0.3750 1.1250 (   773 PWs)   bands (ev):

    -3.0408  -0.6692   2.0034   4.0436

          k = 0.8750-0.1250 1.6250 (   764 PWs)   bands (ev):

    -2.5082  -0.9770   1.9496   3.0143

          k = 1.1250 0.3750-0.3750 (   773 PWs)   bands (ev):

    -3.0408  -0.6692   2.0034   4.0436

          k = 1.6250-0.1250 0.1250 (   785 PWs)   bands (ev):

    -5.1513   2.6762   4.6003   4.6584

     highest occupied level (ev):     5.5973

     Writing output data file silicon.10.368.save

                                                                                

     bravais-lattice index     =            2
     lattice parameter (alat)  =      10.3680  a.u.
     unit-cell volume          =     278.6281 (a.u.)^3
     number of atoms/cell      =            2
     number of atomic types    =            1
     kinetic-energy cut-off    =      30.0000  Ry
     charge density cut-off    =     240.0000  Ry
     convergence threshold     =      1.0E-12
     beta                      =       0.7000
     number of iterations used =            4
     Exchange-correlation      = SLA  PW   PBE  PBE ( 1  4  3  4 0 0)


     celldm(1)=   10.36800  celldm(2)=    0.00000  celldm(3)=    0.00000
     celldm(4)=    0.00000  celldm(5)=    0.00000  celldm(6)=    0.00000

     crystal axes: (cart. coord. in units of alat)
               a(1) = ( -0.5000  0.0000  0.5000 )  
               a(2) = (  0.0000  0.5000  0.5000 )  
               a(3) = ( -0.5000  0.5000  0.0000 )  

     reciprocal axes: (cart. coord. in units 2 pi/alat)
               b(1) = ( -1.0000 -1.0000  1.0000 )  
               b(2) = (  1.0000  1.0000  1.0000 )  
               b(3) = ( -1.0000  1.0000 -1.0000 )  


     Atoms inside the unit cell: 

     Cartesian axes

     site n.  atom      mass           positions (alat units)
        1     Si  28.0860   tau(    1) = (    0.00000    0.00000    0.00000  )
        2     Si  28.0860   tau(    2) = (    0.25000    0.25000    0.25000  )

     Computing dynamical matrix for 
                    q = (   0.5000000  -0.5000000   0.5000000 )

     13 Sym.Ops. (with q -> -q+G )


     G cutoff =  653.4938  (   4369 G-vectors)     FFT grid: ( 40, 40, 40)
     G cutoff =  326.7469  (   1546 G-vectors)  smooth grid: ( 25, 25, 25)
     number of k points=    60

     PseudoPot. # 1 for Si read from file:
     /home/s1333534/quantum_espresso/qe-6.1/pseudo/si_pbe_v1.uspp.F.UPF.txt
     MD5 check sum: a056efeee980c13900f22a371efd63c1
     Pseudo is Ultrasoft + core correction, Zval =  4.0
     Generated by new atomic code, or converted to UPF format
     Using radial grid of  899 points,  6 beta functions with: 
                l(1) =   0
                l(2) =   0
                l(3) =   1
                l(4) =   1
                l(5) =   2
                l(6) =   2
     Q(r) pseudized with  8 coefficients,  rinner =    0.900   0.900   0.900
                                                       0.900   0.900


     Atomic displacements:
     There are   4 irreducible representations

     Representation     1      1 modes -  To be done

     Representation     2      1 modes -  To be done

     Representation     3      2 modes -  To be done

     Representation     4      2 modes -  To be done



     Alpha used in Ewald sum =   2.5000
     PHONON       :    29.67s CPU        38.72s WALL



     Representation #  1 mode #   1

     Self-consistent Calculation

      iter #   1 total cpu time :    39.0 secs   av.it.:   5.0
      thresh= 1.000E-02 alpha_mix =  0.700 |ddv_scf|^2 =  3.018E-06

      iter #   2 total cpu time :    39.4 secs   av.it.:  10.1
      thresh= 1.737E-04 alpha_mix =  0.700 |ddv_scf|^2 =  2.795E-06

      iter #   3 total cpu time :    39.9 secs   av.it.:   9.4
      thresh= 1.672E-04 alpha_mix =  0.700 |ddv_scf|^2 =  1.649E-09

      iter #   4 total cpu time :    40.3 secs   av.it.:   9.6
      thresh= 4.061E-06 alpha_mix =  0.700 |ddv_scf|^2 =  1.559E-11

      iter #   5 total cpu time :    40.7 secs   av.it.:   9.5
      thresh= 3.949E-07 alpha_mix =  0.700 |ddv_scf|^2 =  2.283E-13

     End of self-consistent calculation

     Convergence has been achieved 


     Representation #  2 mode #   2

     Self-consistent Calculation

      iter #   1 total cpu time :    41.1 secs   av.it.:   6.0
      thresh= 1.000E-02 alpha_mix =  0.700 |ddv_scf|^2 =  4.289E-05

      iter #   2 total cpu time :    41.7 secs   av.it.:  10.0
      thresh= 6.549E-04 alpha_mix =  0.700 |ddv_scf|^2 =  1.338E-04

      iter #   3 total cpu time :    42.4 secs   av.it.:   8.9
      thresh= 1.157E-03 alpha_mix =  0.700 |ddv_scf|^2 =  1.026E-08

      iter #   4 total cpu time :    42.9 secs   av.it.:  10.0
      thresh= 1.013E-05 alpha_mix =  0.700 |ddv_scf|^2 =  5.191E-10

      iter #   5 total cpu time :    43.3 secs   av.it.:  10.4
      thresh= 2.278E-06 alpha_mix =  0.700 |ddv_scf|^2 =  1.524E-11

      iter #   6 total cpu time :    43.7 secs   av.it.:   9.9
      thresh= 3.904E-07 alpha_mix =  0.700 |ddv_scf|^2 =  1.127E-13

     End of self-consistent calculation

     Convergence has been achieved 


     Representation #  3 modes #   3  4

     Self-consistent Calculation

      iter #   1 total cpu time :    44.4 secs   av.it.:   5.1
      thresh= 1.000E-02 alpha_mix =  0.700 |ddv_scf|^2 =  1.949E-08

      iter #   2 total cpu time :    45.4 secs   av.it.:  11.1
      thresh= 1.396E-05 alpha_mix =  0.700 |ddv_scf|^2 =  1.145E-09

      iter #   3 total cpu time :    46.2 secs   av.it.:  10.9
      thresh= 3.384E-06 alpha_mix =  0.700 |ddv_scf|^2 =  3.880E-11

      iter #   4 total cpu time :    46.9 secs   av.it.:  10.8
      thresh= 6.229E-07 alpha_mix =  0.700 |ddv_scf|^2 =  3.176E-13

     End of self-consistent calculation

     Convergence has been achieved 


     Representation #  4 modes #   5  6

     Self-consistent Calculation

      iter #   1 total cpu time :    47.6 secs   av.it.:   5.1
      thresh= 1.000E-02 alpha_mix =  0.700 |ddv_scf|^2 =  1.001E-07

      iter #   2 total cpu time :    48.5 secs   av.it.:  11.2
      thresh= 3.164E-05 alpha_mix =  0.700 |ddv_scf|^2 =  8.049E-09

      iter #   3 total cpu time :    49.5 secs   av.it.:  11.1
      thresh= 8.971E-06 alpha_mix =  0.700 |ddv_scf|^2 =  2.108E-10

      iter #   4 total cpu time :    50.2 secs   av.it.:  10.1
      thresh= 1.452E-06 alpha_mix =  0.700 |ddv_scf|^2 =  3.878E-13

     End of self-consistent calculation

     Convergence has been achieved 

     Number of q in the star =    4
     List of q in the star:
          1   0.500000000  -0.500000000   0.500000000
          2   0.500000000   0.500000000   0.500000000
          3  -0.500000000   0.500000000   0.500000000
          4   0.500000000   0.500000000  -0.500000000

     Diagonalizing the dynamical matrix

     q = (    0.500000000  -0.500000000   0.500000000 ) 

 **************************************************************************
     freq (    1) =       3.351596 [THz] =     111.797198 [cm-1]
     freq (    2) =       3.351596 [THz] =     111.797198 [cm-1]
     freq (    3) =      11.056112 [THz] =     368.792197 [cm-1]
     freq (    4) =      11.772296 [THz] =     392.681510 [cm-1]
     freq (    5) =      14.106270 [THz] =     470.534511 [cm-1]
     freq (    6) =      14.106270 [THz] =     470.534511 [cm-1]
 **************************************************************************

     Calculation of q =    0.0000000   0.5000000   0.0000000

   Info: using nr1, nr2, nr3 values from input

   Info: using nr1, nr2, nr3 values from input

     Parallelization info
     --------------------
     sticks:   dense  smooth     PW     G-vecs:    dense   smooth      PW
     Min         222     109     40                 4369     1545     322
     Max         223     110     42                 4370     1547     323
     Sum         889     439    163                17477     6183    1291



     bravais-lattice index     =            2
     lattice parameter (alat)  =      10.3680  a.u.
     unit-cell volume          =     278.6281 (a.u.)^3
     number of atoms/cell      =            2
     number of atomic types    =            1
     number of electrons       =         8.00
     number of Kohn-Sham states=            4
     kinetic-energy cutoff     =      30.0000  Ry
     charge density cutoff     =     240.0000  Ry
     Exchange-correlation      = SLA  PW   PBE  PBE ( 1  4  3  4 0 0)

     celldm(1)=  10.368000  celldm(2)=   0.000000  celldm(3)=   0.000000
     celldm(4)=   0.000000  celldm(5)=   0.000000  celldm(6)=   0.000000

     crystal axes: (cart. coord. in units of alat)
               a(1) = (  -0.500000   0.000000   0.500000 )  
               a(2) = (   0.000000   0.500000   0.500000 )  
               a(3) = (  -0.500000   0.500000   0.000000 )  

     reciprocal axes: (cart. coord. in units 2 pi/alat)
               b(1) = ( -1.000000 -1.000000  1.000000 )  
               b(2) = (  1.000000  1.000000  1.000000 )  
               b(3) = ( -1.000000  1.000000 -1.000000 )  


     PseudoPot. # 1 for Si read from file:
     /home/s1333534/quantum_espresso/qe-6.1/pseudo/si_pbe_v1.uspp.F.UPF.txt
     MD5 check sum: a056efeee980c13900f22a371efd63c1
     Pseudo is Ultrasoft + core correction, Zval =  4.0
     Generated by new atomic code, or converted to UPF format
     Using radial grid of  899 points,  6 beta functions with: 
                l(1) =   0
                l(2) =   0
                l(3) =   1
                l(4) =   1
                l(5) =   2
                l(6) =   2
     Q(r) pseudized with  8 coefficients,  rinner =    0.900   0.900   0.900
                                                       0.900   0.900

     atomic species   valence    mass     pseudopotential
        Si             4.00    28.08600     Si( 1.00)

     48 Sym. Ops., with inversion, found



   Cartesian axes

     site n.     atom                  positions (alat units)
         1           Si  tau(   1) = (   0.0000000   0.0000000   0.0000000  )
         2           Si  tau(   2) = (   0.2500000   0.2500000   0.2500000  )

     number of k points=    80
                       cart. coord. in units 2pi/alat
        k(    1) = (  -0.1250000   0.1250000   0.1250000), wk =   0.0312500
        k(    2) = (  -0.1250000   0.6250000   0.1250000), wk =   0.0000000
        k(    3) = (  -0.3750000   0.3750000  -0.1250000), wk =   0.0625000
        k(    4) = (  -0.3750000   0.8750000  -0.1250000), wk =   0.0000000
        k(    5) = (   0.3750000  -0.3750000   0.6250000), wk =   0.0625000
        k(    6) = (   0.3750000   0.1250000   0.6250000), wk =   0.0000000
        k(    7) = (   0.1250000  -0.1250000   0.3750000), wk =   0.0625000
        k(    8) = (   0.1250000   0.3750000   0.3750000), wk =   0.0000000
        k(    9) = (  -0.1250000   0.6250000   0.1250000), wk =   0.0312500
        k(   10) = (  -0.1250000   1.1250000   0.1250000), wk =   0.0000000
        k(   11) = (   0.6250000  -0.1250000   0.8750000), wk =   0.0625000
        k(   12) = (   0.6250000   0.3750000   0.8750000), wk =   0.0000000
        k(   13) = (   0.3750000   0.1250000   0.6250000), wk =   0.0625000
        k(   14) = (   0.3750000   0.6250000   0.6250000), wk =   0.0000000
        k(   15) = (  -0.1250000  -0.8750000   0.1250000), wk =   0.0312500
        k(   16) = (  -0.1250000  -0.3750000   0.1250000), wk =   0.0000000
        k(   17) = (  -0.3750000   0.3750000   0.3750000), wk =   0.0312500
        k(   18) = (  -0.3750000   0.8750000   0.3750000), wk =   0.0000000
        k(   19) = (   0.3750000  -0.3750000   1.1250000), wk =   0.0625000
        k(   20) = (   0.3750000   0.1250000   1.1250000), wk =   0.0000000
        k(   21) = (  -0.1250000  -0.1250000   0.1250000), wk =   0.0312500
        k(   22) = (  -0.1250000   0.3750000   0.1250000), wk =   0.0000000
        k(   23) = (   0.1250000  -0.3750000   0.3750000), wk =   0.0625000
        k(   24) = (   0.1250000   0.1250000   0.3750000), wk =   0.0000000
        k(   25) = (   0.3750000  -0.1250000   0.3750000), wk =   0.0312500
        k(   26) = (   0.3750000   0.3750000   0.3750000), wk =   0.0000000
        k(   27) = (   0.3750000   0.1250000   0.3750000), wk =   0.0312500
        k(   28) = (   0.3750000   0.6250000   0.3750000), wk =   0.0000000
        k(   29) = (  -0.6250000   0.3750000  -0.3750000), wk =   0.0625000
        k(   30) = (  -0.6250000   0.8750000  -0.3750000), wk =   0.0000000
        k(   31) = (  -0.3750000   0.6250000  -0.3750000), wk =   0.0312500
        k(   32) = (  -0.3750000   1.1250000  -0.3750000), wk =   0.0000000
        k(   33) = (  -0.3750000  -0.6250000  -0.3750000), wk =   0.0312500
        k(   34) = (  -0.3750000  -0.1250000  -0.3750000), wk =   0.0000000
        k(   35) = (  -0.3750000   0.1250000  -0.1250000), wk =   0.0625000
        k(   36) = (  -0.3750000   0.6250000  -0.1250000), wk =   0.0000000
        k(   37) = (  -0.1250000   0.3750000  -0.1250000), wk =   0.0312500
        k(   38) = (  -0.1250000   0.8750000  -0.1250000), wk =   0.0000000
        k(   39) = (  -0.1250000  -0.3750000  -0.1250000), wk =   0.0312500
        k(   40) = (  -0.1250000   0.1250000  -0.1250000), wk =   0.0000000
        k(   41) = (  -0.1250000  -0.6250000   0.1250000), wk =   0.0312500
        k(   42) = (  -0.1250000  -0.1250000   0.1250000), wk =   0.0000000
        k(   43) = (   0.6250000  -0.1250000  -0.1250000), wk =   0.0625000
        k(   44) = (   0.6250000   0.3750000  -0.1250000), wk =   0.0000000
        k(   45) = (   0.6250000   0.1250000   0.1250000), wk =   0.0625000
        k(   46) = (   0.6250000   0.6250000   0.1250000), wk =   0.0000000
        k(   47) = (  -0.8750000   0.1250000  -0.6250000), wk =   0.0625000
        k(   48) = (  -0.8750000   0.6250000  -0.6250000), wk =   0.0000000
        k(   49) = (  -0.1250000   0.6250000  -0.8750000), wk =   0.0625000
        k(   50) = (  -0.1250000   1.1250000  -0.8750000), wk =   0.0000000
        k(   51) = (  -0.1250000   0.8750000  -0.6250000), wk =   0.0625000
        k(   52) = (  -0.1250000   1.3750000  -0.6250000), wk =   0.0000000
        k(   53) = (  -0.1250000  -0.8750000  -0.6250000), wk =   0.0625000
        k(   54) = (  -0.1250000  -0.3750000  -0.6250000), wk =   0.0000000
        k(   55) = (   0.8750000  -0.6250000   0.1250000), wk =   0.0625000
        k(   56) = (   0.8750000  -0.1250000   0.1250000), wk =   0.0000000
        k(   57) = (  -0.6250000  -0.1250000  -0.3750000), wk =   0.0625000
        k(   58) = (  -0.6250000   0.3750000  -0.3750000), wk =   0.0000000
        k(   59) = (   0.1250000   0.3750000  -0.6250000), wk =   0.0625000
        k(   60) = (   0.1250000   0.8750000  -0.6250000), wk =   0.0000000
        k(   61) = (   0.1250000   0.6250000  -0.3750000), wk =   0.0625000
        k(   62) = (   0.1250000   1.1250000  -0.3750000), wk =   0.0000000
        k(   63) = (   0.1250000  -0.6250000  -0.3750000), wk =   0.0625000
        k(   64) = (   0.1250000  -0.1250000  -0.3750000), wk =   0.0000000
        k(   65) = (   0.6250000  -0.3750000  -0.1250000), wk =   0.0625000
        k(   66) = (   0.6250000   0.1250000  -0.1250000), wk =   0.0000000
        k(   67) = (  -0.1250000   0.8750000   0.1250000), wk =   0.0312500
        k(   68) = (  -0.1250000   1.3750000   0.1250000), wk =   0.0000000
        k(   69) = (  -0.8750000  -0.1250000  -0.1250000), wk =   0.0625000
        k(   70) = (  -0.8750000   0.3750000  -0.1250000), wk =   0.0000000
        k(   71) = (  -0.8750000   0.1250000   0.1250000), wk =   0.0625000
        k(   72) = (  -0.8750000   0.6250000   0.1250000), wk =   0.0000000
        k(   73) = (  -0.3750000  -0.3750000   0.3750000), wk =   0.0312500
        k(   74) = (  -0.3750000   0.1250000   0.3750000), wk =   0.0000000
        k(   75) = (  -1.1250000   0.3750000  -0.3750000), wk =   0.0625000
        k(   76) = (  -1.1250000   0.8750000  -0.3750000), wk =   0.0000000
        k(   77) = (  -0.3750000   1.1250000  -0.3750000), wk =   0.0312500
        k(   78) = (  -0.3750000   1.6250000  -0.3750000), wk =   0.0000000
        k(   79) = (  -0.3750000  -1.1250000  -0.3750000), wk =   0.0312500
        k(   80) = (  -0.3750000  -0.6250000  -0.3750000), wk =   0.0000000

     Dense  grid:    17477 G-vectors     FFT dimensions: (  40,  40,  40)

     Smooth grid:     6183 G-vectors     FFT dimensions: (  25,  25,  25)

     Estimated max dynamical RAM per process >       1.79MB

     Estimated total allocated dynamical RAM >       7.17MB

     The potential is recalculated from file :
     ./_ph0/silicon.10.368.save/charge-density.dat

     Starting wfc are    8 atomic wfcs

     Band Structure Calculation
     Davidson diagonalization with overlap

     ethr =  1.25E-10,  avg # of iterations = 12.2

     total cpu time spent up to now is        3.5 secs

     End of band structure calculation

          k =-0.1250 0.1250 0.1250 (   779 PWs)   bands (ev):

    -5.6743   4.2875   5.5973   5.5973

          k =-0.1250 0.6250 0.1250 (   777 PWs)   bands (ev):

    -4.1297   0.9695   3.2864   3.7343

          k =-0.3750 0.3750-0.1250 (   781 PWs)   bands (ev):

    -4.6575   1.3124   3.6292   5.1199

          k =-0.3750 0.8750-0.1250 (   764 PWs)   bands (ev):

    -2.5082  -0.9770   1.9496   3.0143

          k = 0.3750-0.3750 0.6250 (   776 PWs)   bands (ev):

    -3.5321  -0.7430   3.6452   4.3569

          k = 0.3750 0.1250 0.6250 (   775 PWs)   bands (ev):

    -3.7193   0.1100   2.6489   4.0066

          k = 0.1250-0.1250 0.3750 (   785 PWs)   bands (ev):

    -5.1513   2.6762   4.6003   4.6584

          k = 0.1250 0.3750 0.3750 (   781 PWs)   bands (ev):

    -4.6575   1.3124   3.6292   5.1199

          k =-0.1250 0.6250 0.1250 (   777 PWs)   bands (ev):

    -4.1297   0.9695   3.2864   3.7343

          k =-0.1250 1.1250 0.1250 (   766 PWs)   bands (ev):

    -2.6718  -0.8819   2.5522   3.2715

          k = 0.6250-0.1250 0.8750 (   764 PWs)   bands (ev):

    -2.5082  -0.9770   1.9496   3.0143

          k = 0.6250 0.3750 0.8750 (   775 PWs)   bands (ev):

    -3.7193   0.1100   2.6489   4.0066

          k = 0.3750 0.1250 0.6250 (   775 PWs)   bands (ev):

    -3.7193   0.1100   2.6489   4.0066

          k = 0.3750 0.6250 0.6250 (   776 PWs)   bands (ev):

    -3.5321  -0.7430   3.6452   4.3569

          k =-0.1250-0.8750 0.1250 (   766 PWs)   bands (ev):

    -2.6718  -0.8819   2.5522   3.2715

          k =-0.1250-0.3750 0.1250 (   785 PWs)   bands (ev):

    -5.1513   2.6762   4.6003   4.6584

          k =-0.3750 0.3750 0.3750 (   775 PWs)   bands (ev):

    -4.2298   0.0383   4.8160   4.8160

          k =-0.3750 0.8750 0.3750 (   773 PWs)   bands (ev):

    -3.0408  -0.6692   2.0034   4.0436

          k = 0.3750-0.3750 1.1250 (   773 PWs)   bands (ev):

    -3.0408  -0.6692   2.0034   4.0436

          k = 0.3750 0.1250 1.1250 (   764 PWs)   bands (ev):

    -2.5082  -0.9770   1.9496   3.0143

          k =-0.1250-0.1250 0.1250 (   779 PWs)   bands (ev):

    -5.6743   4.2875   5.5973   5.5973

          k =-0.1250 0.3750 0.1250 (   785 PWs)   bands (ev):

    -5.1513   2.6762   4.6003   4.6584

          k = 0.1250-0.3750 0.3750 (   781 PWs)   bands (ev):

    -4.6575   1.3124   3.6292   5.1199

          k = 0.1250 0.1250 0.3750 (   785 PWs)   bands (ev):

    -5.1513   2.6762   4.6003   4.6584

          k = 0.3750-0.1250 0.3750 (   781 PWs)   bands (ev):

    -4.6575   1.3124   3.6292   5.1199

          k = 0.3750 0.3750 0.3750 (   775 PWs)   bands (ev):

    -4.2298   0.0383   4.8160   4.8160

          k = 0.3750 0.1250 0.3750 (   781 PWs)   bands (ev):

    -4.6575   1.3124   3.6292   5.1199

          k = 0.3750 0.6250 0.3750 (   776 PWs)   bands (ev):

    -3.5321  -0.7430   3.6452   4.3569

          k =-0.6250 0.3750-0.3750 (   776 PWs)   bands (ev):

    -3.5321  -0.7430   3.6452   4.3569

          k =-0.6250 0.8750-0.3750 (   775 PWs)   bands (ev):

    -3.7193   0.1100   2.6489   4.0066

          k =-0.3750 0.6250-0.3750 (   776 PWs)   bands (ev):

    -3.5321  -0.7430   3.6452   4.3569

          k =-0.3750 1.1250-0.3750 (   773 PWs)   bands (ev):

    -3.0408  -0.6692   2.0034   4.0436

          k =-0.3750-0.6250-0.3750 (   776 PWs)   bands (ev):

    -3.5321  -0.7430   3.6452   4.3569

          k =-0.3750-0.1250-0.3750 (   781 PWs)   bands (ev):

    -4.6575   1.3124   3.6292   5.1199

          k =-0.3750 0.1250-0.1250 (   785 PWs)   bands (ev):

    -5.1513   2.6762   4.6003   4.6584

          k =-0.3750 0.6250-0.1250 (   775 PWs)   bands (ev):

    -3.7193   0.1100   2.6489   4.0066

          k =-0.1250 0.3750-0.1250 (   785 PWs)   bands (ev):

    -5.1513   2.6762   4.6003   4.6584

          k =-0.1250 0.8750-0.1250 (   766 PWs)   bands (ev):

    -2.6718  -0.8819   2.5522   3.2715

          k =-0.1250-0.3750-0.1250 (   785 PWs)   bands (ev):

    -5.1513   2.6762   4.6003   4.6584

          k =-0.1250 0.1250-0.1250 (   779 PWs)   bands (ev):

    -5.6743   4.2875   5.5973   5.5973

          k =-0.1250-0.6250 0.1250 (   777 PWs)   bands (ev):

    -4.1297   0.9695   3.2864   3.7343

          k =-0.1250-0.1250 0.1250 (   779 PWs)   bands (ev):

    -5.6743   4.2875   5.5973   5.5973

          k = 0.6250-0.1250-0.1250 (   777 PWs)   bands (ev):

    -4.1297   0.9695   3.2864   3.7343

          k = 0.6250 0.3750-0.1250 (   775 PWs)   bands (ev):

    -3.7193   0.1100   2.6489   4.0066

          k = 0.6250 0.1250 0.1250 (   777 PWs)   bands (ev):

    -4.1297   0.9695   3.2864   3.7343

          k = 0.6250 0.6250 0.1250 (   773 PWs)   bands (ev):

    -3.0408  -0.6692   2.0034   4.0436

          k =-0.8750 0.1250-0.6250 (   764 PWs)   bands (ev):

    -2.5082  -0.9770   1.9496   3.0143

          k =-0.8750 0.6250-0.6250 (   781 PWs)   bands (ev):

    -4.6575   1.3124   3.6292   5.1199

          k =-0.1250 0.6250-0.8750 (   764 PWs)   bands (ev):

    -2.5082  -0.9770   1.9496   3.0143

          k =-0.1250 1.1250-0.8750 (   766 PWs)   bands (ev):

    -2.6718  -0.8819   2.5522   3.2715

          k =-0.1250 0.8750-0.6250 (   764 PWs)   bands (ev):

    -2.5082  -0.9770   1.9496   3.0143

          k =-0.1250 1.3750-0.6250 (   773 PWs)   bands (ev):

    -3.0408  -0.6692   2.0034   4.0436

          k =-0.1250-0.8750-0.6250 (   764 PWs)   bands (ev):

    -2.5082  -0.9770   1.9496   3.0143

          k =-0.1250-0.3750-0.6250 (   775 PWs)   bands (ev):

    -3.7193   0.1100   2.6489   4.0066

          k = 0.8750-0.6250 0.1250 (   764 PWs)   bands (ev):

    -2.5082  -0.9770   1.9496   3.0143

          k = 0.8750-0.1250 0.1250 (   766 PWs)   bands (ev):

    -2.6718  -0.8819   2.5522   3.2715

          k =-0.6250-0.1250-0.3750 (   775 PWs)   bands (ev):

    -3.7193   0.1100   2.6489   4.0066

          k =-0.6250 0.3750-0.3750 (   776 PWs)   bands (ev):

    -3.5321  -0.7430   3.6452   4.3569

          k = 0.1250 0.3750-0.6250 (   775 PWs)   bands (ev):

    -3.7193   0.1100   2.6489   4.0066

          k = 0.1250 0.8750-0.6250 (   764 PWs)   bands (ev):

    -2.5082  -0.9770   1.9496   3.0143

          k = 0.1250 0.6250-0.3750 (   775 PWs)   bands (ev):

    -3.7193   0.1100   2.6489   4.0066

          k = 0.1250 1.1250-0.3750 (   764 PWs)   bands (ev):

    -2.5082  -0.9770   1.9496   3.0143

          k = 0.1250-0.6250-0.3750 (   775 PWs)   bands (ev):

    -3.7193   0.1100   2.6489   4.0066

          k = 0.1250-0.1250-0.3750 (   785 PWs)   bands (ev):

    -5.1513   2.6762   4.6003   4.6584

          k = 0.6250-0.3750-0.1250 (   775 PWs)   bands (ev):

    -3.7193   0.1100   2.6489   4.0066

          k = 0.6250 0.1250-0.1250 (   777 PWs)   bands (ev):

    -4.1297   0.9695   3.2864   3.7343

          k =-0.1250 0.8750 0.1250 (   766 PWs)   bands (ev):

    -2.6718  -0.8819   2.5522   3.2715

          k =-0.1250 1.3750 0.1250 (   777 PWs)   bands (ev):

    -4.1297   0.9695   3.2864   3.7343

          k =-0.8750-0.1250-0.1250 (   766 PWs)   bands (ev):

    -2.6718  -0.8819   2.5522   3.2715

          k =-0.8750 0.3750-0.1250 (   764 PWs)   bands (ev):

    -2.5082  -0.9770   1.9496   3.0143

          k =-0.8750 0.1250 0.1250 (   766 PWs)   bands (ev):

    -2.6718  -0.8819   2.5522   3.2715

          k =-0.8750 0.6250 0.1250 (   764 PWs)   bands (ev):

    -2.5082  -0.9770   1.9496   3.0143

          k =-0.3750-0.3750 0.3750 (   775 PWs)   bands (ev):

    -4.2298   0.0383   4.8160   4.8160

          k =-0.3750 0.1250 0.3750 (   781 PWs)   bands (ev):

    -4.6575   1.3124   3.6292   5.1199

          k =-1.1250 0.3750-0.3750 (   773 PWs)   bands (ev):

    -3.0408  -0.6692   2.0034   4.0436

          k =-1.1250 0.8750-0.3750 (   777 PWs)   bands (ev):

    -4.1297   0.9695   3.2864   3.7343

          k =-0.3750 1.1250-0.3750 (   773 PWs)   bands (ev):

    -3.0408  -0.6692   2.0034   4.0436

          k =-0.3750 1.6250-0.3750 (   775 PWs)   bands (ev):

    -4.2298   0.0383   4.8160   4.8160

          k =-0.3750-1.1250-0.3750 (   773 PWs)   bands (ev):

    -3.0408  -0.6692   2.0034   4.0436

          k =-0.3750-0.6250-0.3750 (   776 PWs)   bands (ev):

    -3.5321  -0.7430   3.6452   4.3569

     highest occupied level (ev):     5.5973

     Writing output data file silicon.10.368.save

                                                                                

     bravais-lattice index     =            2
     lattice parameter (alat)  =      10.3680  a.u.
     unit-cell volume          =     278.6281 (a.u.)^3
     number of atoms/cell      =            2
     number of atomic types    =            1
     kinetic-energy cut-off    =      30.0000  Ry
     charge density cut-off    =     240.0000  Ry
     convergence threshold     =      1.0E-12
     beta                      =       0.7000
     number of iterations used =            4
     Exchange-correlation      = SLA  PW   PBE  PBE ( 1  4  3  4 0 0)


     celldm(1)=   10.36800  celldm(2)=    0.00000  celldm(3)=    0.00000
     celldm(4)=    0.00000  celldm(5)=    0.00000  celldm(6)=    0.00000

     crystal axes: (cart. coord. in units of alat)
               a(1) = ( -0.5000  0.0000  0.5000 )  
               a(2) = (  0.0000  0.5000  0.5000 )  
               a(3) = ( -0.5000  0.5000  0.0000 )  

     reciprocal axes: (cart. coord. in units 2 pi/alat)
               b(1) = ( -1.0000 -1.0000  1.0000 )  
               b(2) = (  1.0000  1.0000  1.0000 )  
               b(3) = ( -1.0000  1.0000 -1.0000 )  


     Atoms inside the unit cell: 

     Cartesian axes

     site n.  atom      mass           positions (alat units)
        1     Si  28.0860   tau(    1) = (    0.00000    0.00000    0.00000  )
        2     Si  28.0860   tau(    2) = (    0.25000    0.25000    0.25000  )

     Computing dynamical matrix for 
                    q = (   0.0000000   0.5000000   0.0000000 )

      8 Sym.Ops. (no q -> -q+G )


     G cutoff =  653.4938  (   4369 G-vectors)     FFT grid: ( 40, 40, 40)
     G cutoff =  326.7469  (   1545 G-vectors)  smooth grid: ( 25, 25, 25)
     number of k points=    80

     PseudoPot. # 1 for Si read from file:
     /home/s1333534/quantum_espresso/qe-6.1/pseudo/si_pbe_v1.uspp.F.UPF.txt
     MD5 check sum: a056efeee980c13900f22a371efd63c1
     Pseudo is Ultrasoft + core correction, Zval =  4.0
     Generated by new atomic code, or converted to UPF format
     Using radial grid of  899 points,  6 beta functions with: 
                l(1) =   0
                l(2) =   0
                l(3) =   1
                l(4) =   1
                l(5) =   2
                l(6) =   2
     Q(r) pseudized with  8 coefficients,  rinner =    0.900   0.900   0.900
                                                       0.900   0.900

     Mode symmetry, C_4v (4mm)  point group:


     Atomic displacements:
     There are   4 irreducible representations

     Representation     1      1 modes -A_1  G_1 D_1  To be done

     Representation     2      1 modes -B_2  G_4 D_2'  To be done

     Representation     3      2 modes -E    G_5 D_5  To be done

     Representation     4      2 modes -E    G_5 D_5  To be done



     Alpha used in Ewald sum =   2.5000
     PHONON       :    39.96s CPU        53.13s WALL



     Representation #  1 mode #   1

     Self-consistent Calculation

      iter #   1 total cpu time :    53.5 secs   av.it.:   6.2
      thresh= 1.000E-02 alpha_mix =  0.700 |ddv_scf|^2 =  3.704E-04

      iter #   2 total cpu time :    54.0 secs   av.it.:   9.5
      thresh= 1.925E-03 alpha_mix =  0.700 |ddv_scf|^2 =  4.942E-03

      iter #   3 total cpu time :    54.5 secs   av.it.:   7.5
      thresh= 7.030E-03 alpha_mix =  0.700 |ddv_scf|^2 =  7.220E-09

      iter #   4 total cpu time :    55.0 secs   av.it.:  10.3
      thresh= 8.497E-06 alpha_mix =  0.700 |ddv_scf|^2 =  7.564E-10

      iter #   5 total cpu time :    55.5 secs   av.it.:   9.8
      thresh= 2.750E-06 alpha_mix =  0.700 |ddv_scf|^2 =  7.966E-11

      iter #   6 total cpu time :    56.0 secs   av.it.:   9.6
      thresh= 8.925E-07 alpha_mix =  0.700 |ddv_scf|^2 =  2.137E-13

     End of self-consistent calculation

     Convergence has been achieved 


     Representation #  2 mode #   2

     Self-consistent Calculation

      iter #   1 total cpu time :    56.5 secs   av.it.:   5.1
      thresh= 1.000E-02 alpha_mix =  0.700 |ddv_scf|^2 =  5.886E-07

      iter #   2 total cpu time :    57.0 secs   av.it.:  10.6
      thresh= 7.672E-05 alpha_mix =  0.700 |ddv_scf|^2 =  1.642E-07

      iter #   3 total cpu time :    57.5 secs   av.it.:  10.2
      thresh= 4.052E-05 alpha_mix =  0.700 |ddv_scf|^2 =  1.686E-09

      iter #   4 total cpu time :    58.3 secs   av.it.:  10.2
      thresh= 4.106E-06 alpha_mix =  0.700 |ddv_scf|^2 =  6.771E-11

      iter #   5 total cpu time :    58.8 secs   av.it.:  10.5
      thresh= 8.228E-07 alpha_mix =  0.700 |ddv_scf|^2 =  3.886E-13

     End of self-consistent calculation

     Convergence has been achieved 


     Representation #  3 modes #   3  4

     Self-consistent Calculation

      iter #   1 total cpu time :    59.5 secs   av.it.:   5.2
      thresh= 1.000E-02 alpha_mix =  0.700 |ddv_scf|^2 =  1.041E-07

      iter #   2 total cpu time :    60.5 secs   av.it.:  11.7
      thresh= 3.227E-05 alpha_mix =  0.700 |ddv_scf|^2 =  1.437E-08

      iter #   3 total cpu time :    61.6 secs   av.it.:  11.3
      thresh= 1.199E-05 alpha_mix =  0.700 |ddv_scf|^2 =  2.420E-10

      iter #   4 total cpu time :    62.5 secs   av.it.:  10.8
      thresh= 1.556E-06 alpha_mix =  0.700 |ddv_scf|^2 =  5.756E-13

     End of self-consistent calculation

     Convergence has been achieved 


     Representation #  4 modes #   5  6

     Self-consistent Calculation

      iter #   1 total cpu time :    63.3 secs   av.it.:   5.2
      thresh= 1.000E-02 alpha_mix =  0.700 |ddv_scf|^2 =  9.546E-08

      iter #   2 total cpu time :    64.3 secs   av.it.:  11.6
      thresh= 3.090E-05 alpha_mix =  0.700 |ddv_scf|^2 =  1.284E-08

      iter #   3 total cpu time :    65.3 secs   av.it.:  11.4
      thresh= 1.133E-05 alpha_mix =  0.700 |ddv_scf|^2 =  2.472E-10

      iter #   4 total cpu time :    66.2 secs   av.it.:  11.1
      thresh= 1.572E-06 alpha_mix =  0.700 |ddv_scf|^2 =  6.150E-13

     End of self-consistent calculation

     Convergence has been achieved 

     Number of q in the star =    6
     List of q in the star:
          1   0.000000000   0.500000000   0.000000000
          2   0.000000000  -0.500000000   0.000000000
          3   0.500000000   0.000000000   0.000000000
          4   0.000000000   0.000000000   0.500000000
          5   0.000000000   0.000000000  -0.500000000
          6  -0.500000000   0.000000000   0.000000000

     Diagonalizing the dynamical matrix

     q = (    0.000000000   0.500000000   0.000000000 ) 

 **************************************************************************
     freq (    1) =       3.789174 [THz] =     126.393251 [cm-1]
     freq (    2) =       3.789174 [THz] =     126.393251 [cm-1]
     freq (    3) =       6.983022 [THz] =     232.928547 [cm-1]
     freq (    4) =      13.645609 [THz] =     455.168517 [cm-1]
     freq (    5) =      13.645609 [THz] =     455.168517 [cm-1]
     freq (    6) =      14.314543 [THz] =     477.481750 [cm-1]
 **************************************************************************

     Mode symmetry, C_4v (4mm)  point group:

     freq (  1 -  2) =        126.4  [cm-1]   --> E    G_5 D_5       
     freq (  3 -  3) =        232.9  [cm-1]   --> A_1  G_1 D_1       
     freq (  4 -  5) =        455.2  [cm-1]   --> E    G_5 D_5       
     freq (  6 -  6) =        477.5  [cm-1]   --> B_2  G_4 D_2'      

     Calculation of q =    0.7500000  -0.2500000   0.7500000

   Info: using nr1, nr2, nr3 values from input

   Info: using nr1, nr2, nr3 values from input

     Parallelization info
     --------------------
     sticks:   dense  smooth     PW     G-vecs:    dense   smooth      PW
     Min         222     109     40                 4369     1545     362
     Max         223     110     41                 4370     1546     366
     Sum         889     439    163                17477     6183    1459



     bravais-lattice index     =            2
     lattice parameter (alat)  =      10.3680  a.u.
     unit-cell volume          =     278.6281 (a.u.)^3
     number of atoms/cell      =            2
     number of atomic types    =            1
     number of electrons       =         8.00
     number of Kohn-Sham states=            4
     kinetic-energy cutoff     =      30.0000  Ry
     charge density cutoff     =     240.0000  Ry
     Exchange-correlation      = SLA  PW   PBE  PBE ( 1  4  3  4 0 0)

     celldm(1)=  10.368000  celldm(2)=   0.000000  celldm(3)=   0.000000
     celldm(4)=   0.000000  celldm(5)=   0.000000  celldm(6)=   0.000000

     crystal axes: (cart. coord. in units of alat)
               a(1) = (  -0.500000   0.000000   0.500000 )  
               a(2) = (   0.000000   0.500000   0.500000 )  
               a(3) = (  -0.500000   0.500000   0.000000 )  

     reciprocal axes: (cart. coord. in units 2 pi/alat)
               b(1) = ( -1.000000 -1.000000  1.000000 )  
               b(2) = (  1.000000  1.000000  1.000000 )  
               b(3) = ( -1.000000  1.000000 -1.000000 )  


     PseudoPot. # 1 for Si read from file:
     /home/s1333534/quantum_espresso/qe-6.1/pseudo/si_pbe_v1.uspp.F.UPF.txt
     MD5 check sum: a056efeee980c13900f22a371efd63c1
     Pseudo is Ultrasoft + core correction, Zval =  4.0
     Generated by new atomic code, or converted to UPF format
     Using radial grid of  899 points,  6 beta functions with: 
                l(1) =   0
                l(2) =   0
                l(3) =   1
                l(4) =   1
                l(5) =   2
                l(6) =   2
     Q(r) pseudized with  8 coefficients,  rinner =    0.900   0.900   0.900
                                                       0.900   0.900

     atomic species   valence    mass     pseudopotential
        Si             4.00    28.08600     Si( 1.00)

     48 Sym. Ops., with inversion, found



   Cartesian axes

     site n.     atom                  positions (alat units)
         1           Si  tau(   1) = (   0.0000000   0.0000000   0.0000000  )
         2           Si  tau(   2) = (   0.2500000   0.2500000   0.2500000  )

     number of k points=   288

     Number of k-points >= 100: set verbosity='high' to print them.

     Dense  grid:    17477 G-vectors     FFT dimensions: (  40,  40,  40)

     Smooth grid:     6183 G-vectors     FFT dimensions: (  25,  25,  25)

     Estimated max dynamical RAM per process >       1.79MB

     Estimated total allocated dynamical RAM >       7.17MB

     The potential is recalculated from file :
     ./_ph0/silicon.10.368.save/charge-density.dat

     Starting wfc are    8 atomic wfcs

     Band Structure Calculation
     Davidson diagonalization with overlap

     ethr =  1.25E-10,  avg # of iterations = 12.1

     total cpu time spent up to now is        6.8 secs

     End of band structure calculation

     Number of k-points >= 100: set verbosity='high' to print the bands.

     highest occupied level (ev):     5.5973

     Writing output data file silicon.10.368.save

                                                                                

     bravais-lattice index     =            2
     lattice parameter (alat)  =      10.3680  a.u.
     unit-cell volume          =     278.6281 (a.u.)^3
     number of atoms/cell      =            2
     number of atomic types    =            1
     kinetic-energy cut-off    =      30.0000  Ry
     charge density cut-off    =     240.0000  Ry
     convergence threshold     =      1.0E-12
     beta                      =       0.7000
     number of iterations used =            4
     Exchange-correlation      = SLA  PW   PBE  PBE ( 1  4  3  4 0 0)


     celldm(1)=   10.36800  celldm(2)=    0.00000  celldm(3)=    0.00000
     celldm(4)=    0.00000  celldm(5)=    0.00000  celldm(6)=    0.00000

     crystal axes: (cart. coord. in units of alat)
               a(1) = ( -0.5000  0.0000  0.5000 )  
               a(2) = (  0.0000  0.5000  0.5000 )  
               a(3) = ( -0.5000  0.5000  0.0000 )  

     reciprocal axes: (cart. coord. in units 2 pi/alat)
               b(1) = ( -1.0000 -1.0000  1.0000 )  
               b(2) = (  1.0000  1.0000  1.0000 )  
               b(3) = ( -1.0000  1.0000 -1.0000 )  


     Atoms inside the unit cell: 

     Cartesian axes

     site n.  atom      mass           positions (alat units)
        1     Si  28.0860   tau(    1) = (    0.00000    0.00000    0.00000  )
        2     Si  28.0860   tau(    2) = (    0.25000    0.25000    0.25000  )

     Computing dynamical matrix for 
                    q = (   0.7500000  -0.2500000   0.7500000 )

      2 Sym.Ops. (no q -> -q+G )


     G cutoff =  653.4938  (   4369 G-vectors)     FFT grid: ( 40, 40, 40)
     G cutoff =  326.7469  (   1546 G-vectors)  smooth grid: ( 25, 25, 25)
     number of k points=   288

     PseudoPot. # 1 for Si read from file:
     /home/s1333534/quantum_espresso/qe-6.1/pseudo/si_pbe_v1.uspp.F.UPF.txt
     MD5 check sum: a056efeee980c13900f22a371efd63c1
     Pseudo is Ultrasoft + core correction, Zval =  4.0
     Generated by new atomic code, or converted to UPF format
     Using radial grid of  899 points,  6 beta functions with: 
                l(1) =   0
                l(2) =   0
                l(3) =   1
                l(4) =   1
                l(5) =   2
                l(6) =   2
     Q(r) pseudized with  8 coefficients,  rinner =    0.900   0.900   0.900
                                                       0.900   0.900

     Mode symmetry, C_s (m)     point group:


     Atomic displacements:
     There are   6 irreducible representations

     Representation     1      1 modes -A'  To be done

     Representation     2      1 modes -A'  To be done

     Representation     3      1 modes -A'  To be done

     Representation     4      1 modes -A'  To be done

     Representation     5      1 modes -A''  To be done

     Representation     6      1 modes -A''  To be done



     Alpha used in Ewald sum =   2.5000
     PHONON       :  0m54.63s CPU     1m11.56s WALL



     Representation #  1 mode #   1

     Self-consistent Calculation

      iter #   1 total cpu time :    72.5 secs   av.it.:   5.7
      thresh= 1.000E-02 alpha_mix =  0.700 |ddv_scf|^2 =  7.563E-06

      iter #   2 total cpu time :    74.2 secs   av.it.:  10.7
      thresh= 2.750E-04 alpha_mix =  0.700 |ddv_scf|^2 =  2.033E-05

      iter #   3 total cpu time :    75.5 secs   av.it.:   9.4
      thresh= 4.509E-04 alpha_mix =  0.700 |ddv_scf|^2 =  1.360E-07

      iter #   4 total cpu time :    76.9 secs   av.it.:  10.1
      thresh= 3.688E-05 alpha_mix =  0.700 |ddv_scf|^2 =  2.749E-09

      iter #   5 total cpu time :    78.3 secs   av.it.:  10.7
      thresh= 5.243E-06 alpha_mix =  0.700 |ddv_scf|^2 =  4.657E-10

      iter #   6 total cpu time :    79.6 secs   av.it.:  10.6
      thresh= 2.158E-06 alpha_mix =  0.700 |ddv_scf|^2 =  7.476E-12

      iter #   7 total cpu time :    81.0 secs   av.it.:  10.7
      thresh= 2.734E-07 alpha_mix =  0.700 |ddv_scf|^2 =  2.885E-13

     End of self-consistent calculation

     Convergence has been achieved 


     Representation #  2 mode #   2

     Self-consistent Calculation

      iter #   1 total cpu time :    82.1 secs   av.it.:   5.8
      thresh= 1.000E-02 alpha_mix =  0.700 |ddv_scf|^2 =  1.352E-05

      iter #   2 total cpu time :    83.5 secs   av.it.:  10.6
      thresh= 3.676E-04 alpha_mix =  0.700 |ddv_scf|^2 =  3.936E-05

      iter #   3 total cpu time :    84.8 secs   av.it.:   9.2
      thresh= 6.274E-04 alpha_mix =  0.700 |ddv_scf|^2 =  9.312E-08

      iter #   4 total cpu time :    86.1 secs   av.it.:  10.4
      thresh= 3.052E-05 alpha_mix =  0.700 |ddv_scf|^2 =  3.110E-09

      iter #   5 total cpu time :    87.5 secs   av.it.:  10.6
      thresh= 5.577E-06 alpha_mix =  0.700 |ddv_scf|^2 =  6.326E-10

      iter #   6 total cpu time :    88.8 secs   av.it.:  10.5
      thresh= 2.515E-06 alpha_mix =  0.700 |ddv_scf|^2 =  6.651E-12

      iter #   7 total cpu time :    90.2 secs   av.it.:  10.8
      thresh= 2.579E-07 alpha_mix =  0.700 |ddv_scf|^2 =  2.403E-13

     End of self-consistent calculation

     Convergence has been achieved 


     Representation #  3 mode #   3

     Self-consistent Calculation

      iter #   1 total cpu time :    91.2 secs   av.it.:   5.7
      thresh= 1.000E-02 alpha_mix =  0.700 |ddv_scf|^2 =  1.059E-05

      iter #   2 total cpu time :    92.6 secs   av.it.:  10.7
      thresh= 3.253E-04 alpha_mix =  0.700 |ddv_scf|^2 =  2.892E-05

      iter #   3 total cpu time :    93.8 secs   av.it.:   9.2
      thresh= 5.378E-04 alpha_mix =  0.700 |ddv_scf|^2 =  1.621E-07

      iter #   4 total cpu time :    95.2 secs   av.it.:  10.0
      thresh= 4.026E-05 alpha_mix =  0.700 |ddv_scf|^2 =  3.168E-09

      iter #   5 total cpu time :    96.6 secs   av.it.:  10.7
      thresh= 5.629E-06 alpha_mix =  0.700 |ddv_scf|^2 =  6.214E-10

      iter #   6 total cpu time :    97.9 secs   av.it.:  10.5
      thresh= 2.493E-06 alpha_mix =  0.700 |ddv_scf|^2 =  4.628E-12

      iter #   7 total cpu time :    99.2 secs   av.it.:  10.7
      thresh= 2.151E-07 alpha_mix =  0.700 |ddv_scf|^2 =  1.374E-13

     End of self-consistent calculation

     Convergence has been achieved 


     Representation #  4 mode #   4

     Self-consistent Calculation

      iter #   1 total cpu time :   100.3 secs   av.it.:   5.5
      thresh= 1.000E-02 alpha_mix =  0.700 |ddv_scf|^2 =  4.628E-06

      iter #   2 total cpu time :   101.6 secs   av.it.:  10.9
      thresh= 2.151E-04 alpha_mix =  0.700 |ddv_scf|^2 =  9.876E-06

      iter #   3 total cpu time :   103.0 secs   av.it.:   9.7
      thresh= 3.143E-04 alpha_mix =  0.700 |ddv_scf|^2 =  2.136E-07

      iter #   4 total cpu time :   104.3 secs   av.it.:  10.0
      thresh= 4.621E-05 alpha_mix =  0.700 |ddv_scf|^2 =  2.717E-09

      iter #   5 total cpu time :   106.0 secs   av.it.:  10.7
      thresh= 5.212E-06 alpha_mix =  0.700 |ddv_scf|^2 =  5.079E-10

      iter #   6 total cpu time :   107.4 secs   av.it.:  10.5
      thresh= 2.254E-06 alpha_mix =  0.700 |ddv_scf|^2 =  3.130E-12

      iter #   7 total cpu time :   108.8 secs   av.it.:  10.8
      thresh= 1.769E-07 alpha_mix =  0.700 |ddv_scf|^2 =  1.502E-13

     End of self-consistent calculation

     Convergence has been achieved 


     Representation #  5 mode #   5

     Self-consistent Calculation

      iter #   1 total cpu time :   110.3 secs   av.it.:   5.2
      thresh= 1.000E-02 alpha_mix =  0.700 |ddv_scf|^2 =  4.812E-07

      iter #   2 total cpu time :   111.6 secs   av.it.:  10.4
      thresh= 6.937E-05 alpha_mix =  0.700 |ddv_scf|^2 =  7.861E-08

      iter #   3 total cpu time :   113.0 secs   av.it.:  10.2
      thresh= 2.804E-05 alpha_mix =  0.700 |ddv_scf|^2 =  1.047E-09

      iter #   4 total cpu time :   114.3 secs   av.it.:   9.8
      thresh= 3.236E-06 alpha_mix =  0.700 |ddv_scf|^2 =  2.478E-12

      iter #   5 total cpu time :   115.6 secs   av.it.:  10.3
      thresh= 1.574E-07 alpha_mix =  0.700 |ddv_scf|^2 =  7.048E-14

     End of self-consistent calculation

     Convergence has been achieved 


     Representation #  6 mode #   6

     Self-consistent Calculation

      iter #   1 total cpu time :   116.6 secs   av.it.:   5.2
      thresh= 1.000E-02 alpha_mix =  0.700 |ddv_scf|^2 =  4.812E-07

      iter #   2 total cpu time :   118.0 secs   av.it.:  10.4
[...]
        k(   59) = (  -0.8750000   0.1250000  -0.1250000), wk =   0.0625000
        k(   60) = (  -1.3750000  -0.8750000  -0.1250000), wk =   0.0000000
        k(   61) = (  -1.1250000   0.3750000  -0.3750000), wk =   0.0625000
        k(   62) = (  -1.6250000  -0.6250000  -0.3750000), wk =   0.0000000
        k(   63) = (  -0.3750000   0.3750000   1.1250000), wk =   0.0625000
        k(   64) = (  -0.8750000  -0.6250000   1.1250000), wk =   0.0000000

     Dense  grid:    17477 G-vectors     FFT dimensions: (  40,  40,  40)

     Smooth grid:     6183 G-vectors     FFT dimensions: (  25,  25,  25)

     Estimated max dynamical RAM per process >       1.79MB

     Estimated total allocated dynamical RAM >       7.17MB

     The potential is recalculated from file :
     ./_ph0/silicon.10.368.save/charge-density.dat

     Starting wfc are    8 atomic wfcs

     Band Structure Calculation
     Davidson diagonalization with overlap

     ethr =  1.25E-10,  avg # of iterations = 12.1

     total cpu time spent up to now is       10.7 secs

     End of band structure calculation

          k =-0.1250 0.1250 0.1250 (   779 PWs)   bands (ev):

    -5.6743   4.2875   5.5973   5.5973

          k =-0.6250-0.8750 0.1250 (   764 PWs)   bands (ev):

    -2.5082  -0.9770   1.9496   3.0143

          k =-0.3750 0.3750-0.1250 (   781 PWs)   bands (ev):

    -4.6575   1.3124   3.6292   5.1199

          k =-0.8750-0.6250-0.1250 (   764 PWs)   bands (ev):

    -2.5082  -0.9770   1.9496   3.0143

          k = 0.3750-0.3750 0.6250 (   776 PWs)   bands (ev):

    -3.5321  -0.7430   3.6452   4.3569

          k =-0.1250-1.3750 0.6250 (   773 PWs)   bands (ev):

    -3.0408  -0.6692   2.0034   4.0436

          k = 0.1250-0.1250 0.3750 (   785 PWs)   bands (ev):

    -5.1513   2.6762   4.6003   4.6584

          k =-0.3750-1.1250 0.3750 (   773 PWs)   bands (ev):

    -3.0408  -0.6692   2.0034   4.0436

          k =-0.1250 0.6250 0.1250 (   777 PWs)   bands (ev):

    -4.1297   0.9695   3.2864   3.7343

          k =-0.6250-0.3750 0.1250 (   775 PWs)   bands (ev):

    -3.7193   0.1100   2.6489   4.0066

          k = 0.6250-0.1250 0.8750 (   764 PWs)   bands (ev):

    -2.5082  -0.9770   1.9496   3.0143

          k = 0.1250-1.1250 0.8750 (   766 PWs)   bands (ev):

    -2.6718  -0.8819   2.5522   3.2715

          k = 0.3750 0.1250 0.6250 (   775 PWs)   bands (ev):

    -3.7193   0.1100   2.6489   4.0066

          k =-0.1250-0.8750 0.6250 (   764 PWs)   bands (ev):

    -2.5082  -0.9770   1.9496   3.0143

          k =-0.1250-0.8750 0.1250 (   766 PWs)   bands (ev):

    -2.6718  -0.8819   2.5522   3.2715

          k =-0.6250-1.8750 0.1250 (   777 PWs)   bands (ev):

    -4.1297   0.9695   3.2864   3.7343

          k =-0.3750 0.3750 0.3750 (   775 PWs)   bands (ev):

    -4.2298   0.0383   4.8160   4.8160

          k =-0.8750-0.6250 0.3750 (   775 PWs)   bands (ev):

    -3.7193   0.1100   2.6489   4.0066

          k = 0.3750-0.3750 1.1250 (   773 PWs)   bands (ev):

    -3.0408  -0.6692   2.0034   4.0436

          k =-0.1250-1.3750 1.1250 (   764 PWs)   bands (ev):

    -2.5082  -0.9770   1.9496   3.0143

          k = 0.1250-0.3750 0.3750 (   781 PWs)   bands (ev):

    -4.6575   1.3124   3.6292   5.1199

          k =-0.3750-1.3750 0.3750 (   776 PWs)   bands (ev):

    -3.5321  -0.7430   3.6452   4.3569

          k = 0.3750-0.3750-0.1250 (   781 PWs)   bands (ev):

    -4.6575   1.3124   3.6292   5.1199

          k =-0.1250-1.3750-0.1250 (   777 PWs)   bands (ev):

    -4.1297   0.9695   3.2864   3.7343

          k =-0.6250 0.3750-0.3750 (   776 PWs)   bands (ev):

    -3.5321  -0.7430   3.6452   4.3569

          k =-1.1250-0.6250-0.3750 (   775 PWs)   bands (ev):

    -3.7193   0.1100   2.6489   4.0066

          k =-0.3750 0.3750 0.6250 (   776 PWs)   bands (ev):

    -3.5321  -0.7430   3.6452   4.3569

          k =-0.8750-0.6250 0.6250 (   781 PWs)   bands (ev):

    -4.6575   1.3124   3.6292   5.1199

          k =-0.3750 0.1250-0.1250 (   785 PWs)   bands (ev):

    -5.1513   2.6762   4.6003   4.6584

          k =-0.8750-0.8750-0.1250 (   766 PWs)   bands (ev):

    -2.6718  -0.8819   2.5522   3.2715

          k =-0.1250 0.1250 0.3750 (   785 PWs)   bands (ev):

    -5.1513   2.6762   4.6003   4.6584

          k =-0.6250-0.8750 0.3750 (   775 PWs)   bands (ev):

    -3.7193   0.1100   2.6489   4.0066

          k = 0.1250 0.6250-0.1250 (   777 PWs)   bands (ev):

    -4.1297   0.9695   3.2864   3.7343

          k =-0.3750-0.3750-0.1250 (   781 PWs)   bands (ev):

    -4.6575   1.3124   3.6292   5.1199

          k = 0.6250 0.1250-0.1250 (   777 PWs)   bands (ev):

    -4.1297   0.9695   3.2864   3.7343

          k = 0.1250-0.8750-0.1250 (   766 PWs)   bands (ev):

    -2.6718  -0.8819   2.5522   3.2715

          k =-0.8750 0.1250-0.6250 (   764 PWs)   bands (ev):

    -2.5082  -0.9770   1.9496   3.0143

          k =-1.3750-0.8750-0.6250 (   781 PWs)   bands (ev):

    -4.6575   1.3124   3.6292   5.1199

          k = 0.8750-0.1250 0.6250 (   764 PWs)   bands (ev):

    -2.5082  -0.9770   1.9496   3.0143

          k = 0.3750-1.1250 0.6250 (   775 PWs)   bands (ev):

    -3.7193   0.1100   2.6489   4.0066

          k =-0.6250 0.1250 0.8750 (   764 PWs)   bands (ev):

    -2.5082  -0.9770   1.9496   3.0143

          k =-1.1250-0.8750 0.8750 (   779 PWs)   bands (ev):

    -5.6743   4.2875   5.5973   5.5973

          k =-0.1250 0.8750 0.6250 (   764 PWs)   bands (ev):

    -2.5082  -0.9770   1.9496   3.0143

          k =-0.6250-0.1250 0.6250 (   773 PWs)   bands (ev):

    -3.0408  -0.6692   2.0034   4.0436

          k = 0.1250 0.8750-0.6250 (   764 PWs)   bands (ev):

    -2.5082  -0.9770   1.9496   3.0143

          k =-0.3750-0.1250-0.6250 (   775 PWs)   bands (ev):

    -3.7193   0.1100   2.6489   4.0066

          k =-0.6250-0.1250-0.3750 (   775 PWs)   bands (ev):

    -3.7193   0.1100   2.6489   4.0066

          k =-1.1250-1.1250-0.3750 (   777 PWs)   bands (ev):

    -4.1297   0.9695   3.2864   3.7343

          k = 0.6250 0.1250 0.3750 (   775 PWs)   bands (ev):

    -3.7193   0.1100   2.6489   4.0066

          k = 0.1250-0.8750 0.3750 (   764 PWs)   bands (ev):

    -2.5082  -0.9770   1.9496   3.0143

          k =-0.3750-0.1250 0.6250 (   775 PWs)   bands (ev):

    -3.7193   0.1100   2.6489   4.0066

          k =-0.8750-1.1250 0.6250 (   785 PWs)   bands (ev):

    -5.1513   2.6762   4.6003   4.6584

          k = 0.1250 0.6250 0.3750 (   775 PWs)   bands (ev):

    -3.7193   0.1100   2.6489   4.0066

          k =-0.3750-0.3750 0.3750 (   775 PWs)   bands (ev):

    -4.2298   0.0383   4.8160   4.8160

          k =-0.1250 0.6250-0.3750 (   775 PWs)   bands (ev):

    -3.7193   0.1100   2.6489   4.0066

          k =-0.6250-0.3750-0.3750 (   776 PWs)   bands (ev):

    -3.5321  -0.7430   3.6452   4.3569

          k = 0.1250-0.8750-0.1250 (   766 PWs)   bands (ev):

    -2.6718  -0.8819   2.5522   3.2715

          k =-0.3750-1.8750-0.1250 (   785 PWs)   bands (ev):

    -5.1513   2.6762   4.6003   4.6584

          k =-0.8750 0.1250-0.1250 (   766 PWs)   bands (ev):

    -2.6718  -0.8819   2.5522   3.2715

          k =-1.3750-0.8750-0.1250 (   764 PWs)   bands (ev):

    -2.5082  -0.9770   1.9496   3.0143

          k =-1.1250 0.3750-0.3750 (   773 PWs)   bands (ev):

    -3.0408  -0.6692   2.0034   4.0436

          k =-1.6250-0.6250-0.3750 (   776 PWs)   bands (ev):

    -3.5321  -0.7430   3.6452   4.3569

          k =-0.3750 0.3750 1.1250 (   773 PWs)   bands (ev):

    -3.0408  -0.6692   2.0034   4.0436

          k =-0.8750-0.6250 1.1250 (   785 PWs)   bands (ev):

    -5.1513   2.6762   4.6003   4.6584

     highest occupied level (ev):     5.5973

     Writing output data file silicon.10.368.save

                                                                                

     bravais-lattice index     =            2
     lattice parameter (alat)  =      10.3680  a.u.
     unit-cell volume          =     278.6281 (a.u.)^3
     number of atoms/cell      =            2
     number of atomic types    =            1
     kinetic-energy cut-off    =      30.0000  Ry
     charge density cut-off    =     240.0000  Ry
     convergence threshold     =      1.0E-12
     beta                      =       0.7000
     number of iterations used =            4
     Exchange-correlation      = SLA  PW   PBE  PBE ( 1  4  3  4 0 0)


     celldm(1)=   10.36800  celldm(2)=    0.00000  celldm(3)=    0.00000
     celldm(4)=    0.00000  celldm(5)=    0.00000  celldm(6)=    0.00000

     crystal axes: (cart. coord. in units of alat)
               a(1) = ( -0.5000  0.0000  0.5000 )  
               a(2) = (  0.0000  0.5000  0.5000 )  
               a(3) = ( -0.5000  0.5000  0.0000 )  

     reciprocal axes: (cart. coord. in units 2 pi/alat)
               b(1) = ( -1.0000 -1.0000  1.0000 )  
               b(2) = (  1.0000  1.0000  1.0000 )  
               b(3) = ( -1.0000  1.0000 -1.0000 )  


     Atoms inside the unit cell: 

     Cartesian axes

     site n.  atom      mass           positions (alat units)
        1     Si  28.0860   tau(    1) = (    0.00000    0.00000    0.00000  )
        2     Si  28.0860   tau(    2) = (    0.25000    0.25000    0.25000  )

     Computing dynamical matrix for 
                    q = (  -0.5000000  -1.0000000   0.0000000 )

      8 Sym.Ops. (no q -> -q+G )


     G cutoff =  653.4938  (   4369 G-vectors)     FFT grid: ( 40, 40, 40)
     G cutoff =  326.7469  (   1546 G-vectors)  smooth grid: ( 25, 25, 25)
     number of k points=    64

     PseudoPot. # 1 for Si read from file:
     /home/s1333534/quantum_espresso/qe-6.1/pseudo/si_pbe_v1.uspp.F.UPF.txt
     MD5 check sum: a056efeee980c13900f22a371efd63c1
     Pseudo is Ultrasoft + core correction, Zval =  4.0
     Generated by new atomic code, or converted to UPF format
     Using radial grid of  899 points,  6 beta functions with: 
                l(1) =   0
                l(2) =   0
                l(3) =   1
                l(4) =   1
                l(5) =   2
                l(6) =   2
     Q(r) pseudized with  8 coefficients,  rinner =    0.900   0.900   0.900
                                                       0.900   0.900


     Atomic displacements:
     There are   3 irreducible representations

     Representation     1      2 modes -  To be done

     Representation     2      2 modes -  To be done

     Representation     3      2 modes -  To be done



     Alpha used in Ewald sum =   2.5000
     PHONON       :  2m 8.14s CPU     2m42.93s WALL



     Representation #  1 modes #   1  2

     Self-consistent Calculation

      iter #   1 total cpu time :   163.6 secs   av.it.:   5.7
      thresh= 1.000E-02 alpha_mix =  0.700 |ddv_scf|^2 =  7.802E-07

      iter #   2 total cpu time :   164.5 secs   av.it.:  11.8
      thresh= 8.833E-05 alpha_mix =  0.700 |ddv_scf|^2 =  4.408E-07

      iter #   3 total cpu time :   165.3 secs   av.it.:  11.3
      thresh= 6.639E-05 alpha_mix =  0.700 |ddv_scf|^2 =  4.274E-10

      iter #   4 total cpu time :   166.6 secs   av.it.:  11.1
      thresh= 2.067E-06 alpha_mix =  0.700 |ddv_scf|^2 =  1.919E-12

      iter #   5 total cpu time :   167.3 secs   av.it.:  11.3
      thresh= 1.385E-07 alpha_mix =  0.700 |ddv_scf|^2 =  5.065E-14

     End of self-consistent calculation

     Convergence has been achieved 


     Representation #  2 modes #   3  4

     Self-consistent Calculation

      iter #   1 total cpu time :   168.1 secs   av.it.:   5.6
      thresh= 1.000E-02 alpha_mix =  0.700 |ddv_scf|^2 =  1.216E-06

      iter #   2 total cpu time :   169.0 secs   av.it.:  11.8
      thresh= 1.103E-04 alpha_mix =  0.700 |ddv_scf|^2 =  1.666E-06

      iter #   3 total cpu time :   169.8 secs   av.it.:  11.0
      thresh= 1.291E-04 alpha_mix =  0.700 |ddv_scf|^2 =  5.111E-10

      iter #   4 total cpu time :   170.7 secs   av.it.:  11.1
      thresh= 2.261E-06 alpha_mix =  0.700 |ddv_scf|^2 =  8.438E-12

      iter #   5 total cpu time :   171.5 secs   av.it.:  11.3
      thresh= 2.905E-07 alpha_mix =  0.700 |ddv_scf|^2 =  1.349E-13

     End of self-consistent calculation

     Convergence has been achieved 


     Representation #  3 modes #   5  6

     Self-consistent Calculation

      iter #   1 total cpu time :   172.3 secs   av.it.:   5.3
      thresh= 1.000E-02 alpha_mix =  0.700 |ddv_scf|^2 =  3.171E-07

      iter #   2 total cpu time :   173.4 secs   av.it.:  11.8
      thresh= 5.632E-05 alpha_mix =  0.700 |ddv_scf|^2 =  1.850E-07

      iter #   3 total cpu time :   174.3 secs   av.it.:  11.2
      thresh= 4.301E-05 alpha_mix =  0.700 |ddv_scf|^2 =  3.695E-10

      iter #   4 total cpu time :   175.1 secs   av.it.:  11.1
      thresh= 1.922E-06 alpha_mix =  0.700 |ddv_scf|^2 =  4.433E-12

      iter #   5 total cpu time :   175.9 secs   av.it.:  11.2
      thresh= 2.106E-07 alpha_mix =  0.700 |ddv_scf|^2 =  6.043E-14

     End of self-consistent calculation

     Convergence has been achieved 

     Number of q in the star =    6
     List of q in the star:
          1  -0.500000000  -1.000000000   0.000000000
          2   0.000000000   1.000000000   0.500000000
          3   0.000000000  -1.000000000  -0.500000000
          4   0.500000000   1.000000000   0.000000000
          5  -1.000000000  -0.500000000   0.000000000
          6   0.000000000  -0.500000000  -1.000000000

     Diagonalizing the dynamical matrix

     q = (   -0.500000000  -1.000000000   0.000000000 ) 

 **************************************************************************
     freq (    1) =       6.044591 [THz] =     201.625859 [cm-1]
     freq (    2) =       6.044591 [THz] =     201.625859 [cm-1]
     freq (    3) =      10.203410 [THz] =     340.349111 [cm-1]
     freq (    4) =      10.203410 [THz] =     340.349111 [cm-1]
     freq (    5) =      13.355069 [THz] =     445.477156 [cm-1]
     freq (    6) =      13.355069 [THz] =     445.477156 [cm-1]
 **************************************************************************

     init_run     :      1.28s CPU      1.32s WALL (       7 calls)
     electrons    :      7.35s CPU      7.96s WALL (       7 calls)

     Called by init_run:
     wfcinit      :      0.00s CPU      0.02s WALL (       7 calls)
     potinit      :      0.10s CPU      0.11s WALL (       7 calls)

     Called by electrons:
     c_bands      :      7.34s CPU      7.96s WALL (       7 calls)
     v_of_rho     :      0.09s CPU      0.09s WALL (       8 calls)
     newd         :      0.13s CPU      0.13s WALL (       8 calls)

     Called by c_bands:
     init_us_2    :      1.62s CPU      1.57s WALL (   15896 calls)
     cegterg      :      6.17s CPU      6.64s WALL (     796 calls)

     Called by sum_band:

     Called by *egterg:
     h_psi        :     71.03s CPU     76.24s WALL (  154788 calls)
     s_psi        :      5.94s CPU      7.05s WALL (  311834 calls)
     g_psi        :      0.05s CPU      0.07s WALL (    9666 calls)
     cdiaghg      :      0.56s CPU      0.56s WALL (   10462 calls)

     Called by h_psi:
     h_psi:pot    :     70.60s CPU     75.72s WALL (  154788 calls)
     h_psi:calbec :      3.52s CPU      4.04s WALL (  154788 calls)
     vloc_psi     :     62.42s CPU     67.50s WALL (  154788 calls)
     add_vuspsi   :      4.29s CPU      3.71s WALL (  154788 calls)

     General routines
     calbec       :      8.32s CPU      8.75s WALL (  346142 calls)
     fft          :      1.83s CPU      1.91s WALL (    5233 calls)
     ffts         :      0.21s CPU      0.22s WALL (    3316 calls)
     fftw         :     64.20s CPU     68.25s WALL ( 1385028 calls)
     interpolate  :      0.26s CPU      0.28s WALL (     568 calls)
     davcio       :      0.32s CPU      1.14s WALL (   69130 calls)

     Parallel routines
     fft_scatter  :     15.53s CPU     20.00s WALL ( 1393577 calls)

     PHONON       :  2m17.75s CPU     2m56.29s WALL

     INITIALIZATION: 
     phq_setup    :      0.30s CPU      0.46s WALL (       8 calls)
     phq_init     :      7.09s CPU      7.44s WALL (       8 calls)

     phq_init     :      7.09s CPU      7.44s WALL (       8 calls)
     set_drhoc    :      1.85s CPU      1.85s WALL (      24 calls)
     init_vloc    :      0.03s CPU      0.03s WALL (       8 calls)
     init_us_1    :      0.97s CPU      0.98s WALL (       8 calls)
     newd         :      0.13s CPU      0.13s WALL (       8 calls)
     dvanqq       :      1.18s CPU      1.19s WALL (       8 calls)
     drho         :      2.65s CPU      2.73s WALL (       8 calls)

     DYNAMICAL MATRIX:
     dynmat0      :      1.76s CPU      1.91s WALL (       8 calls)
     phqscf       :    116.46s CPU    148.66s WALL (       8 calls)
     dynmatrix    :      0.01s CPU      0.20s WALL (       8 calls)

     phqscf       :    116.46s CPU    148.66s WALL (       8 calls)
     solve_linter :    115.60s CPU    146.12s WALL (      32 calls)
     drhodv       :      0.58s CPU      0.60s WALL (      32 calls)

     dynmat0      :      1.76s CPU      1.91s WALL (       8 calls)
     dynmat_us    :      0.39s CPU      0.40s WALL (       8 calls)
     d2ionq       :      0.04s CPU      0.04s WALL (       8 calls)
     dynmatcc     :      1.32s CPU      1.32s WALL (       8 calls)

     dynmat_us    :      0.39s CPU      0.40s WALL (       8 calls)
     addusdynmat  :      0.00s CPU      0.00s WALL (       8 calls)

     phqscf       :    116.46s CPU    148.66s WALL (       8 calls)
     solve_linter :    115.60s CPU    146.12s WALL (      32 calls)

     solve_linter :    115.60s CPU    146.12s WALL (      32 calls)
     dvqpsi_us    :      2.15s CPU      2.30s WALL (    2508 calls)
     ortho        :      0.98s CPU      1.10s WALL (   13486 calls)
     cgsolve      :     78.58s CPU     85.49s WALL (   13486 calls)
     incdrhoscf   :      6.27s CPU      6.83s WALL (   13486 calls)
     addusddens   :      7.17s CPU      7.25s WALL (     200 calls)
     vpsifft      :      4.44s CPU      4.87s WALL (   10858 calls)
     dv_of_drho   :      1.74s CPU      1.80s WALL (     254 calls)
     mix_pot      :      0.35s CPU     11.48s WALL (     173 calls)
     psymdvscf    :      5.85s CPU      5.92s WALL (     168 calls)
     newdq        :      7.65s CPU      7.67s WALL (     173 calls)
     adddvscf     :      0.46s CPU      0.43s WALL (   10978 calls)
     drhodvus     :      0.01s CPU      0.02s WALL (      32 calls)

     dvqpsi_us    :      2.15s CPU      2.30s WALL (    2508 calls)
     dvqpsi_us_on :      0.92s CPU      0.97s WALL (    2508 calls)

     cgsolve      :     78.58s CPU     85.49s WALL (   13486 calls)
     ch_psi       :     77.48s CPU     83.73s WALL (  143530 calls)

     ch_psi       :     77.48s CPU     83.73s WALL (  143530 calls)
     h_psi        :     71.03s CPU     76.24s WALL (  154788 calls)
     last         :      9.08s CPU      9.23s WALL (  143530 calls)

     h_psi        :     71.03s CPU     76.24s WALL (  154788 calls)
     add_vuspsi   :      4.29s CPU      3.71s WALL (  154788 calls)

     incdrhoscf   :      6.27s CPU      6.83s WALL (   13486 calls)
     addusdbec    :      0.49s CPU      0.52s WALL (   15934 calls)

     drhodvus     :      0.01s CPU      0.02s WALL (      32 calls)

      General routines
     calbec       :      8.32s CPU      8.75s WALL (  346142 calls)
     fft          :      1.83s CPU      1.91s WALL (    5233 calls)
     ffts         :      0.21s CPU      0.22s WALL (    3316 calls)
     fftw         :     64.20s CPU     68.25s WALL ( 1385028 calls)
     davcio       :      0.32s CPU      1.14s WALL (   69130 calls)
     write_rec    :      0.22s CPU     12.93s WALL (     205 calls)


     PHONON       :  2m17.75s CPU     2m56.29s WALL


   This run was terminated on:  15:48:34  10Nov2017            

=------------------------------------------------------------------------------=
   JOB DONE.
=------------------------------------------------------------------------------=
