
     Program PHONON v.6.1 (svn rev. 13369) starts on  9Nov2017 at 17:25: 8 

     This program is part of the open-source Quantum ESPRESSO suite
     for quantum simulation of materials; please cite
         "P. Giannozzi et al., J. Phys.:Condens. Matter 21 395502 (2009);
          URL http://www.quantum-espresso.org", 
     in publications or presentations arising from this work. More details at
     http://www.quantum-espresso.org/quote

     Parallel version (MPI), running on     4 processors
     R & G space division:  proc/nbgrp/npool/nimage =       4

     Reading data from directory:
     ./silicon.10.396.save

   Info: using nr1, nr2, nr3 values from input

   Info: using nr1, nr2, nr3 values from input

     IMPORTANT: XC functional enforced from input :
     Exchange-correlation      = SLA  PW   PBE  PBE ( 1  4  3  4 0 0)
     Any further DFT definition will be discarded
     Please, verify this is what you really want


     Parallelization info
     --------------------
     sticks:   dense  smooth     PW     G-vecs:    dense   smooth      PW
     Min          66      66     22                  722      722     152
     Max          67      67     23                  724      724     153
     Sum         265     265     91                 2891     2891     609


     Check: negative/imaginary core charge=   -0.000006    0.000000


     Dynamical matrices for ( 4, 4, 4)  uniform grid of q-points
     (   8q-points):
       N         xq(1)         xq(2)         xq(3) 
       1   0.000000000   0.000000000   0.000000000
       2  -0.250000000   0.250000000  -0.250000000
       3   0.500000000  -0.500000000   0.500000000
       4   0.000000000   0.500000000   0.000000000
       5   0.750000000  -0.250000000   0.750000000
       6   0.500000000   0.000000000   0.500000000
       7   0.000000000  -1.000000000   0.000000000
       8  -0.500000000  -1.000000000   0.000000000

     Calculation of q =    0.0000000   0.0000000   0.0000000

                                                                                

     bravais-lattice index     =            2
     lattice parameter (alat)  =      10.3960  a.u.
     unit-cell volume          =     280.8916 (a.u.)^3
     number of atoms/cell      =            2
     number of atomic types    =            1
     kinetic-energy cut-off    =      18.0000  Ry
     charge density cut-off    =      72.0000  Ry
     convergence threshold     =      1.0E-12
     beta                      =       0.7000
     number of iterations used =            4
     Exchange-correlation      = SLA  PW   PBE  PBE ( 1  4  3  4 0 0)


     celldm(1)=   10.39600  celldm(2)=    0.00000  celldm(3)=    0.00000
     celldm(4)=    0.00000  celldm(5)=    0.00000  celldm(6)=    0.00000

     crystal axes: (cart. coord. in units of alat)
               a(1) = ( -0.5000  0.0000  0.5000 )  
               a(2) = (  0.0000  0.5000  0.5000 )  
               a(3) = ( -0.5000  0.5000  0.0000 )  

     reciprocal axes: (cart. coord. in units 2 pi/alat)
               b(1) = ( -1.0000 -1.0000  1.0000 )  
               b(2) = (  1.0000  1.0000  1.0000 )  
               b(3) = ( -1.0000  1.0000 -1.0000 )  


     Atoms inside the unit cell: 

     Cartesian axes

     site n.  atom      mass           positions (alat units)
        1     Si  28.0860   tau(    1) = (    0.00000    0.00000    0.00000  )
        2     Si  28.0860   tau(    2) = (    0.25000    0.25000    0.25000  )

     Computing dynamical matrix for 
                    q = (   0.0000000   0.0000000   0.0000000 )

     49 Sym.Ops. (with q -> -q+G )


     G cutoff =  197.1085  (    722 G-vectors)     FFT grid: ( 20, 20, 20)
     number of k points=    10

     PseudoPot. # 1 for Si read from file:
     /home/max/quantum_espresso/qe-6.1/pseudo/si_pbe_v1.uspp.F.UPF.txt
     MD5 check sum: a056efeee980c13900f22a371efd63c1
     Pseudo is Ultrasoft + core correction, Zval =  4.0
     Generated by new atomic code, or converted to UPF format
     Using radial grid of  899 points,  6 beta functions with: 
                l(1) =   0
                l(2) =   0
                l(3) =   1
                l(4) =   1
                l(5) =   2
                l(6) =   2
     Q(r) pseudized with  8 coefficients,  rinner =    0.900   0.900   0.900
                                                       0.900   0.900

     Mode symmetry, O_h (m-3m)  point group:


     Electric field:
     Dielectric constant
     Born effective charges in two ways 


     Atomic displacements:
     There are   2 irreducible representations

     Representation     1      3 modes -T_2g G_25' G_5+  To be done

     Representation     2      3 modes -T_1u G_15  G_4-  To be done



     Alpha used in Ewald sum =   0.7000
     PHONON       :     0.39s CPU         0.41s WALL


     Electric Fields Calculation

      iter #   1 total cpu time :     0.8 secs   av.it.:   5.6
      thresh= 1.000E-02 alpha_mix =  0.700 |ddv_scf|^2 =  9.553E-07

      iter #   2 total cpu time :     1.0 secs   av.it.:   9.9
      thresh= 9.774E-05 alpha_mix =  0.700 |ddv_scf|^2 =  6.224E-08

      iter #   3 total cpu time :     1.1 secs   av.it.:   9.8
      thresh= 2.495E-05 alpha_mix =  0.700 |ddv_scf|^2 =  4.942E-09

      iter #   4 total cpu time :     1.5 secs   av.it.:   9.0
      thresh= 7.030E-06 alpha_mix =  0.700 |ddv_scf|^2 =  2.993E-11

      iter #   5 total cpu time :     1.6 secs   av.it.:   9.1
      thresh= 5.471E-07 alpha_mix =  0.700 |ddv_scf|^2 =  1.544E-14

     End of electric fields calculation

          Dielectric constant in cartesian axis 

          (      14.010581942       0.000000000       0.000000000 )
          (       0.000000000      14.010581942       0.000000000 )
          (       0.000000000      -0.000000000      14.010581942 )

          Effective charges (d Force / dE) in cartesian axis

           atom      1   Si 
      Ex  (       -0.03364        0.00000        0.00000 )
      Ey  (        0.00000       -0.03364       -0.00000 )
      Ez  (        0.00000       -0.00000       -0.03364 )
           atom      2   Si 
      Ex  (       -0.03364        0.00000       -0.00000 )
      Ey  (       -0.00000       -0.03364        0.00000 )
      Ez  (       -0.00000        0.00000       -0.03364 )


     Representation #  1 modes #   1  2  3

     Self-consistent Calculation

      iter #   1 total cpu time :     2.0 secs   av.it.:   4.9
      thresh= 1.000E-02 alpha_mix =  0.700 |ddv_scf|^2 =  1.850E-07

      iter #   2 total cpu time :     2.2 secs   av.it.:  10.0
      thresh= 4.301E-05 alpha_mix =  0.700 |ddv_scf|^2 =  1.021E-08

      iter #   3 total cpu time :     2.4 secs   av.it.:   9.5
      thresh= 1.011E-05 alpha_mix =  0.700 |ddv_scf|^2 =  7.063E-10

      iter #   4 total cpu time :     2.6 secs   av.it.:   9.1
      thresh= 2.658E-06 alpha_mix =  0.700 |ddv_scf|^2 =  1.818E-12

      iter #   5 total cpu time :     2.8 secs   av.it.:   9.4
      thresh= 1.348E-07 alpha_mix =  0.700 |ddv_scf|^2 =  1.535E-14

     End of self-consistent calculation

     Convergence has been achieved 


     Representation #  2 modes #   4  5  6

     Self-consistent Calculation

      iter #   1 total cpu time :     3.0 secs   av.it.:   5.0
      thresh= 1.000E-02 alpha_mix =  0.700 |ddv_scf|^2 =  1.921E-07

      iter #   2 total cpu time :     3.2 secs   av.it.:   9.6
      thresh= 4.383E-05 alpha_mix =  0.700 |ddv_scf|^2 =  1.585E-08

      iter #   3 total cpu time :     3.5 secs   av.it.:   9.2
      thresh= 1.259E-05 alpha_mix =  0.700 |ddv_scf|^2 =  9.516E-10

      iter #   4 total cpu time :     3.7 secs   av.it.:   9.5
      thresh= 3.085E-06 alpha_mix =  0.700 |ddv_scf|^2 =  5.539E-12

      iter #   5 total cpu time :     3.9 secs   av.it.:   9.1
      thresh= 2.353E-07 alpha_mix =  0.700 |ddv_scf|^2 =  5.068E-15

     End of self-consistent calculation

     Convergence has been achieved 

     Number of q in the star =    1
     List of q in the star:
          1   0.000000000   0.000000000   0.000000000

          Dielectric constant in cartesian axis 

          (      14.010581942       0.000000000       0.000000000 )
          (       0.000000000      14.010581942       0.000000000 )
          (       0.000000000      -0.000000000      14.010581942 )

          Effective charges (d Force / dE) in cartesian axis

           atom      1   Si 
      Ex  (       -0.03364        0.00000        0.00000 )
      Ey  (        0.00000       -0.03364       -0.00000 )
      Ez  (        0.00000       -0.00000       -0.03364 )
           atom      2   Si 
      Ex  (       -0.03364        0.00000       -0.00000 )
      Ey  (       -0.00000       -0.03364        0.00000 )
      Ez  (       -0.00000        0.00000       -0.03364 )

          Effective charges (d P / du) in cartesian axis 

           atom      1   Si 
      Px  (       -0.07579       -0.00000       -0.00000 )
      Py  (       -0.00000       -0.07579        0.00000 )
      Pz  (       -0.00000        0.00000       -0.07579 )
           atom      2   Si 
      Px  (       -0.07579       -0.00000       -0.00000 )
      Py  (        0.00000       -0.07579        0.00000 )
      Pz  (       -0.00000        0.00000       -0.07579 )

     Diagonalizing the dynamical matrix

     q = (    0.000000000   0.000000000   0.000000000 ) 

 **************************************************************************
     freq (    1) =       1.793039 [THz] =      59.809348 [cm-1]
     freq (    2) =       1.793039 [THz] =      59.809348 [cm-1]
     freq (    3) =       1.793039 [THz] =      59.809348 [cm-1]
     freq (    4) =      15.585486 [THz] =     519.875845 [cm-1]
     freq (    5) =      15.585486 [THz] =     519.875845 [cm-1]
     freq (    6) =      15.585486 [THz] =     519.875845 [cm-1]
 **************************************************************************

     Mode symmetry, O_h (m-3m)  point group:

     freq (  1 -  3) =         59.8  [cm-1]   --> T_1u G_15  G_4- I  
     freq (  4 -  6) =        519.9  [cm-1]   --> T_2g G_25' G_5+ R  

     Calculation of q =   -0.2500000   0.2500000  -0.2500000

   Info: using nr1, nr2, nr3 values from input

   Info: using nr1, nr2, nr3 values from input

     Parallelization info
     --------------------
     sticks:   dense  smooth     PW     G-vecs:    dense   smooth      PW
     Min          66      66     24                  722      722     161
     Max          67      67     25                  724      724     162
     Sum         265     265     97                 2891     2891     645



     bravais-lattice index     =            2
     lattice parameter (alat)  =      10.3960  a.u.
     unit-cell volume          =     280.8916 (a.u.)^3
     number of atoms/cell      =            2
     number of atomic types    =            1
     number of electrons       =         8.00
     number of Kohn-Sham states=            4
     kinetic-energy cutoff     =      18.0000  Ry
     charge density cutoff     =      72.0000  Ry
     Exchange-correlation      = SLA  PW   PBE  PBE ( 1  4  3  4 0 0)

     celldm(1)=  10.396000  celldm(2)=   0.000000  celldm(3)=   0.000000
     celldm(4)=   0.000000  celldm(5)=   0.000000  celldm(6)=   0.000000

     crystal axes: (cart. coord. in units of alat)
               a(1) = (  -0.500000   0.000000   0.500000 )  
               a(2) = (   0.000000   0.500000   0.500000 )  
               a(3) = (  -0.500000   0.500000   0.000000 )  

     reciprocal axes: (cart. coord. in units 2 pi/alat)
               b(1) = ( -1.000000 -1.000000  1.000000 )  
               b(2) = (  1.000000  1.000000  1.000000 )  
               b(3) = ( -1.000000  1.000000 -1.000000 )  


     PseudoPot. # 1 for Si read from file:
     /home/max/quantum_espresso/qe-6.1/pseudo/si_pbe_v1.uspp.F.UPF.txt
     MD5 check sum: a056efeee980c13900f22a371efd63c1
     Pseudo is Ultrasoft + core correction, Zval =  4.0
     Generated by new atomic code, or converted to UPF format
     Using radial grid of  899 points,  6 beta functions with: 
                l(1) =   0
                l(2) =   0
                l(3) =   1
                l(4) =   1
                l(5) =   2
                l(6) =   2
     Q(r) pseudized with  8 coefficients,  rinner =    0.900   0.900   0.900
                                                       0.900   0.900

     atomic species   valence    mass     pseudopotential
        Si             4.00    28.08600     Si( 1.00)

     48 Sym. Ops., with inversion, found



   Cartesian axes

     site n.     atom                  positions (alat units)
         1           Si  tau(   1) = (   0.0000000   0.0000000   0.0000000  )
         2           Si  tau(   2) = (   0.2500000   0.2500000   0.2500000  )

     number of k points=   120

     Number of k-points >= 100: set verbosity='high' to print them.

     Dense  grid:     2891 G-vectors     FFT dimensions: (  20,  20,  20)

     Estimated max dynamical RAM per process >       0.33MB

     Estimated total allocated dynamical RAM >       1.33MB

     Check: negative/imaginary core charge=   -0.000006    0.000000

     The potential is recalculated from file :
     ./_ph0/silicon.10.396.save/charge-density.dat

     Starting wfc are    8 atomic wfcs

     Band Structure Calculation
     Davidson diagonalization with overlap

     ethr =  1.25E-10,  avg # of iterations = 11.7

     total cpu time spent up to now is        0.8 secs

     End of band structure calculation

     Number of k-points >= 100: set verbosity='high' to print the bands.

     highest occupied level (ev):     5.5214

     Writing output data file silicon.10.396.save

                                                                                

     bravais-lattice index     =            2
     lattice parameter (alat)  =      10.3960  a.u.
     unit-cell volume          =     280.8916 (a.u.)^3
     number of atoms/cell      =            2
     number of atomic types    =            1
     kinetic-energy cut-off    =      18.0000  Ry
     charge density cut-off    =      72.0000  Ry
     convergence threshold     =      1.0E-12
     beta                      =       0.7000
     number of iterations used =            4
     Exchange-correlation      = SLA  PW   PBE  PBE ( 1  4  3  4 0 0)


     celldm(1)=   10.39600  celldm(2)=    0.00000  celldm(3)=    0.00000
     celldm(4)=    0.00000  celldm(5)=    0.00000  celldm(6)=    0.00000

     crystal axes: (cart. coord. in units of alat)
               a(1) = ( -0.5000  0.0000  0.5000 )  
               a(2) = (  0.0000  0.5000  0.5000 )  
               a(3) = ( -0.5000  0.5000  0.0000 )  

     reciprocal axes: (cart. coord. in units 2 pi/alat)
               b(1) = ( -1.0000 -1.0000  1.0000 )  
               b(2) = (  1.0000  1.0000  1.0000 )  
               b(3) = ( -1.0000  1.0000 -1.0000 )  


     Atoms inside the unit cell: 

     Cartesian axes

     site n.  atom      mass           positions (alat units)
        1     Si  28.0860   tau(    1) = (    0.00000    0.00000    0.00000  )
        2     Si  28.0860   tau(    2) = (    0.25000    0.25000    0.25000  )

     Computing dynamical matrix for 
                    q = (  -0.2500000   0.2500000  -0.2500000 )

      6 Sym.Ops. (no q -> -q+G )


     G cutoff =  197.1085  (    722 G-vectors)     FFT grid: ( 20, 20, 20)
     number of k points=   120

     PseudoPot. # 1 for Si read from file:
     /home/max/quantum_espresso/qe-6.1/pseudo/si_pbe_v1.uspp.F.UPF.txt
     MD5 check sum: a056efeee980c13900f22a371efd63c1
     Pseudo is Ultrasoft + core correction, Zval =  4.0
     Generated by new atomic code, or converted to UPF format
     Using radial grid of  899 points,  6 beta functions with: 
                l(1) =   0
                l(2) =   0
                l(3) =   1
                l(4) =   1
                l(5) =   2
                l(6) =   2
     Q(r) pseudized with  8 coefficients,  rinner =    0.900   0.900   0.900
                                                       0.900   0.900

     Mode symmetry, C_3v (3m)   point group:


     Atomic displacements:
     There are   4 irreducible representations

     Representation     1      1 modes -A_1  L_1  To be done

     Representation     2      1 modes -A_1  L_1  To be done

     Representation     3      2 modes -E    L_3  To be done

     Representation     4      2 modes -E    L_3  To be done



     Alpha used in Ewald sum =   0.7000
     PHONON       :     4.88s CPU         5.09s WALL



     Representation #  1 mode #   1

     Self-consistent Calculation

      iter #   1 total cpu time :     5.5 secs   av.it.:   5.5
      thresh= 1.000E-02 alpha_mix =  0.700 |ddv_scf|^2 =  2.429E-03

      iter #   2 total cpu time :     5.7 secs   av.it.:   7.5
      thresh= 4.928E-03 alpha_mix =  0.700 |ddv_scf|^2 =  3.691E-02

      iter #   3 total cpu time :     5.9 secs   av.it.:   6.3
      thresh= 1.000E-02 alpha_mix =  0.700 |ddv_scf|^2 =  1.707E-06

      iter #   4 total cpu time :     6.2 secs   av.it.:   8.2
      thresh= 1.307E-04 alpha_mix =  0.700 |ddv_scf|^2 =  1.134E-07

      iter #   5 total cpu time :     6.5 secs   av.it.:   8.1
      thresh= 3.368E-05 alpha_mix =  0.700 |ddv_scf|^2 =  4.502E-09

      iter #   6 total cpu time :     6.7 secs   av.it.:   8.1
      thresh= 6.710E-06 alpha_mix =  0.700 |ddv_scf|^2 =  3.139E-09

      iter #   7 total cpu time :     6.9 secs   av.it.:   6.4
      thresh= 5.602E-06 alpha_mix =  0.700 |ddv_scf|^2 =  7.817E-10

      iter #   8 total cpu time :     7.2 secs   av.it.:   7.0
      thresh= 2.796E-06 alpha_mix =  0.700 |ddv_scf|^2 =  4.476E-12

      iter #   9 total cpu time :     7.6 secs   av.it.:   7.2
      thresh= 2.116E-07 alpha_mix =  0.700 |ddv_scf|^2 =  3.112E-13

     End of self-consistent calculation

     Convergence has been achieved 


     Representation #  2 mode #   2

     Self-consistent Calculation

      iter #   1 total cpu time :     7.8 secs   av.it.:   5.5
      thresh= 1.000E-02 alpha_mix =  0.700 |ddv_scf|^2 =  2.429E-03

      iter #   2 total cpu time :     8.1 secs   av.it.:   7.5
      thresh= 4.928E-03 alpha_mix =  0.700 |ddv_scf|^2 =  3.691E-02

      iter #   3 total cpu time :     8.3 secs   av.it.:   6.3
      thresh= 1.000E-02 alpha_mix =  0.700 |ddv_scf|^2 =  1.707E-06

      iter #   4 total cpu time :     8.5 secs   av.it.:   8.2
      thresh= 1.307E-04 alpha_mix =  0.700 |ddv_scf|^2 =  1.134E-07

      iter #   5 total cpu time :     8.8 secs   av.it.:   8.1
      thresh= 3.368E-05 alpha_mix =  0.700 |ddv_scf|^2 =  4.502E-09

      iter #   6 total cpu time :     9.0 secs   av.it.:   8.1
      thresh= 6.710E-06 alpha_mix =  0.700 |ddv_scf|^2 =  3.139E-09

      iter #   7 total cpu time :     9.4 secs   av.it.:   6.4
      thresh= 5.602E-06 alpha_mix =  0.700 |ddv_scf|^2 =  7.817E-10

      iter #   8 total cpu time :     9.7 secs   av.it.:   7.0
      thresh= 2.796E-06 alpha_mix =  0.700 |ddv_scf|^2 =  4.476E-12

      iter #   9 total cpu time :     9.9 secs   av.it.:   7.2
      thresh= 2.116E-07 alpha_mix =  0.700 |ddv_scf|^2 =  3.112E-13

     End of self-consistent calculation

     Convergence has been achieved 


     Representation #  3 modes #   3  4

     Self-consistent Calculation

      iter #   1 total cpu time :    10.3 secs   av.it.:   4.9
      thresh= 1.000E-02 alpha_mix =  0.700 |ddv_scf|^2 =  5.350E-07

      iter #   2 total cpu time :    10.9 secs   av.it.:   9.6
      thresh= 7.314E-05 alpha_mix =  0.700 |ddv_scf|^2 =  4.008E-08

      iter #   3 total cpu time :    11.6 secs   av.it.:   9.3
      thresh= 2.002E-05 alpha_mix =  0.700 |ddv_scf|^2 =  3.446E-09

      iter #   4 total cpu time :    12.2 secs   av.it.:   9.0
      thresh= 5.870E-06 alpha_mix =  0.700 |ddv_scf|^2 =  1.139E-11

      iter #   5 total cpu time :    12.7 secs   av.it.:   9.2
      thresh= 3.375E-07 alpha_mix =  0.700 |ddv_scf|^2 =  5.090E-13

     End of self-consistent calculation

     Convergence has been achieved 


     Representation #  4 modes #   5  6

     Self-consistent Calculation

      iter #   1 total cpu time :    13.2 secs   av.it.:   5.0
      thresh= 1.000E-02 alpha_mix =  0.700 |ddv_scf|^2 =  5.349E-07

      iter #   2 total cpu time :    13.9 secs   av.it.:   9.7
      thresh= 7.313E-05 alpha_mix =  0.700 |ddv_scf|^2 =  4.003E-08

      iter #   3 total cpu time :    14.5 secs   av.it.:   9.4
      thresh= 2.001E-05 alpha_mix =  0.700 |ddv_scf|^2 =  3.443E-09

      iter #   4 total cpu time :    15.0 secs   av.it.:   9.1
      thresh= 5.867E-06 alpha_mix =  0.700 |ddv_scf|^2 =  1.139E-11

      iter #   5 total cpu time :    15.8 secs   av.it.:   9.3
      thresh= 3.376E-07 alpha_mix =  0.700 |ddv_scf|^2 =  5.094E-13

     End of self-consistent calculation

     Convergence has been achieved 

     Number of q in the star =    8
     List of q in the star:
          1  -0.250000000   0.250000000  -0.250000000
          2   0.250000000  -0.250000000  -0.250000000
          3   0.250000000  -0.250000000   0.250000000
          4   0.250000000   0.250000000   0.250000000
          5  -0.250000000  -0.250000000  -0.250000000
          6  -0.250000000  -0.250000000   0.250000000
          7  -0.250000000   0.250000000   0.250000000
          8   0.250000000   0.250000000  -0.250000000

     Diagonalizing the dynamical matrix

     q = (   -0.250000000   0.250000000  -0.250000000 ) 

 **************************************************************************
     freq (    1) =       3.412018 [THz] =     113.812680 [cm-1]
     freq (    2) =       3.412018 [THz] =     113.812680 [cm-1]
     freq (    3) =       6.806358 [THz] =     227.035664 [cm-1]
     freq (    4) =      14.680376 [THz] =     489.684643 [cm-1]
     freq (    5) =      14.963582 [THz] =     499.131383 [cm-1]
     freq (    6) =      14.963582 [THz] =     499.131383 [cm-1]
 **************************************************************************

     Mode symmetry, C_3v (3m)   point group:

     freq (  1 -  2) =        113.8  [cm-1]   --> E    L_3           
     freq (  3 -  3) =        227.0  [cm-1]   --> A_1  L_1           
     freq (  4 -  4) =        489.7  [cm-1]   --> A_1  L_1           
     freq (  5 -  6) =        499.1  [cm-1]   --> E    L_3           

     Calculation of q =    0.5000000  -0.5000000   0.5000000

   Info: using nr1, nr2, nr3 values from input

   Info: using nr1, nr2, nr3 values from input

     Parallelization info
     --------------------
     sticks:   dense  smooth     PW     G-vecs:    dense   smooth      PW
     Min          66      66     27                  722      722     186
     Max          67      67     28                  724      724     189
     Sum         265     265    109                 2891     2891     749



     bravais-lattice index     =            2
     lattice parameter (alat)  =      10.3960  a.u.
     unit-cell volume          =     280.8916 (a.u.)^3
     number of atoms/cell      =            2
     number of atomic types    =            1
     number of electrons       =         8.00
     number of Kohn-Sham states=            4
     kinetic-energy cutoff     =      18.0000  Ry
     charge density cutoff     =      72.0000  Ry
     Exchange-correlation      = SLA  PW   PBE  PBE ( 1  4  3  4 0 0)

     celldm(1)=  10.396000  celldm(2)=   0.000000  celldm(3)=   0.000000
     celldm(4)=   0.000000  celldm(5)=   0.000000  celldm(6)=   0.000000

     crystal axes: (cart. coord. in units of alat)
               a(1) = (  -0.500000   0.000000   0.500000 )  
               a(2) = (   0.000000   0.500000   0.500000 )  
               a(3) = (  -0.500000   0.500000   0.000000 )  

     reciprocal axes: (cart. coord. in units 2 pi/alat)
               b(1) = ( -1.000000 -1.000000  1.000000 )  
               b(2) = (  1.000000  1.000000  1.000000 )  
               b(3) = ( -1.000000  1.000000 -1.000000 )  


     PseudoPot. # 1 for Si read from file:
     /home/max/quantum_espresso/qe-6.1/pseudo/si_pbe_v1.uspp.F.UPF.txt
     MD5 check sum: a056efeee980c13900f22a371efd63c1
     Pseudo is Ultrasoft + core correction, Zval =  4.0
     Generated by new atomic code, or converted to UPF format
     Using radial grid of  899 points,  6 beta functions with: 
                l(1) =   0
                l(2) =   0
                l(3) =   1
                l(4) =   1
                l(5) =   2
                l(6) =   2
     Q(r) pseudized with  8 coefficients,  rinner =    0.900   0.900   0.900
                                                       0.900   0.900

     atomic species   valence    mass     pseudopotential
        Si             4.00    28.08600     Si( 1.00)

     48 Sym. Ops., with inversion, found



   Cartesian axes

     site n.     atom                  positions (alat units)
         1           Si  tau(   1) = (   0.0000000   0.0000000   0.0000000  )
         2           Si  tau(   2) = (   0.2500000   0.2500000   0.2500000  )

     number of k points=    60
                       cart. coord. in units 2pi/alat
        k(    1) = (  -0.1250000   0.1250000   0.1250000), wk =   0.0468750
        k(    2) = (   0.3750000  -0.3750000   0.6250000), wk =   0.0000000
        k(    3) = (  -0.3750000   0.3750000  -0.1250000), wk =   0.0468750
        k(    4) = (   0.1250000  -0.1250000   0.3750000), wk =   0.0000000
        k(    5) = (   0.3750000  -0.3750000   0.6250000), wk =   0.0468750
        k(    6) = (   0.8750000  -0.8750000   1.1250000), wk =   0.0000000
        k(    7) = (   0.1250000  -0.1250000   0.3750000), wk =   0.0468750
        k(    8) = (   0.6250000  -0.6250000   0.8750000), wk =   0.0000000
        k(    9) = (  -0.1250000   0.6250000   0.1250000), wk =   0.0937500
        k(   10) = (   0.3750000   0.1250000   0.6250000), wk =   0.0000000
        k(   11) = (   0.6250000  -0.1250000   0.8750000), wk =   0.0937500
        k(   12) = (   1.1250000  -0.6250000   1.3750000), wk =   0.0000000
        k(   13) = (   0.3750000   0.1250000   0.6250000), wk =   0.0937500
        k(   14) = (   0.8750000  -0.3750000   1.1250000), wk =   0.0000000
        k(   15) = (  -0.1250000  -0.8750000   0.1250000), wk =   0.0937500
        k(   16) = (   0.3750000  -1.3750000   0.6250000), wk =   0.0000000
        k(   17) = (  -0.3750000   0.3750000   0.3750000), wk =   0.0468750
        k(   18) = (   0.1250000  -0.1250000   0.8750000), wk =   0.0000000
        k(   19) = (   0.3750000  -0.3750000   1.1250000), wk =   0.0468750
        k(   20) = (   0.8750000  -0.8750000   1.6250000), wk =   0.0000000
        k(   21) = (   0.1250000  -0.1250000   0.1250000), wk =   0.0156250
        k(   22) = (   0.6250000  -0.6250000   0.6250000), wk =   0.0000000
        k(   23) = (  -0.3750000  -0.3750000  -0.1250000), wk =   0.0937500
        k(   24) = (   0.1250000  -0.8750000   0.3750000), wk =   0.0000000
        k(   25) = (  -0.1250000  -0.3750000   0.3750000), wk =   0.0468750
        k(   26) = (   0.3750000  -0.8750000   0.8750000), wk =   0.0000000
        k(   27) = (   0.3750000   0.3750000   0.6250000), wk =   0.0937500
        k(   28) = (   0.8750000  -0.1250000   1.1250000), wk =   0.0000000
        k(   29) = (   0.6250000   0.3750000  -0.3750000), wk =   0.0468750
        k(   30) = (   1.1250000  -0.1250000   0.1250000), wk =   0.0000000
        k(   31) = (   0.1250000   0.1250000   0.3750000), wk =   0.0937500
        k(   32) = (   0.6250000  -0.3750000   0.8750000), wk =   0.0000000
        k(   33) = (   0.3750000   0.1250000  -0.1250000), wk =   0.0468750
        k(   34) = (   0.8750000  -0.3750000   0.3750000), wk =   0.0000000
        k(   35) = (  -0.1250000  -0.6250000  -0.1250000), wk =   0.0468750
        k(   36) = (   0.3750000  -1.1250000   0.3750000), wk =   0.0000000
        k(   37) = (   0.1250000  -0.6250000   0.1250000), wk =   0.0468750
        k(   38) = (   0.6250000  -1.1250000   0.6250000), wk =   0.0000000
        k(   39) = (   0.6250000   0.1250000   0.8750000), wk =   0.0937500
        k(   40) = (   1.1250000  -0.3750000   1.3750000), wk =   0.0000000
        k(   41) = (  -0.8750000   0.1250000   0.6250000), wk =   0.0937500
        k(   42) = (  -0.3750000  -0.3750000   1.1250000), wk =   0.0000000
        k(   43) = (   0.8750000   0.1250000  -0.6250000), wk =   0.0937500
        k(   44) = (   1.3750000  -0.3750000  -0.1250000), wk =   0.0000000
        k(   45) = (   0.3750000  -0.1250000   0.6250000), wk =   0.0937500
        k(   46) = (   0.8750000  -0.6250000   1.1250000), wk =   0.0000000
        k(   47) = (  -0.6250000  -0.1250000   0.3750000), wk =   0.0937500
        k(   48) = (  -0.1250000  -0.6250000   0.8750000), wk =   0.0000000
        k(   49) = (   0.6250000  -0.1250000  -0.3750000), wk =   0.0937500
        k(   50) = (   1.1250000  -0.6250000   0.1250000), wk =   0.0000000
        k(   51) = (  -0.1250000   0.8750000  -0.1250000), wk =   0.0468750
        k(   52) = (   0.3750000   0.3750000   0.3750000), wk =   0.0000000
        k(   53) = (   0.1250000   0.8750000   0.1250000), wk =   0.0468750
        k(   54) = (   0.6250000   0.3750000   0.6250000), wk =   0.0000000
        k(   55) = (   0.3750000  -0.3750000   0.3750000), wk =   0.0156250
        k(   56) = (   0.8750000  -0.8750000   0.8750000), wk =   0.0000000
        k(   57) = (   0.3750000   0.3750000   1.1250000), wk =   0.0937500
        k(   58) = (   0.8750000  -0.1250000   1.6250000), wk =   0.0000000
        k(   59) = (   1.1250000   0.3750000  -0.3750000), wk =   0.0468750
        k(   60) = (   1.6250000  -0.1250000   0.1250000), wk =   0.0000000

     Dense  grid:     2891 G-vectors     FFT dimensions: (  20,  20,  20)

     Estimated max dynamical RAM per process >       0.33MB

     Estimated total allocated dynamical RAM >       1.33MB

     Check: negative/imaginary core charge=   -0.000006    0.000000

     The potential is recalculated from file :
     ./_ph0/silicon.10.396.save/charge-density.dat

     Starting wfc are    8 atomic wfcs

     Band Structure Calculation
     Davidson diagonalization with overlap

     ethr =  1.25E-10,  avg # of iterations = 11.7

     total cpu time spent up to now is        1.3 secs

     End of band structure calculation

          k =-0.1250 0.1250 0.1250 (   347 PWs)   bands (ev):

    -5.6962   4.2112   5.5214   5.5214

          k = 0.3750-0.3750 0.6250 (   364 PWs)   bands (ev):

    -3.5781  -0.7844   3.5815   4.2892

          k =-0.3750 0.3750-0.1250 (   356 PWs)   bands (ev):

    -4.6888   1.2489   3.5715   5.0443

          k = 0.1250-0.1250 0.3750 (   358 PWs)   bands (ev):

    -5.1781   2.6005   4.5337   4.5870

          k = 0.3750-0.3750 0.6250 (   364 PWs)   bands (ev):

    -3.5781  -0.7844   3.5815   4.2892

          k = 0.8750-0.8750 1.1250 (   347 PWs)   bands (ev):

    -5.6962   4.2112   5.5214   5.5214

          k = 0.1250-0.1250 0.3750 (   358 PWs)   bands (ev):

    -5.1781   2.6005   4.5337   4.5870

          k = 0.6250-0.6250 0.8750 (   356 PWs)   bands (ev):

    -4.6888   1.2489   3.5715   5.0443

          k =-0.1250 0.6250 0.1250 (   357 PWs)   bands (ev):

    -4.1653   0.8946   3.2338   3.6743

          k = 0.3750 0.1250 0.6250 (   362 PWs)   bands (ev):

    -3.7602   0.0490   2.6016   3.9458

          k = 0.6250-0.1250 0.8750 (   368 PWs)   bands (ev):

    -2.5619  -1.0395   1.9163   2.9671

          k = 1.1250-0.6250 1.3750 (   356 PWs)   bands (ev):

    -4.6888   1.2489   3.5715   5.0443

          k = 0.3750 0.1250 0.6250 (   362 PWs)   bands (ev):

    -3.7602   0.0490   2.6016   3.9458

          k = 0.8750-0.3750 1.1250 (   357 PWs)   bands (ev):

    -4.1653   0.8946   3.2338   3.6743

          k =-0.1250-0.8750 0.1250 (   362 PWs)   bands (ev):

    -2.7207  -0.9463   2.5099   3.2148

          k = 0.3750-1.3750 0.6250 (   364 PWs)   bands (ev):

    -3.5781  -0.7844   3.5815   4.2892

          k =-0.3750 0.3750 0.3750 (   359 PWs)   bands (ev):

    -4.2667  -0.0087   4.7430   4.7430

          k = 0.1250-0.1250 0.8750 (   362 PWs)   bands (ev):

    -2.7207  -0.9463   2.5099   3.2148

          k = 0.3750-0.3750 1.1250 (   365 PWs)   bands (ev):

    -3.0907  -0.7243   1.9657   3.9797

          k = 0.8750-0.8750 1.6250 (   357 PWs)   bands (ev):

    -4.1653   0.8946   3.2338   3.6743

          k = 0.1250-0.1250 0.1250 (   347 PWs)   bands (ev):

    -5.6962   4.2112   5.5214   5.5214

          k = 0.6250-0.6250 0.6250 (   359 PWs)   bands (ev):

    -4.2667  -0.0087   4.7430   4.7430

          k =-0.3750-0.3750-0.1250 (   356 PWs)   bands (ev):

    -4.6888   1.2489   3.5715   5.0443

          k = 0.1250-0.8750 0.3750 (   368 PWs)   bands (ev):

    -2.5619  -1.0395   1.9163   2.9671

          k =-0.1250-0.3750 0.3750 (   356 PWs)   bands (ev):

    -4.6888   1.2489   3.5715   5.0443

          k = 0.3750-0.8750 0.8750 (   357 PWs)   bands (ev):

    -4.1653   0.8946   3.2338   3.6743

          k = 0.3750 0.3750 0.6250 (   364 PWs)   bands (ev):

    -3.5781  -0.7844   3.5815   4.2892

          k = 0.8750-0.1250 1.1250 (   362 PWs)   bands (ev):

    -2.7207  -0.9463   2.5099   3.2148

          k = 0.6250 0.3750-0.3750 (   364 PWs)   bands (ev):

    -3.5781  -0.7844   3.5815   4.2892

          k = 1.1250-0.1250 0.1250 (   362 PWs)   bands (ev):

    -2.7207  -0.9463   2.5099   3.2148

          k = 0.1250 0.1250 0.3750 (   358 PWs)   bands (ev):

    -5.1781   2.6005   4.5337   4.5870

          k = 0.6250-0.3750 0.8750 (   362 PWs)   bands (ev):

    -3.7602   0.0490   2.6016   3.9458

          k = 0.3750 0.1250-0.1250 (   358 PWs)   bands (ev):

    -5.1781   2.6005   4.5337   4.5870

          k = 0.8750-0.3750 0.3750 (   365 PWs)   bands (ev):

    -3.0907  -0.7243   1.9657   3.9797

          k =-0.1250-0.6250-0.1250 (   357 PWs)   bands (ev):

    -4.1653   0.8946   3.2338   3.6743

          k = 0.3750-1.1250 0.3750 (   365 PWs)   bands (ev):

    -3.0907  -0.7243   1.9657   3.9797

          k = 0.1250-0.6250 0.1250 (   357 PWs)   bands (ev):

    -4.1653   0.8946   3.2338   3.6743

          k = 0.6250-1.1250 0.6250 (   356 PWs)   bands (ev):

    -4.6888   1.2489   3.5715   5.0443

          k = 0.6250 0.1250 0.8750 (   368 PWs)   bands (ev):

    -2.5619  -1.0395   1.9163   2.9671

          k = 1.1250-0.3750 1.3750 (   362 PWs)   bands (ev):

    -3.7602   0.0490   2.6016   3.9458

          k =-0.8750 0.1250 0.6250 (   368 PWs)   bands (ev):

    -2.5619  -1.0395   1.9163   2.9671

          k =-0.3750-0.3750 1.1250 (   365 PWs)   bands (ev):

    -3.0907  -0.7243   1.9657   3.9797

          k = 0.8750 0.1250-0.6250 (   368 PWs)   bands (ev):

    -2.5619  -1.0395   1.9163   2.9671

          k = 1.3750-0.3750-0.1250 (   362 PWs)   bands (ev):

    -3.7602   0.0490   2.6016   3.9458

          k = 0.3750-0.1250 0.6250 (   362 PWs)   bands (ev):

    -3.7602   0.0490   2.6016   3.9458

          k = 0.8750-0.6250 1.1250 (   358 PWs)   bands (ev):

    -5.1781   2.6005   4.5337   4.5870

          k =-0.6250-0.1250 0.3750 (   362 PWs)   bands (ev):

    -3.7602   0.0490   2.6016   3.9458

          k =-0.1250-0.6250 0.8750 (   368 PWs)   bands (ev):

    -2.5619  -1.0395   1.9163   2.9671

          k = 0.6250-0.1250-0.3750 (   362 PWs)   bands (ev):

    -3.7602   0.0490   2.6016   3.9458

          k = 1.1250-0.6250 0.1250 (   368 PWs)   bands (ev):

    -2.5619  -1.0395   1.9163   2.9671

          k =-0.1250 0.8750-0.1250 (   362 PWs)   bands (ev):

    -2.7207  -0.9463   2.5099   3.2148

          k = 0.3750 0.3750 0.3750 (   359 PWs)   bands (ev):

    -4.2667  -0.0087   4.7430   4.7430

          k = 0.1250 0.8750 0.1250 (   362 PWs)   bands (ev):

    -2.7207  -0.9463   2.5099   3.2148

          k = 0.6250 0.3750 0.6250 (   364 PWs)   bands (ev):

    -3.5781  -0.7844   3.5815   4.2892

          k = 0.3750-0.3750 0.3750 (   359 PWs)   bands (ev):

    -4.2667  -0.0087   4.7430   4.7430

          k = 0.8750-0.8750 0.8750 (   347 PWs)   bands (ev):

    -5.6962   4.2112   5.5214   5.5214

          k = 0.3750 0.3750 1.1250 (   365 PWs)   bands (ev):

    -3.0907  -0.7243   1.9657   3.9797

          k = 0.8750-0.1250 1.6250 (   368 PWs)   bands (ev):

    -2.5619  -1.0395   1.9163   2.9671

          k = 1.1250 0.3750-0.3750 (   365 PWs)   bands (ev):

    -3.0907  -0.7243   1.9657   3.9797

          k = 1.6250-0.1250 0.1250 (   358 PWs)   bands (ev):

    -5.1781   2.6005   4.5337   4.5870

     highest occupied level (ev):     5.5214

     Writing output data file silicon.10.396.save

                                                                                

     bravais-lattice index     =            2
     lattice parameter (alat)  =      10.3960  a.u.
     unit-cell volume          =     280.8916 (a.u.)^3
     number of atoms/cell      =            2
     number of atomic types    =            1
     kinetic-energy cut-off    =      18.0000  Ry
     charge density cut-off    =      72.0000  Ry
     convergence threshold     =      1.0E-12
     beta                      =       0.7000
     number of iterations used =            4
     Exchange-correlation      = SLA  PW   PBE  PBE ( 1  4  3  4 0 0)


     celldm(1)=   10.39600  celldm(2)=    0.00000  celldm(3)=    0.00000
     celldm(4)=    0.00000  celldm(5)=    0.00000  celldm(6)=    0.00000

     crystal axes: (cart. coord. in units of alat)
               a(1) = ( -0.5000  0.0000  0.5000 )  
               a(2) = (  0.0000  0.5000  0.5000 )  
               a(3) = ( -0.5000  0.5000  0.0000 )  

     reciprocal axes: (cart. coord. in units 2 pi/alat)
               b(1) = ( -1.0000 -1.0000  1.0000 )  
               b(2) = (  1.0000  1.0000  1.0000 )  
               b(3) = ( -1.0000  1.0000 -1.0000 )  


     Atoms inside the unit cell: 

     Cartesian axes

     site n.  atom      mass           positions (alat units)
        1     Si  28.0860   tau(    1) = (    0.00000    0.00000    0.00000  )
        2     Si  28.0860   tau(    2) = (    0.25000    0.25000    0.25000  )

     Computing dynamical matrix for 
                    q = (   0.5000000  -0.5000000   0.5000000 )

     13 Sym.Ops. (with q -> -q+G )


     G cutoff =  197.1085  (    722 G-vectors)     FFT grid: ( 20, 20, 20)
     number of k points=    60

     PseudoPot. # 1 for Si read from file:
     /home/max/quantum_espresso/qe-6.1/pseudo/si_pbe_v1.uspp.F.UPF.txt
     MD5 check sum: a056efeee980c13900f22a371efd63c1
     Pseudo is Ultrasoft + core correction, Zval =  4.0
     Generated by new atomic code, or converted to UPF format
     Using radial grid of  899 points,  6 beta functions with: 
                l(1) =   0
                l(2) =   0
                l(3) =   1
                l(4) =   1
                l(5) =   2
                l(6) =   2
     Q(r) pseudized with  8 coefficients,  rinner =    0.900   0.900   0.900
                                                       0.900   0.900


     Atomic displacements:
     There are   4 irreducible representations

     Representation     1      1 modes -  To be done

     Representation     2      1 modes -  To be done

     Representation     3      2 modes -  To be done

     Representation     4      2 modes -  To be done



     Alpha used in Ewald sum =   0.7000
     PHONON       :    15.53s CPU        16.52s WALL



     Representation #  1 mode #   1

     Self-consistent Calculation

      iter #   1 total cpu time :    16.6 secs   av.it.:   4.8
      thresh= 1.000E-02 alpha_mix =  0.700 |ddv_scf|^2 =  2.436E-05

      iter #   2 total cpu time :    16.8 secs   av.it.:   8.4
      thresh= 4.935E-04 alpha_mix =  0.700 |ddv_scf|^2 =  2.219E-05

      iter #   3 total cpu time :    16.9 secs   av.it.:   7.5
      thresh= 4.711E-04 alpha_mix =  0.700 |ddv_scf|^2 =  3.823E-08

      iter #   4 total cpu time :    17.0 secs   av.it.:   7.6
      thresh= 1.955E-05 alpha_mix =  0.700 |ddv_scf|^2 =  1.436E-10

      iter #   5 total cpu time :    17.2 secs   av.it.:   7.8
      thresh= 1.198E-06 alpha_mix =  0.700 |ddv_scf|^2 =  5.559E-12

      iter #   6 total cpu time :    17.5 secs   av.it.:   7.5
      thresh= 2.358E-07 alpha_mix =  0.700 |ddv_scf|^2 =  1.263E-13

     End of self-consistent calculation

     Convergence has been achieved 


     Representation #  2 mode #   2

     Self-consistent Calculation

      iter #   1 total cpu time :    17.6 secs   av.it.:   5.6
      thresh= 1.000E-02 alpha_mix =  0.700 |ddv_scf|^2 =  3.427E-04

      iter #   2 total cpu time :    17.8 secs   av.it.:   8.3
      thresh= 1.851E-03 alpha_mix =  0.700 |ddv_scf|^2 =  1.055E-03

      iter #   3 total cpu time :    17.9 secs   av.it.:   7.1
      thresh= 3.248E-03 alpha_mix =  0.700 |ddv_scf|^2 =  1.615E-07

      iter #   4 total cpu time :    18.0 secs   av.it.:   8.1
      thresh= 4.019E-05 alpha_mix =  0.700 |ddv_scf|^2 =  9.715E-09

      iter #   5 total cpu time :    18.2 secs   av.it.:   8.4
      thresh= 9.856E-06 alpha_mix =  0.700 |ddv_scf|^2 =  2.215E-10

      iter #   6 total cpu time :    18.3 secs   av.it.:   8.1
      thresh= 1.488E-06 alpha_mix =  0.700 |ddv_scf|^2 =  9.245E-12

      iter #   7 total cpu time :    18.5 secs   av.it.:   6.9
      thresh= 3.041E-07 alpha_mix =  0.700 |ddv_scf|^2 =  1.440E-14

     End of self-consistent calculation

     Convergence has been achieved 


     Representation #  3 modes #   3  4

     Self-consistent Calculation

      iter #   1 total cpu time :    18.7 secs   av.it.:   4.7
      thresh= 1.000E-02 alpha_mix =  0.700 |ddv_scf|^2 =  3.406E-07

      iter #   2 total cpu time :    19.0 secs   av.it.:   9.0
      thresh= 5.836E-05 alpha_mix =  0.700 |ddv_scf|^2 =  2.934E-08

      iter #   3 total cpu time :    19.3 secs   av.it.:   8.3
      thresh= 1.713E-05 alpha_mix =  0.700 |ddv_scf|^2 =  5.111E-10

      iter #   4 total cpu time :    19.7 secs   av.it.:   8.9
      thresh= 2.261E-06 alpha_mix =  0.700 |ddv_scf|^2 =  6.434E-12

      iter #   5 total cpu time :    20.0 secs   av.it.:   8.7
      thresh= 2.537E-07 alpha_mix =  0.700 |ddv_scf|^2 =  3.574E-14

     End of self-consistent calculation

     Convergence has been achieved 


     Representation #  4 modes #   5  6

     Self-consistent Calculation

      iter #   1 total cpu time :    20.2 secs   av.it.:   4.9
      thresh= 1.000E-02 alpha_mix =  0.700 |ddv_scf|^2 =  9.411E-07

      iter #   2 total cpu time :    20.5 secs   av.it.:   9.5
      thresh= 9.701E-05 alpha_mix =  0.700 |ddv_scf|^2 =  7.480E-08

      iter #   3 total cpu time :    20.8 secs   av.it.:   9.3
      thresh= 2.735E-05 alpha_mix =  0.700 |ddv_scf|^2 =  4.457E-09

      iter #   4 total cpu time :    21.1 secs   av.it.:   8.5
      thresh= 6.676E-06 alpha_mix =  0.700 |ddv_scf|^2 =  6.495E-12

      iter #   5 total cpu time :    21.6 secs   av.it.:   8.8
      thresh= 2.548E-07 alpha_mix =  0.700 |ddv_scf|^2 =  2.531E-14

     End of self-consistent calculation

     Convergence has been achieved 

     Number of q in the star =    4
     List of q in the star:
          1   0.500000000  -0.500000000   0.500000000
          2   0.500000000   0.500000000   0.500000000
          3  -0.500000000   0.500000000   0.500000000
          4   0.500000000   0.500000000  -0.500000000

     Diagonalizing the dynamical matrix

     q = (    0.500000000  -0.500000000   0.500000000 ) 

 **************************************************************************
     freq (    1) =       5.092048 [THz] =     169.852433 [cm-1]
     freq (    2) =       5.092048 [THz] =     169.852433 [cm-1]
     freq (    3) =      11.877068 [THz] =     396.176337 [cm-1]
     freq (    4) =      12.177915 [THz] =     406.211514 [cm-1]
     freq (    5) =      14.731611 [THz] =     491.393636 [cm-1]
     freq (    6) =      14.731611 [THz] =     491.393636 [cm-1]
 **************************************************************************

     Calculation of q =    0.0000000   0.5000000   0.0000000

   Info: using nr1, nr2, nr3 values from input

   Info: using nr1, nr2, nr3 values from input

     Parallelization info
     --------------------
     sticks:   dense  smooth     PW     G-vecs:    dense   smooth      PW
     Min          66      66     27                  722      722     181
     Max          67      67     28                  724      724     182
     Sum         265     265    109                 2891     2891     725



     bravais-lattice index     =            2
     lattice parameter (alat)  =      10.3960  a.u.
     unit-cell volume          =     280.8916 (a.u.)^3
     number of atoms/cell      =            2
     number of atomic types    =            1
     number of electrons       =         8.00
     number of Kohn-Sham states=            4
     kinetic-energy cutoff     =      18.0000  Ry
     charge density cutoff     =      72.0000  Ry
     Exchange-correlation      = SLA  PW   PBE  PBE ( 1  4  3  4 0 0)

     celldm(1)=  10.396000  celldm(2)=   0.000000  celldm(3)=   0.000000
     celldm(4)=   0.000000  celldm(5)=   0.000000  celldm(6)=   0.000000

     crystal axes: (cart. coord. in units of alat)
               a(1) = (  -0.500000   0.000000   0.500000 )  
               a(2) = (   0.000000   0.500000   0.500000 )  
               a(3) = (  -0.500000   0.500000   0.000000 )  

     reciprocal axes: (cart. coord. in units 2 pi/alat)
               b(1) = ( -1.000000 -1.000000  1.000000 )  
               b(2) = (  1.000000  1.000000  1.000000 )  
               b(3) = ( -1.000000  1.000000 -1.000000 )  


     PseudoPot. # 1 for Si read from file:
     /home/max/quantum_espresso/qe-6.1/pseudo/si_pbe_v1.uspp.F.UPF.txt
     MD5 check sum: a056efeee980c13900f22a371efd63c1
     Pseudo is Ultrasoft + core correction, Zval =  4.0
     Generated by new atomic code, or converted to UPF format
     Using radial grid of  899 points,  6 beta functions with: 
                l(1) =   0
                l(2) =   0
                l(3) =   1
                l(4) =   1
                l(5) =   2
                l(6) =   2
     Q(r) pseudized with  8 coefficients,  rinner =    0.900   0.900   0.900
                                                       0.900   0.900

     atomic species   valence    mass     pseudopotential
        Si             4.00    28.08600     Si( 1.00)

     48 Sym. Ops., with inversion, found



   Cartesian axes

     site n.     atom                  positions (alat units)
         1           Si  tau(   1) = (   0.0000000   0.0000000   0.0000000  )
         2           Si  tau(   2) = (   0.2500000   0.2500000   0.2500000  )

     number of k points=    80
                       cart. coord. in units 2pi/alat
        k(    1) = (  -0.1250000   0.1250000   0.1250000), wk =   0.0312500
        k(    2) = (  -0.1250000   0.6250000   0.1250000), wk =   0.0000000
        k(    3) = (  -0.3750000   0.3750000  -0.1250000), wk =   0.0625000
        k(    4) = (  -0.3750000   0.8750000  -0.1250000), wk =   0.0000000
        k(    5) = (   0.3750000  -0.3750000   0.6250000), wk =   0.0625000
        k(    6) = (   0.3750000   0.1250000   0.6250000), wk =   0.0000000
        k(    7) = (   0.1250000  -0.1250000   0.3750000), wk =   0.0625000
        k(    8) = (   0.1250000   0.3750000   0.3750000), wk =   0.0000000
        k(    9) = (  -0.1250000   0.6250000   0.1250000), wk =   0.0312500
        k(   10) = (  -0.1250000   1.1250000   0.1250000), wk =   0.0000000
        k(   11) = (   0.6250000  -0.1250000   0.8750000), wk =   0.0625000
        k(   12) = (   0.6250000   0.3750000   0.8750000), wk =   0.0000000
        k(   13) = (   0.3750000   0.1250000   0.6250000), wk =   0.0625000
        k(   14) = (   0.3750000   0.6250000   0.6250000), wk =   0.0000000
        k(   15) = (  -0.1250000  -0.8750000   0.1250000), wk =   0.0312500
        k(   16) = (  -0.1250000  -0.3750000   0.1250000), wk =   0.0000000
        k(   17) = (  -0.3750000   0.3750000   0.3750000), wk =   0.0312500
        k(   18) = (  -0.3750000   0.8750000   0.3750000), wk =   0.0000000
        k(   19) = (   0.3750000  -0.3750000   1.1250000), wk =   0.0625000
        k(   20) = (   0.3750000   0.1250000   1.1250000), wk =   0.0000000
        k(   21) = (  -0.1250000  -0.1250000   0.1250000), wk =   0.0312500
        k(   22) = (  -0.1250000   0.3750000   0.1250000), wk =   0.0000000
        k(   23) = (   0.1250000  -0.3750000   0.3750000), wk =   0.0625000
        k(   24) = (   0.1250000   0.1250000   0.3750000), wk =   0.0000000
        k(   25) = (   0.3750000  -0.1250000   0.3750000), wk =   0.0312500
        k(   26) = (   0.3750000   0.3750000   0.3750000), wk =   0.0000000
        k(   27) = (   0.3750000   0.1250000   0.3750000), wk =   0.0312500
        k(   28) = (   0.3750000   0.6250000   0.3750000), wk =   0.0000000
        k(   29) = (  -0.6250000   0.3750000  -0.3750000), wk =   0.0625000
        k(   30) = (  -0.6250000   0.8750000  -0.3750000), wk =   0.0000000
        k(   31) = (  -0.3750000   0.6250000  -0.3750000), wk =   0.0312500
        k(   32) = (  -0.3750000   1.1250000  -0.3750000), wk =   0.0000000
        k(   33) = (  -0.3750000  -0.6250000  -0.3750000), wk =   0.0312500
        k(   34) = (  -0.3750000  -0.1250000  -0.3750000), wk =   0.0000000
        k(   35) = (  -0.3750000   0.1250000  -0.1250000), wk =   0.0625000
        k(   36) = (  -0.3750000   0.6250000  -0.1250000), wk =   0.0000000
        k(   37) = (  -0.1250000   0.3750000  -0.1250000), wk =   0.0312500
        k(   38) = (  -0.1250000   0.8750000  -0.1250000), wk =   0.0000000
        k(   39) = (  -0.1250000  -0.3750000  -0.1250000), wk =   0.0312500
        k(   40) = (  -0.1250000   0.1250000  -0.1250000), wk =   0.0000000
        k(   41) = (  -0.1250000  -0.6250000   0.1250000), wk =   0.0312500
        k(   42) = (  -0.1250000  -0.1250000   0.1250000), wk =   0.0000000
        k(   43) = (   0.6250000  -0.1250000  -0.1250000), wk =   0.0625000
        k(   44) = (   0.6250000   0.3750000  -0.1250000), wk =   0.0000000
        k(   45) = (   0.6250000   0.1250000   0.1250000), wk =   0.0625000
        k(   46) = (   0.6250000   0.6250000   0.1250000), wk =   0.0000000
        k(   47) = (  -0.8750000   0.1250000  -0.6250000), wk =   0.0625000
        k(   48) = (  -0.8750000   0.6250000  -0.6250000), wk =   0.0000000
        k(   49) = (  -0.1250000   0.6250000  -0.8750000), wk =   0.0625000
        k(   50) = (  -0.1250000   1.1250000  -0.8750000), wk =   0.0000000
        k(   51) = (  -0.1250000   0.8750000  -0.6250000), wk =   0.0625000
        k(   52) = (  -0.1250000   1.3750000  -0.6250000), wk =   0.0000000
        k(   53) = (  -0.1250000  -0.8750000  -0.6250000), wk =   0.0625000
        k(   54) = (  -0.1250000  -0.3750000  -0.6250000), wk =   0.0000000
        k(   55) = (   0.8750000  -0.6250000   0.1250000), wk =   0.0625000
        k(   56) = (   0.8750000  -0.1250000   0.1250000), wk =   0.0000000
        k(   57) = (  -0.6250000  -0.1250000  -0.3750000), wk =   0.0625000
        k(   58) = (  -0.6250000   0.3750000  -0.3750000), wk =   0.0000000
        k(   59) = (   0.1250000   0.3750000  -0.6250000), wk =   0.0625000
        k(   60) = (   0.1250000   0.8750000  -0.6250000), wk =   0.0000000
        k(   61) = (   0.1250000   0.6250000  -0.3750000), wk =   0.0625000
        k(   62) = (   0.1250000   1.1250000  -0.3750000), wk =   0.0000000
        k(   63) = (   0.1250000  -0.6250000  -0.3750000), wk =   0.0625000
        k(   64) = (   0.1250000  -0.1250000  -0.3750000), wk =   0.0000000
        k(   65) = (   0.6250000  -0.3750000  -0.1250000), wk =   0.0625000
        k(   66) = (   0.6250000   0.1250000  -0.1250000), wk =   0.0000000
        k(   67) = (  -0.1250000   0.8750000   0.1250000), wk =   0.0312500
        k(   68) = (  -0.1250000   1.3750000   0.1250000), wk =   0.0000000
        k(   69) = (  -0.8750000  -0.1250000  -0.1250000), wk =   0.0625000
        k(   70) = (  -0.8750000   0.3750000  -0.1250000), wk =   0.0000000
        k(   71) = (  -0.8750000   0.1250000   0.1250000), wk =   0.0625000
        k(   72) = (  -0.8750000   0.6250000   0.1250000), wk =   0.0000000
        k(   73) = (  -0.3750000  -0.3750000   0.3750000), wk =   0.0312500
        k(   74) = (  -0.3750000   0.1250000   0.3750000), wk =   0.0000000
        k(   75) = (  -1.1250000   0.3750000  -0.3750000), wk =   0.0625000
        k(   76) = (  -1.1250000   0.8750000  -0.3750000), wk =   0.0000000
        k(   77) = (  -0.3750000   1.1250000  -0.3750000), wk =   0.0312500
        k(   78) = (  -0.3750000   1.6250000  -0.3750000), wk =   0.0000000
        k(   79) = (  -0.3750000  -1.1250000  -0.3750000), wk =   0.0312500
        k(   80) = (  -0.3750000  -0.6250000  -0.3750000), wk =   0.0000000

     Dense  grid:     2891 G-vectors     FFT dimensions: (  20,  20,  20)

     Estimated max dynamical RAM per process >       0.33MB

     Estimated total allocated dynamical RAM >       1.33MB

     Check: negative/imaginary core charge=   -0.000006    0.000000

     The potential is recalculated from file :
     ./_ph0/silicon.10.396.save/charge-density.dat

     Starting wfc are    8 atomic wfcs

     Band Structure Calculation
     Davidson diagonalization with overlap

     ethr =  1.25E-10,  avg # of iterations = 11.7

     total cpu time spent up to now is        1.9 secs

     End of band structure calculation

          k =-0.1250 0.1250 0.1250 (   347 PWs)   bands (ev):

    -5.6962   4.2112   5.5214   5.5214

          k =-0.1250 0.6250 0.1250 (   357 PWs)   bands (ev):

    -4.1653   0.8946   3.2338   3.6743

          k =-0.3750 0.3750-0.1250 (   356 PWs)   bands (ev):

    -4.6888   1.2489   3.5715   5.0443

          k =-0.3750 0.8750-0.1250 (   368 PWs)   bands (ev):

    -2.5619  -1.0395   1.9163   2.9671

          k = 0.3750-0.3750 0.6250 (   364 PWs)   bands (ev):

    -3.5781  -0.7844   3.5815   4.2892

          k = 0.3750 0.1250 0.6250 (   362 PWs)   bands (ev):

    -3.7602   0.0490   2.6016   3.9458

          k = 0.1250-0.1250 0.3750 (   358 PWs)   bands (ev):

    -5.1781   2.6005   4.5337   4.5870

          k = 0.1250 0.3750 0.3750 (   356 PWs)   bands (ev):

    -4.6888   1.2489   3.5715   5.0443

          k =-0.1250 0.6250 0.1250 (   357 PWs)   bands (ev):

    -4.1653   0.8946   3.2338   3.6743

          k =-0.1250 1.1250 0.1250 (   362 PWs)   bands (ev):

    -2.7207  -0.9463   2.5099   3.2148

          k = 0.6250-0.1250 0.8750 (   368 PWs)   bands (ev):

    -2.5619  -1.0395   1.9163   2.9671

          k = 0.6250 0.3750 0.8750 (   362 PWs)   bands (ev):

    -3.7602   0.0490   2.6016   3.9458

          k = 0.3750 0.1250 0.6250 (   362 PWs)   bands (ev):

    -3.7602   0.0490   2.6016   3.9458

          k = 0.3750 0.6250 0.6250 (   364 PWs)   bands (ev):

    -3.5781  -0.7844   3.5815   4.2892

          k =-0.1250-0.8750 0.1250 (   362 PWs)   bands (ev):

    -2.7207  -0.9463   2.5099   3.2148

          k =-0.1250-0.3750 0.1250 (   358 PWs)   bands (ev):

    -5.1781   2.6005   4.5337   4.5870

          k =-0.3750 0.3750 0.3750 (   359 PWs)   bands (ev):

    -4.2667  -0.0087   4.7430   4.7430

          k =-0.3750 0.8750 0.3750 (   365 PWs)   bands (ev):

    -3.0907  -0.7243   1.9657   3.9797

          k = 0.3750-0.3750 1.1250 (   365 PWs)   bands (ev):

    -3.0907  -0.7243   1.9657   3.9797

          k = 0.3750 0.1250 1.1250 (   368 PWs)   bands (ev):

    -2.5619  -1.0395   1.9163   2.9671

          k =-0.1250-0.1250 0.1250 (   347 PWs)   bands (ev):

    -5.6962   4.2112   5.5214   5.5214

          k =-0.1250 0.3750 0.1250 (   358 PWs)   bands (ev):

    -5.1781   2.6005   4.5337   4.5870

          k = 0.1250-0.3750 0.3750 (   356 PWs)   bands (ev):

    -4.6888   1.2489   3.5715   5.0443

          k = 0.1250 0.1250 0.3750 (   358 PWs)   bands (ev):

    -5.1781   2.6005   4.5337   4.5870

          k = 0.3750-0.1250 0.3750 (   356 PWs)   bands (ev):

    -4.6888   1.2489   3.5715   5.0443

          k = 0.3750 0.3750 0.3750 (   359 PWs)   bands (ev):

    -4.2667  -0.0087   4.7430   4.7430

          k = 0.3750 0.1250 0.3750 (   356 PWs)   bands (ev):

    -4.6888   1.2489   3.5715   5.0443

          k = 0.3750 0.6250 0.3750 (   364 PWs)   bands (ev):

    -3.5781  -0.7844   3.5815   4.2892

          k =-0.6250 0.3750-0.3750 (   364 PWs)   bands (ev):

    -3.5781  -0.7844   3.5815   4.2892

          k =-0.6250 0.8750-0.3750 (   362 PWs)   bands (ev):

    -3.7602   0.0490   2.6016   3.9458

          k =-0.3750 0.6250-0.3750 (   364 PWs)   bands (ev):

    -3.5781  -0.7844   3.5815   4.2892

          k =-0.3750 1.1250-0.3750 (   365 PWs)   bands (ev):

    -3.0907  -0.7243   1.9657   3.9797

          k =-0.3750-0.6250-0.3750 (   364 PWs)   bands (ev):

    -3.5781  -0.7844   3.5815   4.2892

          k =-0.3750-0.1250-0.3750 (   356 PWs)   bands (ev):

    -4.6888   1.2489   3.5715   5.0443

          k =-0.3750 0.1250-0.1250 (   358 PWs)   bands (ev):

    -5.1781   2.6005   4.5337   4.5870

          k =-0.3750 0.6250-0.1250 (   362 PWs)   bands (ev):

    -3.7602   0.0490   2.6016   3.9458

          k =-0.1250 0.3750-0.1250 (   358 PWs)   bands (ev):

    -5.1781   2.6005   4.5337   4.5870

          k =-0.1250 0.8750-0.1250 (   362 PWs)   bands (ev):

    -2.7207  -0.9463   2.5099   3.2148

          k =-0.1250-0.3750-0.1250 (   358 PWs)   bands (ev):

    -5.1781   2.6005   4.5337   4.5870

          k =-0.1250 0.1250-0.1250 (   347 PWs)   bands (ev):

    -5.6962   4.2112   5.5214   5.5214

          k =-0.1250-0.6250 0.1250 (   357 PWs)   bands (ev):

    -4.1653   0.8946   3.2338   3.6743

          k =-0.1250-0.1250 0.1250 (   347 PWs)   bands (ev):

    -5.6962   4.2112   5.5214   5.5214

          k = 0.6250-0.1250-0.1250 (   357 PWs)   bands (ev):

    -4.1653   0.8946   3.2338   3.6743

          k = 0.6250 0.3750-0.1250 (   362 PWs)   bands (ev):

    -3.7602   0.0490   2.6016   3.9458

          k = 0.6250 0.1250 0.1250 (   357 PWs)   bands (ev):

    -4.1653   0.8946   3.2338   3.6743

          k = 0.6250 0.6250 0.1250 (   365 PWs)   bands (ev):

    -3.0907  -0.7243   1.9657   3.9797

          k =-0.8750 0.1250-0.6250 (   368 PWs)   bands (ev):

    -2.5619  -1.0395   1.9163   2.9671

          k =-0.8750 0.6250-0.6250 (   356 PWs)   bands (ev):

    -4.6888   1.2489   3.5715   5.0443

          k =-0.1250 0.6250-0.8750 (   368 PWs)   bands (ev):

    -2.5619  -1.0395   1.9163   2.9671

          k =-0.1250 1.1250-0.8750 (   362 PWs)   bands (ev):

    -2.7207  -0.9463   2.5099   3.2148

          k =-0.1250 0.8750-0.6250 (   368 PWs)   bands (ev):

    -2.5619  -1.0395   1.9163   2.9671

          k =-0.1250 1.3750-0.6250 (   365 PWs)   bands (ev):

    -3.0907  -0.7243   1.9657   3.9797

          k =-0.1250-0.8750-0.6250 (   368 PWs)   bands (ev):

    -2.5619  -1.0395   1.9163   2.9671

          k =-0.1250-0.3750-0.6250 (   362 PWs)   bands (ev):

    -3.7602   0.0490   2.6016   3.9458

          k = 0.8750-0.6250 0.1250 (   368 PWs)   bands (ev):

    -2.5619  -1.0395   1.9163   2.9671

          k = 0.8750-0.1250 0.1250 (   362 PWs)   bands (ev):

    -2.7207  -0.9463   2.5099   3.2148

          k =-0.6250-0.1250-0.3750 (   362 PWs)   bands (ev):

    -3.7602   0.0490   2.6016   3.9458

          k =-0.6250 0.3750-0.3750 (   364 PWs)   bands (ev):

    -3.5781  -0.7844   3.5815   4.2892

          k = 0.1250 0.3750-0.6250 (   362 PWs)   bands (ev):

    -3.7602   0.0490   2.6016   3.9458

          k = 0.1250 0.8750-0.6250 (   368 PWs)   bands (ev):

    -2.5619  -1.0395   1.9163   2.9671

          k = 0.1250 0.6250-0.3750 (   362 PWs)   bands (ev):

    -3.7602   0.0490   2.6016   3.9458

          k = 0.1250 1.1250-0.3750 (   368 PWs)   bands (ev):

    -2.5619  -1.0395   1.9163   2.9671

          k = 0.1250-0.6250-0.3750 (   362 PWs)   bands (ev):

    -3.7602   0.0490   2.6016   3.9458

          k = 0.1250-0.1250-0.3750 (   358 PWs)   bands (ev):

    -5.1781   2.6005   4.5337   4.5870

          k = 0.6250-0.3750-0.1250 (   362 PWs)   bands (ev):

    -3.7602   0.0490   2.6016   3.9458

          k = 0.6250 0.1250-0.1250 (   357 PWs)   bands (ev):

    -4.1653   0.8946   3.2338   3.6743

          k =-0.1250 0.8750 0.1250 (   362 PWs)   bands (ev):

    -2.7207  -0.9463   2.5099   3.2148

          k =-0.1250 1.3750 0.1250 (   357 PWs)   bands (ev):

    -4.1653   0.8946   3.2338   3.6743

          k =-0.8750-0.1250-0.1250 (   362 PWs)   bands (ev):

    -2.7207  -0.9463   2.5099   3.2148

          k =-0.8750 0.3750-0.1250 (   368 PWs)   bands (ev):

    -2.5619  -1.0395   1.9163   2.9671

          k =-0.8750 0.1250 0.1250 (   362 PWs)   bands (ev):

    -2.7207  -0.9463   2.5099   3.2148

          k =-0.8750 0.6250 0.1250 (   368 PWs)   bands (ev):

    -2.5619  -1.0395   1.9163   2.9671

          k =-0.3750-0.3750 0.3750 (   359 PWs)   bands (ev):

    -4.2667  -0.0087   4.7430   4.7430

          k =-0.3750 0.1250 0.3750 (   356 PWs)   bands (ev):

    -4.6888   1.2489   3.5715   5.0443

          k =-1.1250 0.3750-0.3750 (   365 PWs)   bands (ev):

    -3.0907  -0.7243   1.9657   3.9797

          k =-1.1250 0.8750-0.3750 (   357 PWs)   bands (ev):

    -4.1653   0.8946   3.2338   3.6743

          k =-0.3750 1.1250-0.3750 (   365 PWs)   bands (ev):

    -3.0907  -0.7243   1.9657   3.9797

          k =-0.3750 1.6250-0.3750 (   359 PWs)   bands (ev):

    -4.2667  -0.0087   4.7430   4.7430

          k =-0.3750-1.1250-0.3750 (   365 PWs)   bands (ev):

    -3.0907  -0.7243   1.9657   3.9797

          k =-0.3750-0.6250-0.3750 (   364 PWs)   bands (ev):

    -3.5781  -0.7844   3.5815   4.2892

     highest occupied level (ev):     5.5214

     Writing output data file silicon.10.396.save

                                                                                

     bravais-lattice index     =            2
     lattice parameter (alat)  =      10.3960  a.u.
     unit-cell volume          =     280.8916 (a.u.)^3
     number of atoms/cell      =            2
     number of atomic types    =            1
     kinetic-energy cut-off    =      18.0000  Ry
     charge density cut-off    =      72.0000  Ry
     convergence threshold     =      1.0E-12
     beta                      =       0.7000
     number of iterations used =            4
     Exchange-correlation      = SLA  PW   PBE  PBE ( 1  4  3  4 0 0)


     celldm(1)=   10.39600  celldm(2)=    0.00000  celldm(3)=    0.00000
     celldm(4)=    0.00000  celldm(5)=    0.00000  celldm(6)=    0.00000

     crystal axes: (cart. coord. in units of alat)
               a(1) = ( -0.5000  0.0000  0.5000 )  
               a(2) = (  0.0000  0.5000  0.5000 )  
               a(3) = ( -0.5000  0.5000  0.0000 )  

     reciprocal axes: (cart. coord. in units 2 pi/alat)
               b(1) = ( -1.0000 -1.0000  1.0000 )  
               b(2) = (  1.0000  1.0000  1.0000 )  
               b(3) = ( -1.0000  1.0000 -1.0000 )  


     Atoms inside the unit cell: 

     Cartesian axes

     site n.  atom      mass           positions (alat units)
        1     Si  28.0860   tau(    1) = (    0.00000    0.00000    0.00000  )
        2     Si  28.0860   tau(    2) = (    0.25000    0.25000    0.25000  )

     Computing dynamical matrix for 
                    q = (   0.0000000   0.5000000   0.0000000 )

      8 Sym.Ops. (no q -> -q+G )


     G cutoff =  197.1085  (    722 G-vectors)     FFT grid: ( 20, 20, 20)
     number of k points=    80

     PseudoPot. # 1 for Si read from file:
     /home/max/quantum_espresso/qe-6.1/pseudo/si_pbe_v1.uspp.F.UPF.txt
     MD5 check sum: a056efeee980c13900f22a371efd63c1
     Pseudo is Ultrasoft + core correction, Zval =  4.0
     Generated by new atomic code, or converted to UPF format
     Using radial grid of  899 points,  6 beta functions with: 
                l(1) =   0
                l(2) =   0
                l(3) =   1
                l(4) =   1
                l(5) =   2
                l(6) =   2
     Q(r) pseudized with  8 coefficients,  rinner =    0.900   0.900   0.900
                                                       0.900   0.900

     Mode symmetry, C_4v (4mm)  point group:


     Atomic displacements:
     There are   4 irreducible representations

     Representation     1      1 modes -A_1  G_1 D_1  To be done

     Representation     2      1 modes -B_2  G_4 D_2'  To be done

     Representation     3      2 modes -E    G_5 D_5  To be done

     Representation     4      2 modes -E    G_5 D_5  To be done



     Alpha used in Ewald sum =   0.7000
     PHONON       :    20.97s CPU        22.44s WALL



     Representation #  1 mode #   1

     Self-consistent Calculation

      iter #   1 total cpu time :    22.6 secs   av.it.:   5.8
      thresh= 1.000E-02 alpha_mix =  0.700 |ddv_scf|^2 =  2.925E-03

      iter #   2 total cpu time :    22.8 secs   av.it.:   7.6
      thresh= 5.409E-03 alpha_mix =  0.700 |ddv_scf|^2 =  3.883E-02

      iter #   3 total cpu time :    22.9 secs   av.it.:   6.7
      thresh= 1.000E-02 alpha_mix =  0.700 |ddv_scf|^2 =  1.489E-07

      iter #   4 total cpu time :    23.1 secs   av.it.:   8.2
      thresh= 3.859E-05 alpha_mix =  0.700 |ddv_scf|^2 =  1.578E-08

      iter #   5 total cpu time :    23.4 secs   av.it.:   7.7
      thresh= 1.256E-05 alpha_mix =  0.700 |ddv_scf|^2 =  7.094E-10

      iter #   6 total cpu time :    23.6 secs   av.it.:   7.9
      thresh= 2.664E-06 alpha_mix =  0.700 |ddv_scf|^2 =  3.142E-12

      iter #   7 total cpu time :    23.8 secs   av.it.:   7.8
      thresh= 1.772E-07 alpha_mix =  0.700 |ddv_scf|^2 =  4.504E-13

     End of self-consistent calculation

     Convergence has been achieved 


     Representation #  2 mode #   2

     Self-consistent Calculation

      iter #   1 total cpu time :    24.0 secs   av.it.:   4.9
      thresh= 1.000E-02 alpha_mix =  0.700 |ddv_scf|^2 =  5.157E-06

      iter #   2 total cpu time :    24.2 secs   av.it.:   8.7
      thresh= 2.271E-04 alpha_mix =  0.700 |ddv_scf|^2 =  1.342E-06

      iter #   3 total cpu time :    24.4 secs   av.it.:   8.5
      thresh= 1.159E-04 alpha_mix =  0.700 |ddv_scf|^2 =  3.160E-08

      iter #   4 total cpu time :    24.5 secs   av.it.:   8.2
      thresh= 1.778E-05 alpha_mix =  0.700 |ddv_scf|^2 =  7.786E-10

      iter #   5 total cpu time :    24.7 secs   av.it.:   8.5
      thresh= 2.790E-06 alpha_mix =  0.700 |ddv_scf|^2 =  9.848E-12

      iter #   6 total cpu time :    24.9 secs   av.it.:   7.7
      thresh= 3.138E-07 alpha_mix =  0.700 |ddv_scf|^2 =  2.312E-13

     End of self-consistent calculation

     Convergence has been achieved 


     Representation #  3 modes #   3  4

     Self-consistent Calculation

      iter #   1 total cpu time :    25.2 secs   av.it.:   5.0
      thresh= 1.000E-02 alpha_mix =  0.700 |ddv_scf|^2 =  9.392E-07

      iter #   2 total cpu time :    25.8 secs   av.it.:   9.8
      thresh= 9.691E-05 alpha_mix =  0.700 |ddv_scf|^2 =  1.193E-07

      iter #   3 total cpu time :    26.2 secs   av.it.:   9.5
      thresh= 3.453E-05 alpha_mix =  0.700 |ddv_scf|^2 =  4.918E-09

      iter #   4 total cpu time :    26.5 secs   av.it.:   8.9
      thresh= 7.013E-06 alpha_mix =  0.700 |ddv_scf|^2 =  8.804E-12

      iter #   5 total cpu time :    26.9 secs   av.it.:   9.1
      thresh= 2.967E-07 alpha_mix =  0.700 |ddv_scf|^2 =  3.008E-13

     End of self-consistent calculation

     Convergence has been achieved 


     Representation #  4 modes #   5  6

     Self-consistent Calculation

      iter #   1 total cpu time :    27.2 secs   av.it.:   5.0
      thresh= 1.000E-02 alpha_mix =  0.700 |ddv_scf|^2 =  9.421E-07

      iter #   2 total cpu time :    27.8 secs   av.it.:   9.7
      thresh= 9.706E-05 alpha_mix =  0.700 |ddv_scf|^2 =  1.195E-07

      iter #   3 total cpu time :    28.2 secs   av.it.:   9.5
      thresh= 3.458E-05 alpha_mix =  0.700 |ddv_scf|^2 =  7.327E-09

      iter #   4 total cpu time :    28.5 secs   av.it.:   8.9
      thresh= 8.560E-06 alpha_mix =  0.700 |ddv_scf|^2 =  1.544E-11

      iter #   5 total cpu time :    28.9 secs   av.it.:   9.2
      thresh= 3.929E-07 alpha_mix =  0.700 |ddv_scf|^2 =  4.582E-14

     End of self-consistent calculation

     Convergence has been achieved 

     Number of q in the star =    6
     List of q in the star:
          1   0.000000000   0.500000000   0.000000000
          2   0.000000000  -0.500000000   0.000000000
          3   0.500000000   0.000000000   0.000000000
          4   0.000000000   0.000000000   0.500000000
          5   0.000000000   0.000000000  -0.500000000
          6  -0.500000000   0.000000000   0.000000000

     Diagonalizing the dynamical matrix

     q = (    0.000000000   0.500000000   0.000000000 ) 

 **************************************************************************
     freq (    1) =       4.410630 [THz] =     147.122791 [cm-1]
     freq (    2) =       4.410630 [THz] =     147.122791 [cm-1]
     freq (    3) =       6.981384 [THz] =     232.873900 [cm-1]
     freq (    4) =      14.239932 [THz] =     474.993000 [cm-1]
     freq (    5) =      14.239932 [THz] =     474.993000 [cm-1]
     freq (    6) =      14.938649 [THz] =     498.299700 [cm-1]
 **************************************************************************

     Mode symmetry, C_4v (4mm)  point group:

     freq (  1 -  2) =        147.1  [cm-1]   --> E    G_5 D_5       
     freq (  3 -  3) =        232.9  [cm-1]   --> A_1  G_1 D_1       
     freq (  4 -  5) =        475.0  [cm-1]   --> E    G_5 D_5       
     freq (  6 -  6) =        498.3  [cm-1]   --> B_2  G_4 D_2'      

     Calculation of q =    0.7500000  -0.2500000   0.7500000

   Info: using nr1, nr2, nr3 values from input

   Info: using nr1, nr2, nr3 values from input

     Parallelization info
     --------------------
     sticks:   dense  smooth     PW     G-vecs:    dense   smooth      PW
     Min          65      65     30                  722      722     216
     Max          67      67     31                  723      723     218
     Sum         265     265    121                 2891     2891     869



     bravais-lattice index     =            2
     lattice parameter (alat)  =      10.3960  a.u.
     unit-cell volume          =     280.8916 (a.u.)^3
     number of atoms/cell      =            2
     number of atomic types    =            1
     number of electrons       =         8.00
     number of Kohn-Sham states=            4
     kinetic-energy cutoff     =      18.0000  Ry
     charge density cutoff     =      72.0000  Ry
     Exchange-correlation      = SLA  PW   PBE  PBE ( 1  4  3  4 0 0)

     celldm(1)=  10.396000  celldm(2)=   0.000000  celldm(3)=   0.000000
     celldm(4)=   0.000000  celldm(5)=   0.000000  celldm(6)=   0.000000

     crystal axes: (cart. coord. in units of alat)
               a(1) = (  -0.500000   0.000000   0.500000 )  
               a(2) = (   0.000000   0.500000   0.500000 )  
               a(3) = (  -0.500000   0.500000   0.000000 )  

     reciprocal axes: (cart. coord. in units 2 pi/alat)
               b(1) = ( -1.000000 -1.000000  1.000000 )  
               b(2) = (  1.000000  1.000000  1.000000 )  
               b(3) = ( -1.000000  1.000000 -1.000000 )  


     PseudoPot. # 1 for Si read from file:
     /home/max/quantum_espresso/qe-6.1/pseudo/si_pbe_v1.uspp.F.UPF.txt
     MD5 check sum: a056efeee980c13900f22a371efd63c1
     Pseudo is Ultrasoft + core correction, Zval =  4.0
     Generated by new atomic code, or converted to UPF format
     Using radial grid of  899 points,  6 beta functions with: 
                l(1) =   0
                l(2) =   0
                l(3) =   1
                l(4) =   1
                l(5) =   2
                l(6) =   2
     Q(r) pseudized with  8 coefficients,  rinner =    0.900   0.900   0.900
                                                       0.900   0.900

     atomic species   valence    mass     pseudopotential
        Si             4.00    28.08600     Si( 1.00)

     48 Sym. Ops., with inversion, found



   Cartesian axes

     site n.     atom                  positions (alat units)
         1           Si  tau(   1) = (   0.0000000   0.0000000   0.0000000  )
         2           Si  tau(   2) = (   0.2500000   0.2500000   0.2500000  )

     number of k points=   288

     Number of k-points >= 100: set verbosity='high' to print them.

     Dense  grid:     2891 G-vectors     FFT dimensions: (  20,  20,  20)

     Estimated max dynamical RAM per process >       0.33MB

     Estimated total allocated dynamical RAM >       1.33MB

     Check: negative/imaginary core charge=   -0.000006    0.000000

     The potential is recalculated from file :
     ./_ph0/silicon.10.396.save/charge-density.dat

     Starting wfc are    8 atomic wfcs

     Band Structure Calculation
     Davidson diagonalization with overlap

     ethr =  1.25E-10,  avg # of iterations = 11.6

     total cpu time spent up to now is        3.9 secs

     End of band structure calculation

     Number of k-points >= 100: set verbosity='high' to print the bands.

     highest occupied level (ev):     5.5214

     Writing output data file silicon.10.396.save

                                                                                

     bravais-lattice index     =            2
     lattice parameter (alat)  =      10.3960  a.u.
     unit-cell volume          =     280.8916 (a.u.)^3
     number of atoms/cell      =            2
     number of atomic types    =            1
     kinetic-energy cut-off    =      18.0000  Ry
     charge density cut-off    =      72.0000  Ry
     convergence threshold     =      1.0E-12
     beta                      =       0.7000
     number of iterations used =            4
     Exchange-correlation      = SLA  PW   PBE  PBE ( 1  4  3  4 0 0)


     celldm(1)=   10.39600  celldm(2)=    0.00000  celldm(3)=    0.00000
     celldm(4)=    0.00000  celldm(5)=    0.00000  celldm(6)=    0.00000

     crystal axes: (cart. coord. in units of alat)
               a(1) = ( -0.5000  0.0000  0.5000 )  
               a(2) = (  0.0000  0.5000  0.5000 )  
               a(3) = ( -0.5000  0.5000  0.0000 )  

     reciprocal axes: (cart. coord. in units 2 pi/alat)
               b(1) = ( -1.0000 -1.0000  1.0000 )  
               b(2) = (  1.0000  1.0000  1.0000 )  
               b(3) = ( -1.0000  1.0000 -1.0000 )  


     Atoms inside the unit cell: 

     Cartesian axes

     site n.  atom      mass           positions (alat units)
        1     Si  28.0860   tau(    1) = (    0.00000    0.00000    0.00000  )
        2     Si  28.0860   tau(    2) = (    0.25000    0.25000    0.25000  )

     Computing dynamical matrix for 
                    q = (   0.7500000  -0.2500000   0.7500000 )

      2 Sym.Ops. (no q -> -q+G )


     G cutoff =  197.1085  (    723 G-vectors)     FFT grid: ( 20, 20, 20)
     number of k points=   288

     PseudoPot. # 1 for Si read from file:
     /home/max/quantum_espresso/qe-6.1/pseudo/si_pbe_v1.uspp.F.UPF.txt
     MD5 check sum: a056efeee980c13900f22a371efd63c1
     Pseudo is Ultrasoft + core correction, Zval =  4.0
     Generated by new atomic code, or converted to UPF format
     Using radial grid of  899 points,  6 beta functions with: 
                l(1) =   0
                l(2) =   0
                l(3) =   1
                l(4) =   1
                l(5) =   2
                l(6) =   2
     Q(r) pseudized with  8 coefficients,  rinner =    0.900   0.900   0.900
                                                       0.900   0.900

     Mode symmetry, C_s (m)     point group:


     Atomic displacements:
     There are   6 irreducible representations

     Representation     1      1 modes -A'  To be done

     Representation     2      1 modes -A'  To be done

     Representation     3      1 modes -A'  To be done

     Representation     4      1 modes -A'  To be done

     Representation     5      1 modes -A''  To be done

     Representation     6      1 modes -A''  To be done



     Alpha used in Ewald sum =   0.7000
     PHONON       :    29.66s CPU        31.75s WALL



     Representation #  1 mode #   1

     Self-consistent Calculation

      iter #   1 total cpu time :    32.3 secs   av.it.:   5.3
      thresh= 1.000E-02 alpha_mix =  0.700 |ddv_scf|^2 =  6.050E-05

      iter #   2 total cpu time :    32.9 secs   av.it.:   8.9
      thresh= 7.778E-04 alpha_mix =  0.700 |ddv_scf|^2 =  1.606E-04

      iter #   3 total cpu time :    33.7 secs   av.it.:   7.6
      thresh= 1.267E-03 alpha_mix =  0.700 |ddv_scf|^2 =  1.128E-06

      iter #   4 total cpu time :    34.3 secs   av.it.:   8.4
      thresh= 1.062E-04 alpha_mix =  0.700 |ddv_scf|^2 =  6.013E-08

      iter #   5 total cpu time :    34.9 secs   av.it.:   8.3
      thresh= 2.452E-05 alpha_mix =  0.700 |ddv_scf|^2 =  7.622E-09

      iter #   6 total cpu time :    35.7 secs   av.it.:   8.5
      thresh= 8.730E-06 alpha_mix =  0.700 |ddv_scf|^2 =  1.276E-10

      iter #   7 total cpu time :    36.4 secs   av.it.:   8.6
      thresh= 1.130E-06 alpha_mix =  0.700 |ddv_scf|^2 =  4.368E-12

      iter #   8 total cpu time :    37.0 secs   av.it.:   8.5
      thresh= 2.090E-07 alpha_mix =  0.700 |ddv_scf|^2 =  5.285E-13

     End of self-consistent calculation

     Convergence has been achieved 


     Representation #  2 mode #   2

     Self-consistent Calculation

      iter #   1 total cpu time :    37.7 secs   av.it.:   5.4
      thresh= 1.000E-02 alpha_mix =  0.700 |ddv_scf|^2 =  1.086E-04

      iter #   2 total cpu time :    38.3 secs   av.it.:   8.7
      thresh= 1.042E-03 alpha_mix =  0.700 |ddv_scf|^2 =  3.096E-04

      iter #   3 total cpu time :    38.9 secs   av.it.:   7.4
      thresh= 1.760E-03 alpha_mix =  0.700 |ddv_scf|^2 =  8.291E-07

      iter #   4 total cpu time :    39.7 secs   av.it.:   8.5
      thresh= 9.105E-05 alpha_mix =  0.700 |ddv_scf|^2 =  5.711E-08

      iter #   5 total cpu time :    40.4 secs   av.it.:   8.2
      thresh= 2.390E-05 alpha_mix =  0.700 |ddv_scf|^2 =  1.068E-08

      iter #   6 total cpu time :    41.0 secs   av.it.:   8.5
      thresh= 1.033E-05 alpha_mix =  0.700 |ddv_scf|^2 =  1.125E-10

      iter #   7 total cpu time :    41.8 secs   av.it.:   8.6
      thresh= 1.060E-06 alpha_mix =  0.700 |ddv_scf|^2 =  4.062E-12

      iter #   8 total cpu time :    42.5 secs   av.it.:   8.5
      thresh= 2.015E-07 alpha_mix =  0.700 |ddv_scf|^2 =  7.272E-13

     End of self-consistent calculation

     Convergence has been achieved 


     Representation #  3 mode #   3

     Self-consistent Calculation

      iter #   1 total cpu time :    43.0 secs   av.it.:   5.3
      thresh= 1.000E-02 alpha_mix =  0.700 |ddv_scf|^2 =  8.544E-05

      iter #   2 total cpu time :    43.8 secs   av.it.:   8.7
      thresh= 9.244E-04 alpha_mix =  0.700 |ddv_scf|^2 =  2.266E-04

      iter #   3 total cpu time :    44.4 secs   av.it.:   7.4
      thresh= 1.505E-03 alpha_mix =  0.700 |ddv_scf|^2 =  1.414E-06

      iter #   4 total cpu time :    45.0 secs   av.it.:   8.2
      thresh= 1.189E-04 alpha_mix =  0.700 |ddv_scf|^2 =  6.238E-08

      iter #   5 total cpu time :    45.8 secs   av.it.:   8.4
      thresh= 2.498E-05 alpha_mix =  0.700 |ddv_scf|^2 =  1.127E-08

      iter #   6 total cpu time :    46.5 secs   av.it.:   8.4
      thresh= 1.062E-05 alpha_mix =  0.700 |ddv_scf|^2 =  5.736E-11

      iter #   7 total cpu time :    47.1 secs   av.it.:   8.6
      thresh= 7.574E-07 alpha_mix =  0.700 |ddv_scf|^2 =  3.140E-12

      iter #   8 total cpu time :    47.9 secs   av.it.:   8.6
      thresh= 1.772E-07 alpha_mix =  0.700 |ddv_scf|^2 =  5.198E-13

     End of self-consistent calculation

     Convergence has been achieved 


     Representation #  4 mode #   4

     Self-consistent Calculation

      iter #   1 total cpu time :    48.4 secs   av.it.:   5.2
      thresh= 1.000E-02 alpha_mix =  0.700 |ddv_scf|^2 =  3.738E-05

      iter #   2 total cpu time :    49.1 secs   av.it.:   8.9
[...]
        k(   61) = (  -1.1250000   0.3750000  -0.3750000), wk =   0.0625000
        k(   62) = (  -1.6250000  -0.6250000  -0.3750000), wk =   0.0000000
        k(   63) = (  -0.3750000   0.3750000   1.1250000), wk =   0.0625000
        k(   64) = (  -0.8750000  -0.6250000   1.1250000), wk =   0.0000000

     Dense  grid:     2891 G-vectors     FFT dimensions: (  20,  20,  20)

     Estimated max dynamical RAM per process >       0.33MB

     Estimated total allocated dynamical RAM >       1.33MB

     Check: negative/imaginary core charge=   -0.000006    0.000000

     The potential is recalculated from file :
     ./_ph0/silicon.10.396.save/charge-density.dat

     Starting wfc are    8 atomic wfcs

     Band Structure Calculation
     Davidson diagonalization with overlap

     ethr =  1.25E-10,  avg # of iterations = 11.6

     total cpu time spent up to now is        6.0 secs

     End of band structure calculation

          k =-0.1250 0.1250 0.1250 (   347 PWs)   bands (ev):

    -5.6962   4.2112   5.5214   5.5214

          k =-0.6250-0.8750 0.1250 (   368 PWs)   bands (ev):

    -2.5619  -1.0395   1.9163   2.9671

          k =-0.3750 0.3750-0.1250 (   356 PWs)   bands (ev):

    -4.6888   1.2489   3.5715   5.0443

          k =-0.8750-0.6250-0.1250 (   368 PWs)   bands (ev):

    -2.5619  -1.0395   1.9163   2.9671

          k = 0.3750-0.3750 0.6250 (   364 PWs)   bands (ev):

    -3.5781  -0.7844   3.5815   4.2892

          k =-0.1250-1.3750 0.6250 (   365 PWs)   bands (ev):

    -3.0907  -0.7243   1.9657   3.9797

          k = 0.1250-0.1250 0.3750 (   358 PWs)   bands (ev):

    -5.1781   2.6005   4.5337   4.5870

          k =-0.3750-1.1250 0.3750 (   365 PWs)   bands (ev):

    -3.0907  -0.7243   1.9657   3.9797

          k =-0.1250 0.6250 0.1250 (   357 PWs)   bands (ev):

    -4.1653   0.8946   3.2338   3.6743

          k =-0.6250-0.3750 0.1250 (   362 PWs)   bands (ev):

    -3.7602   0.0490   2.6016   3.9458

          k = 0.6250-0.1250 0.8750 (   368 PWs)   bands (ev):

    -2.5619  -1.0395   1.9163   2.9671

          k = 0.1250-1.1250 0.8750 (   362 PWs)   bands (ev):

    -2.7207  -0.9463   2.5099   3.2148

          k = 0.3750 0.1250 0.6250 (   362 PWs)   bands (ev):

    -3.7602   0.0490   2.6016   3.9458

          k =-0.1250-0.8750 0.6250 (   368 PWs)   bands (ev):

    -2.5619  -1.0395   1.9163   2.9671

          k =-0.1250-0.8750 0.1250 (   362 PWs)   bands (ev):

    -2.7207  -0.9463   2.5099   3.2148

          k =-0.6250-1.8750 0.1250 (   357 PWs)   bands (ev):

    -4.1653   0.8946   3.2338   3.6743

          k =-0.3750 0.3750 0.3750 (   359 PWs)   bands (ev):

    -4.2667  -0.0087   4.7430   4.7430

          k =-0.8750-0.6250 0.3750 (   362 PWs)   bands (ev):

    -3.7602   0.0490   2.6016   3.9458

          k = 0.3750-0.3750 1.1250 (   365 PWs)   bands (ev):

    -3.0907  -0.7243   1.9657   3.9797

          k =-0.1250-1.3750 1.1250 (   368 PWs)   bands (ev):

    -2.5619  -1.0395   1.9163   2.9671

          k = 0.1250-0.3750 0.3750 (   356 PWs)   bands (ev):

    -4.6888   1.2489   3.5715   5.0443

          k =-0.3750-1.3750 0.3750 (   364 PWs)   bands (ev):

    -3.5781  -0.7844   3.5815   4.2892

          k = 0.3750-0.3750-0.1250 (   356 PWs)   bands (ev):

    -4.6888   1.2489   3.5715   5.0443

          k =-0.1250-1.3750-0.1250 (   357 PWs)   bands (ev):

    -4.1653   0.8946   3.2338   3.6743

          k =-0.6250 0.3750-0.3750 (   364 PWs)   bands (ev):

    -3.5781  -0.7844   3.5815   4.2892

          k =-1.1250-0.6250-0.3750 (   362 PWs)   bands (ev):

    -3.7602   0.0490   2.6016   3.9458

          k =-0.3750 0.3750 0.6250 (   364 PWs)   bands (ev):

    -3.5781  -0.7844   3.5815   4.2892

          k =-0.8750-0.6250 0.6250 (   356 PWs)   bands (ev):

    -4.6888   1.2489   3.5715   5.0443

          k =-0.3750 0.1250-0.1250 (   358 PWs)   bands (ev):

    -5.1781   2.6005   4.5337   4.5870

          k =-0.8750-0.8750-0.1250 (   362 PWs)   bands (ev):

    -2.7207  -0.9463   2.5099   3.2148

          k =-0.1250 0.1250 0.3750 (   358 PWs)   bands (ev):

    -5.1781   2.6005   4.5337   4.5870

          k =-0.6250-0.8750 0.3750 (   362 PWs)   bands (ev):

    -3.7602   0.0490   2.6016   3.9458

          k = 0.1250 0.6250-0.1250 (   357 PWs)   bands (ev):

    -4.1653   0.8946   3.2338   3.6743

          k =-0.3750-0.3750-0.1250 (   356 PWs)   bands (ev):

    -4.6888   1.2489   3.5715   5.0443

          k = 0.6250 0.1250-0.1250 (   357 PWs)   bands (ev):

    -4.1653   0.8946   3.2338   3.6743

          k = 0.1250-0.8750-0.1250 (   362 PWs)   bands (ev):

    -2.7207  -0.9463   2.5099   3.2148

          k =-0.8750 0.1250-0.6250 (   368 PWs)   bands (ev):

    -2.5619  -1.0395   1.9163   2.9671

          k =-1.3750-0.8750-0.6250 (   356 PWs)   bands (ev):

    -4.6888   1.2489   3.5715   5.0443

          k = 0.8750-0.1250 0.6250 (   368 PWs)   bands (ev):

    -2.5619  -1.0395   1.9163   2.9671

          k = 0.3750-1.1250 0.6250 (   362 PWs)   bands (ev):

    -3.7602   0.0490   2.6016   3.9458

          k =-0.6250 0.1250 0.8750 (   368 PWs)   bands (ev):

    -2.5619  -1.0395   1.9163   2.9671

          k =-1.1250-0.8750 0.8750 (   347 PWs)   bands (ev):

    -5.6962   4.2112   5.5214   5.5214

          k =-0.1250 0.8750 0.6250 (   368 PWs)   bands (ev):

    -2.5619  -1.0395   1.9163   2.9671

          k =-0.6250-0.1250 0.6250 (   365 PWs)   bands (ev):

    -3.0907  -0.7243   1.9657   3.9797

          k = 0.1250 0.8750-0.6250 (   368 PWs)   bands (ev):

    -2.5619  -1.0395   1.9163   2.9671

          k =-0.3750-0.1250-0.6250 (   362 PWs)   bands (ev):

    -3.7602   0.0490   2.6016   3.9458

          k =-0.6250-0.1250-0.3750 (   362 PWs)   bands (ev):

    -3.7602   0.0490   2.6016   3.9458

          k =-1.1250-1.1250-0.3750 (   357 PWs)   bands (ev):

    -4.1653   0.8946   3.2338   3.6743

          k = 0.6250 0.1250 0.3750 (   362 PWs)   bands (ev):

    -3.7602   0.0490   2.6016   3.9458

          k = 0.1250-0.8750 0.3750 (   368 PWs)   bands (ev):

    -2.5619  -1.0395   1.9163   2.9671

          k =-0.3750-0.1250 0.6250 (   362 PWs)   bands (ev):

    -3.7602   0.0490   2.6016   3.9458

          k =-0.8750-1.1250 0.6250 (   358 PWs)   bands (ev):

    -5.1781   2.6005   4.5337   4.5870

          k = 0.1250 0.6250 0.3750 (   362 PWs)   bands (ev):

    -3.7602   0.0490   2.6016   3.9458

          k =-0.3750-0.3750 0.3750 (   359 PWs)   bands (ev):

    -4.2667  -0.0087   4.7430   4.7430

          k =-0.1250 0.6250-0.3750 (   362 PWs)   bands (ev):

    -3.7602   0.0490   2.6016   3.9458

          k =-0.6250-0.3750-0.3750 (   364 PWs)   bands (ev):

    -3.5781  -0.7844   3.5815   4.2892

          k = 0.1250-0.8750-0.1250 (   362 PWs)   bands (ev):

    -2.7207  -0.9463   2.5099   3.2148

          k =-0.3750-1.8750-0.1250 (   358 PWs)   bands (ev):

    -5.1781   2.6005   4.5337   4.5870

          k =-0.8750 0.1250-0.1250 (   362 PWs)   bands (ev):

    -2.7207  -0.9463   2.5099   3.2148

          k =-1.3750-0.8750-0.1250 (   368 PWs)   bands (ev):

    -2.5619  -1.0395   1.9163   2.9671

          k =-1.1250 0.3750-0.3750 (   365 PWs)   bands (ev):

    -3.0907  -0.7243   1.9657   3.9797

          k =-1.6250-0.6250-0.3750 (   364 PWs)   bands (ev):

    -3.5781  -0.7844   3.5815   4.2892

          k =-0.3750 0.3750 1.1250 (   365 PWs)   bands (ev):

    -3.0907  -0.7243   1.9657   3.9797

          k =-0.8750-0.6250 1.1250 (   358 PWs)   bands (ev):

    -5.1781   2.6005   4.5337   4.5870

     highest occupied level (ev):     5.5214

     Writing output data file silicon.10.396.save

                                                                                

     bravais-lattice index     =            2
     lattice parameter (alat)  =      10.3960  a.u.
     unit-cell volume          =     280.8916 (a.u.)^3
     number of atoms/cell      =            2
     number of atomic types    =            1
     kinetic-energy cut-off    =      18.0000  Ry
     charge density cut-off    =      72.0000  Ry
     convergence threshold     =      1.0E-12
     beta                      =       0.7000
     number of iterations used =            4
     Exchange-correlation      = SLA  PW   PBE  PBE ( 1  4  3  4 0 0)


     celldm(1)=   10.39600  celldm(2)=    0.00000  celldm(3)=    0.00000
     celldm(4)=    0.00000  celldm(5)=    0.00000  celldm(6)=    0.00000

     crystal axes: (cart. coord. in units of alat)
               a(1) = ( -0.5000  0.0000  0.5000 )  
               a(2) = (  0.0000  0.5000  0.5000 )  
               a(3) = ( -0.5000  0.5000  0.0000 )  

     reciprocal axes: (cart. coord. in units 2 pi/alat)
               b(1) = ( -1.0000 -1.0000  1.0000 )  
               b(2) = (  1.0000  1.0000  1.0000 )  
               b(3) = ( -1.0000  1.0000 -1.0000 )  


     Atoms inside the unit cell: 

     Cartesian axes

     site n.  atom      mass           positions (alat units)
        1     Si  28.0860   tau(    1) = (    0.00000    0.00000    0.00000  )
        2     Si  28.0860   tau(    2) = (    0.25000    0.25000    0.25000  )

     Computing dynamical matrix for 
                    q = (  -0.5000000  -1.0000000   0.0000000 )

      8 Sym.Ops. (no q -> -q+G )


     G cutoff =  197.1085  (    722 G-vectors)     FFT grid: ( 20, 20, 20)
     number of k points=    64

     PseudoPot. # 1 for Si read from file:
     /home/max/quantum_espresso/qe-6.1/pseudo/si_pbe_v1.uspp.F.UPF.txt
     MD5 check sum: a056efeee980c13900f22a371efd63c1
     Pseudo is Ultrasoft + core correction, Zval =  4.0
     Generated by new atomic code, or converted to UPF format
     Using radial grid of  899 points,  6 beta functions with: 
                l(1) =   0
                l(2) =   0
                l(3) =   1
                l(4) =   1
                l(5) =   2
                l(6) =   2
     Q(r) pseudized with  8 coefficients,  rinner =    0.900   0.900   0.900
                                                       0.900   0.900


     Atomic displacements:
     There are   3 irreducible representations

     Representation     1      2 modes -  To be done

     Representation     2      2 modes -  To be done

     Representation     3      2 modes -  To be done



     Alpha used in Ewald sum =   0.7000
     PHONON       :  1m13.40s CPU     1m18.93s WALL



     Representation #  1 modes #   1  2

     Self-consistent Calculation

      iter #   1 total cpu time :    79.2 secs   av.it.:   5.3
      thresh= 1.000E-02 alpha_mix =  0.700 |ddv_scf|^2 =  6.461E-06

      iter #   2 total cpu time :    79.7 secs   av.it.:   9.8
      thresh= 2.542E-04 alpha_mix =  0.700 |ddv_scf|^2 =  3.432E-06

      iter #   3 total cpu time :    80.0 secs   av.it.:   9.3
      thresh= 1.853E-04 alpha_mix =  0.700 |ddv_scf|^2 =  8.918E-09

      iter #   4 total cpu time :    80.3 secs   av.it.:   9.1
      thresh= 9.443E-06 alpha_mix =  0.700 |ddv_scf|^2 =  4.217E-11

      iter #   5 total cpu time :    80.6 secs   av.it.:   8.6
      thresh= 6.494E-07 alpha_mix =  0.700 |ddv_scf|^2 =  1.778E-12

      iter #   6 total cpu time :    80.9 secs   av.it.:   8.8
      thresh= 1.333E-07 alpha_mix =  0.700 |ddv_scf|^2 =  1.663E-14

     End of self-consistent calculation

     Convergence has been achieved 


     Representation #  2 modes #   3  4

     Self-consistent Calculation

      iter #   1 total cpu time :    81.1 secs   av.it.:   5.3
      thresh= 1.000E-02 alpha_mix =  0.700 |ddv_scf|^2 =  9.708E-06

      iter #   2 total cpu time :    81.7 secs   av.it.:   9.9
      thresh= 3.116E-04 alpha_mix =  0.700 |ddv_scf|^2 =  1.318E-05

      iter #   3 total cpu time :    82.0 secs   av.it.:   9.1
      thresh= 3.631E-04 alpha_mix =  0.700 |ddv_scf|^2 =  1.018E-08

      iter #   4 total cpu time :    82.3 secs   av.it.:   8.9
      thresh= 1.009E-05 alpha_mix =  0.700 |ddv_scf|^2 =  9.614E-11

      iter #   5 total cpu time :    82.6 secs   av.it.:   9.4
      thresh= 9.805E-07 alpha_mix =  0.700 |ddv_scf|^2 =  1.851E-12

      iter #   6 total cpu time :    82.9 secs   av.it.:   9.1
      thresh= 1.360E-07 alpha_mix =  0.700 |ddv_scf|^2 =  1.657E-14

     End of self-consistent calculation

     Convergence has been achieved 


     Representation #  3 modes #   5  6

     Self-consistent Calculation

      iter #   1 total cpu time :    83.1 secs   av.it.:   5.1
      thresh= 1.000E-02 alpha_mix =  0.700 |ddv_scf|^2 =  2.656E-06

      iter #   2 total cpu time :    83.6 secs   av.it.:   9.7
      thresh= 1.630E-04 alpha_mix =  0.700 |ddv_scf|^2 =  1.451E-06

      iter #   3 total cpu time :    83.9 secs   av.it.:   9.0
      thresh= 1.205E-04 alpha_mix =  0.700 |ddv_scf|^2 =  8.123E-09

      iter #   4 total cpu time :    84.2 secs   av.it.:   8.7
      thresh= 9.013E-06 alpha_mix =  0.700 |ddv_scf|^2 =  5.375E-11

      iter #   5 total cpu time :    84.5 secs   av.it.:   9.1
      thresh= 7.332E-07 alpha_mix =  0.700 |ddv_scf|^2 =  8.210E-13

     End of self-consistent calculation

     Convergence has been achieved 

     Number of q in the star =    6
     List of q in the star:
          1  -0.500000000  -1.000000000   0.000000000
          2   0.000000000   1.000000000   0.500000000
          3   0.000000000  -1.000000000  -0.500000000
          4   0.500000000   1.000000000   0.000000000
          5  -1.000000000  -0.500000000   0.000000000
          6   0.000000000  -0.500000000  -1.000000000

     Diagonalizing the dynamical matrix

     q = (   -0.500000000  -1.000000000   0.000000000 ) 

 **************************************************************************
     freq (    1) =       7.790108 [THz] =     259.850025 [cm-1]
     freq (    2) =       7.790108 [THz] =     259.850025 [cm-1]
     freq (    3) =      11.037386 [THz] =     368.167584 [cm-1]
     freq (    4) =      11.037386 [THz] =     368.167584 [cm-1]
     freq (    5) =      13.747518 [THz] =     458.567851 [cm-1]
     freq (    6) =      13.747518 [THz] =     458.567851 [cm-1]
 **************************************************************************

     init_run     :      0.51s CPU      0.54s WALL (       7 calls)
     electrons    :      4.49s CPU      4.74s WALL (       7 calls)

     Called by init_run:
     wfcinit      :      0.00s CPU      0.00s WALL (       7 calls)
     potinit      :      0.02s CPU      0.02s WALL (       7 calls)

     Called by electrons:
     c_bands      :      4.49s CPU      4.72s WALL (       7 calls)
     v_of_rho     :      0.01s CPU      0.01s WALL (       8 calls)
     newd         :      0.03s CPU      0.03s WALL (       8 calls)

     Called by c_bands:
     init_us_2    :      0.67s CPU      0.72s WALL (   17620 calls)
     cegterg      :      3.78s CPU      3.98s WALL (     796 calls)

     Called by sum_band:

     Called by *egterg:
     h_psi        :     43.54s CPU     46.96s WALL (  152590 calls)
     s_psi        :      5.80s CPU      6.22s WALL (  309964 calls)
     g_psi        :      0.03s CPU      0.03s WALL (    9268 calls)
     cdiaghg      :      0.44s CPU      0.46s WALL (   10064 calls)

     Called by h_psi:
     h_psi:pot    :     43.35s CPU     46.76s WALL (  152590 calls)
     h_psi:calbec :      4.52s CPU      4.95s WALL (  152590 calls)
     vloc_psi     :     35.72s CPU     38.51s WALL (  152590 calls)
     add_vuspsi   :      2.89s CPU      3.09s WALL (  152590 calls)

     General routines
     calbec       :      9.70s CPU     10.55s WALL (  346400 calls)
     fft          :      0.30s CPU      0.33s WALL (    5267 calls)
     ffts         :      0.13s CPU      0.13s WALL (    2748 calls)
     fftw         :     41.41s CPU     44.63s WALL ( 1381700 calls)
     davcio       :      0.31s CPU      0.35s WALL (   79315 calls)

     Parallel routines
     fft_scatter  :      9.47s CPU     10.57s WALL ( 1389715 calls)

     PHONON       :  1m18.52s CPU     1m24.56s WALL

     INITIALIZATION: 
     phq_setup    :      0.05s CPU      0.05s WALL (       8 calls)
     phq_init     :      1.99s CPU      2.15s WALL (       8 calls)

     phq_init     :      1.99s CPU      2.15s WALL (       8 calls)
     set_drhoc    :      0.29s CPU      0.30s WALL (      24 calls)
     init_vloc    :      0.01s CPU      0.01s WALL (       8 calls)
     init_us_1    :      0.47s CPU      0.48s WALL (       8 calls)
     newd         :      0.03s CPU      0.03s WALL (       8 calls)
     dvanqq       :      0.23s CPU      0.24s WALL (       8 calls)
     drho         :      1.05s CPU      1.17s WALL (       8 calls)

     DYNAMICAL MATRIX:
     dynmat0      :      0.48s CPU      0.50s WALL (       8 calls)
     phqscf       :     68.90s CPU     74.44s WALL (       8 calls)
     dynmatrix    :      0.01s CPU      0.02s WALL (       8 calls)

     phqscf       :     68.90s CPU     74.44s WALL (       8 calls)
     solve_linter :     68.22s CPU     73.71s WALL (      32 calls)
     drhodv       :      0.48s CPU      0.51s WALL (      32 calls)

     dynmat0      :      0.48s CPU      0.50s WALL (       8 calls)
     dynmat_us    :      0.26s CPU      0.27s WALL (       8 calls)
     d2ionq       :      0.01s CPU      0.01s WALL (       8 calls)
     dynmatcc     :      0.21s CPU      0.21s WALL (       8 calls)

     dynmat_us    :      0.26s CPU      0.27s WALL (       8 calls)
     addusdynmat  :      0.00s CPU      0.00s WALL (       8 calls)

     phqscf       :     68.90s CPU     74.44s WALL (       8 calls)
     solve_linter :     68.22s CPU     73.71s WALL (      32 calls)

     solve_linter :     68.22s CPU     73.71s WALL (      32 calls)
     dvqpsi_us    :      1.62s CPU      1.72s WALL (    2508 calls)
     ortho        :      1.00s CPU      1.08s WALL (   15614 calls)
     cgsolve      :     53.73s CPU     58.17s WALL (   15614 calls)
     incdrhoscf   :      4.61s CPU      4.98s WALL (   15614 calls)
     addusddens   :      1.13s CPU      1.16s WALL (     229 calls)
     vpsifft      :      3.41s CPU      3.65s WALL (   12986 calls)
     dv_of_drho   :      0.21s CPU      0.21s WALL (     297 calls)
     mix_pot      :      0.05s CPU      0.06s WALL (     202 calls)
     psymdvscf    :      0.80s CPU      0.82s WALL (     197 calls)
     newdq        :      1.20s CPU      1.26s WALL (     202 calls)
     adddvscf     :      0.46s CPU      0.50s WALL (   13106 calls)
     drhodvus     :      0.00s CPU      0.00s WALL (      32 calls)

     dvqpsi_us    :      1.62s CPU      1.72s WALL (    2508 calls)
     dvqpsi_us_on :      0.82s CPU      0.86s WALL (    2508 calls)

     cgsolve      :     53.73s CPU     58.17s WALL (   15614 calls)
     ch_psi       :     51.85s CPU     56.01s WALL (  141730 calls)

     ch_psi       :     51.85s CPU     56.01s WALL (  141730 calls)
     h_psi        :     43.54s CPU     46.96s WALL (  152590 calls)
     last         :      8.41s CPU      9.10s WALL (  141730 calls)

     h_psi        :     43.54s CPU     46.96s WALL (  152590 calls)
     add_vuspsi   :      2.89s CPU      3.09s WALL (  152590 calls)

     incdrhoscf   :      4.61s CPU      4.98s WALL (   15614 calls)
     addusdbec    :      0.63s CPU      0.70s WALL (   18062 calls)

     drhodvus     :      0.00s CPU      0.00s WALL (      32 calls)

      General routines
     calbec       :      9.70s CPU     10.55s WALL (  346400 calls)
     fft          :      0.30s CPU      0.33s WALL (    5267 calls)
     ffts         :      0.13s CPU      0.13s WALL (    2748 calls)
     fftw         :     41.41s CPU     44.63s WALL ( 1381700 calls)
     davcio       :      0.31s CPU      0.35s WALL (   79315 calls)
     write_rec    :      0.21s CPU      0.22s WALL (     234 calls)


     PHONON       :  1m18.53s CPU     1m24.56s WALL


   This run was terminated on:  17:26:33   9Nov2017            

=------------------------------------------------------------------------------=
   JOB DONE.
=------------------------------------------------------------------------------=
