
     Program PHONON v.6.1 (svn rev. 13369) starts on 10Nov2017 at 15:37:31 

     This program is part of the open-source Quantum ESPRESSO suite
     for quantum simulation of materials; please cite
         "P. Giannozzi et al., J. Phys.:Condens. Matter 21 395502 (2009);
          URL http://www.quantum-espresso.org", 
     in publications or presentations arising from this work. More details at
     http://www.quantum-espresso.org/quote

     Parallel version (MPI), running on     4 processors
     R & G space division:  proc/nbgrp/npool/nimage =       4

     Reading data from directory:
     ./silicon.10.348.save

   Info: using nr1, nr2, nr3 values from input

   Info: using nr1, nr2, nr3 values from input

     IMPORTANT: XC functional enforced from input :
     Exchange-correlation      = SLA  PW   PBE  PBE ( 1  4  3  4 0 0)
     Any further DFT definition will be discarded
     Please, verify this is what you really want


     Parallelization info
     --------------------
     sticks:   dense  smooth     PW     G-vecs:    dense   smooth      PW
     Min         219     109     37                 4315     1545     284
     Max         220     110     38                 4316     1546     285
     Sum         877     439    151                17261     6183    1139



     Dynamical matrices for ( 4, 4, 4)  uniform grid of q-points
     (   8q-points):
       N         xq(1)         xq(2)         xq(3) 
       1   0.000000000   0.000000000   0.000000000
       2  -0.250000000   0.250000000  -0.250000000
       3   0.500000000  -0.500000000   0.500000000
       4   0.000000000   0.500000000   0.000000000
       5   0.750000000  -0.250000000   0.750000000
       6   0.500000000   0.000000000   0.500000000
       7   0.000000000  -1.000000000   0.000000000
       8  -0.500000000  -1.000000000   0.000000000

     Calculation of q =    0.0000000   0.0000000   0.0000000

                                                                                

     bravais-lattice index     =            2
     lattice parameter (alat)  =      10.3480  a.u.
     unit-cell volume          =     277.0188 (a.u.)^3
     number of atoms/cell      =            2
     number of atomic types    =            1
     kinetic-energy cut-off    =      30.0000  Ry
     charge density cut-off    =     240.0000  Ry
     convergence threshold     =      1.0E-12
     beta                      =       0.7000
     number of iterations used =            4
     Exchange-correlation      = SLA  PW   PBE  PBE ( 1  4  3  4 0 0)


     celldm(1)=   10.34800  celldm(2)=    0.00000  celldm(3)=    0.00000
     celldm(4)=    0.00000  celldm(5)=    0.00000  celldm(6)=    0.00000

     crystal axes: (cart. coord. in units of alat)
               a(1) = ( -0.5000  0.0000  0.5000 )  
               a(2) = (  0.0000  0.5000  0.5000 )  
               a(3) = ( -0.5000  0.5000  0.0000 )  

     reciprocal axes: (cart. coord. in units 2 pi/alat)
               b(1) = ( -1.0000 -1.0000  1.0000 )  
               b(2) = (  1.0000  1.0000  1.0000 )  
               b(3) = ( -1.0000  1.0000 -1.0000 )  


     Atoms inside the unit cell: 

     Cartesian axes

     site n.  atom      mass           positions (alat units)
        1     Si  28.0860   tau(    1) = (    0.00000    0.00000    0.00000  )
        2     Si  28.0860   tau(    2) = (    0.25000    0.25000    0.25000  )

     Computing dynamical matrix for 
                    q = (   0.0000000   0.0000000   0.0000000 )

     49 Sym.Ops. (with q -> -q+G )


     G cutoff =  650.9751  (   4315 G-vectors)     FFT grid: ( 40, 40, 40)
     G cutoff =  325.4875  (   1546 G-vectors)  smooth grid: ( 25, 25, 25)
     number of k points=    10

     PseudoPot. # 1 for Si read from file:
     /home/s1333534/quantum_espresso/qe-6.1/pseudo/si_pbe_v1.uspp.F.UPF.txt
     MD5 check sum: a056efeee980c13900f22a371efd63c1
     Pseudo is Ultrasoft + core correction, Zval =  4.0
     Generated by new atomic code, or converted to UPF format
     Using radial grid of  899 points,  6 beta functions with: 
                l(1) =   0
                l(2) =   0
                l(3) =   1
                l(4) =   1
                l(5) =   2
                l(6) =   2
     Q(r) pseudized with  8 coefficients,  rinner =    0.900   0.900   0.900
                                                       0.900   0.900

     Mode symmetry, O_h (m-3m)  point group:


     Electric field:
     Dielectric constant
     Born effective charges in two ways 


     Atomic displacements:
     There are   2 irreducible representations

     Representation     1      3 modes -T_2g G_25' G_5+  To be done

     Representation     2      3 modes -T_1u G_15  G_4-  To be done



     Alpha used in Ewald sum =   2.5000
     PHONON       :     0.96s CPU         1.25s WALL


     Electric Fields Calculation

      iter #   1 total cpu time :     2.4 secs   av.it.:   5.8
      thresh= 1.000E-02 alpha_mix =  0.700 |ddv_scf|^2 =  9.683E-08

      iter #   2 total cpu time :     3.2 secs   av.it.:  11.9
      thresh= 3.112E-05 alpha_mix =  0.700 |ddv_scf|^2 =  5.739E-09

      iter #   3 total cpu time :     4.0 secs   av.it.:  11.7
      thresh= 7.575E-06 alpha_mix =  0.700 |ddv_scf|^2 =  3.853E-10

      iter #   4 total cpu time :     4.7 secs   av.it.:  10.6
      thresh= 1.963E-06 alpha_mix =  0.700 |ddv_scf|^2 =  2.558E-12

      iter #   5 total cpu time :     5.4 secs   av.it.:  11.2
      thresh= 1.600E-07 alpha_mix =  0.700 |ddv_scf|^2 =  2.564E-15

     End of electric fields calculation

          Dielectric constant in cartesian axis 

          (      13.996010139      -0.000000000       0.000000000 )
          (      -0.000000000      13.996010139      -0.000000000 )
          (      -0.000000000      -0.000000000      13.996010139 )

          Effective charges (d Force / dE) in cartesian axis

           atom      1   Si 
      Ex  (       -0.03825        0.00000        0.00000 )
      Ey  (        0.00000       -0.03825       -0.00000 )
      Ez  (        0.00000       -0.00000       -0.03825 )
           atom      2   Si 
      Ex  (       -0.03825        0.00000        0.00000 )
      Ey  (        0.00000       -0.03825        0.00000 )
      Ez  (       -0.00000       -0.00000       -0.03825 )


     Representation #  1 modes #   1  2  3

     Self-consistent Calculation

      iter #   1 total cpu time :     6.8 secs   av.it.:   5.1
      thresh= 1.000E-02 alpha_mix =  0.700 |ddv_scf|^2 =  1.713E-08

      iter #   2 total cpu time :     7.6 secs   av.it.:  11.8
      thresh= 1.309E-05 alpha_mix =  0.700 |ddv_scf|^2 =  7.000E-10

      iter #   3 total cpu time :     8.5 secs   av.it.:  11.3
      thresh= 2.646E-06 alpha_mix =  0.700 |ddv_scf|^2 =  4.763E-11

      iter #   4 total cpu time :     9.2 secs   av.it.:  10.4
      thresh= 6.901E-07 alpha_mix =  0.700 |ddv_scf|^2 =  1.182E-13

     End of self-consistent calculation

     Convergence has been achieved 


     Representation #  2 modes #   4  5  6

     Self-consistent Calculation

      iter #   1 total cpu time :    10.1 secs   av.it.:   5.2
      thresh= 1.000E-02 alpha_mix =  0.700 |ddv_scf|^2 =  1.350E-08

      iter #   2 total cpu time :    11.0 secs   av.it.:  11.7
      thresh= 1.162E-05 alpha_mix =  0.700 |ddv_scf|^2 =  7.936E-10

      iter #   3 total cpu time :    11.9 secs   av.it.:  11.4
      thresh= 2.817E-06 alpha_mix =  0.700 |ddv_scf|^2 =  4.928E-11

      iter #   4 total cpu time :    12.6 secs   av.it.:  11.5
      thresh= 7.020E-07 alpha_mix =  0.700 |ddv_scf|^2 =  1.918E-13

     End of self-consistent calculation

     Convergence has been achieved 

     Number of q in the star =    1
     List of q in the star:
          1   0.000000000   0.000000000   0.000000000

          Dielectric constant in cartesian axis 

          (      13.996010139      -0.000000000       0.000000000 )
          (      -0.000000000      13.996010139      -0.000000000 )
          (      -0.000000000      -0.000000000      13.996010139 )

          Effective charges (d Force / dE) in cartesian axis

           atom      1   Si 
      Ex  (       -0.03825        0.00000        0.00000 )
      Ey  (        0.00000       -0.03825       -0.00000 )
      Ez  (        0.00000       -0.00000       -0.03825 )
           atom      2   Si 
      Ex  (       -0.03825        0.00000        0.00000 )
      Ey  (        0.00000       -0.03825        0.00000 )
      Ez  (       -0.00000       -0.00000       -0.03825 )

          Effective charges (d P / du) in cartesian axis 

           atom      1   Si 
      Px  (       -0.07268        0.00000        0.00000 )
      Py  (        0.00000       -0.07268       -0.00000 )
      Pz  (        0.00000       -0.00000       -0.07268 )
           atom      2   Si 
      Px  (       -0.07268        0.00000        0.00000 )
      Py  (        0.00000       -0.07268        0.00000 )
      Pz  (        0.00000        0.00000       -0.07268 )

     Diagonalizing the dynamical matrix

     q = (    0.000000000   0.000000000   0.000000000 ) 

 **************************************************************************
     freq (    1) =      -0.476134 [THz] =     -15.882128 [cm-1]
     freq (    2) =      -0.476134 [THz] =     -15.882128 [cm-1]
     freq (    3) =      -0.476134 [THz] =     -15.882128 [cm-1]
     freq (    4) =      15.005444 [THz] =     500.527748 [cm-1]
     freq (    5) =      15.005444 [THz] =     500.527748 [cm-1]
     freq (    6) =      15.005444 [THz] =     500.527748 [cm-1]
 **************************************************************************

     Mode symmetry, O_h (m-3m)  point group:

     freq (  1 -  3) =        -15.9  [cm-1]   --> T_1u G_15  G_4- I  
     freq (  4 -  6) =        500.5  [cm-1]   --> T_2g G_25' G_5+ R  

     Calculation of q =   -0.2500000   0.2500000  -0.2500000

   Info: using nr1, nr2, nr3 values from input

   Info: using nr1, nr2, nr3 values from input

     Parallelization info
     --------------------
     sticks:   dense  smooth     PW     G-vecs:    dense   smooth      PW
     Min         218     109     37                 4315     1545     309
     Max         220     110     38                 4316     1546     312
     Sum         877     439    151                17261     6183    1243



     bravais-lattice index     =            2
     lattice parameter (alat)  =      10.3480  a.u.
     unit-cell volume          =     277.0188 (a.u.)^3
     number of atoms/cell      =            2
     number of atomic types    =            1
     number of electrons       =         8.00
     number of Kohn-Sham states=            4
     kinetic-energy cutoff     =      30.0000  Ry
     charge density cutoff     =     240.0000  Ry
     Exchange-correlation      = SLA  PW   PBE  PBE ( 1  4  3  4 0 0)

     celldm(1)=  10.348000  celldm(2)=   0.000000  celldm(3)=   0.000000
     celldm(4)=   0.000000  celldm(5)=   0.000000  celldm(6)=   0.000000

     crystal axes: (cart. coord. in units of alat)
               a(1) = (  -0.500000   0.000000   0.500000 )  
               a(2) = (   0.000000   0.500000   0.500000 )  
               a(3) = (  -0.500000   0.500000   0.000000 )  

     reciprocal axes: (cart. coord. in units 2 pi/alat)
               b(1) = ( -1.000000 -1.000000  1.000000 )  
               b(2) = (  1.000000  1.000000  1.000000 )  
               b(3) = ( -1.000000  1.000000 -1.000000 )  


     PseudoPot. # 1 for Si read from file:
     /home/s1333534/quantum_espresso/qe-6.1/pseudo/si_pbe_v1.uspp.F.UPF.txt
     MD5 check sum: a056efeee980c13900f22a371efd63c1
     Pseudo is Ultrasoft + core correction, Zval =  4.0
     Generated by new atomic code, or converted to UPF format
     Using radial grid of  899 points,  6 beta functions with: 
                l(1) =   0
                l(2) =   0
                l(3) =   1
                l(4) =   1
                l(5) =   2
                l(6) =   2
     Q(r) pseudized with  8 coefficients,  rinner =    0.900   0.900   0.900
                                                       0.900   0.900

     atomic species   valence    mass     pseudopotential
        Si             4.00    28.08600     Si( 1.00)

     48 Sym. Ops., with inversion, found



   Cartesian axes

     site n.     atom                  positions (alat units)
         1           Si  tau(   1) = (   0.0000000   0.0000000   0.0000000  )
         2           Si  tau(   2) = (   0.2500000   0.2500000   0.2500000  )

     number of k points=   120

     Number of k-points >= 100: set verbosity='high' to print them.

     Dense  grid:    17261 G-vectors     FFT dimensions: (  40,  40,  40)

     Smooth grid:     6183 G-vectors     FFT dimensions: (  25,  25,  25)

     Estimated max dynamical RAM per process >       1.79MB

     Estimated total allocated dynamical RAM >       7.14MB

     The potential is recalculated from file :
     ./_ph0/silicon.10.348.save/charge-density.dat

     Starting wfc are    8 atomic wfcs

     Band Structure Calculation
     Davidson diagonalization with overlap

     ethr =  1.25E-10,  avg # of iterations = 12.2

     total cpu time spent up to now is        1.4 secs

     End of band structure calculation

     Number of k-points >= 100: set verbosity='high' to print the bands.

     highest occupied level (ev):     5.6546

     Writing output data file silicon.10.348.save

                                                                                

     bravais-lattice index     =            2
     lattice parameter (alat)  =      10.3480  a.u.
     unit-cell volume          =     277.0188 (a.u.)^3
     number of atoms/cell      =            2
     number of atomic types    =            1
     kinetic-energy cut-off    =      30.0000  Ry
     charge density cut-off    =     240.0000  Ry
     convergence threshold     =      1.0E-12
     beta                      =       0.7000
     number of iterations used =            4
     Exchange-correlation      = SLA  PW   PBE  PBE ( 1  4  3  4 0 0)


     celldm(1)=   10.34800  celldm(2)=    0.00000  celldm(3)=    0.00000
     celldm(4)=    0.00000  celldm(5)=    0.00000  celldm(6)=    0.00000

     crystal axes: (cart. coord. in units of alat)
               a(1) = ( -0.5000  0.0000  0.5000 )  
               a(2) = (  0.0000  0.5000  0.5000 )  
               a(3) = ( -0.5000  0.5000  0.0000 )  

     reciprocal axes: (cart. coord. in units 2 pi/alat)
               b(1) = ( -1.0000 -1.0000  1.0000 )  
               b(2) = (  1.0000  1.0000  1.0000 )  
               b(3) = ( -1.0000  1.0000 -1.0000 )  


     Atoms inside the unit cell: 

     Cartesian axes

     site n.  atom      mass           positions (alat units)
        1     Si  28.0860   tau(    1) = (    0.00000    0.00000    0.00000  )
        2     Si  28.0860   tau(    2) = (    0.25000    0.25000    0.25000  )

     Computing dynamical matrix for 
                    q = (  -0.2500000   0.2500000  -0.2500000 )

      6 Sym.Ops. (no q -> -q+G )


     G cutoff =  650.9751  (   4315 G-vectors)     FFT grid: ( 40, 40, 40)
     G cutoff =  325.4875  (   1546 G-vectors)  smooth grid: ( 25, 25, 25)
     number of k points=   120

     PseudoPot. # 1 for Si read from file:
     /home/s1333534/quantum_espresso/qe-6.1/pseudo/si_pbe_v1.uspp.F.UPF.txt
     MD5 check sum: a056efeee980c13900f22a371efd63c1
     Pseudo is Ultrasoft + core correction, Zval =  4.0
     Generated by new atomic code, or converted to UPF format
     Using radial grid of  899 points,  6 beta functions with: 
                l(1) =   0
                l(2) =   0
                l(3) =   1
                l(4) =   1
                l(5) =   2
                l(6) =   2
     Q(r) pseudized with  8 coefficients,  rinner =    0.900   0.900   0.900
                                                       0.900   0.900

     Mode symmetry, C_3v (3m)   point group:


     Atomic displacements:
     There are   4 irreducible representations

     Representation     1      1 modes -A_1  L_1  To be done

     Representation     2      1 modes -A_1  L_1  To be done

     Representation     3      2 modes -E    L_3  To be done

     Representation     4      2 modes -E    L_3  To be done



     Alpha used in Ewald sum =   2.5000
     PHONON       :    11.94s CPU        16.13s WALL



     Representation #  1 mode #   1

     Self-consistent Calculation

      iter #   1 total cpu time :    16.6 secs   av.it.:   5.9
      thresh= 1.000E-02 alpha_mix =  0.700 |ddv_scf|^2 =  3.094E-04

      iter #   2 total cpu time :    17.2 secs   av.it.:   9.2
      thresh= 1.759E-03 alpha_mix =  0.700 |ddv_scf|^2 =  4.724E-03

      iter #   3 total cpu time :    17.8 secs   av.it.:   7.1
      thresh= 6.873E-03 alpha_mix =  0.700 |ddv_scf|^2 =  1.955E-07

      iter #   4 total cpu time :    18.4 secs   av.it.:   9.7
      thresh= 4.422E-05 alpha_mix =  0.700 |ddv_scf|^2 =  1.300E-08

      iter #   5 total cpu time :    19.1 secs   av.it.:   9.7
      thresh= 1.140E-05 alpha_mix =  0.700 |ddv_scf|^2 =  2.421E-10

      iter #   6 total cpu time :    20.0 secs   av.it.:   9.9
      thresh= 1.556E-06 alpha_mix =  0.700 |ddv_scf|^2 =  6.384E-10

      iter #   7 total cpu time :    20.6 secs   av.it.:   7.8
      thresh= 2.527E-06 alpha_mix =  0.700 |ddv_scf|^2 =  3.656E-11

      iter #   8 total cpu time :    21.2 secs   av.it.:   9.4
      thresh= 6.046E-07 alpha_mix =  0.700 |ddv_scf|^2 =  4.055E-13

     End of self-consistent calculation

     Convergence has been achieved 


     Representation #  2 mode #   2

     Self-consistent Calculation

      iter #   1 total cpu time :    21.8 secs   av.it.:   5.9
      thresh= 1.000E-02 alpha_mix =  0.700 |ddv_scf|^2 =  3.094E-04

      iter #   2 total cpu time :    22.5 secs   av.it.:   9.2
      thresh= 1.759E-03 alpha_mix =  0.700 |ddv_scf|^2 =  4.724E-03

      iter #   3 total cpu time :    23.0 secs   av.it.:   7.1
      thresh= 6.873E-03 alpha_mix =  0.700 |ddv_scf|^2 =  1.955E-07

      iter #   4 total cpu time :    23.7 secs   av.it.:   9.7
      thresh= 4.422E-05 alpha_mix =  0.700 |ddv_scf|^2 =  1.300E-08

      iter #   5 total cpu time :    24.3 secs   av.it.:   9.7
      thresh= 1.140E-05 alpha_mix =  0.700 |ddv_scf|^2 =  2.421E-10

      iter #   6 total cpu time :    25.0 secs   av.it.:   9.9
      thresh= 1.556E-06 alpha_mix =  0.700 |ddv_scf|^2 =  6.384E-10

      iter #   7 total cpu time :    25.6 secs   av.it.:   7.8
      thresh= 2.527E-06 alpha_mix =  0.700 |ddv_scf|^2 =  3.656E-11

      iter #   8 total cpu time :    26.2 secs   av.it.:   9.4
      thresh= 6.046E-07 alpha_mix =  0.700 |ddv_scf|^2 =  4.055E-13

     End of self-consistent calculation

     Convergence has been achieved 


     Representation #  3 modes #   3  4

     Self-consistent Calculation

      iter #   1 total cpu time :    27.1 secs   av.it.:   5.2
      thresh= 1.000E-02 alpha_mix =  0.700 |ddv_scf|^2 =  4.815E-08

      iter #   2 total cpu time :    28.5 secs   av.it.:  11.7
      thresh= 2.194E-05 alpha_mix =  0.700 |ddv_scf|^2 =  3.093E-09

      iter #   3 total cpu time :    29.8 secs   av.it.:  11.2
      thresh= 5.562E-06 alpha_mix =  0.700 |ddv_scf|^2 =  1.635E-10

      iter #   4 total cpu time :    31.0 secs   av.it.:  11.1
      thresh= 1.279E-06 alpha_mix =  0.700 |ddv_scf|^2 =  6.289E-13

     End of self-consistent calculation

     Convergence has been achieved 


     Representation #  4 modes #   5  6

     Self-consistent Calculation

      iter #   1 total cpu time :    32.0 secs   av.it.:   5.2
      thresh= 1.000E-02 alpha_mix =  0.700 |ddv_scf|^2 =  4.816E-08

      iter #   2 total cpu time :    33.4 secs   av.it.:  11.7
      thresh= 2.195E-05 alpha_mix =  0.700 |ddv_scf|^2 =  3.093E-09

      iter #   3 total cpu time :    34.7 secs   av.it.:  11.4
      thresh= 5.562E-06 alpha_mix =  0.700 |ddv_scf|^2 =  1.634E-10

      iter #   4 total cpu time :    35.9 secs   av.it.:  11.2
      thresh= 1.278E-06 alpha_mix =  0.700 |ddv_scf|^2 =  6.322E-13

     End of self-consistent calculation

     Convergence has been achieved 

     Number of q in the star =    8
     List of q in the star:
          1  -0.250000000   0.250000000  -0.250000000
          2   0.250000000  -0.250000000  -0.250000000
          3   0.250000000  -0.250000000   0.250000000
          4   0.250000000   0.250000000   0.250000000
          5  -0.250000000  -0.250000000  -0.250000000
          6  -0.250000000  -0.250000000   0.250000000
          7  -0.250000000   0.250000000   0.250000000
          8   0.250000000   0.250000000  -0.250000000

     Diagonalizing the dynamical matrix

     q = (   -0.250000000   0.250000000  -0.250000000 ) 

 **************************************************************************
     freq (    1) =       2.793398 [THz] =      93.177711 [cm-1]
     freq (    2) =       2.793398 [THz] =      93.177711 [cm-1]
     freq (    3) =       6.701129 [THz] =     223.525613 [cm-1]
     freq (    4) =      14.158917 [THz] =     472.290632 [cm-1]
     freq (    5) =      14.423767 [THz] =     481.125077 [cm-1]
     freq (    6) =      14.423767 [THz] =     481.125077 [cm-1]
 **************************************************************************

     Mode symmetry, C_3v (3m)   point group:

     freq (  1 -  2) =         93.2  [cm-1]   --> E    L_3           
     freq (  3 -  3) =        223.5  [cm-1]   --> A_1  L_1           
     freq (  4 -  4) =        472.3  [cm-1]   --> A_1  L_1           
     freq (  5 -  6) =        481.1  [cm-1]   --> E    L_3           

     Calculation of q =    0.5000000  -0.5000000   0.5000000

   Info: using nr1, nr2, nr3 values from input

   Info: using nr1, nr2, nr3 values from input

     Parallelization info
     --------------------
     sticks:   dense  smooth     PW     G-vecs:    dense   smooth      PW
     Min         219     109     40                 4315     1545     351
     Max         220     110     41                 4316     1546     354
     Sum         877     439    163                17261     6183    1411



     bravais-lattice index     =            2
     lattice parameter (alat)  =      10.3480  a.u.
     unit-cell volume          =     277.0188 (a.u.)^3
     number of atoms/cell      =            2
     number of atomic types    =            1
     number of electrons       =         8.00
     number of Kohn-Sham states=            4
     kinetic-energy cutoff     =      30.0000  Ry
     charge density cutoff     =     240.0000  Ry
     Exchange-correlation      = SLA  PW   PBE  PBE ( 1  4  3  4 0 0)

     celldm(1)=  10.348000  celldm(2)=   0.000000  celldm(3)=   0.000000
     celldm(4)=   0.000000  celldm(5)=   0.000000  celldm(6)=   0.000000

     crystal axes: (cart. coord. in units of alat)
               a(1) = (  -0.500000   0.000000   0.500000 )  
               a(2) = (   0.000000   0.500000   0.500000 )  
               a(3) = (  -0.500000   0.500000   0.000000 )  

     reciprocal axes: (cart. coord. in units 2 pi/alat)
               b(1) = ( -1.000000 -1.000000  1.000000 )  
               b(2) = (  1.000000  1.000000  1.000000 )  
               b(3) = ( -1.000000  1.000000 -1.000000 )  


     PseudoPot. # 1 for Si read from file:
     /home/s1333534/quantum_espresso/qe-6.1/pseudo/si_pbe_v1.uspp.F.UPF.txt
     MD5 check sum: a056efeee980c13900f22a371efd63c1
     Pseudo is Ultrasoft + core correction, Zval =  4.0
     Generated by new atomic code, or converted to UPF format
     Using radial grid of  899 points,  6 beta functions with: 
                l(1) =   0
                l(2) =   0
                l(3) =   1
                l(4) =   1
                l(5) =   2
                l(6) =   2
     Q(r) pseudized with  8 coefficients,  rinner =    0.900   0.900   0.900
                                                       0.900   0.900

     atomic species   valence    mass     pseudopotential
        Si             4.00    28.08600     Si( 1.00)

     48 Sym. Ops., with inversion, found



   Cartesian axes

     site n.     atom                  positions (alat units)
         1           Si  tau(   1) = (   0.0000000   0.0000000   0.0000000  )
         2           Si  tau(   2) = (   0.2500000   0.2500000   0.2500000  )

     number of k points=    60
                       cart. coord. in units 2pi/alat
        k(    1) = (  -0.1250000   0.1250000   0.1250000), wk =   0.0468750
        k(    2) = (   0.3750000  -0.3750000   0.6250000), wk =   0.0000000
        k(    3) = (  -0.3750000   0.3750000  -0.1250000), wk =   0.0468750
        k(    4) = (   0.1250000  -0.1250000   0.3750000), wk =   0.0000000
        k(    5) = (   0.3750000  -0.3750000   0.6250000), wk =   0.0468750
        k(    6) = (   0.8750000  -0.8750000   1.1250000), wk =   0.0000000
        k(    7) = (   0.1250000  -0.1250000   0.3750000), wk =   0.0468750
        k(    8) = (   0.6250000  -0.6250000   0.8750000), wk =   0.0000000
        k(    9) = (  -0.1250000   0.6250000   0.1250000), wk =   0.0937500
        k(   10) = (   0.3750000   0.1250000   0.6250000), wk =   0.0000000
        k(   11) = (   0.6250000  -0.1250000   0.8750000), wk =   0.0937500
        k(   12) = (   1.1250000  -0.6250000   1.3750000), wk =   0.0000000
        k(   13) = (   0.3750000   0.1250000   0.6250000), wk =   0.0937500
        k(   14) = (   0.8750000  -0.3750000   1.1250000), wk =   0.0000000
        k(   15) = (  -0.1250000  -0.8750000   0.1250000), wk =   0.0937500
        k(   16) = (   0.3750000  -1.3750000   0.6250000), wk =   0.0000000
        k(   17) = (  -0.3750000   0.3750000   0.3750000), wk =   0.0468750
        k(   18) = (   0.1250000  -0.1250000   0.8750000), wk =   0.0000000
        k(   19) = (   0.3750000  -0.3750000   1.1250000), wk =   0.0468750
        k(   20) = (   0.8750000  -0.8750000   1.6250000), wk =   0.0000000
        k(   21) = (   0.1250000  -0.1250000   0.1250000), wk =   0.0156250
        k(   22) = (   0.6250000  -0.6250000   0.6250000), wk =   0.0000000
        k(   23) = (  -0.3750000  -0.3750000  -0.1250000), wk =   0.0937500
        k(   24) = (   0.1250000  -0.8750000   0.3750000), wk =   0.0000000
        k(   25) = (  -0.1250000  -0.3750000   0.3750000), wk =   0.0468750
        k(   26) = (   0.3750000  -0.8750000   0.8750000), wk =   0.0000000
        k(   27) = (   0.3750000   0.3750000   0.6250000), wk =   0.0937500
        k(   28) = (   0.8750000  -0.1250000   1.1250000), wk =   0.0000000
        k(   29) = (   0.6250000   0.3750000  -0.3750000), wk =   0.0468750
        k(   30) = (   1.1250000  -0.1250000   0.1250000), wk =   0.0000000
        k(   31) = (   0.1250000   0.1250000   0.3750000), wk =   0.0937500
        k(   32) = (   0.6250000  -0.3750000   0.8750000), wk =   0.0000000
        k(   33) = (   0.3750000   0.1250000  -0.1250000), wk =   0.0468750
        k(   34) = (   0.8750000  -0.3750000   0.3750000), wk =   0.0000000
        k(   35) = (  -0.1250000  -0.6250000  -0.1250000), wk =   0.0468750
        k(   36) = (   0.3750000  -1.1250000   0.3750000), wk =   0.0000000
        k(   37) = (   0.1250000  -0.6250000   0.1250000), wk =   0.0468750
        k(   38) = (   0.6250000  -1.1250000   0.6250000), wk =   0.0000000
        k(   39) = (   0.6250000   0.1250000   0.8750000), wk =   0.0937500
        k(   40) = (   1.1250000  -0.3750000   1.3750000), wk =   0.0000000
        k(   41) = (  -0.8750000   0.1250000   0.6250000), wk =   0.0937500
        k(   42) = (  -0.3750000  -0.3750000   1.1250000), wk =   0.0000000
        k(   43) = (   0.8750000   0.1250000  -0.6250000), wk =   0.0937500
        k(   44) = (   1.3750000  -0.3750000  -0.1250000), wk =   0.0000000
        k(   45) = (   0.3750000  -0.1250000   0.6250000), wk =   0.0937500
        k(   46) = (   0.8750000  -0.6250000   1.1250000), wk =   0.0000000
        k(   47) = (  -0.6250000  -0.1250000   0.3750000), wk =   0.0937500
        k(   48) = (  -0.1250000  -0.6250000   0.8750000), wk =   0.0000000
        k(   49) = (   0.6250000  -0.1250000  -0.3750000), wk =   0.0937500
        k(   50) = (   1.1250000  -0.6250000   0.1250000), wk =   0.0000000
        k(   51) = (  -0.1250000   0.8750000  -0.1250000), wk =   0.0468750
        k(   52) = (   0.3750000   0.3750000   0.3750000), wk =   0.0000000
        k(   53) = (   0.1250000   0.8750000   0.1250000), wk =   0.0468750
        k(   54) = (   0.6250000   0.3750000   0.6250000), wk =   0.0000000
        k(   55) = (   0.3750000  -0.3750000   0.3750000), wk =   0.0156250
        k(   56) = (   0.8750000  -0.8750000   0.8750000), wk =   0.0000000
        k(   57) = (   0.3750000   0.3750000   1.1250000), wk =   0.0937500
        k(   58) = (   0.8750000  -0.1250000   1.6250000), wk =   0.0000000
        k(   59) = (   1.1250000   0.3750000  -0.3750000), wk =   0.0468750
        k(   60) = (   1.6250000  -0.1250000   0.1250000), wk =   0.0000000

     Dense  grid:    17261 G-vectors     FFT dimensions: (  40,  40,  40)

     Smooth grid:     6183 G-vectors     FFT dimensions: (  25,  25,  25)

     Estimated max dynamical RAM per process >       1.79MB

     Estimated total allocated dynamical RAM >       7.14MB

     The potential is recalculated from file :
     ./_ph0/silicon.10.348.save/charge-density.dat

     Starting wfc are    8 atomic wfcs

     Band Structure Calculation
     Davidson diagonalization with overlap

     ethr =  1.25E-10,  avg # of iterations = 12.2

     total cpu time spent up to now is        2.5 secs

     End of band structure calculation

          k =-0.1250 0.1250 0.1250 (   773 PWs)   bands (ev):

    -5.6532   4.3452   5.6546   5.6546

          k = 0.3750-0.3750 0.6250 (   767 PWs)   bands (ev):

    -3.4979  -0.7074   3.6954   4.4081

          k =-0.3750 0.3750-0.1250 (   776 PWs)   bands (ev):

    -4.6311   1.3605   3.6767   5.1757

          k = 0.1250-0.1250 0.3750 (   774 PWs)   bands (ev):

    -5.1276   2.7313   4.6516   4.7130

          k = 0.3750-0.3750 0.6250 (   767 PWs)   bands (ev):

    -3.4979  -0.7074   3.6954   4.4081

          k = 0.8750-0.8750 1.1250 (   773 PWs)   bands (ev):

    -5.6532   4.3452   5.6546   5.6546

          k = 0.1250-0.1250 0.3750 (   774 PWs)   bands (ev):

    -5.1276   2.7313   4.6516   4.7130

          k = 0.6250-0.6250 0.8750 (   776 PWs)   bands (ev):

    -4.6311   1.3605   3.6767   5.1757

          k =-0.1250 0.6250 0.1250 (   768 PWs)   bands (ev):

    -4.1006   1.0226   3.3307   3.7813

          k = 0.3750 0.1250 0.6250 (   770 PWs)   bands (ev):

    -3.6874   0.1556   2.6909   4.0549

          k = 0.6250-0.1250 0.8750 (   757 PWs)   bands (ev):

    -2.4691  -0.9323   1.9843   3.0555

          k = 1.1250-0.6250 1.3750 (   776 PWs)   bands (ev):

    -4.6311   1.3605   3.6767   5.1757

          k = 0.3750 0.1250 0.6250 (   770 PWs)   bands (ev):

    -3.6874   0.1556   2.6909   4.0549

          k = 0.8750-0.3750 1.1250 (   768 PWs)   bands (ev):

    -4.1006   1.0226   3.3307   3.7813

          k =-0.1250-0.8750 0.1250 (   763 PWs)   bands (ev):

    -2.6350  -0.8359   2.5909   3.3162

          k = 0.3750-1.3750 0.6250 (   767 PWs)   bands (ev):

    -3.4979  -0.7074   3.6954   4.4081

          k =-0.3750 0.3750 0.3750 (   763 PWs)   bands (ev):

    -4.2005   0.0776   4.8702   4.8702

          k = 0.1250-0.1250 0.8750 (   763 PWs)   bands (ev):

    -2.6350  -0.8359   2.5909   3.3162

          k = 0.3750-0.3750 1.1250 (   769 PWs)   bands (ev):

    -3.0042  -0.6274   2.0406   4.0928

          k = 0.8750-0.8750 1.6250 (   768 PWs)   bands (ev):

    -4.1006   1.0226   3.3307   3.7813

          k = 0.1250-0.1250 0.1250 (   773 PWs)   bands (ev):

    -5.6532   4.3452   5.6546   5.6546

          k = 0.6250-0.6250 0.6250 (   763 PWs)   bands (ev):

    -4.2005   0.0776   4.8702   4.8702

          k =-0.3750-0.3750-0.1250 (   776 PWs)   bands (ev):

    -4.6311   1.3605   3.6767   5.1757

          k = 0.1250-0.8750 0.3750 (   757 PWs)   bands (ev):

    -2.4691  -0.9323   1.9843   3.0555

          k =-0.1250-0.3750 0.3750 (   776 PWs)   bands (ev):

    -4.6311   1.3605   3.6767   5.1757

          k = 0.3750-0.8750 0.8750 (   768 PWs)   bands (ev):

    -4.1006   1.0226   3.3307   3.7813

          k = 0.3750 0.3750 0.6250 (   767 PWs)   bands (ev):

    -3.4979  -0.7074   3.6954   4.4081

          k = 0.8750-0.1250 1.1250 (   763 PWs)   bands (ev):

    -2.6350  -0.8359   2.5909   3.3162

          k = 0.6250 0.3750-0.3750 (   767 PWs)   bands (ev):

    -3.4979  -0.7074   3.6954   4.4081

          k = 1.1250-0.1250 0.1250 (   763 PWs)   bands (ev):

    -2.6350  -0.8359   2.5909   3.3162

          k = 0.1250 0.1250 0.3750 (   774 PWs)   bands (ev):

    -5.1276   2.7313   4.6516   4.7130

          k = 0.6250-0.3750 0.8750 (   770 PWs)   bands (ev):

    -3.6874   0.1556   2.6909   4.0549

          k = 0.3750 0.1250-0.1250 (   774 PWs)   bands (ev):

    -5.1276   2.7313   4.6516   4.7130

          k = 0.8750-0.3750 0.3750 (   769 PWs)   bands (ev):

    -3.0042  -0.6274   2.0406   4.0928

          k =-0.1250-0.6250-0.1250 (   768 PWs)   bands (ev):

    -4.1006   1.0226   3.3307   3.7813

          k = 0.3750-1.1250 0.3750 (   769 PWs)   bands (ev):

    -3.0042  -0.6274   2.0406   4.0928

          k = 0.1250-0.6250 0.1250 (   768 PWs)   bands (ev):

    -4.1006   1.0226   3.3307   3.7813

          k = 0.6250-1.1250 0.6250 (   776 PWs)   bands (ev):

    -4.6311   1.3605   3.6767   5.1757

          k = 0.6250 0.1250 0.8750 (   757 PWs)   bands (ev):

    -2.4691  -0.9323   1.9843   3.0555

          k = 1.1250-0.3750 1.3750 (   770 PWs)   bands (ev):

    -3.6874   0.1556   2.6909   4.0549

          k =-0.8750 0.1250 0.6250 (   757 PWs)   bands (ev):

    -2.4691  -0.9323   1.9843   3.0555

          k =-0.3750-0.3750 1.1250 (   769 PWs)   bands (ev):

    -3.0042  -0.6274   2.0406   4.0928

          k = 0.8750 0.1250-0.6250 (   757 PWs)   bands (ev):

    -2.4691  -0.9323   1.9843   3.0555

          k = 1.3750-0.3750-0.1250 (   770 PWs)   bands (ev):

    -3.6874   0.1556   2.6909   4.0549

          k = 0.3750-0.1250 0.6250 (   770 PWs)   bands (ev):

    -3.6874   0.1556   2.6909   4.0549

          k = 0.8750-0.6250 1.1250 (   774 PWs)   bands (ev):

    -5.1276   2.7313   4.6516   4.7130

          k =-0.6250-0.1250 0.3750 (   770 PWs)   bands (ev):

    -3.6874   0.1556   2.6909   4.0549

          k =-0.1250-0.6250 0.8750 (   757 PWs)   bands (ev):

    -2.4691  -0.9323   1.9843   3.0555

          k = 0.6250-0.1250-0.3750 (   770 PWs)   bands (ev):

    -3.6874   0.1556   2.6909   4.0549

          k = 1.1250-0.6250 0.1250 (   757 PWs)   bands (ev):

    -2.4691  -0.9323   1.9843   3.0555

          k =-0.1250 0.8750-0.1250 (   763 PWs)   bands (ev):

    -2.6350  -0.8359   2.5909   3.3162

          k = 0.3750 0.3750 0.3750 (   763 PWs)   bands (ev):

    -4.2005   0.0776   4.8702   4.8702

          k = 0.1250 0.8750 0.1250 (   763 PWs)   bands (ev):

    -2.6350  -0.8359   2.5909   3.3162

          k = 0.6250 0.3750 0.6250 (   767 PWs)   bands (ev):

    -3.4979  -0.7074   3.6954   4.4081

          k = 0.3750-0.3750 0.3750 (   763 PWs)   bands (ev):

    -4.2005   0.0776   4.8702   4.8702

          k = 0.8750-0.8750 0.8750 (   773 PWs)   bands (ev):

    -5.6532   4.3452   5.6546   5.6546

          k = 0.3750 0.3750 1.1250 (   769 PWs)   bands (ev):

    -3.0042  -0.6274   2.0406   4.0928

          k = 0.8750-0.1250 1.6250 (   757 PWs)   bands (ev):

    -2.4691  -0.9323   1.9843   3.0555

          k = 1.1250 0.3750-0.3750 (   769 PWs)   bands (ev):

    -3.0042  -0.6274   2.0406   4.0928

          k = 1.6250-0.1250 0.1250 (   774 PWs)   bands (ev):

    -5.1276   2.7313   4.6516   4.7130

     highest occupied level (ev):     5.6546

     Writing output data file silicon.10.348.save

                                                                                

     bravais-lattice index     =            2
     lattice parameter (alat)  =      10.3480  a.u.
     unit-cell volume          =     277.0188 (a.u.)^3
     number of atoms/cell      =            2
     number of atomic types    =            1
     kinetic-energy cut-off    =      30.0000  Ry
     charge density cut-off    =     240.0000  Ry
     convergence threshold     =      1.0E-12
     beta                      =       0.7000
     number of iterations used =            4
     Exchange-correlation      = SLA  PW   PBE  PBE ( 1  4  3  4 0 0)


     celldm(1)=   10.34800  celldm(2)=    0.00000  celldm(3)=    0.00000
     celldm(4)=    0.00000  celldm(5)=    0.00000  celldm(6)=    0.00000

     crystal axes: (cart. coord. in units of alat)
               a(1) = ( -0.5000  0.0000  0.5000 )  
               a(2) = (  0.0000  0.5000  0.5000 )  
               a(3) = ( -0.5000  0.5000  0.0000 )  

     reciprocal axes: (cart. coord. in units 2 pi/alat)
               b(1) = ( -1.0000 -1.0000  1.0000 )  
               b(2) = (  1.0000  1.0000  1.0000 )  
               b(3) = ( -1.0000  1.0000 -1.0000 )  


     Atoms inside the unit cell: 

     Cartesian axes

     site n.  atom      mass           positions (alat units)
        1     Si  28.0860   tau(    1) = (    0.00000    0.00000    0.00000  )
        2     Si  28.0860   tau(    2) = (    0.25000    0.25000    0.25000  )

     Computing dynamical matrix for 
                    q = (   0.5000000  -0.5000000   0.5000000 )

     13 Sym.Ops. (with q -> -q+G )


     G cutoff =  650.9751  (   4316 G-vectors)     FFT grid: ( 40, 40, 40)
     G cutoff =  325.4875  (   1546 G-vectors)  smooth grid: ( 25, 25, 25)
     number of k points=    60

     PseudoPot. # 1 for Si read from file:
     /home/s1333534/quantum_espresso/qe-6.1/pseudo/si_pbe_v1.uspp.F.UPF.txt
     MD5 check sum: a056efeee980c13900f22a371efd63c1
     Pseudo is Ultrasoft + core correction, Zval =  4.0
     Generated by new atomic code, or converted to UPF format
     Using radial grid of  899 points,  6 beta functions with: 
                l(1) =   0
                l(2) =   0
                l(3) =   1
                l(4) =   1
                l(5) =   2
                l(6) =   2
     Q(r) pseudized with  8 coefficients,  rinner =    0.900   0.900   0.900
                                                       0.900   0.900


     Atomic displacements:
     There are   4 irreducible representations

     Representation     1      1 modes -  To be done

     Representation     2      1 modes -  To be done

     Representation     3      2 modes -  To be done

     Representation     4      2 modes -  To be done



     Alpha used in Ewald sum =   2.5000
     PHONON       :    29.73s CPU        38.30s WALL



     Representation #  1 mode #   1

     Self-consistent Calculation

      iter #   1 total cpu time :    38.6 secs   av.it.:   5.0
      thresh= 1.000E-02 alpha_mix =  0.700 |ddv_scf|^2 =  3.034E-06

      iter #   2 total cpu time :    39.2 secs   av.it.:  10.1
      thresh= 1.742E-04 alpha_mix =  0.700 |ddv_scf|^2 =  2.795E-06

      iter #   3 total cpu time :    39.6 secs   av.it.:   9.4
      thresh= 1.672E-04 alpha_mix =  0.700 |ddv_scf|^2 =  1.663E-09

      iter #   4 total cpu time :    40.1 secs   av.it.:   9.6
      thresh= 4.078E-06 alpha_mix =  0.700 |ddv_scf|^2 =  1.573E-11

      iter #   5 total cpu time :    40.4 secs   av.it.:   9.5
      thresh= 3.966E-07 alpha_mix =  0.700 |ddv_scf|^2 =  2.272E-13

     End of self-consistent calculation

     Convergence has been achieved 


     Representation #  2 mode #   2

     Self-consistent Calculation

      iter #   1 total cpu time :    40.9 secs   av.it.:   6.0
      thresh= 1.000E-02 alpha_mix =  0.700 |ddv_scf|^2 =  4.315E-05

      iter #   2 total cpu time :    41.3 secs   av.it.:  10.0
      thresh= 6.569E-04 alpha_mix =  0.700 |ddv_scf|^2 =  1.344E-04

      iter #   3 total cpu time :    41.7 secs   av.it.:   8.9
      thresh= 1.159E-03 alpha_mix =  0.700 |ddv_scf|^2 =  1.001E-08

      iter #   4 total cpu time :    42.2 secs   av.it.:  10.1
      thresh= 1.001E-05 alpha_mix =  0.700 |ddv_scf|^2 =  5.066E-10

      iter #   5 total cpu time :    42.7 secs   av.it.:  10.4
      thresh= 2.251E-06 alpha_mix =  0.700 |ddv_scf|^2 =  1.503E-11

      iter #   6 total cpu time :    43.1 secs   av.it.:   9.9
      thresh= 3.876E-07 alpha_mix =  0.700 |ddv_scf|^2 =  1.115E-13

     End of self-consistent calculation

     Convergence has been achieved 


     Representation #  3 modes #   3  4

     Self-consistent Calculation

      iter #   1 total cpu time :    43.9 secs   av.it.:   5.1
      thresh= 1.000E-02 alpha_mix =  0.700 |ddv_scf|^2 =  1.956E-08

      iter #   2 total cpu time :    44.9 secs   av.it.:  11.1
      thresh= 1.398E-05 alpha_mix =  0.700 |ddv_scf|^2 =  1.151E-09

      iter #   3 total cpu time :    45.7 secs   av.it.:  10.9
      thresh= 3.393E-06 alpha_mix =  0.700 |ddv_scf|^2 =  3.880E-11

      iter #   4 total cpu time :    46.4 secs   av.it.:  10.8
      thresh= 6.229E-07 alpha_mix =  0.700 |ddv_scf|^2 =  3.166E-13

     End of self-consistent calculation

     Convergence has been achieved 


     Representation #  4 modes #   5  6

     Self-consistent Calculation

      iter #   1 total cpu time :    47.2 secs   av.it.:   5.1
      thresh= 1.000E-02 alpha_mix =  0.700 |ddv_scf|^2 =  1.003E-07

      iter #   2 total cpu time :    48.1 secs   av.it.:  11.2
      thresh= 3.167E-05 alpha_mix =  0.700 |ddv_scf|^2 =  8.052E-09

      iter #   3 total cpu time :    48.9 secs   av.it.:  11.1
      thresh= 8.973E-06 alpha_mix =  0.700 |ddv_scf|^2 =  2.116E-10

      iter #   4 total cpu time :    49.7 secs   av.it.:  10.1
      thresh= 1.454E-06 alpha_mix =  0.700 |ddv_scf|^2 =  3.861E-13

     End of self-consistent calculation

     Convergence has been achieved 

     Number of q in the star =    4
     List of q in the star:
          1   0.500000000  -0.500000000   0.500000000
          2   0.500000000   0.500000000   0.500000000
          3  -0.500000000   0.500000000   0.500000000
          4   0.500000000   0.500000000  -0.500000000

     Diagonalizing the dynamical matrix

     q = (    0.500000000  -0.500000000   0.500000000 ) 

 **************************************************************************
     freq (    1) =       3.323416 [THz] =     110.857241 [cm-1]
     freq (    2) =       3.323416 [THz] =     110.857241 [cm-1]
     freq (    3) =      11.079862 [THz] =     369.584425 [cm-1]
     freq (    4) =      11.884498 [THz] =     396.424188 [cm-1]
     freq (    5) =      14.207515 [THz] =     473.911682 [cm-1]
     freq (    6) =      14.207515 [THz] =     473.911682 [cm-1]
 **************************************************************************

     Calculation of q =    0.0000000   0.5000000   0.0000000

   Info: using nr1, nr2, nr3 values from input

   Info: using nr1, nr2, nr3 values from input

     Parallelization info
     --------------------
     sticks:   dense  smooth     PW     G-vecs:    dense   smooth      PW
     Min         219     109     40                 4315     1545     322
     Max         220     110     42                 4316     1547     323
     Sum         877     439    163                17261     6183    1291



     bravais-lattice index     =            2
     lattice parameter (alat)  =      10.3480  a.u.
     unit-cell volume          =     277.0188 (a.u.)^3
     number of atoms/cell      =            2
     number of atomic types    =            1
     number of electrons       =         8.00
     number of Kohn-Sham states=            4
     kinetic-energy cutoff     =      30.0000  Ry
     charge density cutoff     =     240.0000  Ry
     Exchange-correlation      = SLA  PW   PBE  PBE ( 1  4  3  4 0 0)

     celldm(1)=  10.348000  celldm(2)=   0.000000  celldm(3)=   0.000000
     celldm(4)=   0.000000  celldm(5)=   0.000000  celldm(6)=   0.000000

     crystal axes: (cart. coord. in units of alat)
               a(1) = (  -0.500000   0.000000   0.500000 )  
               a(2) = (   0.000000   0.500000   0.500000 )  
               a(3) = (  -0.500000   0.500000   0.000000 )  

     reciprocal axes: (cart. coord. in units 2 pi/alat)
               b(1) = ( -1.000000 -1.000000  1.000000 )  
               b(2) = (  1.000000  1.000000  1.000000 )  
               b(3) = ( -1.000000  1.000000 -1.000000 )  


     PseudoPot. # 1 for Si read from file:
     /home/s1333534/quantum_espresso/qe-6.1/pseudo/si_pbe_v1.uspp.F.UPF.txt
     MD5 check sum: a056efeee980c13900f22a371efd63c1
     Pseudo is Ultrasoft + core correction, Zval =  4.0
     Generated by new atomic code, or converted to UPF format
     Using radial grid of  899 points,  6 beta functions with: 
                l(1) =   0
                l(2) =   0
                l(3) =   1
                l(4) =   1
                l(5) =   2
                l(6) =   2
     Q(r) pseudized with  8 coefficients,  rinner =    0.900   0.900   0.900
                                                       0.900   0.900

     atomic species   valence    mass     pseudopotential
        Si             4.00    28.08600     Si( 1.00)

     48 Sym. Ops., with inversion, found



   Cartesian axes

     site n.     atom                  positions (alat units)
         1           Si  tau(   1) = (   0.0000000   0.0000000   0.0000000  )
         2           Si  tau(   2) = (   0.2500000   0.2500000   0.2500000  )

     number of k points=    80
                       cart. coord. in units 2pi/alat
        k(    1) = (  -0.1250000   0.1250000   0.1250000), wk =   0.0312500
        k(    2) = (  -0.1250000   0.6250000   0.1250000), wk =   0.0000000
        k(    3) = (  -0.3750000   0.3750000  -0.1250000), wk =   0.0625000
        k(    4) = (  -0.3750000   0.8750000  -0.1250000), wk =   0.0000000
        k(    5) = (   0.3750000  -0.3750000   0.6250000), wk =   0.0625000
        k(    6) = (   0.3750000   0.1250000   0.6250000), wk =   0.0000000
        k(    7) = (   0.1250000  -0.1250000   0.3750000), wk =   0.0625000
        k(    8) = (   0.1250000   0.3750000   0.3750000), wk =   0.0000000
        k(    9) = (  -0.1250000   0.6250000   0.1250000), wk =   0.0312500
        k(   10) = (  -0.1250000   1.1250000   0.1250000), wk =   0.0000000
        k(   11) = (   0.6250000  -0.1250000   0.8750000), wk =   0.0625000
        k(   12) = (   0.6250000   0.3750000   0.8750000), wk =   0.0000000
        k(   13) = (   0.3750000   0.1250000   0.6250000), wk =   0.0625000
        k(   14) = (   0.3750000   0.6250000   0.6250000), wk =   0.0000000
        k(   15) = (  -0.1250000  -0.8750000   0.1250000), wk =   0.0312500
        k(   16) = (  -0.1250000  -0.3750000   0.1250000), wk =   0.0000000
        k(   17) = (  -0.3750000   0.3750000   0.3750000), wk =   0.0312500
        k(   18) = (  -0.3750000   0.8750000   0.3750000), wk =   0.0000000
        k(   19) = (   0.3750000  -0.3750000   1.1250000), wk =   0.0625000
        k(   20) = (   0.3750000   0.1250000   1.1250000), wk =   0.0000000
        k(   21) = (  -0.1250000  -0.1250000   0.1250000), wk =   0.0312500
        k(   22) = (  -0.1250000   0.3750000   0.1250000), wk =   0.0000000
        k(   23) = (   0.1250000  -0.3750000   0.3750000), wk =   0.0625000
        k(   24) = (   0.1250000   0.1250000   0.3750000), wk =   0.0000000
        k(   25) = (   0.3750000  -0.1250000   0.3750000), wk =   0.0312500
        k(   26) = (   0.3750000   0.3750000   0.3750000), wk =   0.0000000
        k(   27) = (   0.3750000   0.1250000   0.3750000), wk =   0.0312500
        k(   28) = (   0.3750000   0.6250000   0.3750000), wk =   0.0000000
        k(   29) = (  -0.6250000   0.3750000  -0.3750000), wk =   0.0625000
        k(   30) = (  -0.6250000   0.8750000  -0.3750000), wk =   0.0000000
        k(   31) = (  -0.3750000   0.6250000  -0.3750000), wk =   0.0312500
        k(   32) = (  -0.3750000   1.1250000  -0.3750000), wk =   0.0000000
        k(   33) = (  -0.3750000  -0.6250000  -0.3750000), wk =   0.0312500
        k(   34) = (  -0.3750000  -0.1250000  -0.3750000), wk =   0.0000000
        k(   35) = (  -0.3750000   0.1250000  -0.1250000), wk =   0.0625000
        k(   36) = (  -0.3750000   0.6250000  -0.1250000), wk =   0.0000000
        k(   37) = (  -0.1250000   0.3750000  -0.1250000), wk =   0.0312500
        k(   38) = (  -0.1250000   0.8750000  -0.1250000), wk =   0.0000000
        k(   39) = (  -0.1250000  -0.3750000  -0.1250000), wk =   0.0312500
        k(   40) = (  -0.1250000   0.1250000  -0.1250000), wk =   0.0000000
        k(   41) = (  -0.1250000  -0.6250000   0.1250000), wk =   0.0312500
        k(   42) = (  -0.1250000  -0.1250000   0.1250000), wk =   0.0000000
        k(   43) = (   0.6250000  -0.1250000  -0.1250000), wk =   0.0625000
        k(   44) = (   0.6250000   0.3750000  -0.1250000), wk =   0.0000000
        k(   45) = (   0.6250000   0.1250000   0.1250000), wk =   0.0625000
        k(   46) = (   0.6250000   0.6250000   0.1250000), wk =   0.0000000
        k(   47) = (  -0.8750000   0.1250000  -0.6250000), wk =   0.0625000
        k(   48) = (  -0.8750000   0.6250000  -0.6250000), wk =   0.0000000
        k(   49) = (  -0.1250000   0.6250000  -0.8750000), wk =   0.0625000
        k(   50) = (  -0.1250000   1.1250000  -0.8750000), wk =   0.0000000
        k(   51) = (  -0.1250000   0.8750000  -0.6250000), wk =   0.0625000
        k(   52) = (  -0.1250000   1.3750000  -0.6250000), wk =   0.0000000
        k(   53) = (  -0.1250000  -0.8750000  -0.6250000), wk =   0.0625000
        k(   54) = (  -0.1250000  -0.3750000  -0.6250000), wk =   0.0000000
        k(   55) = (   0.8750000  -0.6250000   0.1250000), wk =   0.0625000
        k(   56) = (   0.8750000  -0.1250000   0.1250000), wk =   0.0000000
        k(   57) = (  -0.6250000  -0.1250000  -0.3750000), wk =   0.0625000
        k(   58) = (  -0.6250000   0.3750000  -0.3750000), wk =   0.0000000
        k(   59) = (   0.1250000   0.3750000  -0.6250000), wk =   0.0625000
        k(   60) = (   0.1250000   0.8750000  -0.6250000), wk =   0.0000000
        k(   61) = (   0.1250000   0.6250000  -0.3750000), wk =   0.0625000
        k(   62) = (   0.1250000   1.1250000  -0.3750000), wk =   0.0000000
        k(   63) = (   0.1250000  -0.6250000  -0.3750000), wk =   0.0625000
        k(   64) = (   0.1250000  -0.1250000  -0.3750000), wk =   0.0000000
        k(   65) = (   0.6250000  -0.3750000  -0.1250000), wk =   0.0625000
        k(   66) = (   0.6250000   0.1250000  -0.1250000), wk =   0.0000000
        k(   67) = (  -0.1250000   0.8750000   0.1250000), wk =   0.0312500
        k(   68) = (  -0.1250000   1.3750000   0.1250000), wk =   0.0000000
        k(   69) = (  -0.8750000  -0.1250000  -0.1250000), wk =   0.0625000
        k(   70) = (  -0.8750000   0.3750000  -0.1250000), wk =   0.0000000
        k(   71) = (  -0.8750000   0.1250000   0.1250000), wk =   0.0625000
        k(   72) = (  -0.8750000   0.6250000   0.1250000), wk =   0.0000000
        k(   73) = (  -0.3750000  -0.3750000   0.3750000), wk =   0.0312500
        k(   74) = (  -0.3750000   0.1250000   0.3750000), wk =   0.0000000
        k(   75) = (  -1.1250000   0.3750000  -0.3750000), wk =   0.0625000
        k(   76) = (  -1.1250000   0.8750000  -0.3750000), wk =   0.0000000
        k(   77) = (  -0.3750000   1.1250000  -0.3750000), wk =   0.0312500
        k(   78) = (  -0.3750000   1.6250000  -0.3750000), wk =   0.0000000
        k(   79) = (  -0.3750000  -1.1250000  -0.3750000), wk =   0.0312500
        k(   80) = (  -0.3750000  -0.6250000  -0.3750000), wk =   0.0000000

     Dense  grid:    17261 G-vectors     FFT dimensions: (  40,  40,  40)

     Smooth grid:     6183 G-vectors     FFT dimensions: (  25,  25,  25)

     Estimated max dynamical RAM per process >       1.79MB

     Estimated total allocated dynamical RAM >       7.14MB

     The potential is recalculated from file :
     ./_ph0/silicon.10.348.save/charge-density.dat

     Starting wfc are    8 atomic wfcs

     Band Structure Calculation
     Davidson diagonalization with overlap

     ethr =  1.25E-10,  avg # of iterations = 12.2

     total cpu time spent up to now is        3.6 secs

     End of band structure calculation

          k =-0.1250 0.1250 0.1250 (   773 PWs)   bands (ev):

    -5.6532   4.3452   5.6546   5.6546

          k =-0.1250 0.6250 0.1250 (   768 PWs)   bands (ev):

    -4.1006   1.0226   3.3307   3.7813

          k =-0.3750 0.3750-0.1250 (   776 PWs)   bands (ev):

    -4.6311   1.3605   3.6767   5.1757

          k =-0.3750 0.8750-0.1250 (   757 PWs)   bands (ev):

    -2.4691  -0.9323   1.9843   3.0555

          k = 0.3750-0.3750 0.6250 (   767 PWs)   bands (ev):

    -3.4979  -0.7074   3.6954   4.4081

          k = 0.3750 0.1250 0.6250 (   770 PWs)   bands (ev):

    -3.6874   0.1556   2.6909   4.0549

          k = 0.1250-0.1250 0.3750 (   774 PWs)   bands (ev):

    -5.1276   2.7313   4.6516   4.7130

          k = 0.1250 0.3750 0.3750 (   776 PWs)   bands (ev):

    -4.6311   1.3605   3.6767   5.1757

          k =-0.1250 0.6250 0.1250 (   768 PWs)   bands (ev):

    -4.1006   1.0226   3.3307   3.7813

          k =-0.1250 1.1250 0.1250 (   763 PWs)   bands (ev):

    -2.6350  -0.8359   2.5909   3.3162

          k = 0.6250-0.1250 0.8750 (   757 PWs)   bands (ev):

    -2.4691  -0.9323   1.9843   3.0555

          k = 0.6250 0.3750 0.8750 (   770 PWs)   bands (ev):

    -3.6874   0.1556   2.6909   4.0549

          k = 0.3750 0.1250 0.6250 (   770 PWs)   bands (ev):

    -3.6874   0.1556   2.6909   4.0549

          k = 0.3750 0.6250 0.6250 (   767 PWs)   bands (ev):

    -3.4979  -0.7074   3.6954   4.4081

          k =-0.1250-0.8750 0.1250 (   763 PWs)   bands (ev):

    -2.6350  -0.8359   2.5909   3.3162

          k =-0.1250-0.3750 0.1250 (   774 PWs)   bands (ev):

    -5.1276   2.7313   4.6516   4.7130

          k =-0.3750 0.3750 0.3750 (   763 PWs)   bands (ev):

    -4.2005   0.0776   4.8702   4.8702

          k =-0.3750 0.8750 0.3750 (   769 PWs)   bands (ev):

    -3.0042  -0.6274   2.0406   4.0928

          k = 0.3750-0.3750 1.1250 (   769 PWs)   bands (ev):

    -3.0042  -0.6274   2.0406   4.0928

          k = 0.3750 0.1250 1.1250 (   757 PWs)   bands (ev):

    -2.4691  -0.9323   1.9843   3.0555

          k =-0.1250-0.1250 0.1250 (   773 PWs)   bands (ev):

    -5.6532   4.3452   5.6546   5.6546

          k =-0.1250 0.3750 0.1250 (   774 PWs)   bands (ev):

    -5.1276   2.7313   4.6516   4.7130

          k = 0.1250-0.3750 0.3750 (   776 PWs)   bands (ev):

    -4.6311   1.3605   3.6767   5.1757

          k = 0.1250 0.1250 0.3750 (   774 PWs)   bands (ev):

    -5.1276   2.7313   4.6516   4.7130

          k = 0.3750-0.1250 0.3750 (   776 PWs)   bands (ev):

    -4.6311   1.3605   3.6767   5.1757

          k = 0.3750 0.3750 0.3750 (   763 PWs)   bands (ev):

    -4.2005   0.0776   4.8702   4.8702

          k = 0.3750 0.1250 0.3750 (   776 PWs)   bands (ev):

    -4.6311   1.3605   3.6767   5.1757

          k = 0.3750 0.6250 0.3750 (   767 PWs)   bands (ev):

    -3.4979  -0.7074   3.6954   4.4081

          k =-0.6250 0.3750-0.3750 (   767 PWs)   bands (ev):

    -3.4979  -0.7074   3.6954   4.4081

          k =-0.6250 0.8750-0.3750 (   770 PWs)   bands (ev):

    -3.6874   0.1556   2.6909   4.0549

          k =-0.3750 0.6250-0.3750 (   767 PWs)   bands (ev):

    -3.4979  -0.7074   3.6954   4.4081

          k =-0.3750 1.1250-0.3750 (   769 PWs)   bands (ev):

    -3.0042  -0.6274   2.0406   4.0928

          k =-0.3750-0.6250-0.3750 (   767 PWs)   bands (ev):

    -3.4979  -0.7074   3.6954   4.4081

          k =-0.3750-0.1250-0.3750 (   776 PWs)   bands (ev):

    -4.6311   1.3605   3.6767   5.1757

          k =-0.3750 0.1250-0.1250 (   774 PWs)   bands (ev):

    -5.1276   2.7313   4.6516   4.7130

          k =-0.3750 0.6250-0.1250 (   770 PWs)   bands (ev):

    -3.6874   0.1556   2.6909   4.0549

          k =-0.1250 0.3750-0.1250 (   774 PWs)   bands (ev):

    -5.1276   2.7313   4.6516   4.7130

          k =-0.1250 0.8750-0.1250 (   763 PWs)   bands (ev):

    -2.6350  -0.8359   2.5909   3.3162

          k =-0.1250-0.3750-0.1250 (   774 PWs)   bands (ev):

    -5.1276   2.7313   4.6516   4.7130

          k =-0.1250 0.1250-0.1250 (   773 PWs)   bands (ev):

    -5.6532   4.3452   5.6546   5.6546

          k =-0.1250-0.6250 0.1250 (   768 PWs)   bands (ev):

    -4.1006   1.0226   3.3307   3.7813

          k =-0.1250-0.1250 0.1250 (   773 PWs)   bands (ev):

    -5.6532   4.3452   5.6546   5.6546

          k = 0.6250-0.1250-0.1250 (   768 PWs)   bands (ev):

    -4.1006   1.0226   3.3307   3.7813

          k = 0.6250 0.3750-0.1250 (   770 PWs)   bands (ev):

    -3.6874   0.1556   2.6909   4.0549

          k = 0.6250 0.1250 0.1250 (   768 PWs)   bands (ev):

    -4.1006   1.0226   3.3307   3.7813

          k = 0.6250 0.6250 0.1250 (   769 PWs)   bands (ev):

    -3.0042  -0.6274   2.0406   4.0928

          k =-0.8750 0.1250-0.6250 (   757 PWs)   bands (ev):

    -2.4691  -0.9323   1.9843   3.0555

          k =-0.8750 0.6250-0.6250 (   776 PWs)   bands (ev):

    -4.6311   1.3605   3.6767   5.1757

          k =-0.1250 0.6250-0.8750 (   757 PWs)   bands (ev):

    -2.4691  -0.9323   1.9843   3.0555

          k =-0.1250 1.1250-0.8750 (   763 PWs)   bands (ev):

    -2.6350  -0.8359   2.5909   3.3162

          k =-0.1250 0.8750-0.6250 (   757 PWs)   bands (ev):

    -2.4691  -0.9323   1.9843   3.0555

          k =-0.1250 1.3750-0.6250 (   769 PWs)   bands (ev):

    -3.0042  -0.6274   2.0406   4.0928

          k =-0.1250-0.8750-0.6250 (   757 PWs)   bands (ev):

    -2.4691  -0.9323   1.9843   3.0555

          k =-0.1250-0.3750-0.6250 (   770 PWs)   bands (ev):

    -3.6874   0.1556   2.6909   4.0549

          k = 0.8750-0.6250 0.1250 (   757 PWs)   bands (ev):

    -2.4691  -0.9323   1.9843   3.0555

          k = 0.8750-0.1250 0.1250 (   763 PWs)   bands (ev):

    -2.6350  -0.8359   2.5909   3.3162

          k =-0.6250-0.1250-0.3750 (   770 PWs)   bands (ev):

    -3.6874   0.1556   2.6909   4.0549

          k =-0.6250 0.3750-0.3750 (   767 PWs)   bands (ev):

    -3.4979  -0.7074   3.6954   4.4081

          k = 0.1250 0.3750-0.6250 (   770 PWs)   bands (ev):

    -3.6874   0.1556   2.6909   4.0549

          k = 0.1250 0.8750-0.6250 (   757 PWs)   bands (ev):

    -2.4691  -0.9323   1.9843   3.0555

          k = 0.1250 0.6250-0.3750 (   770 PWs)   bands (ev):

    -3.6874   0.1556   2.6909   4.0549

          k = 0.1250 1.1250-0.3750 (   757 PWs)   bands (ev):

    -2.4691  -0.9323   1.9843   3.0555

          k = 0.1250-0.6250-0.3750 (   770 PWs)   bands (ev):

    -3.6874   0.1556   2.6909   4.0549

          k = 0.1250-0.1250-0.3750 (   774 PWs)   bands (ev):

    -5.1276   2.7313   4.6516   4.7130

          k = 0.6250-0.3750-0.1250 (   770 PWs)   bands (ev):

    -3.6874   0.1556   2.6909   4.0549

          k = 0.6250 0.1250-0.1250 (   768 PWs)   bands (ev):

    -4.1006   1.0226   3.3307   3.7813

          k =-0.1250 0.8750 0.1250 (   763 PWs)   bands (ev):

    -2.6350  -0.8359   2.5909   3.3162

          k =-0.1250 1.3750 0.1250 (   768 PWs)   bands (ev):

    -4.1006   1.0226   3.3307   3.7813

          k =-0.8750-0.1250-0.1250 (   763 PWs)   bands (ev):

    -2.6350  -0.8359   2.5909   3.3162

          k =-0.8750 0.3750-0.1250 (   757 PWs)   bands (ev):

    -2.4691  -0.9323   1.9843   3.0555

          k =-0.8750 0.1250 0.1250 (   763 PWs)   bands (ev):

    -2.6350  -0.8359   2.5909   3.3162

          k =-0.8750 0.6250 0.1250 (   757 PWs)   bands (ev):

    -2.4691  -0.9323   1.9843   3.0555

          k =-0.3750-0.3750 0.3750 (   763 PWs)   bands (ev):

    -4.2005   0.0776   4.8702   4.8702

          k =-0.3750 0.1250 0.3750 (   776 PWs)   bands (ev):

    -4.6311   1.3605   3.6767   5.1757

          k =-1.1250 0.3750-0.3750 (   769 PWs)   bands (ev):

    -3.0042  -0.6274   2.0406   4.0928

          k =-1.1250 0.8750-0.3750 (   768 PWs)   bands (ev):

    -4.1006   1.0226   3.3307   3.7813

          k =-0.3750 1.1250-0.3750 (   769 PWs)   bands (ev):

    -3.0042  -0.6274   2.0406   4.0928

          k =-0.3750 1.6250-0.3750 (   763 PWs)   bands (ev):

    -4.2005   0.0776   4.8702   4.8702

          k =-0.3750-1.1250-0.3750 (   769 PWs)   bands (ev):

    -3.0042  -0.6274   2.0406   4.0928

          k =-0.3750-0.6250-0.3750 (   767 PWs)   bands (ev):

    -3.4979  -0.7074   3.6954   4.4081

     highest occupied level (ev):     5.6546

     Writing output data file silicon.10.348.save

                                                                                

     bravais-lattice index     =            2
     lattice parameter (alat)  =      10.3480  a.u.
     unit-cell volume          =     277.0188 (a.u.)^3
     number of atoms/cell      =            2
     number of atomic types    =            1
     kinetic-energy cut-off    =      30.0000  Ry
     charge density cut-off    =     240.0000  Ry
     convergence threshold     =      1.0E-12
     beta                      =       0.7000
     number of iterations used =            4
     Exchange-correlation      = SLA  PW   PBE  PBE ( 1  4  3  4 0 0)


     celldm(1)=   10.34800  celldm(2)=    0.00000  celldm(3)=    0.00000
     celldm(4)=    0.00000  celldm(5)=    0.00000  celldm(6)=    0.00000

     crystal axes: (cart. coord. in units of alat)
               a(1) = ( -0.5000  0.0000  0.5000 )  
               a(2) = (  0.0000  0.5000  0.5000 )  
               a(3) = ( -0.5000  0.5000  0.0000 )  

     reciprocal axes: (cart. coord. in units 2 pi/alat)
               b(1) = ( -1.0000 -1.0000  1.0000 )  
               b(2) = (  1.0000  1.0000  1.0000 )  
               b(3) = ( -1.0000  1.0000 -1.0000 )  


     Atoms inside the unit cell: 

     Cartesian axes

     site n.  atom      mass           positions (alat units)
        1     Si  28.0860   tau(    1) = (    0.00000    0.00000    0.00000  )
        2     Si  28.0860   tau(    2) = (    0.25000    0.25000    0.25000  )

     Computing dynamical matrix for 
                    q = (   0.0000000   0.5000000   0.0000000 )

      8 Sym.Ops. (no q -> -q+G )


     G cutoff =  650.9751  (   4315 G-vectors)     FFT grid: ( 40, 40, 40)
     G cutoff =  325.4875  (   1545 G-vectors)  smooth grid: ( 25, 25, 25)
     number of k points=    80

     PseudoPot. # 1 for Si read from file:
     /home/s1333534/quantum_espresso/qe-6.1/pseudo/si_pbe_v1.uspp.F.UPF.txt
     MD5 check sum: a056efeee980c13900f22a371efd63c1
     Pseudo is Ultrasoft + core correction, Zval =  4.0
     Generated by new atomic code, or converted to UPF format
     Using radial grid of  899 points,  6 beta functions with: 
                l(1) =   0
                l(2) =   0
                l(3) =   1
                l(4) =   1
                l(5) =   2
                l(6) =   2
     Q(r) pseudized with  8 coefficients,  rinner =    0.900   0.900   0.900
                                                       0.900   0.900

     Mode symmetry, C_4v (4mm)  point group:


     Atomic displacements:
     There are   4 irreducible representations

     Representation     1      1 modes -A_1  G_1 D_1  To be done

     Representation     2      1 modes -B_2  G_4 D_2'  To be done

     Representation     3      2 modes -E    G_5 D_5  To be done

     Representation     4      2 modes -E    G_5 D_5  To be done



     Alpha used in Ewald sum =   2.5000
     PHONON       :    40.11s CPU        52.58s WALL



     Representation #  1 mode #   1

     Self-consistent Calculation

      iter #   1 total cpu time :    53.0 secs   av.it.:   6.2
      thresh= 1.000E-02 alpha_mix =  0.700 |ddv_scf|^2 =  3.724E-04

      iter #   2 total cpu time :    53.5 secs   av.it.:   9.5
      thresh= 1.930E-03 alpha_mix =  0.700 |ddv_scf|^2 =  4.953E-03

      iter #   3 total cpu time :    54.0 secs   av.it.:   7.5
      thresh= 7.038E-03 alpha_mix =  0.700 |ddv_scf|^2 =  7.355E-09

      iter #   4 total cpu time :    54.6 secs   av.it.:  10.3
      thresh= 8.576E-06 alpha_mix =  0.700 |ddv_scf|^2 =  7.337E-10

      iter #   5 total cpu time :    55.1 secs   av.it.:   9.9
      thresh= 2.709E-06 alpha_mix =  0.700 |ddv_scf|^2 =  8.050E-11

      iter #   6 total cpu time :    55.5 secs   av.it.:   9.5
      thresh= 8.972E-07 alpha_mix =  0.700 |ddv_scf|^2 =  2.340E-13

     End of self-consistent calculation

     Convergence has been achieved 


     Representation #  2 mode #   2

     Self-consistent Calculation

      iter #   1 total cpu time :    56.0 secs   av.it.:   5.1
      thresh= 1.000E-02 alpha_mix =  0.700 |ddv_scf|^2 =  5.899E-07

      iter #   2 total cpu time :    56.5 secs   av.it.:  10.6
      thresh= 7.681E-05 alpha_mix =  0.700 |ddv_scf|^2 =  1.630E-07

      iter #   3 total cpu time :    57.1 secs   av.it.:  10.2
      thresh= 4.037E-05 alpha_mix =  0.700 |ddv_scf|^2 =  1.667E-09

      iter #   4 total cpu time :    57.7 secs   av.it.:  10.3
      thresh= 4.083E-06 alpha_mix =  0.700 |ddv_scf|^2 =  6.621E-11

      iter #   5 total cpu time :    58.1 secs   av.it.:  10.5
      thresh= 8.137E-07 alpha_mix =  0.700 |ddv_scf|^2 =  3.872E-13

     End of self-consistent calculation

     Convergence has been achieved 


     Representation #  3 modes #   3  4

     Self-consistent Calculation

      iter #   1 total cpu time :    58.9 secs   av.it.:   5.2
      thresh= 1.000E-02 alpha_mix =  0.700 |ddv_scf|^2 =  1.045E-07

      iter #   2 total cpu time :    59.9 secs   av.it.:  11.7
      thresh= 3.232E-05 alpha_mix =  0.700 |ddv_scf|^2 =  1.441E-08

      iter #   3 total cpu time :    60.9 secs   av.it.:  11.3
      thresh= 1.200E-05 alpha_mix =  0.700 |ddv_scf|^2 =  2.426E-10

      iter #   4 total cpu time :    61.9 secs   av.it.:  10.8
      thresh= 1.558E-06 alpha_mix =  0.700 |ddv_scf|^2 =  5.761E-13

     End of self-consistent calculation

     Convergence has been achieved 


     Representation #  4 modes #   5  6

     Self-consistent Calculation

      iter #   1 total cpu time :    62.7 secs   av.it.:   5.3
      thresh= 1.000E-02 alpha_mix =  0.700 |ddv_scf|^2 =  9.576E-08

      iter #   2 total cpu time :    63.7 secs   av.it.:  11.6
      thresh= 3.095E-05 alpha_mix =  0.700 |ddv_scf|^2 =  1.287E-08

      iter #   3 total cpu time :    64.7 secs   av.it.:  11.4
      thresh= 1.134E-05 alpha_mix =  0.700 |ddv_scf|^2 =  2.480E-10

      iter #   4 total cpu time :    65.6 secs   av.it.:  11.1
      thresh= 1.575E-06 alpha_mix =  0.700 |ddv_scf|^2 =  6.130E-13

     End of self-consistent calculation

     Convergence has been achieved 

     Number of q in the star =    6
     List of q in the star:
          1   0.000000000   0.500000000   0.000000000
          2   0.000000000  -0.500000000   0.000000000
          3   0.500000000   0.000000000   0.000000000
          4   0.000000000   0.000000000   0.500000000
          5   0.000000000   0.000000000  -0.500000000
          6  -0.500000000   0.000000000   0.000000000

     Diagonalizing the dynamical matrix

     q = (    0.000000000   0.500000000   0.000000000 ) 

 **************************************************************************
     freq (    1) =       3.778129 [THz] =     126.024816 [cm-1]
     freq (    2) =       3.778129 [THz] =     126.024816 [cm-1]
     freq (    3) =       7.027212 [THz] =     234.402553 [cm-1]
     freq (    4) =      13.746826 [THz] =     458.544760 [cm-1]
     freq (    5) =      13.746826 [THz] =     458.544760 [cm-1]
     freq (    6) =      14.396206 [THz] =     480.205735 [cm-1]
 **************************************************************************

     Mode symmetry, C_4v (4mm)  point group:

     freq (  1 -  2) =        126.0  [cm-1]   --> E    G_5 D_5       
     freq (  3 -  3) =        234.4  [cm-1]   --> A_1  G_1 D_1       
     freq (  4 -  5) =        458.5  [cm-1]   --> E    G_5 D_5       
     freq (  6 -  6) =        480.2  [cm-1]   --> B_2  G_4 D_2'      

     Calculation of q =    0.7500000  -0.2500000   0.7500000

   Info: using nr1, nr2, nr3 values from input

   Info: using nr1, nr2, nr3 values from input

     Parallelization info
     --------------------
     sticks:   dense  smooth     PW     G-vecs:    dense   smooth      PW
     Min         219     109     40                 4315     1545     362
     Max         220     110     41                 4316     1546     366
     Sum         877     439    163                17261     6183    1459



     bravais-lattice index     =            2
     lattice parameter (alat)  =      10.3480  a.u.
     unit-cell volume          =     277.0188 (a.u.)^3
     number of atoms/cell      =            2
     number of atomic types    =            1
     number of electrons       =         8.00
     number of Kohn-Sham states=            4
     kinetic-energy cutoff     =      30.0000  Ry
     charge density cutoff     =     240.0000  Ry
     Exchange-correlation      = SLA  PW   PBE  PBE ( 1  4  3  4 0 0)

     celldm(1)=  10.348000  celldm(2)=   0.000000  celldm(3)=   0.000000
     celldm(4)=   0.000000  celldm(5)=   0.000000  celldm(6)=   0.000000

     crystal axes: (cart. coord. in units of alat)
               a(1) = (  -0.500000   0.000000   0.500000 )  
               a(2) = (   0.000000   0.500000   0.500000 )  
               a(3) = (  -0.500000   0.500000   0.000000 )  

     reciprocal axes: (cart. coord. in units 2 pi/alat)
               b(1) = ( -1.000000 -1.000000  1.000000 )  
               b(2) = (  1.000000  1.000000  1.000000 )  
               b(3) = ( -1.000000  1.000000 -1.000000 )  


     PseudoPot. # 1 for Si read from file:
     /home/s1333534/quantum_espresso/qe-6.1/pseudo/si_pbe_v1.uspp.F.UPF.txt
     MD5 check sum: a056efeee980c13900f22a371efd63c1
     Pseudo is Ultrasoft + core correction, Zval =  4.0
     Generated by new atomic code, or converted to UPF format
     Using radial grid of  899 points,  6 beta functions with: 
                l(1) =   0
                l(2) =   0
                l(3) =   1
                l(4) =   1
                l(5) =   2
                l(6) =   2
     Q(r) pseudized with  8 coefficients,  rinner =    0.900   0.900   0.900
                                                       0.900   0.900

     atomic species   valence    mass     pseudopotential
        Si             4.00    28.08600     Si( 1.00)

     48 Sym. Ops., with inversion, found



   Cartesian axes

     site n.     atom                  positions (alat units)
         1           Si  tau(   1) = (   0.0000000   0.0000000   0.0000000  )
         2           Si  tau(   2) = (   0.2500000   0.2500000   0.2500000  )

     number of k points=   288

     Number of k-points >= 100: set verbosity='high' to print them.

     Dense  grid:    17261 G-vectors     FFT dimensions: (  40,  40,  40)

     Smooth grid:     6183 G-vectors     FFT dimensions: (  25,  25,  25)

     Estimated max dynamical RAM per process >       1.79MB

     Estimated total allocated dynamical RAM >       7.14MB

     The potential is recalculated from file :
     ./_ph0/silicon.10.348.save/charge-density.dat

     Starting wfc are    8 atomic wfcs

     Band Structure Calculation
     Davidson diagonalization with overlap

     ethr =  1.25E-10,  avg # of iterations = 12.1

     total cpu time spent up to now is        7.0 secs

     End of band structure calculation

     Number of k-points >= 100: set verbosity='high' to print the bands.

     highest occupied level (ev):     5.6546

     Writing output data file silicon.10.348.save

                                                                                

     bravais-lattice index     =            2
     lattice parameter (alat)  =      10.3480  a.u.
     unit-cell volume          =     277.0188 (a.u.)^3
     number of atoms/cell      =            2
     number of atomic types    =            1
     kinetic-energy cut-off    =      30.0000  Ry
     charge density cut-off    =     240.0000  Ry
     convergence threshold     =      1.0E-12
     beta                      =       0.7000
     number of iterations used =            4
     Exchange-correlation      = SLA  PW   PBE  PBE ( 1  4  3  4 0 0)


     celldm(1)=   10.34800  celldm(2)=    0.00000  celldm(3)=    0.00000
     celldm(4)=    0.00000  celldm(5)=    0.00000  celldm(6)=    0.00000

     crystal axes: (cart. coord. in units of alat)
               a(1) = ( -0.5000  0.0000  0.5000 )  
               a(2) = (  0.0000  0.5000  0.5000 )  
               a(3) = ( -0.5000  0.5000  0.0000 )  

     reciprocal axes: (cart. coord. in units 2 pi/alat)
               b(1) = ( -1.0000 -1.0000  1.0000 )  
               b(2) = (  1.0000  1.0000  1.0000 )  
               b(3) = ( -1.0000  1.0000 -1.0000 )  


     Atoms inside the unit cell: 

     Cartesian axes

     site n.  atom      mass           positions (alat units)
        1     Si  28.0860   tau(    1) = (    0.00000    0.00000    0.00000  )
        2     Si  28.0860   tau(    2) = (    0.25000    0.25000    0.25000  )

     Computing dynamical matrix for 
                    q = (   0.7500000  -0.2500000   0.7500000 )

      2 Sym.Ops. (no q -> -q+G )


     G cutoff =  650.9751  (   4315 G-vectors)     FFT grid: ( 40, 40, 40)
     G cutoff =  325.4875  (   1546 G-vectors)  smooth grid: ( 25, 25, 25)
     number of k points=   288

     PseudoPot. # 1 for Si read from file:
     /home/s1333534/quantum_espresso/qe-6.1/pseudo/si_pbe_v1.uspp.F.UPF.txt
     MD5 check sum: a056efeee980c13900f22a371efd63c1
     Pseudo is Ultrasoft + core correction, Zval =  4.0
     Generated by new atomic code, or converted to UPF format
     Using radial grid of  899 points,  6 beta functions with: 
                l(1) =   0
                l(2) =   0
                l(3) =   1
                l(4) =   1
                l(5) =   2
                l(6) =   2
     Q(r) pseudized with  8 coefficients,  rinner =    0.900   0.900   0.900
                                                       0.900   0.900

     Mode symmetry, C_s (m)     point group:


     Atomic displacements:
     There are   6 irreducible representations

     Representation     1      1 modes -A'  To be done

     Representation     2      1 modes -A'  To be done

     Representation     3      1 modes -A'  To be done

     Representation     4      1 modes -A'  To be done

     Representation     5      1 modes -A''  To be done

     Representation     6      1 modes -A''  To be done



     Alpha used in Ewald sum =   2.5000
     PHONON       :  0m54.87s CPU     1m11.19s WALL



     Representation #  1 mode #   1

     Self-consistent Calculation

      iter #   1 total cpu time :    72.1 secs   av.it.:   5.6
      thresh= 1.000E-02 alpha_mix =  0.700 |ddv_scf|^2 =  7.598E-06

      iter #   2 total cpu time :    73.5 secs   av.it.:  10.7
      thresh= 2.757E-04 alpha_mix =  0.700 |ddv_scf|^2 =  2.036E-05

      iter #   3 total cpu time :    74.8 secs   av.it.:   9.4
      thresh= 4.512E-04 alpha_mix =  0.700 |ddv_scf|^2 =  1.363E-07

      iter #   4 total cpu time :    76.1 secs   av.it.:  10.1
      thresh= 3.692E-05 alpha_mix =  0.700 |ddv_scf|^2 =  2.730E-09

      iter #   5 total cpu time :    77.5 secs   av.it.:  10.6
      thresh= 5.225E-06 alpha_mix =  0.700 |ddv_scf|^2 =  4.658E-10

      iter #   6 total cpu time :    78.9 secs   av.it.:  10.6
      thresh= 2.158E-06 alpha_mix =  0.700 |ddv_scf|^2 =  7.276E-12

      iter #   7 total cpu time :    80.2 secs   av.it.:  10.8
      thresh= 2.697E-07 alpha_mix =  0.700 |ddv_scf|^2 =  2.775E-13

     End of self-consistent calculation

     Convergence has been achieved 


     Representation #  2 mode #   2

     Self-consistent Calculation

      iter #   1 total cpu time :    81.4 secs   av.it.:   5.8
      thresh= 1.000E-02 alpha_mix =  0.700 |ddv_scf|^2 =  1.359E-05

      iter #   2 total cpu time :    82.8 secs   av.it.:  10.6
      thresh= 3.687E-04 alpha_mix =  0.700 |ddv_scf|^2 =  3.948E-05

      iter #   3 total cpu time :    84.1 secs   av.it.:   9.2
      thresh= 6.284E-04 alpha_mix =  0.700 |ddv_scf|^2 =  9.268E-08

      iter #   4 total cpu time :    85.4 secs   av.it.:  10.4
      thresh= 3.044E-05 alpha_mix =  0.700 |ddv_scf|^2 =  3.087E-09

      iter #   5 total cpu time :    86.8 secs   av.it.:  10.6
      thresh= 5.556E-06 alpha_mix =  0.700 |ddv_scf|^2 =  6.285E-10

      iter #   6 total cpu time :    88.1 secs   av.it.:  10.5
      thresh= 2.507E-06 alpha_mix =  0.700 |ddv_scf|^2 =  6.562E-12

      iter #   7 total cpu time :    89.5 secs   av.it.:  10.8
      thresh= 2.562E-07 alpha_mix =  0.700 |ddv_scf|^2 =  2.342E-13

     End of self-consistent calculation

     Convergence has been achieved 


     Representation #  3 mode #   3

     Self-consistent Calculation

      iter #   1 total cpu time :    90.5 secs   av.it.:   5.7
      thresh= 1.000E-02 alpha_mix =  0.700 |ddv_scf|^2 =  1.065E-05

      iter #   2 total cpu time :    91.9 secs   av.it.:  10.7
      thresh= 3.263E-04 alpha_mix =  0.700 |ddv_scf|^2 =  2.904E-05

      iter #   3 total cpu time :    93.1 secs   av.it.:   9.2
      thresh= 5.389E-04 alpha_mix =  0.700 |ddv_scf|^2 =  1.614E-07

      iter #   4 total cpu time :    94.5 secs   av.it.:  10.1
      thresh= 4.018E-05 alpha_mix =  0.700 |ddv_scf|^2 =  3.145E-09

      iter #   5 total cpu time :    95.9 secs   av.it.:  10.7
      thresh= 5.608E-06 alpha_mix =  0.700 |ddv_scf|^2 =  6.156E-10

      iter #   6 total cpu time :    97.2 secs   av.it.:  10.5
      thresh= 2.481E-06 alpha_mix =  0.700 |ddv_scf|^2 =  4.585E-12

      iter #   7 total cpu time :    98.6 secs   av.it.:  10.7
      thresh= 2.141E-07 alpha_mix =  0.700 |ddv_scf|^2 =  1.345E-13

     End of self-consistent calculation

     Convergence has been achieved 


     Representation #  4 mode #   4

     Self-consistent Calculation

      iter #   1 total cpu time :    99.6 secs   av.it.:   5.5
      thresh= 1.000E-02 alpha_mix =  0.700 |ddv_scf|^2 =  4.649E-06

      iter #   2 total cpu time :   101.0 secs   av.it.:  10.9
      thresh= 2.156E-04 alpha_mix =  0.700 |ddv_scf|^2 =  9.887E-06

      iter #   3 total cpu time :   102.3 secs   av.it.:   9.7
      thresh= 3.144E-04 alpha_mix =  0.700 |ddv_scf|^2 =  2.139E-07

      iter #   4 total cpu time :   103.8 secs   av.it.:  10.0
      thresh= 4.625E-05 alpha_mix =  0.700 |ddv_scf|^2 =  2.695E-09

      iter #   5 total cpu time :   105.2 secs   av.it.:  10.7
      thresh= 5.192E-06 alpha_mix =  0.700 |ddv_scf|^2 =  5.040E-10

      iter #   6 total cpu time :   106.6 secs   av.it.:  10.5
      thresh= 2.245E-06 alpha_mix =  0.700 |ddv_scf|^2 =  3.065E-12

      iter #   7 total cpu time :   107.9 secs   av.it.:  10.8
      thresh= 1.751E-07 alpha_mix =  0.700 |ddv_scf|^2 =  1.418E-13

     End of self-consistent calculation

     Convergence has been achieved 


     Representation #  5 mode #   5

     Self-consistent Calculation

      iter #   1 total cpu time :   108.9 secs   av.it.:   5.2
      thresh= 1.000E-02 alpha_mix =  0.700 |ddv_scf|^2 =  4.827E-07

      iter #   2 total cpu time :   110.3 secs   av.it.:  10.4
      thresh= 6.948E-05 alpha_mix =  0.700 |ddv_scf|^2 =  7.879E-08

      iter #   3 total cpu time :   111.7 secs   av.it.:  10.2
      thresh= 2.807E-05 alpha_mix =  0.700 |ddv_scf|^2 =  1.050E-09

      iter #   4 total cpu time :   113.1 secs   av.it.:   9.8
      thresh= 3.240E-06 alpha_mix =  0.700 |ddv_scf|^2 =  2.471E-12

      iter #   5 total cpu time :   114.4 secs   av.it.:  10.2
      thresh= 1.572E-07 alpha_mix =  0.700 |ddv_scf|^2 =  6.996E-14

     End of self-consistent calculation

     Convergence has been achieved 


     Representation #  6 mode #   6

     Self-consistent Calculation

      iter #   1 total cpu time :   115.4 secs   av.it.:   5.2
      thresh= 1.000E-02 alpha_mix =  0.700 |ddv_scf|^2 =  4.827E-07

      iter #   2 total cpu time :   116.8 secs   av.it.:  10.4
[...]
        k(   59) = (  -0.8750000   0.1250000  -0.1250000), wk =   0.0625000
        k(   60) = (  -1.3750000  -0.8750000  -0.1250000), wk =   0.0000000
        k(   61) = (  -1.1250000   0.3750000  -0.3750000), wk =   0.0625000
        k(   62) = (  -1.6250000  -0.6250000  -0.3750000), wk =   0.0000000
        k(   63) = (  -0.3750000   0.3750000   1.1250000), wk =   0.0625000
        k(   64) = (  -0.8750000  -0.6250000   1.1250000), wk =   0.0000000

     Dense  grid:    17261 G-vectors     FFT dimensions: (  40,  40,  40)

     Smooth grid:     6183 G-vectors     FFT dimensions: (  25,  25,  25)

     Estimated max dynamical RAM per process >       1.79MB

     Estimated total allocated dynamical RAM >       7.14MB

     The potential is recalculated from file :
     ./_ph0/silicon.10.348.save/charge-density.dat

     Starting wfc are    8 atomic wfcs

     Band Structure Calculation
     Davidson diagonalization with overlap

     ethr =  1.25E-10,  avg # of iterations = 12.1

     total cpu time spent up to now is       10.9 secs

     End of band structure calculation

          k =-0.1250 0.1250 0.1250 (   773 PWs)   bands (ev):

    -5.6532   4.3452   5.6546   5.6546

          k =-0.6250-0.8750 0.1250 (   757 PWs)   bands (ev):

    -2.4691  -0.9323   1.9843   3.0555

          k =-0.3750 0.3750-0.1250 (   776 PWs)   bands (ev):

    -4.6311   1.3605   3.6767   5.1757

          k =-0.8750-0.6250-0.1250 (   757 PWs)   bands (ev):

    -2.4691  -0.9323   1.9843   3.0555

          k = 0.3750-0.3750 0.6250 (   767 PWs)   bands (ev):

    -3.4979  -0.7074   3.6954   4.4081

          k =-0.1250-1.3750 0.6250 (   769 PWs)   bands (ev):

    -3.0042  -0.6274   2.0406   4.0928

          k = 0.1250-0.1250 0.3750 (   774 PWs)   bands (ev):

    -5.1276   2.7313   4.6516   4.7130

          k =-0.3750-1.1250 0.3750 (   769 PWs)   bands (ev):

    -3.0042  -0.6274   2.0406   4.0928

          k =-0.1250 0.6250 0.1250 (   768 PWs)   bands (ev):

    -4.1006   1.0226   3.3307   3.7813

          k =-0.6250-0.3750 0.1250 (   770 PWs)   bands (ev):

    -3.6874   0.1556   2.6909   4.0549

          k = 0.6250-0.1250 0.8750 (   757 PWs)   bands (ev):

    -2.4691  -0.9323   1.9843   3.0555

          k = 0.1250-1.1250 0.8750 (   763 PWs)   bands (ev):

    -2.6350  -0.8359   2.5909   3.3162

          k = 0.3750 0.1250 0.6250 (   770 PWs)   bands (ev):

    -3.6874   0.1556   2.6909   4.0549

          k =-0.1250-0.8750 0.6250 (   757 PWs)   bands (ev):

    -2.4691  -0.9323   1.9843   3.0555

          k =-0.1250-0.8750 0.1250 (   763 PWs)   bands (ev):

    -2.6350  -0.8359   2.5909   3.3162

          k =-0.6250-1.8750 0.1250 (   768 PWs)   bands (ev):

    -4.1006   1.0226   3.3307   3.7813

          k =-0.3750 0.3750 0.3750 (   763 PWs)   bands (ev):

    -4.2005   0.0776   4.8702   4.8702

          k =-0.8750-0.6250 0.3750 (   770 PWs)   bands (ev):

    -3.6874   0.1556   2.6909   4.0549

          k = 0.3750-0.3750 1.1250 (   769 PWs)   bands (ev):

    -3.0042  -0.6274   2.0406   4.0928

          k =-0.1250-1.3750 1.1250 (   757 PWs)   bands (ev):

    -2.4691  -0.9323   1.9843   3.0555

          k = 0.1250-0.3750 0.3750 (   776 PWs)   bands (ev):

    -4.6311   1.3605   3.6767   5.1757

          k =-0.3750-1.3750 0.3750 (   767 PWs)   bands (ev):

    -3.4979  -0.7074   3.6954   4.4081

          k = 0.3750-0.3750-0.1250 (   776 PWs)   bands (ev):

    -4.6311   1.3605   3.6767   5.1757

          k =-0.1250-1.3750-0.1250 (   768 PWs)   bands (ev):

    -4.1006   1.0226   3.3307   3.7813

          k =-0.6250 0.3750-0.3750 (   767 PWs)   bands (ev):

    -3.4979  -0.7074   3.6954   4.4081

          k =-1.1250-0.6250-0.3750 (   770 PWs)   bands (ev):

    -3.6874   0.1556   2.6909   4.0549

          k =-0.3750 0.3750 0.6250 (   767 PWs)   bands (ev):

    -3.4979  -0.7074   3.6954   4.4081

          k =-0.8750-0.6250 0.6250 (   776 PWs)   bands (ev):

    -4.6311   1.3605   3.6767   5.1757

          k =-0.3750 0.1250-0.1250 (   774 PWs)   bands (ev):

    -5.1276   2.7313   4.6516   4.7130

          k =-0.8750-0.8750-0.1250 (   763 PWs)   bands (ev):

    -2.6350  -0.8359   2.5909   3.3162

          k =-0.1250 0.1250 0.3750 (   774 PWs)   bands (ev):

    -5.1276   2.7313   4.6516   4.7130

          k =-0.6250-0.8750 0.3750 (   770 PWs)   bands (ev):

    -3.6874   0.1556   2.6909   4.0549

          k = 0.1250 0.6250-0.1250 (   768 PWs)   bands (ev):

    -4.1006   1.0226   3.3307   3.7813

          k =-0.3750-0.3750-0.1250 (   776 PWs)   bands (ev):

    -4.6311   1.3605   3.6767   5.1757

          k = 0.6250 0.1250-0.1250 (   768 PWs)   bands (ev):

    -4.1006   1.0226   3.3307   3.7813

          k = 0.1250-0.8750-0.1250 (   763 PWs)   bands (ev):

    -2.6350  -0.8359   2.5909   3.3162

          k =-0.8750 0.1250-0.6250 (   757 PWs)   bands (ev):

    -2.4691  -0.9323   1.9843   3.0555

          k =-1.3750-0.8750-0.6250 (   776 PWs)   bands (ev):

    -4.6311   1.3605   3.6767   5.1757

          k = 0.8750-0.1250 0.6250 (   757 PWs)   bands (ev):

    -2.4691  -0.9323   1.9843   3.0555

          k = 0.3750-1.1250 0.6250 (   770 PWs)   bands (ev):

    -3.6874   0.1556   2.6909   4.0549

          k =-0.6250 0.1250 0.8750 (   757 PWs)   bands (ev):

    -2.4691  -0.9323   1.9843   3.0555

          k =-1.1250-0.8750 0.8750 (   773 PWs)   bands (ev):

    -5.6532   4.3452   5.6546   5.6546

          k =-0.1250 0.8750 0.6250 (   757 PWs)   bands (ev):

    -2.4691  -0.9323   1.9843   3.0555

          k =-0.6250-0.1250 0.6250 (   769 PWs)   bands (ev):

    -3.0042  -0.6274   2.0406   4.0928

          k = 0.1250 0.8750-0.6250 (   757 PWs)   bands (ev):

    -2.4691  -0.9323   1.9843   3.0555

          k =-0.3750-0.1250-0.6250 (   770 PWs)   bands (ev):

    -3.6874   0.1556   2.6909   4.0549

          k =-0.6250-0.1250-0.3750 (   770 PWs)   bands (ev):

    -3.6874   0.1556   2.6909   4.0549

          k =-1.1250-1.1250-0.3750 (   768 PWs)   bands (ev):

    -4.1006   1.0226   3.3307   3.7813

          k = 0.6250 0.1250 0.3750 (   770 PWs)   bands (ev):

    -3.6874   0.1556   2.6909   4.0549

          k = 0.1250-0.8750 0.3750 (   757 PWs)   bands (ev):

    -2.4691  -0.9323   1.9843   3.0555

          k =-0.3750-0.1250 0.6250 (   770 PWs)   bands (ev):

    -3.6874   0.1556   2.6909   4.0549

          k =-0.8750-1.1250 0.6250 (   774 PWs)   bands (ev):

    -5.1276   2.7313   4.6516   4.7130

          k = 0.1250 0.6250 0.3750 (   770 PWs)   bands (ev):

    -3.6874   0.1556   2.6909   4.0549

          k =-0.3750-0.3750 0.3750 (   763 PWs)   bands (ev):

    -4.2005   0.0776   4.8702   4.8702

          k =-0.1250 0.6250-0.3750 (   770 PWs)   bands (ev):

    -3.6874   0.1556   2.6909   4.0549

          k =-0.6250-0.3750-0.3750 (   767 PWs)   bands (ev):

    -3.4979  -0.7074   3.6954   4.4081

          k = 0.1250-0.8750-0.1250 (   763 PWs)   bands (ev):

    -2.6350  -0.8359   2.5909   3.3162

          k =-0.3750-1.8750-0.1250 (   774 PWs)   bands (ev):

    -5.1276   2.7313   4.6516   4.7130

          k =-0.8750 0.1250-0.1250 (   763 PWs)   bands (ev):

    -2.6350  -0.8359   2.5909   3.3162

          k =-1.3750-0.8750-0.1250 (   757 PWs)   bands (ev):

    -2.4691  -0.9323   1.9843   3.0555

          k =-1.1250 0.3750-0.3750 (   769 PWs)   bands (ev):

    -3.0042  -0.6274   2.0406   4.0928

          k =-1.6250-0.6250-0.3750 (   767 PWs)   bands (ev):

    -3.4979  -0.7074   3.6954   4.4081

          k =-0.3750 0.3750 1.1250 (   769 PWs)   bands (ev):

    -3.0042  -0.6274   2.0406   4.0928

          k =-0.8750-0.6250 1.1250 (   774 PWs)   bands (ev):

    -5.1276   2.7313   4.6516   4.7130

     highest occupied level (ev):     5.6546

     Writing output data file silicon.10.348.save

                                                                                

     bravais-lattice index     =            2
     lattice parameter (alat)  =      10.3480  a.u.
     unit-cell volume          =     277.0188 (a.u.)^3
     number of atoms/cell      =            2
     number of atomic types    =            1
     kinetic-energy cut-off    =      30.0000  Ry
     charge density cut-off    =     240.0000  Ry
     convergence threshold     =      1.0E-12
     beta                      =       0.7000
     number of iterations used =            4
     Exchange-correlation      = SLA  PW   PBE  PBE ( 1  4  3  4 0 0)


     celldm(1)=   10.34800  celldm(2)=    0.00000  celldm(3)=    0.00000
     celldm(4)=    0.00000  celldm(5)=    0.00000  celldm(6)=    0.00000

     crystal axes: (cart. coord. in units of alat)
               a(1) = ( -0.5000  0.0000  0.5000 )  
               a(2) = (  0.0000  0.5000  0.5000 )  
               a(3) = ( -0.5000  0.5000  0.0000 )  

     reciprocal axes: (cart. coord. in units 2 pi/alat)
               b(1) = ( -1.0000 -1.0000  1.0000 )  
               b(2) = (  1.0000  1.0000  1.0000 )  
               b(3) = ( -1.0000  1.0000 -1.0000 )  


     Atoms inside the unit cell: 

     Cartesian axes

     site n.  atom      mass           positions (alat units)
        1     Si  28.0860   tau(    1) = (    0.00000    0.00000    0.00000  )
        2     Si  28.0860   tau(    2) = (    0.25000    0.25000    0.25000  )

     Computing dynamical matrix for 
                    q = (  -0.5000000  -1.0000000   0.0000000 )

      8 Sym.Ops. (no q -> -q+G )


     G cutoff =  650.9751  (   4316 G-vectors)     FFT grid: ( 40, 40, 40)
     G cutoff =  325.4875  (   1546 G-vectors)  smooth grid: ( 25, 25, 25)
     number of k points=    64

     PseudoPot. # 1 for Si read from file:
     /home/s1333534/quantum_espresso/qe-6.1/pseudo/si_pbe_v1.uspp.F.UPF.txt
     MD5 check sum: a056efeee980c13900f22a371efd63c1
     Pseudo is Ultrasoft + core correction, Zval =  4.0
     Generated by new atomic code, or converted to UPF format
     Using radial grid of  899 points,  6 beta functions with: 
                l(1) =   0
                l(2) =   0
                l(3) =   1
                l(4) =   1
                l(5) =   2
                l(6) =   2
     Q(r) pseudized with  8 coefficients,  rinner =    0.900   0.900   0.900
                                                       0.900   0.900


     Atomic displacements:
     There are   3 irreducible representations

     Representation     1      2 modes -  To be done

     Representation     2      2 modes -  To be done

     Representation     3      2 modes -  To be done



     Alpha used in Ewald sum =   2.5000
     PHONON       :  2m 8.16s CPU     2m40.72s WALL



     Representation #  1 modes #   1  2

     Self-consistent Calculation

      iter #   1 total cpu time :   161.4 secs   av.it.:   5.7
      thresh= 1.000E-02 alpha_mix =  0.700 |ddv_scf|^2 =  7.849E-07

      iter #   2 total cpu time :   162.2 secs   av.it.:  11.8
      thresh= 8.860E-05 alpha_mix =  0.700 |ddv_scf|^2 =  4.439E-07

      iter #   3 total cpu time :   163.1 secs   av.it.:  11.2
      thresh= 6.663E-05 alpha_mix =  0.700 |ddv_scf|^2 =  4.283E-10

      iter #   4 total cpu time :   164.1 secs   av.it.:  11.1
      thresh= 2.069E-06 alpha_mix =  0.700 |ddv_scf|^2 =  1.928E-12

      iter #   5 total cpu time :   164.9 secs   av.it.:  11.3
      thresh= 1.388E-07 alpha_mix =  0.700 |ddv_scf|^2 =  5.051E-14

     End of self-consistent calculation

     Convergence has been achieved 


     Representation #  2 modes #   3  4

     Self-consistent Calculation

      iter #   1 total cpu time :   165.7 secs   av.it.:   5.6
      thresh= 1.000E-02 alpha_mix =  0.700 |ddv_scf|^2 =  1.220E-06

      iter #   2 total cpu time :   166.6 secs   av.it.:  11.8
      thresh= 1.105E-04 alpha_mix =  0.700 |ddv_scf|^2 =  1.663E-06

      iter #   3 total cpu time :   167.4 secs   av.it.:  11.0
      thresh= 1.289E-04 alpha_mix =  0.700 |ddv_scf|^2 =  5.098E-10

      iter #   4 total cpu time :   168.2 secs   av.it.:  11.0
      thresh= 2.258E-06 alpha_mix =  0.700 |ddv_scf|^2 =  8.107E-12

      iter #   5 total cpu time :   169.1 secs   av.it.:  11.3
      thresh= 2.847E-07 alpha_mix =  0.700 |ddv_scf|^2 =  1.329E-13

     End of self-consistent calculation

     Convergence has been achieved 


     Representation #  3 modes #   5  6

     Self-consistent Calculation

      iter #   1 total cpu time :   169.8 secs   av.it.:   5.3
      thresh= 1.000E-02 alpha_mix =  0.700 |ddv_scf|^2 =  3.190E-07

      iter #   2 total cpu time :   170.7 secs   av.it.:  11.8
      thresh= 5.648E-05 alpha_mix =  0.700 |ddv_scf|^2 =  1.862E-07

      iter #   3 total cpu time :   171.6 secs   av.it.:  11.2
      thresh= 4.315E-05 alpha_mix =  0.700 |ddv_scf|^2 =  3.714E-10

      iter #   4 total cpu time :   172.4 secs   av.it.:  11.1
      thresh= 1.927E-06 alpha_mix =  0.700 |ddv_scf|^2 =  4.422E-12

      iter #   5 total cpu time :   173.2 secs   av.it.:  11.2
      thresh= 2.103E-07 alpha_mix =  0.700 |ddv_scf|^2 =  6.045E-14

     End of self-consistent calculation

     Convergence has been achieved 

     Number of q in the star =    6
     List of q in the star:
          1  -0.500000000  -1.000000000   0.000000000
          2   0.000000000   1.000000000   0.500000000
          3   0.000000000  -1.000000000  -0.500000000
          4   0.500000000   1.000000000   0.000000000
          5  -1.000000000  -0.500000000   0.000000000
          6   0.000000000  -0.500000000  -1.000000000

     Diagonalizing the dynamical matrix

     q = (   -0.500000000  -1.000000000   0.000000000 ) 

 **************************************************************************
     freq (    1) =       6.030437 [THz] =     201.153740 [cm-1]
     freq (    2) =       6.030437 [THz] =     201.153740 [cm-1]
     freq (    3) =      10.273306 [THz] =     342.680604 [cm-1]
     freq (    4) =      10.273306 [THz] =     342.680604 [cm-1]
     freq (    5) =      13.471297 [THz] =     449.354101 [cm-1]
     freq (    6) =      13.471297 [THz] =     449.354101 [cm-1]
 **************************************************************************

     init_run     :      1.26s CPU      1.33s WALL (       7 calls)
     electrons    :      7.43s CPU      8.00s WALL (       7 calls)

     Called by init_run:
     wfcinit      :      0.00s CPU      0.04s WALL (       7 calls)
     potinit      :      0.10s CPU      0.11s WALL (       7 calls)

     Called by electrons:
     c_bands      :      7.42s CPU      8.00s WALL (       7 calls)
     v_of_rho     :      0.09s CPU      0.09s WALL (       8 calls)
     newd         :      0.12s CPU      0.13s WALL (       8 calls)

     Called by c_bands:
     init_us_2    :      1.63s CPU      1.57s WALL (   15896 calls)
     cegterg      :      6.21s CPU      6.68s WALL (     796 calls)

     Called by sum_band:

     Called by *egterg:
     h_psi        :     71.15s CPU     76.23s WALL (  154688 calls)
     s_psi        :      5.85s CPU      6.99s WALL (  311634 calls)
     g_psi        :      0.05s CPU      0.07s WALL (    9666 calls)
     cdiaghg      :      0.59s CPU      0.58s WALL (   10462 calls)

     Called by h_psi:
     h_psi:pot    :     70.72s CPU     75.71s WALL (  154688 calls)
     h_psi:calbec :      3.52s CPU      4.08s WALL (  154688 calls)
     vloc_psi     :     62.53s CPU     67.46s WALL (  154688 calls)
     add_vuspsi   :      4.31s CPU      3.70s WALL (  154688 calls)

     General routines
     calbec       :      8.03s CPU      8.51s WALL (  345942 calls)
     fft          :      1.80s CPU      1.87s WALL (    5233 calls)
     ffts         :      0.22s CPU      0.23s WALL (    3316 calls)
     fftw         :     64.15s CPU     68.17s WALL ( 1384912 calls)
     interpolate  :      0.31s CPU      0.33s WALL (     568 calls)
     davcio       :      0.34s CPU      1.01s WALL (   69130 calls)

     Parallel routines
     fft_scatter  :     15.19s CPU     19.87s WALL ( 1393461 calls)

     PHONON       :  2m17.81s CPU     2m53.70s WALL

     INITIALIZATION: 
     phq_setup    :      0.29s CPU      0.53s WALL (       8 calls)
     phq_init     :      6.79s CPU      7.03s WALL (       8 calls)

     phq_init     :      6.79s CPU      7.03s WALL (       8 calls)
     set_drhoc    :      1.83s CPU      1.84s WALL (      24 calls)
     init_vloc    :      0.03s CPU      0.03s WALL (       8 calls)
     init_us_1    :      0.97s CPU      0.98s WALL (       8 calls)
     newd         :      0.12s CPU      0.13s WALL (       8 calls)
     dvanqq       :      1.18s CPU      1.18s WALL (       8 calls)
     drho         :      2.61s CPU      2.68s WALL (       8 calls)

     DYNAMICAL MATRIX:
     dynmat0      :      1.73s CPU      1.84s WALL (       8 calls)
     phqscf       :    116.67s CPU    146.97s WALL (       8 calls)
     dynmatrix    :      0.01s CPU      0.22s WALL (       8 calls)

     phqscf       :    116.67s CPU    146.97s WALL (       8 calls)
     solve_linter :    115.81s CPU    144.42s WALL (      32 calls)
     drhodv       :      0.57s CPU      0.61s WALL (      32 calls)

     dynmat0      :      1.73s CPU      1.84s WALL (       8 calls)
     dynmat_us    :      0.38s CPU      0.38s WALL (       8 calls)
     d2ionq       :      0.04s CPU      0.04s WALL (       8 calls)
     dynmatcc     :      1.31s CPU      1.31s WALL (       8 calls)

     dynmat_us    :      0.38s CPU      0.38s WALL (       8 calls)
     addusdynmat  :      0.00s CPU      0.00s WALL (       8 calls)

     phqscf       :    116.67s CPU    146.97s WALL (       8 calls)
     solve_linter :    115.81s CPU    144.42s WALL (      32 calls)

     solve_linter :    115.81s CPU    144.42s WALL (      32 calls)
     dvqpsi_us    :      2.13s CPU      2.28s WALL (    2508 calls)
     ortho        :      0.86s CPU      0.97s WALL (   13486 calls)
     cgsolve      :     78.57s CPU     85.44s WALL (   13486 calls)
     incdrhoscf   :      6.31s CPU      6.93s WALL (   13486 calls)
     addusddens   :      7.06s CPU      7.12s WALL (     200 calls)
     vpsifft      :      4.45s CPU      4.87s WALL (   10858 calls)
     dv_of_drho   :      1.70s CPU      1.75s WALL (     254 calls)
     mix_pot      :      0.61s CPU     11.78s WALL (     173 calls)
     psymdvscf    :      5.81s CPU      5.90s WALL (     168 calls)
     newdq        :      7.67s CPU      7.70s WALL (     173 calls)
     adddvscf     :      0.46s CPU      0.43s WALL (   10978 calls)
     drhodvus     :      0.02s CPU      0.02s WALL (      32 calls)

     dvqpsi_us    :      2.13s CPU      2.28s WALL (    2508 calls)
     dvqpsi_us_on :      0.91s CPU      0.94s WALL (    2508 calls)

     cgsolve      :     78.57s CPU     85.44s WALL (   13486 calls)
     ch_psi       :     77.50s CPU     83.69s WALL (  143430 calls)

     ch_psi       :     77.50s CPU     83.69s WALL (  143430 calls)
     h_psi        :     71.15s CPU     76.23s WALL (  154688 calls)
     last         :      9.05s CPU      9.19s WALL (  143430 calls)

     h_psi        :     71.15s CPU     76.23s WALL (  154688 calls)
     add_vuspsi   :      4.31s CPU      3.70s WALL (  154688 calls)

     incdrhoscf   :      6.31s CPU      6.93s WALL (   13486 calls)
     addusdbec    :      0.48s CPU      0.52s WALL (   15934 calls)

     drhodvus     :      0.02s CPU      0.02s WALL (      32 calls)

      General routines
     calbec       :      8.03s CPU      8.51s WALL (  345942 calls)
     fft          :      1.80s CPU      1.87s WALL (    5233 calls)
     ffts         :      0.22s CPU      0.23s WALL (    3316 calls)
     fftw         :     64.15s CPU     68.17s WALL ( 1384912 calls)
     davcio       :      0.34s CPU      1.01s WALL (   69130 calls)
     write_rec    :      0.24s CPU     11.02s WALL (     205 calls)


     PHONON       :  2m17.81s CPU     2m53.70s WALL


   This run was terminated on:  15:40:24  10Nov2017            

=------------------------------------------------------------------------------=
   JOB DONE.
=------------------------------------------------------------------------------=
