
     Program PHONON v.6.1 (svn rev. 13369) starts on 10Nov2017 at 15:44:58 

     This program is part of the open-source Quantum ESPRESSO suite
     for quantum simulation of materials; please cite
         "P. Giannozzi et al., J. Phys.:Condens. Matter 21 395502 (2009);
          URL http://www.quantum-espresso.org", 
     in publications or presentations arising from this work. More details at
     http://www.quantum-espresso.org/quote

     Parallel version (MPI), running on     4 processors
     R & G space division:  proc/nbgrp/npool/nimage =       4

     Reading data from directory:
     ./silicon.10.352.save

   Info: using nr1, nr2, nr3 values from input

   Info: using nr1, nr2, nr3 values from input

     IMPORTANT: XC functional enforced from input :
     Exchange-correlation      = SLA  PW   PBE  PBE ( 1  4  3  4 0 0)
     Any further DFT definition will be discarded
     Please, verify this is what you really want


     Parallelization info
     --------------------
     sticks:   dense  smooth     PW     G-vecs:    dense   smooth      PW
     Min         222     109     37                 4363     1545     284
     Max         223     110     38                 4364     1546     285
     Sum         889     439    151                17453     6183    1139



     Dynamical matrices for ( 4, 4, 4)  uniform grid of q-points
     (   8q-points):
       N         xq(1)         xq(2)         xq(3) 
       1   0.000000000   0.000000000   0.000000000
       2  -0.250000000   0.250000000  -0.250000000
       3   0.500000000  -0.500000000   0.500000000
       4   0.000000000   0.500000000   0.000000000
       5   0.750000000  -0.250000000   0.750000000
       6   0.500000000   0.000000000   0.500000000
       7   0.000000000  -1.000000000   0.000000000
       8  -0.500000000  -1.000000000   0.000000000

     Calculation of q =    0.0000000   0.0000000   0.0000000

                                                                                

     bravais-lattice index     =            2
     lattice parameter (alat)  =      10.3520  a.u.
     unit-cell volume          =     277.3402 (a.u.)^3
     number of atoms/cell      =            2
     number of atomic types    =            1
     kinetic-energy cut-off    =      30.0000  Ry
     charge density cut-off    =     240.0000  Ry
     convergence threshold     =      1.0E-12
     beta                      =       0.7000
     number of iterations used =            4
     Exchange-correlation      = SLA  PW   PBE  PBE ( 1  4  3  4 0 0)


     celldm(1)=   10.35200  celldm(2)=    0.00000  celldm(3)=    0.00000
     celldm(4)=    0.00000  celldm(5)=    0.00000  celldm(6)=    0.00000

     crystal axes: (cart. coord. in units of alat)
               a(1) = ( -0.5000  0.0000  0.5000 )  
               a(2) = (  0.0000  0.5000  0.5000 )  
               a(3) = ( -0.5000  0.5000  0.0000 )  

     reciprocal axes: (cart. coord. in units 2 pi/alat)
               b(1) = ( -1.0000 -1.0000  1.0000 )  
               b(2) = (  1.0000  1.0000  1.0000 )  
               b(3) = ( -1.0000  1.0000 -1.0000 )  


     Atoms inside the unit cell: 

     Cartesian axes

     site n.  atom      mass           positions (alat units)
        1     Si  28.0860   tau(    1) = (    0.00000    0.00000    0.00000  )
        2     Si  28.0860   tau(    2) = (    0.25000    0.25000    0.25000  )

     Computing dynamical matrix for 
                    q = (   0.0000000   0.0000000   0.0000000 )

     49 Sym.Ops. (with q -> -q+G )


     G cutoff =  651.4784  (   4363 G-vectors)     FFT grid: ( 40, 40, 40)
     G cutoff =  325.7392  (   1546 G-vectors)  smooth grid: ( 25, 25, 25)
     number of k points=    10

     PseudoPot. # 1 for Si read from file:
     /home/s1333534/quantum_espresso/qe-6.1/pseudo/si_pbe_v1.uspp.F.UPF.txt
     MD5 check sum: a056efeee980c13900f22a371efd63c1
     Pseudo is Ultrasoft + core correction, Zval =  4.0
     Generated by new atomic code, or converted to UPF format
     Using radial grid of  899 points,  6 beta functions with: 
                l(1) =   0
                l(2) =   0
                l(3) =   1
                l(4) =   1
                l(5) =   2
                l(6) =   2
     Q(r) pseudized with  8 coefficients,  rinner =    0.900   0.900   0.900
                                                       0.900   0.900

     Mode symmetry, O_h (m-3m)  point group:


     Electric field:
     Dielectric constant
     Born effective charges in two ways 


     Atomic displacements:
     There are   2 irreducible representations

     Representation     1      3 modes -T_2g G_25' G_5+  To be done

     Representation     2      3 modes -T_1u G_15  G_4-  To be done



     Alpha used in Ewald sum =   2.5000
     PHONON       :     0.98s CPU         1.25s WALL


     Electric Fields Calculation

      iter #   1 total cpu time :     2.4 secs   av.it.:   5.8
      thresh= 1.000E-02 alpha_mix =  0.700 |ddv_scf|^2 =  9.681E-08

      iter #   2 total cpu time :     3.2 secs   av.it.:  11.9
      thresh= 3.111E-05 alpha_mix =  0.700 |ddv_scf|^2 =  5.749E-09

      iter #   3 total cpu time :     4.0 secs   av.it.:  11.8
      thresh= 7.582E-06 alpha_mix =  0.700 |ddv_scf|^2 =  3.867E-10

      iter #   4 total cpu time :     4.7 secs   av.it.:  10.6
      thresh= 1.966E-06 alpha_mix =  0.700 |ddv_scf|^2 =  2.580E-12

      iter #   5 total cpu time :     5.4 secs   av.it.:  11.2
      thresh= 1.606E-07 alpha_mix =  0.700 |ddv_scf|^2 =  2.583E-15

     End of electric fields calculation

          Dielectric constant in cartesian axis 

          (      14.004419869      -0.000000000       0.000000000 )
          (      -0.000000000      14.004419869       0.000000000 )
          (       0.000000000       0.000000000      14.004419869 )

          Effective charges (d Force / dE) in cartesian axis

           atom      1   Si 
      Ex  (       -0.03816        0.00000        0.00000 )
      Ey  (        0.00000       -0.03816        0.00000 )
      Ez  (        0.00000        0.00000       -0.03816 )
           atom      2   Si 
      Ex  (       -0.03816        0.00000        0.00000 )
      Ey  (        0.00000       -0.03816        0.00000 )
      Ez  (       -0.00000        0.00000       -0.03816 )


     Representation #  1 modes #   1  2  3

     Self-consistent Calculation

      iter #   1 total cpu time :     6.8 secs   av.it.:   5.1
      thresh= 1.000E-02 alpha_mix =  0.700 |ddv_scf|^2 =  1.713E-08

      iter #   2 total cpu time :     7.6 secs   av.it.:  11.8
      thresh= 1.309E-05 alpha_mix =  0.700 |ddv_scf|^2 =  7.002E-10

      iter #   3 total cpu time :     8.5 secs   av.it.:  11.3
      thresh= 2.646E-06 alpha_mix =  0.700 |ddv_scf|^2 =  4.761E-11

      iter #   4 total cpu time :     9.1 secs   av.it.:  10.4
      thresh= 6.900E-07 alpha_mix =  0.700 |ddv_scf|^2 =  1.179E-13

     End of self-consistent calculation

     Convergence has been achieved 


     Representation #  2 modes #   4  5  6

     Self-consistent Calculation

      iter #   1 total cpu time :    10.0 secs   av.it.:   5.2
      thresh= 1.000E-02 alpha_mix =  0.700 |ddv_scf|^2 =  1.351E-08

      iter #   2 total cpu time :    10.9 secs   av.it.:  11.7
      thresh= 1.162E-05 alpha_mix =  0.700 |ddv_scf|^2 =  7.942E-10

      iter #   3 total cpu time :    11.8 secs   av.it.:  11.4
      thresh= 2.818E-06 alpha_mix =  0.700 |ddv_scf|^2 =  4.929E-11

      iter #   4 total cpu time :    12.5 secs   av.it.:  11.5
      thresh= 7.021E-07 alpha_mix =  0.700 |ddv_scf|^2 =  1.921E-13

     End of self-consistent calculation

     Convergence has been achieved 

     Number of q in the star =    1
     List of q in the star:
          1   0.000000000   0.000000000   0.000000000

          Dielectric constant in cartesian axis 

          (      14.004419869      -0.000000000       0.000000000 )
          (      -0.000000000      14.004419869       0.000000000 )
          (       0.000000000       0.000000000      14.004419869 )

          Effective charges (d Force / dE) in cartesian axis

           atom      1   Si 
      Ex  (       -0.03816        0.00000        0.00000 )
      Ey  (        0.00000       -0.03816        0.00000 )
      Ez  (        0.00000        0.00000       -0.03816 )
           atom      2   Si 
      Ex  (       -0.03816        0.00000        0.00000 )
      Ey  (        0.00000       -0.03816        0.00000 )
      Ez  (       -0.00000        0.00000       -0.03816 )

          Effective charges (d P / du) in cartesian axis 

           atom      1   Si 
      Px  (       -0.07273       -0.00000       -0.00000 )
      Py  (       -0.00000       -0.07273        0.00000 )
      Pz  (        0.00000        0.00000       -0.07273 )
           atom      2   Si 
      Px  (       -0.07273        0.00000        0.00000 )
      Py  (        0.00000       -0.07273       -0.00000 )
      Pz  (        0.00000       -0.00000       -0.07273 )

     Diagonalizing the dynamical matrix

     q = (    0.000000000   0.000000000   0.000000000 ) 

 **************************************************************************
     freq (    1) =      -0.476285 [THz] =     -15.887150 [cm-1]
     freq (    2) =      -0.476285 [THz] =     -15.887150 [cm-1]
     freq (    3) =      -0.476285 [THz] =     -15.887150 [cm-1]
     freq (    4) =      14.988416 [THz] =     499.959750 [cm-1]
     freq (    5) =      14.988416 [THz] =     499.959750 [cm-1]
     freq (    6) =      14.988416 [THz] =     499.959750 [cm-1]
 **************************************************************************

     Mode symmetry, O_h (m-3m)  point group:

     freq (  1 -  3) =        -15.9  [cm-1]   --> T_1u G_15  G_4- I  
     freq (  4 -  6) =        500.0  [cm-1]   --> T_2g G_25' G_5+ R  

     Calculation of q =   -0.2500000   0.2500000  -0.2500000

   Info: using nr1, nr2, nr3 values from input

   Info: using nr1, nr2, nr3 values from input

     Parallelization info
     --------------------
     sticks:   dense  smooth     PW     G-vecs:    dense   smooth      PW
     Min         222     109     37                 4363     1545     309
     Max         223     110     38                 4364     1546     312
     Sum         889     439    151                17453     6183    1243



     bravais-lattice index     =            2
     lattice parameter (alat)  =      10.3520  a.u.
     unit-cell volume          =     277.3402 (a.u.)^3
     number of atoms/cell      =            2
     number of atomic types    =            1
     number of electrons       =         8.00
     number of Kohn-Sham states=            4
     kinetic-energy cutoff     =      30.0000  Ry
     charge density cutoff     =     240.0000  Ry
     Exchange-correlation      = SLA  PW   PBE  PBE ( 1  4  3  4 0 0)

     celldm(1)=  10.352000  celldm(2)=   0.000000  celldm(3)=   0.000000
     celldm(4)=   0.000000  celldm(5)=   0.000000  celldm(6)=   0.000000

     crystal axes: (cart. coord. in units of alat)
               a(1) = (  -0.500000   0.000000   0.500000 )  
               a(2) = (   0.000000   0.500000   0.500000 )  
               a(3) = (  -0.500000   0.500000   0.000000 )  

     reciprocal axes: (cart. coord. in units 2 pi/alat)
               b(1) = ( -1.000000 -1.000000  1.000000 )  
               b(2) = (  1.000000  1.000000  1.000000 )  
               b(3) = ( -1.000000  1.000000 -1.000000 )  


     PseudoPot. # 1 for Si read from file:
     /home/s1333534/quantum_espresso/qe-6.1/pseudo/si_pbe_v1.uspp.F.UPF.txt
     MD5 check sum: a056efeee980c13900f22a371efd63c1
     Pseudo is Ultrasoft + core correction, Zval =  4.0
     Generated by new atomic code, or converted to UPF format
     Using radial grid of  899 points,  6 beta functions with: 
                l(1) =   0
                l(2) =   0
                l(3) =   1
                l(4) =   1
                l(5) =   2
                l(6) =   2
     Q(r) pseudized with  8 coefficients,  rinner =    0.900   0.900   0.900
                                                       0.900   0.900

     atomic species   valence    mass     pseudopotential
        Si             4.00    28.08600     Si( 1.00)

     48 Sym. Ops., with inversion, found



   Cartesian axes

     site n.     atom                  positions (alat units)
         1           Si  tau(   1) = (   0.0000000   0.0000000   0.0000000  )
         2           Si  tau(   2) = (   0.2500000   0.2500000   0.2500000  )

     number of k points=   120

     Number of k-points >= 100: set verbosity='high' to print them.

     Dense  grid:    17453 G-vectors     FFT dimensions: (  40,  40,  40)

     Smooth grid:     6183 G-vectors     FFT dimensions: (  25,  25,  25)

     Estimated max dynamical RAM per process >       1.79MB

     Estimated total allocated dynamical RAM >       7.17MB

     The potential is recalculated from file :
     ./_ph0/silicon.10.352.save/charge-density.dat

     Starting wfc are    8 atomic wfcs

     Band Structure Calculation
     Davidson diagonalization with overlap

     ethr =  1.25E-10,  avg # of iterations = 12.2

     total cpu time spent up to now is        1.4 secs

     End of band structure calculation

     Number of k-points >= 100: set verbosity='high' to print the bands.

     highest occupied level (ev):     5.6431

     Writing output data file silicon.10.352.save

                                                                                

     bravais-lattice index     =            2
     lattice parameter (alat)  =      10.3520  a.u.
     unit-cell volume          =     277.3402 (a.u.)^3
     number of atoms/cell      =            2
     number of atomic types    =            1
     kinetic-energy cut-off    =      30.0000  Ry
     charge density cut-off    =     240.0000  Ry
     convergence threshold     =      1.0E-12
     beta                      =       0.7000
     number of iterations used =            4
     Exchange-correlation      = SLA  PW   PBE  PBE ( 1  4  3  4 0 0)


     celldm(1)=   10.35200  celldm(2)=    0.00000  celldm(3)=    0.00000
     celldm(4)=    0.00000  celldm(5)=    0.00000  celldm(6)=    0.00000

     crystal axes: (cart. coord. in units of alat)
               a(1) = ( -0.5000  0.0000  0.5000 )  
               a(2) = (  0.0000  0.5000  0.5000 )  
               a(3) = ( -0.5000  0.5000  0.0000 )  

     reciprocal axes: (cart. coord. in units 2 pi/alat)
               b(1) = ( -1.0000 -1.0000  1.0000 )  
               b(2) = (  1.0000  1.0000  1.0000 )  
               b(3) = ( -1.0000  1.0000 -1.0000 )  


     Atoms inside the unit cell: 

     Cartesian axes

     site n.  atom      mass           positions (alat units)
        1     Si  28.0860   tau(    1) = (    0.00000    0.00000    0.00000  )
        2     Si  28.0860   tau(    2) = (    0.25000    0.25000    0.25000  )

     Computing dynamical matrix for 
                    q = (  -0.2500000   0.2500000  -0.2500000 )

      6 Sym.Ops. (no q -> -q+G )


     G cutoff =  651.4784  (   4363 G-vectors)     FFT grid: ( 40, 40, 40)
     G cutoff =  325.7392  (   1546 G-vectors)  smooth grid: ( 25, 25, 25)
     number of k points=   120

     PseudoPot. # 1 for Si read from file:
     /home/s1333534/quantum_espresso/qe-6.1/pseudo/si_pbe_v1.uspp.F.UPF.txt
     MD5 check sum: a056efeee980c13900f22a371efd63c1
     Pseudo is Ultrasoft + core correction, Zval =  4.0
     Generated by new atomic code, or converted to UPF format
     Using radial grid of  899 points,  6 beta functions with: 
                l(1) =   0
                l(2) =   0
                l(3) =   1
                l(4) =   1
                l(5) =   2
                l(6) =   2
     Q(r) pseudized with  8 coefficients,  rinner =    0.900   0.900   0.900
                                                       0.900   0.900

     Mode symmetry, C_3v (3m)   point group:


     Atomic displacements:
     There are   4 irreducible representations

     Representation     1      1 modes -A_1  L_1  To be done

     Representation     2      1 modes -A_1  L_1  To be done

     Representation     3      2 modes -E    L_3  To be done

     Representation     4      2 modes -E    L_3  To be done



     Alpha used in Ewald sum =   2.5000
     PHONON       :    12.13s CPU        15.89s WALL



     Representation #  1 mode #   1

     Self-consistent Calculation

      iter #   1 total cpu time :    16.4 secs   av.it.:   5.9
      thresh= 1.000E-02 alpha_mix =  0.700 |ddv_scf|^2 =  3.091E-04

      iter #   2 total cpu time :    17.0 secs   av.it.:   9.2
      thresh= 1.758E-03 alpha_mix =  0.700 |ddv_scf|^2 =  4.721E-03

      iter #   3 total cpu time :    17.5 secs   av.it.:   7.1
      thresh= 6.871E-03 alpha_mix =  0.700 |ddv_scf|^2 =  1.956E-07

      iter #   4 total cpu time :    18.2 secs   av.it.:   9.7
      thresh= 4.423E-05 alpha_mix =  0.700 |ddv_scf|^2 =  1.303E-08

      iter #   5 total cpu time :    18.9 secs   av.it.:   9.8
      thresh= 1.141E-05 alpha_mix =  0.700 |ddv_scf|^2 =  2.415E-10

      iter #   6 total cpu time :    19.5 secs   av.it.:   9.9
      thresh= 1.554E-06 alpha_mix =  0.700 |ddv_scf|^2 =  6.414E-10

      iter #   7 total cpu time :    20.1 secs   av.it.:   7.8
      thresh= 2.533E-06 alpha_mix =  0.700 |ddv_scf|^2 =  3.689E-11

      iter #   8 total cpu time :    20.7 secs   av.it.:   9.4
      thresh= 6.074E-07 alpha_mix =  0.700 |ddv_scf|^2 =  4.008E-13

     End of self-consistent calculation

     Convergence has been achieved 


     Representation #  2 mode #   2

     Self-consistent Calculation

      iter #   1 total cpu time :    21.3 secs   av.it.:   5.9
      thresh= 1.000E-02 alpha_mix =  0.700 |ddv_scf|^2 =  3.091E-04

      iter #   2 total cpu time :    21.9 secs   av.it.:   9.2
      thresh= 1.758E-03 alpha_mix =  0.700 |ddv_scf|^2 =  4.721E-03

      iter #   3 total cpu time :    22.5 secs   av.it.:   7.1
      thresh= 6.871E-03 alpha_mix =  0.700 |ddv_scf|^2 =  1.956E-07

      iter #   4 total cpu time :    23.1 secs   av.it.:   9.7
      thresh= 4.423E-05 alpha_mix =  0.700 |ddv_scf|^2 =  1.303E-08

      iter #   5 total cpu time :    23.8 secs   av.it.:   9.8
      thresh= 1.141E-05 alpha_mix =  0.700 |ddv_scf|^2 =  2.415E-10

      iter #   6 total cpu time :    24.4 secs   av.it.:   9.9
      thresh= 1.554E-06 alpha_mix =  0.700 |ddv_scf|^2 =  6.414E-10

      iter #   7 total cpu time :    25.0 secs   av.it.:   7.8
      thresh= 2.533E-06 alpha_mix =  0.700 |ddv_scf|^2 =  3.689E-11

      iter #   8 total cpu time :    25.6 secs   av.it.:   9.4
      thresh= 6.074E-07 alpha_mix =  0.700 |ddv_scf|^2 =  4.008E-13

     End of self-consistent calculation

     Convergence has been achieved 


     Representation #  3 modes #   3  4

     Self-consistent Calculation

      iter #   1 total cpu time :    26.6 secs   av.it.:   5.2
      thresh= 1.000E-02 alpha_mix =  0.700 |ddv_scf|^2 =  4.814E-08

      iter #   2 total cpu time :    27.9 secs   av.it.:  11.7
      thresh= 2.194E-05 alpha_mix =  0.700 |ddv_scf|^2 =  3.094E-09

      iter #   3 total cpu time :    29.2 secs   av.it.:  11.2
      thresh= 5.562E-06 alpha_mix =  0.700 |ddv_scf|^2 =  1.634E-10

      iter #   4 total cpu time :    30.5 secs   av.it.:  11.1
      thresh= 1.278E-06 alpha_mix =  0.700 |ddv_scf|^2 =  6.286E-13

     End of self-consistent calculation

     Convergence has been achieved 


     Representation #  4 modes #   5  6

     Self-consistent Calculation

      iter #   1 total cpu time :    31.5 secs   av.it.:   5.2
      thresh= 1.000E-02 alpha_mix =  0.700 |ddv_scf|^2 =  4.816E-08

      iter #   2 total cpu time :    32.9 secs   av.it.:  11.7
      thresh= 2.194E-05 alpha_mix =  0.700 |ddv_scf|^2 =  3.095E-09

      iter #   3 total cpu time :    34.2 secs   av.it.:  11.4
      thresh= 5.563E-06 alpha_mix =  0.700 |ddv_scf|^2 =  1.634E-10

      iter #   4 total cpu time :    35.4 secs   av.it.:  11.2
      thresh= 1.278E-06 alpha_mix =  0.700 |ddv_scf|^2 =  6.317E-13

     End of self-consistent calculation

     Convergence has been achieved 

     Number of q in the star =    8
     List of q in the star:
          1  -0.250000000   0.250000000  -0.250000000
          2   0.250000000  -0.250000000  -0.250000000
          3   0.250000000  -0.250000000   0.250000000
          4   0.250000000   0.250000000   0.250000000
          5  -0.250000000  -0.250000000  -0.250000000
          6  -0.250000000  -0.250000000   0.250000000
          7  -0.250000000   0.250000000   0.250000000
          8   0.250000000   0.250000000  -0.250000000

     Diagonalizing the dynamical matrix

     q = (   -0.250000000   0.250000000  -0.250000000 ) 

 **************************************************************************
     freq (    1) =       2.795582 [THz] =      93.250589 [cm-1]
     freq (    2) =       2.795582 [THz] =      93.250589 [cm-1]
     freq (    3) =       6.693185 [THz] =     223.260621 [cm-1]
     freq (    4) =      14.142321 [THz] =     471.737044 [cm-1]
     freq (    5) =      14.405021 [THz] =     480.499764 [cm-1]
     freq (    6) =      14.405021 [THz] =     480.499764 [cm-1]
 **************************************************************************

     Mode symmetry, C_3v (3m)   point group:

     freq (  1 -  2) =         93.3  [cm-1]   --> E    L_3           
     freq (  3 -  3) =        223.3  [cm-1]   --> A_1  L_1           
     freq (  4 -  4) =        471.7  [cm-1]   --> A_1  L_1           
     freq (  5 -  6) =        480.5  [cm-1]   --> E    L_3           

     Calculation of q =    0.5000000  -0.5000000   0.5000000

   Info: using nr1, nr2, nr3 values from input

   Info: using nr1, nr2, nr3 values from input

     Parallelization info
     --------------------
     sticks:   dense  smooth     PW     G-vecs:    dense   smooth      PW
     Min         222     109     40                 4363     1545     351
     Max         223     110     41                 4364     1546     354
     Sum         889     439    163                17453     6183    1411



     bravais-lattice index     =            2
     lattice parameter (alat)  =      10.3520  a.u.
     unit-cell volume          =     277.3402 (a.u.)^3
     number of atoms/cell      =            2
     number of atomic types    =            1
     number of electrons       =         8.00
     number of Kohn-Sham states=            4
     kinetic-energy cutoff     =      30.0000  Ry
     charge density cutoff     =     240.0000  Ry
     Exchange-correlation      = SLA  PW   PBE  PBE ( 1  4  3  4 0 0)

     celldm(1)=  10.352000  celldm(2)=   0.000000  celldm(3)=   0.000000
     celldm(4)=   0.000000  celldm(5)=   0.000000  celldm(6)=   0.000000

     crystal axes: (cart. coord. in units of alat)
               a(1) = (  -0.500000   0.000000   0.500000 )  
               a(2) = (   0.000000   0.500000   0.500000 )  
               a(3) = (  -0.500000   0.500000   0.000000 )  

     reciprocal axes: (cart. coord. in units 2 pi/alat)
               b(1) = ( -1.000000 -1.000000  1.000000 )  
               b(2) = (  1.000000  1.000000  1.000000 )  
               b(3) = ( -1.000000  1.000000 -1.000000 )  


     PseudoPot. # 1 for Si read from file:
     /home/s1333534/quantum_espresso/qe-6.1/pseudo/si_pbe_v1.uspp.F.UPF.txt
     MD5 check sum: a056efeee980c13900f22a371efd63c1
     Pseudo is Ultrasoft + core correction, Zval =  4.0
     Generated by new atomic code, or converted to UPF format
     Using radial grid of  899 points,  6 beta functions with: 
                l(1) =   0
                l(2) =   0
                l(3) =   1
                l(4) =   1
                l(5) =   2
                l(6) =   2
     Q(r) pseudized with  8 coefficients,  rinner =    0.900   0.900   0.900
                                                       0.900   0.900

     atomic species   valence    mass     pseudopotential
        Si             4.00    28.08600     Si( 1.00)

     48 Sym. Ops., with inversion, found



   Cartesian axes

     site n.     atom                  positions (alat units)
         1           Si  tau(   1) = (   0.0000000   0.0000000   0.0000000  )
         2           Si  tau(   2) = (   0.2500000   0.2500000   0.2500000  )

     number of k points=    60
                       cart. coord. in units 2pi/alat
        k(    1) = (  -0.1250000   0.1250000   0.1250000), wk =   0.0468750
        k(    2) = (   0.3750000  -0.3750000   0.6250000), wk =   0.0000000
        k(    3) = (  -0.3750000   0.3750000  -0.1250000), wk =   0.0468750
        k(    4) = (   0.1250000  -0.1250000   0.3750000), wk =   0.0000000
        k(    5) = (   0.3750000  -0.3750000   0.6250000), wk =   0.0468750
        k(    6) = (   0.8750000  -0.8750000   1.1250000), wk =   0.0000000
        k(    7) = (   0.1250000  -0.1250000   0.3750000), wk =   0.0468750
        k(    8) = (   0.6250000  -0.6250000   0.8750000), wk =   0.0000000
        k(    9) = (  -0.1250000   0.6250000   0.1250000), wk =   0.0937500
        k(   10) = (   0.3750000   0.1250000   0.6250000), wk =   0.0000000
        k(   11) = (   0.6250000  -0.1250000   0.8750000), wk =   0.0937500
        k(   12) = (   1.1250000  -0.6250000   1.3750000), wk =   0.0000000
        k(   13) = (   0.3750000   0.1250000   0.6250000), wk =   0.0937500
        k(   14) = (   0.8750000  -0.3750000   1.1250000), wk =   0.0000000
        k(   15) = (  -0.1250000  -0.8750000   0.1250000), wk =   0.0937500
        k(   16) = (   0.3750000  -1.3750000   0.6250000), wk =   0.0000000
        k(   17) = (  -0.3750000   0.3750000   0.3750000), wk =   0.0468750
        k(   18) = (   0.1250000  -0.1250000   0.8750000), wk =   0.0000000
        k(   19) = (   0.3750000  -0.3750000   1.1250000), wk =   0.0468750
        k(   20) = (   0.8750000  -0.8750000   1.6250000), wk =   0.0000000
        k(   21) = (   0.1250000  -0.1250000   0.1250000), wk =   0.0156250
        k(   22) = (   0.6250000  -0.6250000   0.6250000), wk =   0.0000000
        k(   23) = (  -0.3750000  -0.3750000  -0.1250000), wk =   0.0937500
        k(   24) = (   0.1250000  -0.8750000   0.3750000), wk =   0.0000000
        k(   25) = (  -0.1250000  -0.3750000   0.3750000), wk =   0.0468750
        k(   26) = (   0.3750000  -0.8750000   0.8750000), wk =   0.0000000
        k(   27) = (   0.3750000   0.3750000   0.6250000), wk =   0.0937500
        k(   28) = (   0.8750000  -0.1250000   1.1250000), wk =   0.0000000
        k(   29) = (   0.6250000   0.3750000  -0.3750000), wk =   0.0468750
        k(   30) = (   1.1250000  -0.1250000   0.1250000), wk =   0.0000000
        k(   31) = (   0.1250000   0.1250000   0.3750000), wk =   0.0937500
        k(   32) = (   0.6250000  -0.3750000   0.8750000), wk =   0.0000000
        k(   33) = (   0.3750000   0.1250000  -0.1250000), wk =   0.0468750
        k(   34) = (   0.8750000  -0.3750000   0.3750000), wk =   0.0000000
        k(   35) = (  -0.1250000  -0.6250000  -0.1250000), wk =   0.0468750
        k(   36) = (   0.3750000  -1.1250000   0.3750000), wk =   0.0000000
        k(   37) = (   0.1250000  -0.6250000   0.1250000), wk =   0.0468750
        k(   38) = (   0.6250000  -1.1250000   0.6250000), wk =   0.0000000
        k(   39) = (   0.6250000   0.1250000   0.8750000), wk =   0.0937500
        k(   40) = (   1.1250000  -0.3750000   1.3750000), wk =   0.0000000
        k(   41) = (  -0.8750000   0.1250000   0.6250000), wk =   0.0937500
        k(   42) = (  -0.3750000  -0.3750000   1.1250000), wk =   0.0000000
        k(   43) = (   0.8750000   0.1250000  -0.6250000), wk =   0.0937500
        k(   44) = (   1.3750000  -0.3750000  -0.1250000), wk =   0.0000000
        k(   45) = (   0.3750000  -0.1250000   0.6250000), wk =   0.0937500
        k(   46) = (   0.8750000  -0.6250000   1.1250000), wk =   0.0000000
        k(   47) = (  -0.6250000  -0.1250000   0.3750000), wk =   0.0937500
        k(   48) = (  -0.1250000  -0.6250000   0.8750000), wk =   0.0000000
        k(   49) = (   0.6250000  -0.1250000  -0.3750000), wk =   0.0937500
        k(   50) = (   1.1250000  -0.6250000   0.1250000), wk =   0.0000000
        k(   51) = (  -0.1250000   0.8750000  -0.1250000), wk =   0.0468750
        k(   52) = (   0.3750000   0.3750000   0.3750000), wk =   0.0000000
        k(   53) = (   0.1250000   0.8750000   0.1250000), wk =   0.0468750
        k(   54) = (   0.6250000   0.3750000   0.6250000), wk =   0.0000000
        k(   55) = (   0.3750000  -0.3750000   0.3750000), wk =   0.0156250
        k(   56) = (   0.8750000  -0.8750000   0.8750000), wk =   0.0000000
        k(   57) = (   0.3750000   0.3750000   1.1250000), wk =   0.0937500
        k(   58) = (   0.8750000  -0.1250000   1.6250000), wk =   0.0000000
        k(   59) = (   1.1250000   0.3750000  -0.3750000), wk =   0.0468750
        k(   60) = (   1.6250000  -0.1250000   0.1250000), wk =   0.0000000

     Dense  grid:    17453 G-vectors     FFT dimensions: (  40,  40,  40)

     Smooth grid:     6183 G-vectors     FFT dimensions: (  25,  25,  25)

     Estimated max dynamical RAM per process >       1.79MB

     Estimated total allocated dynamical RAM >       7.17MB

     The potential is recalculated from file :
     ./_ph0/silicon.10.352.save/charge-density.dat

     Starting wfc are    8 atomic wfcs

     Band Structure Calculation
     Davidson diagonalization with overlap

     ethr =  1.25E-10,  avg # of iterations = 12.2

     total cpu time spent up to now is        2.4 secs

     End of band structure calculation

          k =-0.1250 0.1250 0.1250 (   773 PWs)   bands (ev):

    -5.6574   4.3336   5.6431   5.6431

          k = 0.3750-0.3750 0.6250 (   773 PWs)   bands (ev):

    -3.5047  -0.7145   3.6853   4.3979

          k =-0.3750 0.3750-0.1250 (   776 PWs)   bands (ev):

    -4.6364   1.3509   3.6672   5.1645

          k = 0.1250-0.1250 0.3750 (   781 PWs)   bands (ev):

    -5.1323   2.7203   4.6414   4.7021

          k = 0.3750-0.3750 0.6250 (   773 PWs)   bands (ev):

    -3.5047  -0.7145   3.6853   4.3979

          k = 0.8750-0.8750 1.1250 (   773 PWs)   bands (ev):

    -5.6574   4.3336   5.6431   5.6431

          k = 0.1250-0.1250 0.3750 (   781 PWs)   bands (ev):

    -5.1323   2.7203   4.6414   4.7021

          k = 0.6250-0.6250 0.8750 (   776 PWs)   bands (ev):

    -4.6364   1.3509   3.6672   5.1645

          k =-0.1250 0.6250 0.1250 (   775 PWs)   bands (ev):

    -4.1064   1.0120   3.3218   3.7719

          k = 0.3750 0.1250 0.6250 (   770 PWs)   bands (ev):

    -3.6938   0.1464   2.6825   4.0452

          k = 0.6250-0.1250 0.8750 (   762 PWs)   bands (ev):

    -2.4769  -0.9412   1.9773   3.0473

          k = 1.1250-0.6250 1.3750 (   776 PWs)   bands (ev):

    -4.6364   1.3509   3.6672   5.1645

          k = 0.3750 0.1250 0.6250 (   770 PWs)   bands (ev):

    -3.6938   0.1464   2.6825   4.0452

          k = 0.8750-0.3750 1.1250 (   775 PWs)   bands (ev):

    -4.1064   1.0120   3.3218   3.7719

          k =-0.1250-0.8750 0.1250 (   763 PWs)   bands (ev):

    -2.6424  -0.8451   2.5832   3.3073

          k = 0.3750-1.3750 0.6250 (   773 PWs)   bands (ev):

    -3.5047  -0.7145   3.6853   4.3979

          k =-0.3750 0.3750 0.3750 (   769 PWs)   bands (ev):

    -4.2063   0.0697   4.8593   4.8593

          k = 0.1250-0.1250 0.8750 (   763 PWs)   bands (ev):

    -2.6424  -0.8451   2.5832   3.3073

          k = 0.3750-0.3750 1.1250 (   769 PWs)   bands (ev):

    -3.0115  -0.6358   2.0332   4.0829

          k = 0.8750-0.8750 1.6250 (   775 PWs)   bands (ev):

    -4.1064   1.0120   3.3218   3.7719

          k = 0.1250-0.1250 0.1250 (   773 PWs)   bands (ev):

    -5.6574   4.3336   5.6431   5.6431

          k = 0.6250-0.6250 0.6250 (   769 PWs)   bands (ev):

    -4.2063   0.0697   4.8593   4.8593

          k =-0.3750-0.3750-0.1250 (   776 PWs)   bands (ev):

    -4.6364   1.3509   3.6672   5.1645

          k = 0.1250-0.8750 0.3750 (   762 PWs)   bands (ev):

    -2.4769  -0.9412   1.9773   3.0473

          k =-0.1250-0.3750 0.3750 (   776 PWs)   bands (ev):

    -4.6364   1.3509   3.6672   5.1645

          k = 0.3750-0.8750 0.8750 (   775 PWs)   bands (ev):

    -4.1064   1.0120   3.3218   3.7719

          k = 0.3750 0.3750 0.6250 (   773 PWs)   bands (ev):

    -3.5047  -0.7145   3.6853   4.3979

          k = 0.8750-0.1250 1.1250 (   763 PWs)   bands (ev):

    -2.6424  -0.8451   2.5832   3.3073

          k = 0.6250 0.3750-0.3750 (   773 PWs)   bands (ev):

    -3.5047  -0.7145   3.6853   4.3979

          k = 1.1250-0.1250 0.1250 (   763 PWs)   bands (ev):

    -2.6424  -0.8451   2.5832   3.3073

          k = 0.1250 0.1250 0.3750 (   781 PWs)   bands (ev):

    -5.1323   2.7203   4.6414   4.7021

          k = 0.6250-0.3750 0.8750 (   770 PWs)   bands (ev):

    -3.6938   0.1464   2.6825   4.0452

          k = 0.3750 0.1250-0.1250 (   781 PWs)   bands (ev):

    -5.1323   2.7203   4.6414   4.7021

          k = 0.8750-0.3750 0.3750 (   769 PWs)   bands (ev):

    -3.0115  -0.6358   2.0332   4.0829

          k =-0.1250-0.6250-0.1250 (   775 PWs)   bands (ev):

    -4.1064   1.0120   3.3218   3.7719

          k = 0.3750-1.1250 0.3750 (   769 PWs)   bands (ev):

    -3.0115  -0.6358   2.0332   4.0829

          k = 0.1250-0.6250 0.1250 (   775 PWs)   bands (ev):

    -4.1064   1.0120   3.3218   3.7719

          k = 0.6250-1.1250 0.6250 (   776 PWs)   bands (ev):

    -4.6364   1.3509   3.6672   5.1645

          k = 0.6250 0.1250 0.8750 (   762 PWs)   bands (ev):

    -2.4769  -0.9412   1.9773   3.0473

          k = 1.1250-0.3750 1.3750 (   770 PWs)   bands (ev):

    -3.6938   0.1464   2.6825   4.0452

          k =-0.8750 0.1250 0.6250 (   762 PWs)   bands (ev):

    -2.4769  -0.9412   1.9773   3.0473

          k =-0.3750-0.3750 1.1250 (   769 PWs)   bands (ev):

    -3.0115  -0.6358   2.0332   4.0829

          k = 0.8750 0.1250-0.6250 (   762 PWs)   bands (ev):

    -2.4769  -0.9412   1.9773   3.0473

          k = 1.3750-0.3750-0.1250 (   770 PWs)   bands (ev):

    -3.6938   0.1464   2.6825   4.0452

          k = 0.3750-0.1250 0.6250 (   770 PWs)   bands (ev):

    -3.6938   0.1464   2.6825   4.0452

          k = 0.8750-0.6250 1.1250 (   781 PWs)   bands (ev):

    -5.1323   2.7203   4.6414   4.7021

          k =-0.6250-0.1250 0.3750 (   770 PWs)   bands (ev):

    -3.6938   0.1464   2.6825   4.0452

          k =-0.1250-0.6250 0.8750 (   762 PWs)   bands (ev):

    -2.4769  -0.9412   1.9773   3.0473

          k = 0.6250-0.1250-0.3750 (   770 PWs)   bands (ev):

    -3.6938   0.1464   2.6825   4.0452

          k = 1.1250-0.6250 0.1250 (   762 PWs)   bands (ev):

    -2.4769  -0.9412   1.9773   3.0473

          k =-0.1250 0.8750-0.1250 (   763 PWs)   bands (ev):

    -2.6424  -0.8451   2.5832   3.3073

          k = 0.3750 0.3750 0.3750 (   769 PWs)   bands (ev):

    -4.2063   0.0697   4.8593   4.8593

          k = 0.1250 0.8750 0.1250 (   763 PWs)   bands (ev):

    -2.6424  -0.8451   2.5832   3.3073

          k = 0.6250 0.3750 0.6250 (   773 PWs)   bands (ev):

    -3.5047  -0.7145   3.6853   4.3979

          k = 0.3750-0.3750 0.3750 (   769 PWs)   bands (ev):

    -4.2063   0.0697   4.8593   4.8593

          k = 0.8750-0.8750 0.8750 (   773 PWs)   bands (ev):

    -5.6574   4.3336   5.6431   5.6431

          k = 0.3750 0.3750 1.1250 (   769 PWs)   bands (ev):

    -3.0115  -0.6358   2.0332   4.0829

          k = 0.8750-0.1250 1.6250 (   762 PWs)   bands (ev):

    -2.4769  -0.9412   1.9773   3.0473

          k = 1.1250 0.3750-0.3750 (   769 PWs)   bands (ev):

    -3.0115  -0.6358   2.0332   4.0829

          k = 1.6250-0.1250 0.1250 (   781 PWs)   bands (ev):

    -5.1323   2.7203   4.6414   4.7021

     highest occupied level (ev):     5.6431

     Writing output data file silicon.10.352.save

                                                                                

     bravais-lattice index     =            2
     lattice parameter (alat)  =      10.3520  a.u.
     unit-cell volume          =     277.3402 (a.u.)^3
     number of atoms/cell      =            2
     number of atomic types    =            1
     kinetic-energy cut-off    =      30.0000  Ry
     charge density cut-off    =     240.0000  Ry
     convergence threshold     =      1.0E-12
     beta                      =       0.7000
     number of iterations used =            4
     Exchange-correlation      = SLA  PW   PBE  PBE ( 1  4  3  4 0 0)


     celldm(1)=   10.35200  celldm(2)=    0.00000  celldm(3)=    0.00000
     celldm(4)=    0.00000  celldm(5)=    0.00000  celldm(6)=    0.00000

     crystal axes: (cart. coord. in units of alat)
               a(1) = ( -0.5000  0.0000  0.5000 )  
               a(2) = (  0.0000  0.5000  0.5000 )  
               a(3) = ( -0.5000  0.5000  0.0000 )  

     reciprocal axes: (cart. coord. in units 2 pi/alat)
               b(1) = ( -1.0000 -1.0000  1.0000 )  
               b(2) = (  1.0000  1.0000  1.0000 )  
               b(3) = ( -1.0000  1.0000 -1.0000 )  


     Atoms inside the unit cell: 

     Cartesian axes

     site n.  atom      mass           positions (alat units)
        1     Si  28.0860   tau(    1) = (    0.00000    0.00000    0.00000  )
        2     Si  28.0860   tau(    2) = (    0.25000    0.25000    0.25000  )

     Computing dynamical matrix for 
                    q = (   0.5000000  -0.5000000   0.5000000 )

     13 Sym.Ops. (with q -> -q+G )


     G cutoff =  651.4784  (   4363 G-vectors)     FFT grid: ( 40, 40, 40)
     G cutoff =  325.7392  (   1546 G-vectors)  smooth grid: ( 25, 25, 25)
     number of k points=    60

     PseudoPot. # 1 for Si read from file:
     /home/s1333534/quantum_espresso/qe-6.1/pseudo/si_pbe_v1.uspp.F.UPF.txt
     MD5 check sum: a056efeee980c13900f22a371efd63c1
     Pseudo is Ultrasoft + core correction, Zval =  4.0
     Generated by new atomic code, or converted to UPF format
     Using radial grid of  899 points,  6 beta functions with: 
                l(1) =   0
                l(2) =   0
                l(3) =   1
                l(4) =   1
                l(5) =   2
                l(6) =   2
     Q(r) pseudized with  8 coefficients,  rinner =    0.900   0.900   0.900
                                                       0.900   0.900


     Atomic displacements:
     There are   4 irreducible representations

     Representation     1      1 modes -  To be done

     Representation     2      1 modes -  To be done

     Representation     3      2 modes -  To be done

     Representation     4      2 modes -  To be done



     Alpha used in Ewald sum =   2.5000
     PHONON       :    29.77s CPU        37.78s WALL



     Representation #  1 mode #   1

     Self-consistent Calculation

      iter #   1 total cpu time :    38.1 secs   av.it.:   5.0
      thresh= 1.000E-02 alpha_mix =  0.700 |ddv_scf|^2 =  3.031E-06

      iter #   2 total cpu time :    38.5 secs   av.it.:  10.1
      thresh= 1.741E-04 alpha_mix =  0.700 |ddv_scf|^2 =  2.795E-06

      iter #   3 total cpu time :    39.0 secs   av.it.:   9.4
      thresh= 1.672E-04 alpha_mix =  0.700 |ddv_scf|^2 =  1.659E-09

      iter #   4 total cpu time :    39.4 secs   av.it.:   9.6
      thresh= 4.073E-06 alpha_mix =  0.700 |ddv_scf|^2 =  1.571E-11

      iter #   5 total cpu time :    39.8 secs   av.it.:   9.5
      thresh= 3.964E-07 alpha_mix =  0.700 |ddv_scf|^2 =  2.275E-13

     End of self-consistent calculation

     Convergence has been achieved 


     Representation #  2 mode #   2

     Self-consistent Calculation

      iter #   1 total cpu time :    40.2 secs   av.it.:   6.0
      thresh= 1.000E-02 alpha_mix =  0.700 |ddv_scf|^2 =  4.309E-05

      iter #   2 total cpu time :    40.6 secs   av.it.:  10.0
      thresh= 6.565E-04 alpha_mix =  0.700 |ddv_scf|^2 =  1.343E-04

      iter #   3 total cpu time :    41.0 secs   av.it.:   8.9
      thresh= 1.159E-03 alpha_mix =  0.700 |ddv_scf|^2 =  1.006E-08

      iter #   4 total cpu time :    41.5 secs   av.it.:  10.1
      thresh= 1.003E-05 alpha_mix =  0.700 |ddv_scf|^2 =  5.087E-10

      iter #   5 total cpu time :    42.0 secs   av.it.:  10.4
      thresh= 2.255E-06 alpha_mix =  0.700 |ddv_scf|^2 =  1.506E-11

      iter #   6 total cpu time :    42.4 secs   av.it.:   9.9
      thresh= 3.881E-07 alpha_mix =  0.700 |ddv_scf|^2 =  1.119E-13

     End of self-consistent calculation

     Convergence has been achieved 


     Representation #  3 modes #   3  4

     Self-consistent Calculation

      iter #   1 total cpu time :    43.1 secs   av.it.:   5.0
      thresh= 1.000E-02 alpha_mix =  0.700 |ddv_scf|^2 =  1.954E-08

      iter #   2 total cpu time :    43.9 secs   av.it.:  11.1
      thresh= 1.398E-05 alpha_mix =  0.700 |ddv_scf|^2 =  1.149E-09

      iter #   3 total cpu time :    44.7 secs   av.it.:  10.9
      thresh= 3.390E-06 alpha_mix =  0.700 |ddv_scf|^2 =  3.874E-11

      iter #   4 total cpu time :    45.4 secs   av.it.:  10.8
      thresh= 6.224E-07 alpha_mix =  0.700 |ddv_scf|^2 =  3.172E-13

     End of self-consistent calculation

     Convergence has been achieved 


     Representation #  4 modes #   5  6

     Self-consistent Calculation

      iter #   1 total cpu time :    46.2 secs   av.it.:   5.1
      thresh= 1.000E-02 alpha_mix =  0.700 |ddv_scf|^2 =  1.003E-07

      iter #   2 total cpu time :    47.1 secs   av.it.:  11.2
      thresh= 3.167E-05 alpha_mix =  0.700 |ddv_scf|^2 =  8.057E-09

      iter #   3 total cpu time :    47.9 secs   av.it.:  11.2
      thresh= 8.976E-06 alpha_mix =  0.700 |ddv_scf|^2 =  2.112E-10

      iter #   4 total cpu time :    48.6 secs   av.it.:  10.1
      thresh= 1.453E-06 alpha_mix =  0.700 |ddv_scf|^2 =  3.861E-13

     End of self-consistent calculation

     Convergence has been achieved 

     Number of q in the star =    4
     List of q in the star:
          1   0.500000000  -0.500000000   0.500000000
          2   0.500000000   0.500000000   0.500000000
          3  -0.500000000   0.500000000   0.500000000
          4   0.500000000   0.500000000  -0.500000000

     Diagonalizing the dynamical matrix

     q = (    0.500000000  -0.500000000   0.500000000 ) 

 **************************************************************************
     freq (    1) =       3.329403 [THz] =     111.056945 [cm-1]
     freq (    2) =       3.329403 [THz] =     111.056945 [cm-1]
     freq (    3) =      11.075152 [THz] =     369.427291 [cm-1]
     freq (    4) =      11.861981 [THz] =     395.673107 [cm-1]
     freq (    5) =      14.187170 [THz] =     473.233053 [cm-1]
     freq (    6) =      14.187170 [THz] =     473.233053 [cm-1]
 **************************************************************************

     Calculation of q =    0.0000000   0.5000000   0.0000000

   Info: using nr1, nr2, nr3 values from input

   Info: using nr1, nr2, nr3 values from input

     Parallelization info
     --------------------
     sticks:   dense  smooth     PW     G-vecs:    dense   smooth      PW
     Min         222     109     40                 4363     1545     322
     Max         223     110     42                 4364     1547     323
     Sum         889     439    163                17453     6183    1291



     bravais-lattice index     =            2
     lattice parameter (alat)  =      10.3520  a.u.
     unit-cell volume          =     277.3402 (a.u.)^3
     number of atoms/cell      =            2
     number of atomic types    =            1
     number of electrons       =         8.00
     number of Kohn-Sham states=            4
     kinetic-energy cutoff     =      30.0000  Ry
     charge density cutoff     =     240.0000  Ry
     Exchange-correlation      = SLA  PW   PBE  PBE ( 1  4  3  4 0 0)

     celldm(1)=  10.352000  celldm(2)=   0.000000  celldm(3)=   0.000000
     celldm(4)=   0.000000  celldm(5)=   0.000000  celldm(6)=   0.000000

     crystal axes: (cart. coord. in units of alat)
               a(1) = (  -0.500000   0.000000   0.500000 )  
               a(2) = (   0.000000   0.500000   0.500000 )  
               a(3) = (  -0.500000   0.500000   0.000000 )  

     reciprocal axes: (cart. coord. in units 2 pi/alat)
               b(1) = ( -1.000000 -1.000000  1.000000 )  
               b(2) = (  1.000000  1.000000  1.000000 )  
               b(3) = ( -1.000000  1.000000 -1.000000 )  


     PseudoPot. # 1 for Si read from file:
     /home/s1333534/quantum_espresso/qe-6.1/pseudo/si_pbe_v1.uspp.F.UPF.txt
     MD5 check sum: a056efeee980c13900f22a371efd63c1
     Pseudo is Ultrasoft + core correction, Zval =  4.0
     Generated by new atomic code, or converted to UPF format
     Using radial grid of  899 points,  6 beta functions with: 
                l(1) =   0
                l(2) =   0
                l(3) =   1
                l(4) =   1
                l(5) =   2
                l(6) =   2
     Q(r) pseudized with  8 coefficients,  rinner =    0.900   0.900   0.900
                                                       0.900   0.900

     atomic species   valence    mass     pseudopotential
        Si             4.00    28.08600     Si( 1.00)

     48 Sym. Ops., with inversion, found



   Cartesian axes

     site n.     atom                  positions (alat units)
         1           Si  tau(   1) = (   0.0000000   0.0000000   0.0000000  )
         2           Si  tau(   2) = (   0.2500000   0.2500000   0.2500000  )

     number of k points=    80
                       cart. coord. in units 2pi/alat
        k(    1) = (  -0.1250000   0.1250000   0.1250000), wk =   0.0312500
        k(    2) = (  -0.1250000   0.6250000   0.1250000), wk =   0.0000000
        k(    3) = (  -0.3750000   0.3750000  -0.1250000), wk =   0.0625000
        k(    4) = (  -0.3750000   0.8750000  -0.1250000), wk =   0.0000000
        k(    5) = (   0.3750000  -0.3750000   0.6250000), wk =   0.0625000
        k(    6) = (   0.3750000   0.1250000   0.6250000), wk =   0.0000000
        k(    7) = (   0.1250000  -0.1250000   0.3750000), wk =   0.0625000
        k(    8) = (   0.1250000   0.3750000   0.3750000), wk =   0.0000000
        k(    9) = (  -0.1250000   0.6250000   0.1250000), wk =   0.0312500
        k(   10) = (  -0.1250000   1.1250000   0.1250000), wk =   0.0000000
        k(   11) = (   0.6250000  -0.1250000   0.8750000), wk =   0.0625000
        k(   12) = (   0.6250000   0.3750000   0.8750000), wk =   0.0000000
        k(   13) = (   0.3750000   0.1250000   0.6250000), wk =   0.0625000
        k(   14) = (   0.3750000   0.6250000   0.6250000), wk =   0.0000000
        k(   15) = (  -0.1250000  -0.8750000   0.1250000), wk =   0.0312500
        k(   16) = (  -0.1250000  -0.3750000   0.1250000), wk =   0.0000000
        k(   17) = (  -0.3750000   0.3750000   0.3750000), wk =   0.0312500
        k(   18) = (  -0.3750000   0.8750000   0.3750000), wk =   0.0000000
        k(   19) = (   0.3750000  -0.3750000   1.1250000), wk =   0.0625000
        k(   20) = (   0.3750000   0.1250000   1.1250000), wk =   0.0000000
        k(   21) = (  -0.1250000  -0.1250000   0.1250000), wk =   0.0312500
        k(   22) = (  -0.1250000   0.3750000   0.1250000), wk =   0.0000000
        k(   23) = (   0.1250000  -0.3750000   0.3750000), wk =   0.0625000
        k(   24) = (   0.1250000   0.1250000   0.3750000), wk =   0.0000000
        k(   25) = (   0.3750000  -0.1250000   0.3750000), wk =   0.0312500
        k(   26) = (   0.3750000   0.3750000   0.3750000), wk =   0.0000000
        k(   27) = (   0.3750000   0.1250000   0.3750000), wk =   0.0312500
        k(   28) = (   0.3750000   0.6250000   0.3750000), wk =   0.0000000
        k(   29) = (  -0.6250000   0.3750000  -0.3750000), wk =   0.0625000
        k(   30) = (  -0.6250000   0.8750000  -0.3750000), wk =   0.0000000
        k(   31) = (  -0.3750000   0.6250000  -0.3750000), wk =   0.0312500
        k(   32) = (  -0.3750000   1.1250000  -0.3750000), wk =   0.0000000
        k(   33) = (  -0.3750000  -0.6250000  -0.3750000), wk =   0.0312500
        k(   34) = (  -0.3750000  -0.1250000  -0.3750000), wk =   0.0000000
        k(   35) = (  -0.3750000   0.1250000  -0.1250000), wk =   0.0625000
        k(   36) = (  -0.3750000   0.6250000  -0.1250000), wk =   0.0000000
        k(   37) = (  -0.1250000   0.3750000  -0.1250000), wk =   0.0312500
        k(   38) = (  -0.1250000   0.8750000  -0.1250000), wk =   0.0000000
        k(   39) = (  -0.1250000  -0.3750000  -0.1250000), wk =   0.0312500
        k(   40) = (  -0.1250000   0.1250000  -0.1250000), wk =   0.0000000
        k(   41) = (  -0.1250000  -0.6250000   0.1250000), wk =   0.0312500
        k(   42) = (  -0.1250000  -0.1250000   0.1250000), wk =   0.0000000
        k(   43) = (   0.6250000  -0.1250000  -0.1250000), wk =   0.0625000
        k(   44) = (   0.6250000   0.3750000  -0.1250000), wk =   0.0000000
        k(   45) = (   0.6250000   0.1250000   0.1250000), wk =   0.0625000
        k(   46) = (   0.6250000   0.6250000   0.1250000), wk =   0.0000000
        k(   47) = (  -0.8750000   0.1250000  -0.6250000), wk =   0.0625000
        k(   48) = (  -0.8750000   0.6250000  -0.6250000), wk =   0.0000000
        k(   49) = (  -0.1250000   0.6250000  -0.8750000), wk =   0.0625000
        k(   50) = (  -0.1250000   1.1250000  -0.8750000), wk =   0.0000000
        k(   51) = (  -0.1250000   0.8750000  -0.6250000), wk =   0.0625000
        k(   52) = (  -0.1250000   1.3750000  -0.6250000), wk =   0.0000000
        k(   53) = (  -0.1250000  -0.8750000  -0.6250000), wk =   0.0625000
        k(   54) = (  -0.1250000  -0.3750000  -0.6250000), wk =   0.0000000
        k(   55) = (   0.8750000  -0.6250000   0.1250000), wk =   0.0625000
        k(   56) = (   0.8750000  -0.1250000   0.1250000), wk =   0.0000000
        k(   57) = (  -0.6250000  -0.1250000  -0.3750000), wk =   0.0625000
        k(   58) = (  -0.6250000   0.3750000  -0.3750000), wk =   0.0000000
        k(   59) = (   0.1250000   0.3750000  -0.6250000), wk =   0.0625000
        k(   60) = (   0.1250000   0.8750000  -0.6250000), wk =   0.0000000
        k(   61) = (   0.1250000   0.6250000  -0.3750000), wk =   0.0625000
        k(   62) = (   0.1250000   1.1250000  -0.3750000), wk =   0.0000000
        k(   63) = (   0.1250000  -0.6250000  -0.3750000), wk =   0.0625000
        k(   64) = (   0.1250000  -0.1250000  -0.3750000), wk =   0.0000000
        k(   65) = (   0.6250000  -0.3750000  -0.1250000), wk =   0.0625000
        k(   66) = (   0.6250000   0.1250000  -0.1250000), wk =   0.0000000
        k(   67) = (  -0.1250000   0.8750000   0.1250000), wk =   0.0312500
        k(   68) = (  -0.1250000   1.3750000   0.1250000), wk =   0.0000000
        k(   69) = (  -0.8750000  -0.1250000  -0.1250000), wk =   0.0625000
        k(   70) = (  -0.8750000   0.3750000  -0.1250000), wk =   0.0000000
        k(   71) = (  -0.8750000   0.1250000   0.1250000), wk =   0.0625000
        k(   72) = (  -0.8750000   0.6250000   0.1250000), wk =   0.0000000
        k(   73) = (  -0.3750000  -0.3750000   0.3750000), wk =   0.0312500
        k(   74) = (  -0.3750000   0.1250000   0.3750000), wk =   0.0000000
        k(   75) = (  -1.1250000   0.3750000  -0.3750000), wk =   0.0625000
        k(   76) = (  -1.1250000   0.8750000  -0.3750000), wk =   0.0000000
        k(   77) = (  -0.3750000   1.1250000  -0.3750000), wk =   0.0312500
        k(   78) = (  -0.3750000   1.6250000  -0.3750000), wk =   0.0000000
        k(   79) = (  -0.3750000  -1.1250000  -0.3750000), wk =   0.0312500
        k(   80) = (  -0.3750000  -0.6250000  -0.3750000), wk =   0.0000000

     Dense  grid:    17453 G-vectors     FFT dimensions: (  40,  40,  40)

     Smooth grid:     6183 G-vectors     FFT dimensions: (  25,  25,  25)

     Estimated max dynamical RAM per process >       1.79MB

     Estimated total allocated dynamical RAM >       7.17MB

     The potential is recalculated from file :
     ./_ph0/silicon.10.352.save/charge-density.dat

     Starting wfc are    8 atomic wfcs

     Band Structure Calculation
     Davidson diagonalization with overlap

     ethr =  1.25E-10,  avg # of iterations = 12.2

     total cpu time spent up to now is        3.5 secs

     End of band structure calculation

          k =-0.1250 0.1250 0.1250 (   773 PWs)   bands (ev):

    -5.6574   4.3336   5.6431   5.6431

          k =-0.1250 0.6250 0.1250 (   775 PWs)   bands (ev):

    -4.1064   1.0120   3.3218   3.7719

          k =-0.3750 0.3750-0.1250 (   776 PWs)   bands (ev):

    -4.6364   1.3509   3.6672   5.1645

          k =-0.3750 0.8750-0.1250 (   762 PWs)   bands (ev):

    -2.4769  -0.9412   1.9773   3.0473

          k = 0.3750-0.3750 0.6250 (   773 PWs)   bands (ev):

    -3.5047  -0.7145   3.6853   4.3979

          k = 0.3750 0.1250 0.6250 (   770 PWs)   bands (ev):

    -3.6938   0.1464   2.6825   4.0452

          k = 0.1250-0.1250 0.3750 (   781 PWs)   bands (ev):

    -5.1323   2.7203   4.6414   4.7021

          k = 0.1250 0.3750 0.3750 (   776 PWs)   bands (ev):

    -4.6364   1.3509   3.6672   5.1645

          k =-0.1250 0.6250 0.1250 (   775 PWs)   bands (ev):

    -4.1064   1.0120   3.3218   3.7719

          k =-0.1250 1.1250 0.1250 (   763 PWs)   bands (ev):

    -2.6424  -0.8451   2.5832   3.3073

          k = 0.6250-0.1250 0.8750 (   762 PWs)   bands (ev):

    -2.4769  -0.9412   1.9773   3.0473

          k = 0.6250 0.3750 0.8750 (   770 PWs)   bands (ev):

    -3.6938   0.1464   2.6825   4.0452

          k = 0.3750 0.1250 0.6250 (   770 PWs)   bands (ev):

    -3.6938   0.1464   2.6825   4.0452

          k = 0.3750 0.6250 0.6250 (   773 PWs)   bands (ev):

    -3.5047  -0.7145   3.6853   4.3979

          k =-0.1250-0.8750 0.1250 (   763 PWs)   bands (ev):

    -2.6424  -0.8451   2.5832   3.3073

          k =-0.1250-0.3750 0.1250 (   781 PWs)   bands (ev):

    -5.1323   2.7203   4.6414   4.7021

          k =-0.3750 0.3750 0.3750 (   769 PWs)   bands (ev):

    -4.2063   0.0697   4.8593   4.8593

          k =-0.3750 0.8750 0.3750 (   769 PWs)   bands (ev):

    -3.0115  -0.6358   2.0332   4.0829

          k = 0.3750-0.3750 1.1250 (   769 PWs)   bands (ev):

    -3.0115  -0.6358   2.0332   4.0829

          k = 0.3750 0.1250 1.1250 (   762 PWs)   bands (ev):

    -2.4769  -0.9412   1.9773   3.0473

          k =-0.1250-0.1250 0.1250 (   773 PWs)   bands (ev):

    -5.6574   4.3336   5.6431   5.6431

          k =-0.1250 0.3750 0.1250 (   781 PWs)   bands (ev):

    -5.1323   2.7203   4.6414   4.7021

          k = 0.1250-0.3750 0.3750 (   776 PWs)   bands (ev):

    -4.6364   1.3509   3.6672   5.1645

          k = 0.1250 0.1250 0.3750 (   781 PWs)   bands (ev):

    -5.1323   2.7203   4.6414   4.7021

          k = 0.3750-0.1250 0.3750 (   776 PWs)   bands (ev):

    -4.6364   1.3509   3.6672   5.1645

          k = 0.3750 0.3750 0.3750 (   769 PWs)   bands (ev):

    -4.2063   0.0697   4.8593   4.8593

          k = 0.3750 0.1250 0.3750 (   776 PWs)   bands (ev):

    -4.6364   1.3509   3.6672   5.1645

          k = 0.3750 0.6250 0.3750 (   773 PWs)   bands (ev):

    -3.5047  -0.7145   3.6853   4.3979

          k =-0.6250 0.3750-0.3750 (   773 PWs)   bands (ev):

    -3.5047  -0.7145   3.6853   4.3979

          k =-0.6250 0.8750-0.3750 (   770 PWs)   bands (ev):

    -3.6938   0.1464   2.6825   4.0452

          k =-0.3750 0.6250-0.3750 (   773 PWs)   bands (ev):

    -3.5047  -0.7145   3.6853   4.3979

          k =-0.3750 1.1250-0.3750 (   769 PWs)   bands (ev):

    -3.0115  -0.6358   2.0332   4.0829

          k =-0.3750-0.6250-0.3750 (   773 PWs)   bands (ev):

    -3.5047  -0.7145   3.6853   4.3979

          k =-0.3750-0.1250-0.3750 (   776 PWs)   bands (ev):

    -4.6364   1.3509   3.6672   5.1645

          k =-0.3750 0.1250-0.1250 (   781 PWs)   bands (ev):

    -5.1323   2.7203   4.6414   4.7021

          k =-0.3750 0.6250-0.1250 (   770 PWs)   bands (ev):

    -3.6938   0.1464   2.6825   4.0452

          k =-0.1250 0.3750-0.1250 (   781 PWs)   bands (ev):

    -5.1323   2.7203   4.6414   4.7021

          k =-0.1250 0.8750-0.1250 (   763 PWs)   bands (ev):

    -2.6424  -0.8451   2.5832   3.3073

          k =-0.1250-0.3750-0.1250 (   781 PWs)   bands (ev):

    -5.1323   2.7203   4.6414   4.7021

          k =-0.1250 0.1250-0.1250 (   773 PWs)   bands (ev):

    -5.6574   4.3336   5.6431   5.6431

          k =-0.1250-0.6250 0.1250 (   775 PWs)   bands (ev):

    -4.1064   1.0120   3.3218   3.7719

          k =-0.1250-0.1250 0.1250 (   773 PWs)   bands (ev):

    -5.6574   4.3336   5.6431   5.6431

          k = 0.6250-0.1250-0.1250 (   775 PWs)   bands (ev):

    -4.1064   1.0120   3.3218   3.7719

          k = 0.6250 0.3750-0.1250 (   770 PWs)   bands (ev):

    -3.6938   0.1464   2.6825   4.0452

          k = 0.6250 0.1250 0.1250 (   775 PWs)   bands (ev):

    -4.1064   1.0120   3.3218   3.7719

          k = 0.6250 0.6250 0.1250 (   769 PWs)   bands (ev):

    -3.0115  -0.6358   2.0332   4.0829

          k =-0.8750 0.1250-0.6250 (   762 PWs)   bands (ev):

    -2.4769  -0.9412   1.9773   3.0473

          k =-0.8750 0.6250-0.6250 (   776 PWs)   bands (ev):

    -4.6364   1.3509   3.6672   5.1645

          k =-0.1250 0.6250-0.8750 (   762 PWs)   bands (ev):

    -2.4769  -0.9412   1.9773   3.0473

          k =-0.1250 1.1250-0.8750 (   763 PWs)   bands (ev):

    -2.6424  -0.8451   2.5832   3.3073

          k =-0.1250 0.8750-0.6250 (   762 PWs)   bands (ev):

    -2.4769  -0.9412   1.9773   3.0473

          k =-0.1250 1.3750-0.6250 (   769 PWs)   bands (ev):

    -3.0115  -0.6358   2.0332   4.0829

          k =-0.1250-0.8750-0.6250 (   762 PWs)   bands (ev):

    -2.4769  -0.9412   1.9773   3.0473

          k =-0.1250-0.3750-0.6250 (   770 PWs)   bands (ev):

    -3.6938   0.1464   2.6825   4.0452

          k = 0.8750-0.6250 0.1250 (   762 PWs)   bands (ev):

    -2.4769  -0.9412   1.9773   3.0473

          k = 0.8750-0.1250 0.1250 (   763 PWs)   bands (ev):

    -2.6424  -0.8451   2.5832   3.3073

          k =-0.6250-0.1250-0.3750 (   770 PWs)   bands (ev):

    -3.6938   0.1464   2.6825   4.0452

          k =-0.6250 0.3750-0.3750 (   773 PWs)   bands (ev):

    -3.5047  -0.7145   3.6853   4.3979

          k = 0.1250 0.3750-0.6250 (   770 PWs)   bands (ev):

    -3.6938   0.1464   2.6825   4.0452

          k = 0.1250 0.8750-0.6250 (   762 PWs)   bands (ev):

    -2.4769  -0.9412   1.9773   3.0473

          k = 0.1250 0.6250-0.3750 (   770 PWs)   bands (ev):

    -3.6938   0.1464   2.6825   4.0452

          k = 0.1250 1.1250-0.3750 (   762 PWs)   bands (ev):

    -2.4769  -0.9412   1.9773   3.0473

          k = 0.1250-0.6250-0.3750 (   770 PWs)   bands (ev):

    -3.6938   0.1464   2.6825   4.0452

          k = 0.1250-0.1250-0.3750 (   781 PWs)   bands (ev):

    -5.1323   2.7203   4.6414   4.7021

          k = 0.6250-0.3750-0.1250 (   770 PWs)   bands (ev):

    -3.6938   0.1464   2.6825   4.0452

          k = 0.6250 0.1250-0.1250 (   775 PWs)   bands (ev):

    -4.1064   1.0120   3.3218   3.7719

          k =-0.1250 0.8750 0.1250 (   763 PWs)   bands (ev):

    -2.6424  -0.8451   2.5832   3.3073

          k =-0.1250 1.3750 0.1250 (   775 PWs)   bands (ev):

    -4.1064   1.0120   3.3218   3.7719

          k =-0.8750-0.1250-0.1250 (   763 PWs)   bands (ev):

    -2.6424  -0.8451   2.5832   3.3073

          k =-0.8750 0.3750-0.1250 (   762 PWs)   bands (ev):

    -2.4769  -0.9412   1.9773   3.0473

          k =-0.8750 0.1250 0.1250 (   763 PWs)   bands (ev):

    -2.6424  -0.8451   2.5832   3.3073

          k =-0.8750 0.6250 0.1250 (   762 PWs)   bands (ev):

    -2.4769  -0.9412   1.9773   3.0473

          k =-0.3750-0.3750 0.3750 (   769 PWs)   bands (ev):

    -4.2063   0.0697   4.8593   4.8593

          k =-0.3750 0.1250 0.3750 (   776 PWs)   bands (ev):

    -4.6364   1.3509   3.6672   5.1645

          k =-1.1250 0.3750-0.3750 (   769 PWs)   bands (ev):

    -3.0115  -0.6358   2.0332   4.0829

          k =-1.1250 0.8750-0.3750 (   775 PWs)   bands (ev):

    -4.1064   1.0120   3.3218   3.7719

          k =-0.3750 1.1250-0.3750 (   769 PWs)   bands (ev):

    -3.0115  -0.6358   2.0332   4.0829

          k =-0.3750 1.6250-0.3750 (   769 PWs)   bands (ev):

    -4.2063   0.0697   4.8593   4.8593

          k =-0.3750-1.1250-0.3750 (   769 PWs)   bands (ev):

    -3.0115  -0.6358   2.0332   4.0829

          k =-0.3750-0.6250-0.3750 (   773 PWs)   bands (ev):

    -3.5047  -0.7145   3.6853   4.3979

     highest occupied level (ev):     5.6431

     Writing output data file silicon.10.352.save

                                                                                

     bravais-lattice index     =            2
     lattice parameter (alat)  =      10.3520  a.u.
     unit-cell volume          =     277.3402 (a.u.)^3
     number of atoms/cell      =            2
     number of atomic types    =            1
     kinetic-energy cut-off    =      30.0000  Ry
     charge density cut-off    =     240.0000  Ry
     convergence threshold     =      1.0E-12
     beta                      =       0.7000
     number of iterations used =            4
     Exchange-correlation      = SLA  PW   PBE  PBE ( 1  4  3  4 0 0)


     celldm(1)=   10.35200  celldm(2)=    0.00000  celldm(3)=    0.00000
     celldm(4)=    0.00000  celldm(5)=    0.00000  celldm(6)=    0.00000

     crystal axes: (cart. coord. in units of alat)
               a(1) = ( -0.5000  0.0000  0.5000 )  
               a(2) = (  0.0000  0.5000  0.5000 )  
               a(3) = ( -0.5000  0.5000  0.0000 )  

     reciprocal axes: (cart. coord. in units 2 pi/alat)
               b(1) = ( -1.0000 -1.0000  1.0000 )  
               b(2) = (  1.0000  1.0000  1.0000 )  
               b(3) = ( -1.0000  1.0000 -1.0000 )  


     Atoms inside the unit cell: 

     Cartesian axes

     site n.  atom      mass           positions (alat units)
        1     Si  28.0860   tau(    1) = (    0.00000    0.00000    0.00000  )
        2     Si  28.0860   tau(    2) = (    0.25000    0.25000    0.25000  )

     Computing dynamical matrix for 
                    q = (   0.0000000   0.5000000   0.0000000 )

      8 Sym.Ops. (no q -> -q+G )


     G cutoff =  651.4784  (   4363 G-vectors)     FFT grid: ( 40, 40, 40)
     G cutoff =  325.7392  (   1545 G-vectors)  smooth grid: ( 25, 25, 25)
     number of k points=    80

     PseudoPot. # 1 for Si read from file:
     /home/s1333534/quantum_espresso/qe-6.1/pseudo/si_pbe_v1.uspp.F.UPF.txt
     MD5 check sum: a056efeee980c13900f22a371efd63c1
     Pseudo is Ultrasoft + core correction, Zval =  4.0
     Generated by new atomic code, or converted to UPF format
     Using radial grid of  899 points,  6 beta functions with: 
                l(1) =   0
                l(2) =   0
                l(3) =   1
                l(4) =   1
                l(5) =   2
                l(6) =   2
     Q(r) pseudized with  8 coefficients,  rinner =    0.900   0.900   0.900
                                                       0.900   0.900

     Mode symmetry, C_4v (4mm)  point group:


     Atomic displacements:
     There are   4 irreducible representations

     Representation     1      1 modes -A_1  G_1 D_1  To be done

     Representation     2      1 modes -B_2  G_4 D_2'  To be done

     Representation     3      2 modes -E    G_5 D_5  To be done

     Representation     4      2 modes -E    G_5 D_5  To be done



     Alpha used in Ewald sum =   2.5000
     PHONON       :    40.10s CPU        51.12s WALL



     Representation #  1 mode #   1

     Self-consistent Calculation

      iter #   1 total cpu time :    51.5 secs   av.it.:   6.2
      thresh= 1.000E-02 alpha_mix =  0.700 |ddv_scf|^2 =  3.720E-04

      iter #   2 total cpu time :    52.0 secs   av.it.:   9.5
      thresh= 1.929E-03 alpha_mix =  0.700 |ddv_scf|^2 =  4.951E-03

      iter #   3 total cpu time :    52.4 secs   av.it.:   7.5
      thresh= 7.036E-03 alpha_mix =  0.700 |ddv_scf|^2 =  7.344E-09

      iter #   4 total cpu time :    53.0 secs   av.it.:  10.3
      thresh= 8.570E-06 alpha_mix =  0.700 |ddv_scf|^2 =  7.380E-10

      iter #   5 total cpu time :    53.6 secs   av.it.:   9.9
      thresh= 2.717E-06 alpha_mix =  0.700 |ddv_scf|^2 =  8.042E-11

      iter #   6 total cpu time :    54.0 secs   av.it.:   9.5
      thresh= 8.968E-07 alpha_mix =  0.700 |ddv_scf|^2 =  2.314E-13

     End of self-consistent calculation

     Convergence has been achieved 


     Representation #  2 mode #   2

     Self-consistent Calculation

      iter #   1 total cpu time :    54.5 secs   av.it.:   5.1
      thresh= 1.000E-02 alpha_mix =  0.700 |ddv_scf|^2 =  5.897E-07

      iter #   2 total cpu time :    55.0 secs   av.it.:  10.6
      thresh= 7.679E-05 alpha_mix =  0.700 |ddv_scf|^2 =  1.632E-07

      iter #   3 total cpu time :    55.5 secs   av.it.:  10.2
      thresh= 4.040E-05 alpha_mix =  0.700 |ddv_scf|^2 =  1.671E-09

      iter #   4 total cpu time :    56.1 secs   av.it.:  10.3
      thresh= 4.088E-06 alpha_mix =  0.700 |ddv_scf|^2 =  6.651E-11

      iter #   5 total cpu time :    56.6 secs   av.it.:  10.5
      thresh= 8.155E-07 alpha_mix =  0.700 |ddv_scf|^2 =  3.869E-13

     End of self-consistent calculation

     Convergence has been achieved 


     Representation #  3 modes #   3  4

     Self-consistent Calculation

      iter #   1 total cpu time :    57.3 secs   av.it.:   5.2
      thresh= 1.000E-02 alpha_mix =  0.700 |ddv_scf|^2 =  1.044E-07

      iter #   2 total cpu time :    58.3 secs   av.it.:  11.7
      thresh= 3.231E-05 alpha_mix =  0.700 |ddv_scf|^2 =  1.441E-08

      iter #   3 total cpu time :    59.4 secs   av.it.:  11.3
      thresh= 1.200E-05 alpha_mix =  0.700 |ddv_scf|^2 =  2.426E-10

      iter #   4 total cpu time :    60.3 secs   av.it.:  10.8
      thresh= 1.558E-06 alpha_mix =  0.700 |ddv_scf|^2 =  5.748E-13

     End of self-consistent calculation

     Convergence has been achieved 


     Representation #  4 modes #   5  6

     Self-consistent Calculation

      iter #   1 total cpu time :    61.2 secs   av.it.:   5.3
      thresh= 1.000E-02 alpha_mix =  0.700 |ddv_scf|^2 =  9.571E-08

      iter #   2 total cpu time :    62.2 secs   av.it.:  11.6
      thresh= 3.094E-05 alpha_mix =  0.700 |ddv_scf|^2 =  1.286E-08

      iter #   3 total cpu time :    63.3 secs   av.it.:  11.4
      thresh= 1.134E-05 alpha_mix =  0.700 |ddv_scf|^2 =  2.480E-10

      iter #   4 total cpu time :    64.2 secs   av.it.:  11.1
      thresh= 1.575E-06 alpha_mix =  0.700 |ddv_scf|^2 =  6.131E-13

     End of self-consistent calculation

     Convergence has been achieved 

     Number of q in the star =    6
     List of q in the star:
          1   0.000000000   0.500000000   0.000000000
          2   0.000000000  -0.500000000   0.000000000
          3   0.500000000   0.000000000   0.000000000
          4   0.000000000   0.000000000   0.500000000
          5   0.000000000   0.000000000  -0.500000000
          6  -0.500000000   0.000000000   0.000000000

     Diagonalizing the dynamical matrix

     q = (    0.000000000   0.500000000   0.000000000 ) 

 **************************************************************************
     freq (    1) =       3.780534 [THz] =     126.105040 [cm-1]
     freq (    2) =       3.780534 [THz] =     126.105040 [cm-1]
     freq (    3) =       7.018390 [THz] =     234.108284 [cm-1]
     freq (    4) =      13.726525 [THz] =     457.867583 [cm-1]
     freq (    5) =      13.726525 [THz] =     457.867583 [cm-1]
     freq (    6) =      14.379844 [THz] =     479.659962 [cm-1]
 **************************************************************************

     Mode symmetry, C_4v (4mm)  point group:

     freq (  1 -  2) =        126.1  [cm-1]   --> E    G_5 D_5       
     freq (  3 -  3) =        234.1  [cm-1]   --> A_1  G_1 D_1       
     freq (  4 -  5) =        457.9  [cm-1]   --> E    G_5 D_5       
     freq (  6 -  6) =        479.7  [cm-1]   --> B_2  G_4 D_2'      

     Calculation of q =    0.7500000  -0.2500000   0.7500000

   Info: using nr1, nr2, nr3 values from input

   Info: using nr1, nr2, nr3 values from input

     Parallelization info
     --------------------
     sticks:   dense  smooth     PW     G-vecs:    dense   smooth      PW
     Min         222     109     40                 4363     1545     362
     Max         223     110     41                 4364     1546     366
     Sum         889     439    163                17453     6183    1459



     bravais-lattice index     =            2
     lattice parameter (alat)  =      10.3520  a.u.
     unit-cell volume          =     277.3402 (a.u.)^3
     number of atoms/cell      =            2
     number of atomic types    =            1
     number of electrons       =         8.00
     number of Kohn-Sham states=            4
     kinetic-energy cutoff     =      30.0000  Ry
     charge density cutoff     =     240.0000  Ry
     Exchange-correlation      = SLA  PW   PBE  PBE ( 1  4  3  4 0 0)

     celldm(1)=  10.352000  celldm(2)=   0.000000  celldm(3)=   0.000000
     celldm(4)=   0.000000  celldm(5)=   0.000000  celldm(6)=   0.000000

     crystal axes: (cart. coord. in units of alat)
               a(1) = (  -0.500000   0.000000   0.500000 )  
               a(2) = (   0.000000   0.500000   0.500000 )  
               a(3) = (  -0.500000   0.500000   0.000000 )  

     reciprocal axes: (cart. coord. in units 2 pi/alat)
               b(1) = ( -1.000000 -1.000000  1.000000 )  
               b(2) = (  1.000000  1.000000  1.000000 )  
               b(3) = ( -1.000000  1.000000 -1.000000 )  


     PseudoPot. # 1 for Si read from file:
     /home/s1333534/quantum_espresso/qe-6.1/pseudo/si_pbe_v1.uspp.F.UPF.txt
     MD5 check sum: a056efeee980c13900f22a371efd63c1
     Pseudo is Ultrasoft + core correction, Zval =  4.0
     Generated by new atomic code, or converted to UPF format
     Using radial grid of  899 points,  6 beta functions with: 
                l(1) =   0
                l(2) =   0
                l(3) =   1
                l(4) =   1
                l(5) =   2
                l(6) =   2
     Q(r) pseudized with  8 coefficients,  rinner =    0.900   0.900   0.900
                                                       0.900   0.900

     atomic species   valence    mass     pseudopotential
        Si             4.00    28.08600     Si( 1.00)

     48 Sym. Ops., with inversion, found



   Cartesian axes

     site n.     atom                  positions (alat units)
         1           Si  tau(   1) = (   0.0000000   0.0000000   0.0000000  )
         2           Si  tau(   2) = (   0.2500000   0.2500000   0.2500000  )

     number of k points=   288

     Number of k-points >= 100: set verbosity='high' to print them.

     Dense  grid:    17453 G-vectors     FFT dimensions: (  40,  40,  40)

     Smooth grid:     6183 G-vectors     FFT dimensions: (  25,  25,  25)

     Estimated max dynamical RAM per process >       1.79MB

     Estimated total allocated dynamical RAM >       7.17MB

     The potential is recalculated from file :
     ./_ph0/silicon.10.352.save/charge-density.dat

     Starting wfc are    8 atomic wfcs

     Band Structure Calculation
     Davidson diagonalization with overlap

     ethr =  1.25E-10,  avg # of iterations = 12.1

     total cpu time spent up to now is        6.8 secs

     End of band structure calculation

     Number of k-points >= 100: set verbosity='high' to print the bands.

     highest occupied level (ev):     5.6431

     Writing output data file silicon.10.352.save

                                                                                

     bravais-lattice index     =            2
     lattice parameter (alat)  =      10.3520  a.u.
     unit-cell volume          =     277.3402 (a.u.)^3
     number of atoms/cell      =            2
     number of atomic types    =            1
     kinetic-energy cut-off    =      30.0000  Ry
     charge density cut-off    =     240.0000  Ry
     convergence threshold     =      1.0E-12
     beta                      =       0.7000
     number of iterations used =            4
     Exchange-correlation      = SLA  PW   PBE  PBE ( 1  4  3  4 0 0)


     celldm(1)=   10.35200  celldm(2)=    0.00000  celldm(3)=    0.00000
     celldm(4)=    0.00000  celldm(5)=    0.00000  celldm(6)=    0.00000

     crystal axes: (cart. coord. in units of alat)
               a(1) = ( -0.5000  0.0000  0.5000 )  
               a(2) = (  0.0000  0.5000  0.5000 )  
               a(3) = ( -0.5000  0.5000  0.0000 )  

     reciprocal axes: (cart. coord. in units 2 pi/alat)
               b(1) = ( -1.0000 -1.0000  1.0000 )  
               b(2) = (  1.0000  1.0000  1.0000 )  
               b(3) = ( -1.0000  1.0000 -1.0000 )  


     Atoms inside the unit cell: 

     Cartesian axes

     site n.  atom      mass           positions (alat units)
        1     Si  28.0860   tau(    1) = (    0.00000    0.00000    0.00000  )
        2     Si  28.0860   tau(    2) = (    0.25000    0.25000    0.25000  )

     Computing dynamical matrix for 
                    q = (   0.7500000  -0.2500000   0.7500000 )

      2 Sym.Ops. (no q -> -q+G )


     G cutoff =  651.4784  (   4363 G-vectors)     FFT grid: ( 40, 40, 40)
     G cutoff =  325.7392  (   1546 G-vectors)  smooth grid: ( 25, 25, 25)
     number of k points=   288

     PseudoPot. # 1 for Si read from file:
     /home/s1333534/quantum_espresso/qe-6.1/pseudo/si_pbe_v1.uspp.F.UPF.txt
     MD5 check sum: a056efeee980c13900f22a371efd63c1
     Pseudo is Ultrasoft + core correction, Zval =  4.0
     Generated by new atomic code, or converted to UPF format
     Using radial grid of  899 points,  6 beta functions with: 
                l(1) =   0
                l(2) =   0
                l(3) =   1
                l(4) =   1
                l(5) =   2
                l(6) =   2
     Q(r) pseudized with  8 coefficients,  rinner =    0.900   0.900   0.900
                                                       0.900   0.900

     Mode symmetry, C_s (m)     point group:


     Atomic displacements:
     There are   6 irreducible representations

     Representation     1      1 modes -A'  To be done

     Representation     2      1 modes -A'  To be done

     Representation     3      1 modes -A'  To be done

     Representation     4      1 modes -A'  To be done

     Representation     5      1 modes -A''  To be done

     Representation     6      1 modes -A''  To be done



     Alpha used in Ewald sum =   2.5000
     PHONON       :  0m54.72s CPU     1m 9.59s WALL



     Representation #  1 mode #   1

     Self-consistent Calculation

      iter #   1 total cpu time :    70.5 secs   av.it.:   5.6
      thresh= 1.000E-02 alpha_mix =  0.700 |ddv_scf|^2 =  7.591E-06

      iter #   2 total cpu time :    71.9 secs   av.it.:  10.7
      thresh= 2.755E-04 alpha_mix =  0.700 |ddv_scf|^2 =  2.035E-05

      iter #   3 total cpu time :    73.2 secs   av.it.:   9.4
      thresh= 4.511E-04 alpha_mix =  0.700 |ddv_scf|^2 =  1.363E-07

      iter #   4 total cpu time :    74.6 secs   av.it.:  10.1
      thresh= 3.691E-05 alpha_mix =  0.700 |ddv_scf|^2 =  2.735E-09

      iter #   5 total cpu time :    75.9 secs   av.it.:  10.7
      thresh= 5.230E-06 alpha_mix =  0.700 |ddv_scf|^2 =  4.661E-10

      iter #   6 total cpu time :    77.3 secs   av.it.:  10.6
      thresh= 2.159E-06 alpha_mix =  0.700 |ddv_scf|^2 =  7.316E-12

      iter #   7 total cpu time :    78.6 secs   av.it.:  10.8
      thresh= 2.705E-07 alpha_mix =  0.700 |ddv_scf|^2 =  2.804E-13

     End of self-consistent calculation

     Convergence has been achieved 


     Representation #  2 mode #   2

     Self-consistent Calculation

      iter #   1 total cpu time :    79.7 secs   av.it.:   5.8
      thresh= 1.000E-02 alpha_mix =  0.700 |ddv_scf|^2 =  1.358E-05

      iter #   2 total cpu time :    81.0 secs   av.it.:  10.6
      thresh= 3.685E-04 alpha_mix =  0.700 |ddv_scf|^2 =  3.946E-05

      iter #   3 total cpu time :    82.3 secs   av.it.:   9.2
      thresh= 6.282E-04 alpha_mix =  0.700 |ddv_scf|^2 =  9.274E-08

      iter #   4 total cpu time :    83.6 secs   av.it.:  10.4
      thresh= 3.045E-05 alpha_mix =  0.700 |ddv_scf|^2 =  3.094E-09

      iter #   5 total cpu time :    85.0 secs   av.it.:  10.6
      thresh= 5.562E-06 alpha_mix =  0.700 |ddv_scf|^2 =  6.297E-10

      iter #   6 total cpu time :    86.3 secs   av.it.:  10.5
      thresh= 2.509E-06 alpha_mix =  0.700 |ddv_scf|^2 =  6.582E-12

      iter #   7 total cpu time :    87.7 secs   av.it.:  10.7
      thresh= 2.565E-07 alpha_mix =  0.700 |ddv_scf|^2 =  2.360E-13

     End of self-consistent calculation

     Convergence has been achieved 


     Representation #  3 mode #   3

     Self-consistent Calculation

      iter #   1 total cpu time :    88.8 secs   av.it.:   5.7
      thresh= 1.000E-02 alpha_mix =  0.700 |ddv_scf|^2 =  1.064E-05

      iter #   2 total cpu time :    90.3 secs   av.it.:  10.7
      thresh= 3.261E-04 alpha_mix =  0.700 |ddv_scf|^2 =  2.902E-05

      iter #   3 total cpu time :    91.6 secs   av.it.:   9.2
      thresh= 5.387E-04 alpha_mix =  0.700 |ddv_scf|^2 =  1.615E-07

      iter #   4 total cpu time :    92.9 secs   av.it.:  10.1
      thresh= 4.019E-05 alpha_mix =  0.700 |ddv_scf|^2 =  3.153E-09

      iter #   5 total cpu time :    94.3 secs   av.it.:  10.7
      thresh= 5.615E-06 alpha_mix =  0.700 |ddv_scf|^2 =  6.172E-10

      iter #   6 total cpu time :    95.8 secs   av.it.:  10.5
      thresh= 2.484E-06 alpha_mix =  0.700 |ddv_scf|^2 =  4.594E-12

      iter #   7 total cpu time :    97.1 secs   av.it.:  10.7
      thresh= 2.143E-07 alpha_mix =  0.700 |ddv_scf|^2 =  1.350E-13

     End of self-consistent calculation

     Convergence has been achieved 


     Representation #  4 mode #   4

     Self-consistent Calculation

      iter #   1 total cpu time :    98.5 secs   av.it.:   5.5
      thresh= 1.000E-02 alpha_mix =  0.700 |ddv_scf|^2 =  4.645E-06

      iter #   2 total cpu time :    99.8 secs   av.it.:  10.9
      thresh= 2.155E-04 alpha_mix =  0.700 |ddv_scf|^2 =  9.885E-06

      iter #   3 total cpu time :   101.2 secs   av.it.:   9.7
      thresh= 3.144E-04 alpha_mix =  0.700 |ddv_scf|^2 =  2.139E-07

      iter #   4 total cpu time :   102.8 secs   av.it.:  10.0
      thresh= 4.625E-05 alpha_mix =  0.700 |ddv_scf|^2 =  2.701E-09

      iter #   5 total cpu time :   104.1 secs   av.it.:  10.7
      thresh= 5.197E-06 alpha_mix =  0.700 |ddv_scf|^2 =  5.052E-10

      iter #   6 total cpu time :   105.5 secs   av.it.:  10.5
      thresh= 2.248E-06 alpha_mix =  0.700 |ddv_scf|^2 =  3.077E-12

      iter #   7 total cpu time :   106.8 secs   av.it.:  10.8
      thresh= 1.754E-07 alpha_mix =  0.700 |ddv_scf|^2 =  1.433E-13

     End of self-consistent calculation

     Convergence has been achieved 


     Representation #  5 mode #   5

     Self-consistent Calculation

      iter #   1 total cpu time :   107.8 secs   av.it.:   5.2
      thresh= 1.000E-02 alpha_mix =  0.700 |ddv_scf|^2 =  4.825E-07

      iter #   2 total cpu time :   109.3 secs   av.it.:  10.4
      thresh= 6.946E-05 alpha_mix =  0.700 |ddv_scf|^2 =  7.878E-08

      iter #   3 total cpu time :   110.6 secs   av.it.:  10.2
      thresh= 2.807E-05 alpha_mix =  0.700 |ddv_scf|^2 =  1.050E-09

      iter #   4 total cpu time :   112.0 secs   av.it.:   9.8
      thresh= 3.241E-06 alpha_mix =  0.700 |ddv_scf|^2 =  2.472E-12

      iter #   5 total cpu time :   113.5 secs   av.it.:  10.3
      thresh= 1.572E-07 alpha_mix =  0.700 |ddv_scf|^2 =  7.010E-14

     End of self-consistent calculation

     Convergence has been achieved 


     Representation #  6 mode #   6

     Self-consistent Calculation

      iter #   1 total cpu time :   114.7 secs   av.it.:   5.2
      thresh= 1.000E-02 alpha_mix =  0.700 |ddv_scf|^2 =  4.825E-07

      iter #   2 total cpu time :   116.1 secs   av.it.:  10.4
[...]
        k(   59) = (  -0.8750000   0.1250000  -0.1250000), wk =   0.0625000
        k(   60) = (  -1.3750000  -0.8750000  -0.1250000), wk =   0.0000000
        k(   61) = (  -1.1250000   0.3750000  -0.3750000), wk =   0.0625000
        k(   62) = (  -1.6250000  -0.6250000  -0.3750000), wk =   0.0000000
        k(   63) = (  -0.3750000   0.3750000   1.1250000), wk =   0.0625000
        k(   64) = (  -0.8750000  -0.6250000   1.1250000), wk =   0.0000000

     Dense  grid:    17453 G-vectors     FFT dimensions: (  40,  40,  40)

     Smooth grid:     6183 G-vectors     FFT dimensions: (  25,  25,  25)

     Estimated max dynamical RAM per process >       1.79MB

     Estimated total allocated dynamical RAM >       7.17MB

     The potential is recalculated from file :
     ./_ph0/silicon.10.352.save/charge-density.dat

     Starting wfc are    8 atomic wfcs

     Band Structure Calculation
     Davidson diagonalization with overlap

     ethr =  1.25E-10,  avg # of iterations = 12.1

     total cpu time spent up to now is       10.8 secs

     End of band structure calculation

          k =-0.1250 0.1250 0.1250 (   773 PWs)   bands (ev):

    -5.6574   4.3336   5.6431   5.6431

          k =-0.6250-0.8750 0.1250 (   762 PWs)   bands (ev):

    -2.4769  -0.9412   1.9773   3.0473

          k =-0.3750 0.3750-0.1250 (   776 PWs)   bands (ev):

    -4.6364   1.3509   3.6672   5.1645

          k =-0.8750-0.6250-0.1250 (   762 PWs)   bands (ev):

    -2.4769  -0.9412   1.9773   3.0473

          k = 0.3750-0.3750 0.6250 (   773 PWs)   bands (ev):

    -3.5047  -0.7145   3.6853   4.3979

          k =-0.1250-1.3750 0.6250 (   769 PWs)   bands (ev):

    -3.0115  -0.6358   2.0332   4.0829

          k = 0.1250-0.1250 0.3750 (   781 PWs)   bands (ev):

    -5.1323   2.7203   4.6414   4.7021

          k =-0.3750-1.1250 0.3750 (   769 PWs)   bands (ev):

    -3.0115  -0.6358   2.0332   4.0829

          k =-0.1250 0.6250 0.1250 (   775 PWs)   bands (ev):

    -4.1064   1.0120   3.3218   3.7719

          k =-0.6250-0.3750 0.1250 (   770 PWs)   bands (ev):

    -3.6938   0.1464   2.6825   4.0452

          k = 0.6250-0.1250 0.8750 (   762 PWs)   bands (ev):

    -2.4769  -0.9412   1.9773   3.0473

          k = 0.1250-1.1250 0.8750 (   763 PWs)   bands (ev):

    -2.6424  -0.8451   2.5832   3.3073

          k = 0.3750 0.1250 0.6250 (   770 PWs)   bands (ev):

    -3.6938   0.1464   2.6825   4.0452

          k =-0.1250-0.8750 0.6250 (   762 PWs)   bands (ev):

    -2.4769  -0.9412   1.9773   3.0473

          k =-0.1250-0.8750 0.1250 (   763 PWs)   bands (ev):

    -2.6424  -0.8451   2.5832   3.3073

          k =-0.6250-1.8750 0.1250 (   775 PWs)   bands (ev):

    -4.1064   1.0120   3.3218   3.7719

          k =-0.3750 0.3750 0.3750 (   769 PWs)   bands (ev):

    -4.2063   0.0697   4.8593   4.8593

          k =-0.8750-0.6250 0.3750 (   770 PWs)   bands (ev):

    -3.6938   0.1464   2.6825   4.0452

          k = 0.3750-0.3750 1.1250 (   769 PWs)   bands (ev):

    -3.0115  -0.6358   2.0332   4.0829

          k =-0.1250-1.3750 1.1250 (   762 PWs)   bands (ev):

    -2.4769  -0.9412   1.9773   3.0473

          k = 0.1250-0.3750 0.3750 (   776 PWs)   bands (ev):

    -4.6364   1.3509   3.6672   5.1645

          k =-0.3750-1.3750 0.3750 (   773 PWs)   bands (ev):

    -3.5047  -0.7145   3.6853   4.3979

          k = 0.3750-0.3750-0.1250 (   776 PWs)   bands (ev):

    -4.6364   1.3509   3.6672   5.1645

          k =-0.1250-1.3750-0.1250 (   775 PWs)   bands (ev):

    -4.1064   1.0120   3.3218   3.7719

          k =-0.6250 0.3750-0.3750 (   773 PWs)   bands (ev):

    -3.5047  -0.7145   3.6853   4.3979

          k =-1.1250-0.6250-0.3750 (   770 PWs)   bands (ev):

    -3.6938   0.1464   2.6825   4.0452

          k =-0.3750 0.3750 0.6250 (   773 PWs)   bands (ev):

    -3.5047  -0.7145   3.6853   4.3979

          k =-0.8750-0.6250 0.6250 (   776 PWs)   bands (ev):

    -4.6364   1.3509   3.6672   5.1645

          k =-0.3750 0.1250-0.1250 (   781 PWs)   bands (ev):

    -5.1323   2.7203   4.6414   4.7021

          k =-0.8750-0.8750-0.1250 (   763 PWs)   bands (ev):

    -2.6424  -0.8451   2.5832   3.3073

          k =-0.1250 0.1250 0.3750 (   781 PWs)   bands (ev):

    -5.1323   2.7203   4.6414   4.7021

          k =-0.6250-0.8750 0.3750 (   770 PWs)   bands (ev):

    -3.6938   0.1464   2.6825   4.0452

          k = 0.1250 0.6250-0.1250 (   775 PWs)   bands (ev):

    -4.1064   1.0120   3.3218   3.7719

          k =-0.3750-0.3750-0.1250 (   776 PWs)   bands (ev):

    -4.6364   1.3509   3.6672   5.1645

          k = 0.6250 0.1250-0.1250 (   775 PWs)   bands (ev):

    -4.1064   1.0120   3.3218   3.7719

          k = 0.1250-0.8750-0.1250 (   763 PWs)   bands (ev):

    -2.6424  -0.8451   2.5832   3.3073

          k =-0.8750 0.1250-0.6250 (   762 PWs)   bands (ev):

    -2.4769  -0.9412   1.9773   3.0473

          k =-1.3750-0.8750-0.6250 (   776 PWs)   bands (ev):

    -4.6364   1.3509   3.6672   5.1645

          k = 0.8750-0.1250 0.6250 (   762 PWs)   bands (ev):

    -2.4769  -0.9412   1.9773   3.0473

          k = 0.3750-1.1250 0.6250 (   770 PWs)   bands (ev):

    -3.6938   0.1464   2.6825   4.0452

          k =-0.6250 0.1250 0.8750 (   762 PWs)   bands (ev):

    -2.4769  -0.9412   1.9773   3.0473

          k =-1.1250-0.8750 0.8750 (   773 PWs)   bands (ev):

    -5.6574   4.3336   5.6431   5.6431

          k =-0.1250 0.8750 0.6250 (   762 PWs)   bands (ev):

    -2.4769  -0.9412   1.9773   3.0473

          k =-0.6250-0.1250 0.6250 (   769 PWs)   bands (ev):

    -3.0115  -0.6358   2.0332   4.0829

          k = 0.1250 0.8750-0.6250 (   762 PWs)   bands (ev):

    -2.4769  -0.9412   1.9773   3.0473

          k =-0.3750-0.1250-0.6250 (   770 PWs)   bands (ev):

    -3.6938   0.1464   2.6825   4.0452

          k =-0.6250-0.1250-0.3750 (   770 PWs)   bands (ev):

    -3.6938   0.1464   2.6825   4.0452

          k =-1.1250-1.1250-0.3750 (   775 PWs)   bands (ev):

    -4.1064   1.0120   3.3218   3.7719

          k = 0.6250 0.1250 0.3750 (   770 PWs)   bands (ev):

    -3.6938   0.1464   2.6825   4.0452

          k = 0.1250-0.8750 0.3750 (   762 PWs)   bands (ev):

    -2.4769  -0.9412   1.9773   3.0473

          k =-0.3750-0.1250 0.6250 (   770 PWs)   bands (ev):

    -3.6938   0.1464   2.6825   4.0452

          k =-0.8750-1.1250 0.6250 (   781 PWs)   bands (ev):

    -5.1323   2.7203   4.6414   4.7021

          k = 0.1250 0.6250 0.3750 (   770 PWs)   bands (ev):

    -3.6938   0.1464   2.6825   4.0452

          k =-0.3750-0.3750 0.3750 (   769 PWs)   bands (ev):

    -4.2063   0.0697   4.8593   4.8593

          k =-0.1250 0.6250-0.3750 (   770 PWs)   bands (ev):

    -3.6938   0.1464   2.6825   4.0452

          k =-0.6250-0.3750-0.3750 (   773 PWs)   bands (ev):

    -3.5047  -0.7145   3.6853   4.3979

          k = 0.1250-0.8750-0.1250 (   763 PWs)   bands (ev):

    -2.6424  -0.8451   2.5832   3.3073

          k =-0.3750-1.8750-0.1250 (   781 PWs)   bands (ev):

    -5.1323   2.7203   4.6414   4.7021

          k =-0.8750 0.1250-0.1250 (   763 PWs)   bands (ev):

    -2.6424  -0.8451   2.5832   3.3073

          k =-1.3750-0.8750-0.1250 (   762 PWs)   bands (ev):

    -2.4769  -0.9412   1.9773   3.0473

          k =-1.1250 0.3750-0.3750 (   769 PWs)   bands (ev):

    -3.0115  -0.6358   2.0332   4.0829

          k =-1.6250-0.6250-0.3750 (   773 PWs)   bands (ev):

    -3.5047  -0.7145   3.6853   4.3979

          k =-0.3750 0.3750 1.1250 (   769 PWs)   bands (ev):

    -3.0115  -0.6358   2.0332   4.0829

          k =-0.8750-0.6250 1.1250 (   781 PWs)   bands (ev):

    -5.1323   2.7203   4.6414   4.7021

     highest occupied level (ev):     5.6431

     Writing output data file silicon.10.352.save

                                                                                

     bravais-lattice index     =            2
     lattice parameter (alat)  =      10.3520  a.u.
     unit-cell volume          =     277.3402 (a.u.)^3
     number of atoms/cell      =            2
     number of atomic types    =            1
     kinetic-energy cut-off    =      30.0000  Ry
     charge density cut-off    =     240.0000  Ry
     convergence threshold     =      1.0E-12
     beta                      =       0.7000
     number of iterations used =            4
     Exchange-correlation      = SLA  PW   PBE  PBE ( 1  4  3  4 0 0)


     celldm(1)=   10.35200  celldm(2)=    0.00000  celldm(3)=    0.00000
     celldm(4)=    0.00000  celldm(5)=    0.00000  celldm(6)=    0.00000

     crystal axes: (cart. coord. in units of alat)
               a(1) = ( -0.5000  0.0000  0.5000 )  
               a(2) = (  0.0000  0.5000  0.5000 )  
               a(3) = ( -0.5000  0.5000  0.0000 )  

     reciprocal axes: (cart. coord. in units 2 pi/alat)
               b(1) = ( -1.0000 -1.0000  1.0000 )  
               b(2) = (  1.0000  1.0000  1.0000 )  
               b(3) = ( -1.0000  1.0000 -1.0000 )  


     Atoms inside the unit cell: 

     Cartesian axes

     site n.  atom      mass           positions (alat units)
        1     Si  28.0860   tau(    1) = (    0.00000    0.00000    0.00000  )
        2     Si  28.0860   tau(    2) = (    0.25000    0.25000    0.25000  )

     Computing dynamical matrix for 
                    q = (  -0.5000000  -1.0000000   0.0000000 )

      8 Sym.Ops. (no q -> -q+G )


     G cutoff =  651.4784  (   4363 G-vectors)     FFT grid: ( 40, 40, 40)
     G cutoff =  325.7392  (   1546 G-vectors)  smooth grid: ( 25, 25, 25)
     number of k points=    64

     PseudoPot. # 1 for Si read from file:
     /home/s1333534/quantum_espresso/qe-6.1/pseudo/si_pbe_v1.uspp.F.UPF.txt
     MD5 check sum: a056efeee980c13900f22a371efd63c1
     Pseudo is Ultrasoft + core correction, Zval =  4.0
     Generated by new atomic code, or converted to UPF format
     Using radial grid of  899 points,  6 beta functions with: 
                l(1) =   0
                l(2) =   0
                l(3) =   1
                l(4) =   1
                l(5) =   2
                l(6) =   2
     Q(r) pseudized with  8 coefficients,  rinner =    0.900   0.900   0.900
                                                       0.900   0.900


     Atomic displacements:
     There are   3 irreducible representations

     Representation     1      2 modes -  To be done

     Representation     2      2 modes -  To be done

     Representation     3      2 modes -  To be done



     Alpha used in Ewald sum =   2.5000
     PHONON       :  2m 8.51s CPU     2m41.15s WALL



     Representation #  1 modes #   1  2

     Self-consistent Calculation

      iter #   1 total cpu time :   162.0 secs   av.it.:   5.7
      thresh= 1.000E-02 alpha_mix =  0.700 |ddv_scf|^2 =  7.840E-07

      iter #   2 total cpu time :   162.9 secs   av.it.:  11.8
      thresh= 8.854E-05 alpha_mix =  0.700 |ddv_scf|^2 =  4.433E-07

      iter #   3 total cpu time :   163.8 secs   av.it.:  11.3
      thresh= 6.658E-05 alpha_mix =  0.700 |ddv_scf|^2 =  4.278E-10

      iter #   4 total cpu time :   164.7 secs   av.it.:  11.1
      thresh= 2.068E-06 alpha_mix =  0.700 |ddv_scf|^2 =  1.928E-12

      iter #   5 total cpu time :   165.5 secs   av.it.:  11.3
      thresh= 1.388E-07 alpha_mix =  0.700 |ddv_scf|^2 =  5.060E-14

     End of self-consistent calculation

     Convergence has been achieved 


     Representation #  2 modes #   3  4

     Self-consistent Calculation

      iter #   1 total cpu time :   166.2 secs   av.it.:   5.6
      thresh= 1.000E-02 alpha_mix =  0.700 |ddv_scf|^2 =  1.219E-06

      iter #   2 total cpu time :   167.1 secs   av.it.:  11.8
      thresh= 1.104E-04 alpha_mix =  0.700 |ddv_scf|^2 =  1.663E-06

      iter #   3 total cpu time :   168.0 secs   av.it.:  11.0
      thresh= 1.290E-04 alpha_mix =  0.700 |ddv_scf|^2 =  5.100E-10

      iter #   4 total cpu time :   168.9 secs   av.it.:  11.1
      thresh= 2.258E-06 alpha_mix =  0.700 |ddv_scf|^2 =  8.190E-12

      iter #   5 total cpu time :   169.6 secs   av.it.:  11.3
      thresh= 2.862E-07 alpha_mix =  0.700 |ddv_scf|^2 =  1.328E-13

     End of self-consistent calculation

     Convergence has been achieved 


     Representation #  3 modes #   5  6

     Self-consistent Calculation

      iter #   1 total cpu time :   170.4 secs   av.it.:   5.3
      thresh= 1.000E-02 alpha_mix =  0.700 |ddv_scf|^2 =  3.186E-07

      iter #   2 total cpu time :   171.2 secs   av.it.:  11.9
      thresh= 5.645E-05 alpha_mix =  0.700 |ddv_scf|^2 =  1.860E-07

      iter #   3 total cpu time :   172.1 secs   av.it.:  11.2
      thresh= 4.312E-05 alpha_mix =  0.700 |ddv_scf|^2 =  3.707E-10

      iter #   4 total cpu time :   173.0 secs   av.it.:  11.1
      thresh= 1.925E-06 alpha_mix =  0.700 |ddv_scf|^2 =  4.425E-12

      iter #   5 total cpu time :   173.8 secs   av.it.:  11.2
      thresh= 2.104E-07 alpha_mix =  0.700 |ddv_scf|^2 =  6.050E-14

     End of self-consistent calculation

     Convergence has been achieved 

     Number of q in the star =    6
     List of q in the star:
          1  -0.500000000  -1.000000000   0.000000000
          2   0.000000000   1.000000000   0.500000000
          3   0.000000000  -1.000000000  -0.500000000
          4   0.500000000   1.000000000   0.000000000
          5  -1.000000000  -0.500000000   0.000000000
          6   0.000000000  -0.500000000  -1.000000000

     Diagonalizing the dynamical matrix

     q = (   -0.500000000  -1.000000000   0.000000000 ) 

 **************************************************************************
     freq (    1) =       6.033421 [THz] =     201.253261 [cm-1]
     freq (    2) =       6.033421 [THz] =     201.253261 [cm-1]
     freq (    3) =      10.259378 [THz] =     342.216008 [cm-1]
     freq (    4) =      10.259378 [THz] =     342.216008 [cm-1]
     freq (    5) =      13.448015 [THz] =     448.577506 [cm-1]
     freq (    6) =      13.448015 [THz] =     448.577506 [cm-1]
 **************************************************************************

     init_run     :      1.28s CPU      1.33s WALL (       7 calls)
     electrons    :      7.36s CPU      7.96s WALL (       7 calls)

     Called by init_run:
     wfcinit      :      0.00s CPU      0.03s WALL (       7 calls)
     potinit      :      0.11s CPU      0.12s WALL (       7 calls)

     Called by electrons:
     c_bands      :      7.36s CPU      7.95s WALL (       7 calls)
     v_of_rho     :      0.10s CPU      0.10s WALL (       8 calls)
     newd         :      0.12s CPU      0.13s WALL (       8 calls)

     Called by c_bands:
     init_us_2    :      1.63s CPU      1.59s WALL (   15896 calls)
     cegterg      :      6.16s CPU      6.64s WALL (     796 calls)

     Called by sum_band:

     Called by *egterg:
     h_psi        :     71.13s CPU     76.22s WALL (  154716 calls)
     s_psi        :      6.03s CPU      7.06s WALL (  311690 calls)
     g_psi        :      0.06s CPU      0.07s WALL (    9666 calls)
     cdiaghg      :      0.56s CPU      0.56s WALL (   10462 calls)

     Called by h_psi:
     h_psi:pot    :     70.70s CPU     75.69s WALL (  154716 calls)
     h_psi:calbec :      3.55s CPU      4.08s WALL (  154716 calls)
     vloc_psi     :     62.50s CPU     67.42s WALL (  154716 calls)
     add_vuspsi   :      4.27s CPU      3.71s WALL (  154716 calls)

     General routines
     calbec       :      8.41s CPU      8.92s WALL (  345998 calls)
     fft          :      1.89s CPU      1.96s WALL (    5233 calls)
     ffts         :      0.21s CPU      0.23s WALL (    3316 calls)
     fftw         :     64.04s CPU     68.22s WALL ( 1384830 calls)
     interpolate  :      0.28s CPU      0.30s WALL (     568 calls)
     davcio       :      0.34s CPU      0.82s WALL (   69130 calls)

     Parallel routines
     fft_scatter  :     15.82s CPU     20.07s WALL ( 1393379 calls)

     PHONON       :  2m18.28s CPU     2m54.77s WALL

     INITIALIZATION: 
     phq_setup    :      0.30s CPU      0.46s WALL (       8 calls)
     phq_init     :      7.15s CPU      7.36s WALL (       8 calls)

     phq_init     :      7.15s CPU      7.36s WALL (       8 calls)
     set_drhoc    :      1.85s CPU      1.85s WALL (      24 calls)
     init_vloc    :      0.03s CPU      0.03s WALL (       8 calls)
     init_us_1    :      0.98s CPU      0.98s WALL (       8 calls)
     newd         :      0.12s CPU      0.13s WALL (       8 calls)
     dvanqq       :      1.19s CPU      1.21s WALL (       8 calls)
     drho         :      2.64s CPU      2.71s WALL (       8 calls)

     DYNAMICAL MATRIX:
     dynmat0      :      1.77s CPU      1.85s WALL (       8 calls)
     phqscf       :    116.90s CPU    147.29s WALL (       8 calls)
     dynmatrix    :      0.01s CPU      0.29s WALL (       8 calls)

     phqscf       :    116.90s CPU    147.29s WALL (       8 calls)
     solve_linter :    116.01s CPU    144.69s WALL (      32 calls)
     drhodv       :      0.59s CPU      0.61s WALL (      32 calls)

     dynmat0      :      1.77s CPU      1.85s WALL (       8 calls)
     dynmat_us    :      0.39s CPU      0.39s WALL (       8 calls)
     d2ionq       :      0.04s CPU      0.04s WALL (       8 calls)
     dynmatcc     :      1.33s CPU      1.33s WALL (       8 calls)

     dynmat_us    :      0.39s CPU      0.39s WALL (       8 calls)
     addusdynmat  :      0.00s CPU      0.00s WALL (       8 calls)

     phqscf       :    116.90s CPU    147.29s WALL (       8 calls)
     solve_linter :    116.01s CPU    144.69s WALL (      32 calls)

     solve_linter :    116.01s CPU    144.69s WALL (      32 calls)
     dvqpsi_us    :      2.13s CPU      2.31s WALL (    2508 calls)
     ortho        :      1.06s CPU      1.23s WALL (   13486 calls)
     cgsolve      :     78.72s CPU     85.53s WALL (   13486 calls)
     incdrhoscf   :      6.28s CPU      6.88s WALL (   13486 calls)
     addusddens   :      7.15s CPU      7.20s WALL (     200 calls)
     vpsifft      :      4.43s CPU      4.85s WALL (   10858 calls)
     dv_of_drho   :      1.80s CPU      1.85s WALL (     254 calls)
     mix_pot      :      0.35s CPU     10.99s WALL (     173 calls)
     psymdvscf    :      5.85s CPU      5.92s WALL (     168 calls)
     newdq        :      7.81s CPU      7.82s WALL (     173 calls)
     adddvscf     :      0.48s CPU      0.45s WALL (   10978 calls)
     drhodvus     :      0.02s CPU      0.02s WALL (      32 calls)

     dvqpsi_us    :      2.13s CPU      2.31s WALL (    2508 calls)
     dvqpsi_us_on :      0.93s CPU      0.97s WALL (    2508 calls)

     cgsolve      :     78.72s CPU     85.53s WALL (   13486 calls)
     ch_psi       :     77.61s CPU     83.74s WALL (  143458 calls)

     ch_psi       :     77.61s CPU     83.74s WALL (  143458 calls)
     h_psi        :     71.13s CPU     76.22s WALL (  154716 calls)
     last         :      9.08s CPU      9.23s WALL (  143458 calls)

     h_psi        :     71.13s CPU     76.22s WALL (  154716 calls)
     add_vuspsi   :      4.27s CPU      3.71s WALL (  154716 calls)

     incdrhoscf   :      6.28s CPU      6.88s WALL (   13486 calls)
     addusdbec    :      0.48s CPU      0.53s WALL (   15934 calls)

     drhodvus     :      0.02s CPU      0.02s WALL (      32 calls)

      General routines
     calbec       :      8.41s CPU      8.92s WALL (  345998 calls)
     fft          :      1.89s CPU      1.96s WALL (    5233 calls)
     ffts         :      0.21s CPU      0.23s WALL (    3316 calls)
     fftw         :     64.04s CPU     68.22s WALL ( 1384830 calls)
     davcio       :      0.34s CPU      0.82s WALL (   69130 calls)
     write_rec    :      0.25s CPU     11.72s WALL (     205 calls)


     PHONON       :  2m18.28s CPU     2m54.77s WALL


   This run was terminated on:  15:47:53  10Nov2017            

=------------------------------------------------------------------------------=
   JOB DONE.
=------------------------------------------------------------------------------=
