
     Program PWSCF v.6.1 (svn rev. 13369) starts on 10Nov2017 at 10:14:39 

     This program is part of the open-source Quantum ESPRESSO suite
     for quantum simulation of materials; please cite
         "P. Giannozzi et al., J. Phys.:Condens. Matter 21 395502 (2009);
          URL http://www.quantum-espresso.org", 
     in publications or presentations arising from this work. More details at
     http://www.quantum-espresso.org/quote

     Parallel version (MPI), running on     4 processors
     R & G space division:  proc/nbgrp/npool/nimage =       4
     Waiting for input...
     Reading input from standard input
     Message from routine read_cards :
     DEPRECATED: no units specified in ATOMIC_POSITIONS card
     Message from routine read_cards :
     ATOMIC_POSITIONS: units set to alat

     Current dimensions of program PWSCF are:
     Max number of different atomic species (ntypx) = 10
     Max number of k-points (npk) =  40000
     Max angular momentum in pseudopotentials (lmaxx) =  3

     Subspace diagonalization in iterative solution of the eigenvalue problem:
     a serial algorithm will be used


     Parallelization info
     --------------------
     sticks:   dense  smooth     PW     G-vecs:    dense   smooth      PW
     Min         217     109     37                 4288     1520     301
     Max         219     111     38                 4289     1521     304
     Sum         871     439    151                17153     6081    1211



     bravais-lattice index     =            2
     lattice parameter (alat)  =      10.3200  a.u.
     unit-cell volume          =     274.7762 (a.u.)^3
     number of atoms/cell      =            2
     number of atomic types    =            1
     number of electrons       =         8.00
     number of Kohn-Sham states=            4
     kinetic-energy cutoff     =      30.0000  Ry
     charge density cutoff     =     240.0000  Ry
     convergence threshold     =      1.0E-08
     mixing beta               =       0.7000
     number of iterations used =            8  plain     mixing
     Exchange-correlation      = SLA  PW   PBE  PBE ( 1  4  3  4 0 0)

     celldm(1)=  10.320000  celldm(2)=   0.000000  celldm(3)=   0.000000
     celldm(4)=   0.000000  celldm(5)=   0.000000  celldm(6)=   0.000000

     crystal axes: (cart. coord. in units of alat)
               a(1) = (  -0.500000   0.000000   0.500000 )  
               a(2) = (   0.000000   0.500000   0.500000 )  
               a(3) = (  -0.500000   0.500000   0.000000 )  

     reciprocal axes: (cart. coord. in units 2 pi/alat)
               b(1) = ( -1.000000 -1.000000  1.000000 )  
               b(2) = (  1.000000  1.000000  1.000000 )  
               b(3) = ( -1.000000  1.000000 -1.000000 )  


     PseudoPot. # 1 for Si read from file:
     /home/max/quantum_espresso/qe-6.1/pseudo/si_pbe_v1.uspp.F.UPF.txt
     MD5 check sum: a056efeee980c13900f22a371efd63c1
     Pseudo is Ultrasoft + core correction, Zval =  4.0
     Generated by new atomic code, or converted to UPF format
     Using radial grid of  899 points,  6 beta functions with: 
                l(1) =   0
                l(2) =   0
                l(3) =   1
                l(4) =   1
                l(5) =   2
                l(6) =   2
     Q(r) pseudized with  8 coefficients,  rinner =    0.900   0.900   0.900
                                                       0.900   0.900

     atomic species   valence    mass     pseudopotential
        Si             4.00    28.08600     Si( 1.00)

     48 Sym. Ops., with inversion, found (24 have fractional translation)



   Cartesian axes

     site n.     atom                  positions (alat units)
         1           Si  tau(   1) = (   0.0000000   0.0000000   0.0000000  )
         2           Si  tau(   2) = (   0.2500000   0.2500000   0.2500000  )

     number of k points=    28
                       cart. coord. in units 2pi/alat
        k(    1) = (  -0.0833333   0.0833333   0.0833333), wk =   0.0185185
        k(    2) = (  -0.2500000   0.2500000  -0.0833333), wk =   0.0555556
        k(    3) = (  -0.4166667   0.4166667  -0.2500000), wk =   0.0555556
        k(    4) = (   0.4166667  -0.4166667   0.5833333), wk =   0.0555556
        k(    5) = (   0.2500000  -0.2500000   0.4166667), wk =   0.0555556
        k(    6) = (   0.0833333  -0.0833333   0.2500000), wk =   0.0555556
        k(    7) = (  -0.0833333   0.4166667   0.0833333), wk =   0.0555556
        k(    8) = (  -0.2500000   0.5833333  -0.0833333), wk =   0.1111111
        k(    9) = (   0.5833333  -0.2500000   0.7500000), wk =   0.1111111
        k(   10) = (   0.4166667  -0.0833333   0.5833333), wk =   0.1111111
        k(   11) = (   0.2500000   0.0833333   0.4166667), wk =   0.1111111
        k(   12) = (  -0.0833333   0.7500000   0.0833333), wk =   0.0555556
        k(   13) = (   0.7500000  -0.0833333   0.9166667), wk =   0.1111111
        k(   14) = (   0.5833333   0.0833333   0.7500000), wk =   0.1111111
        k(   15) = (   0.4166667   0.2500000   0.5833333), wk =   0.1111111
        k(   16) = (  -0.0833333  -0.9166667   0.0833333), wk =   0.0555556
        k(   17) = (  -0.2500000  -0.7500000  -0.0833333), wk =   0.1111111
        k(   18) = (  -0.0833333  -0.5833333   0.0833333), wk =   0.0555556
        k(   19) = (  -0.2500000   0.2500000   0.2500000), wk =   0.0185185
        k(   20) = (  -0.4166667   0.4166667   0.0833333), wk =   0.0555556
        k(   21) = (   0.4166667  -0.4166667   0.9166667), wk =   0.0555556
        k(   22) = (   0.2500000  -0.2500000   0.7500000), wk =   0.0555556
        k(   23) = (  -0.2500000   0.5833333   0.2500000), wk =   0.0555556
        k(   24) = (   0.5833333  -0.2500000   1.0833333), wk =   0.1111111
        k(   25) = (   0.4166667  -0.0833333   0.9166667), wk =   0.1111111
        k(   26) = (  -0.2500000  -1.0833333   0.2500000), wk =   0.0555556
        k(   27) = (  -0.4166667   0.4166667   0.4166667), wk =   0.0185185
        k(   28) = (   0.4166667  -0.4166667   1.2500000), wk =   0.0555556

     Dense  grid:    17153 G-vectors     FFT dimensions: (  36,  36,  36)

     Smooth grid:     6081 G-vectors     FFT dimensions: (  25,  25,  25)

     Estimated max dynamical RAM per process >       3.04MB

     Estimated total allocated dynamical RAM >      12.16MB

     Initial potential from superposition of free atoms

     starting charge    7.99866, renormalised to    8.00000
     Starting wfc are    8 randomized atomic wfcs

     total cpu time spent up to now is        0.5 secs

     per-process dynamical memory:    10.1 Mb

     Self-consistent Calculation

     iteration #  1     ecut=    30.00 Ry     beta=0.70
     Davidson diagonalization with overlap
     ethr =  1.00E-02,  avg # of iterations =  2.0

     Threshold (ethr) on eigenvalues was too large:
     Diagonalizing with lowered threshold

     Davidson diagonalization with overlap
     ethr =  6.81E-04,  avg # of iterations =  1.0

     total cpu time spent up to now is        0.9 secs

     total energy              =     -19.19117854 Ry
     Harris-Foulkes estimate   =     -19.20378685 Ry
     estimated scf accuracy    <       0.05397784 Ry

     iteration #  2     ecut=    30.00 Ry     beta=0.70
     Davidson diagonalization with overlap
     ethr =  6.75E-04,  avg # of iterations =  1.0

     total cpu time spent up to now is        1.2 secs

     total energy              =     -19.19297459 Ry
     Harris-Foulkes estimate   =     -19.19314306 Ry
     estimated scf accuracy    <       0.00244813 Ry

     iteration #  3     ecut=    30.00 Ry     beta=0.70
     Davidson diagonalization with overlap
     ethr =  3.06E-05,  avg # of iterations =  2.1

     total cpu time spent up to now is        1.5 secs

     total energy              =     -19.19332074 Ry
     Harris-Foulkes estimate   =     -19.19333324 Ry
     estimated scf accuracy    <       0.00004140 Ry

     iteration #  4     ecut=    30.00 Ry     beta=0.70
     Davidson diagonalization with overlap
     ethr =  5.17E-07,  avg # of iterations =  3.4

     total cpu time spent up to now is        1.8 secs

     total energy              =     -19.19335781 Ry
     Harris-Foulkes estimate   =     -19.19335856 Ry
     estimated scf accuracy    <       0.00000293 Ry

     iteration #  5     ecut=    30.00 Ry     beta=0.70
     Davidson diagonalization with overlap
     ethr =  3.66E-08,  avg # of iterations =  2.0

     total cpu time spent up to now is        2.0 secs

     End of self-consistent calculation

          k =-0.0833 0.0833 0.0833 (   749 PWs)   bands (ev):

    -5.7356   5.1604   5.8777   5.8777

          k =-0.2500 0.2500-0.0833 (   765 PWs)   bands (ev):

    -5.2645   3.0909   4.6563   5.6683

          k =-0.4167 0.4167-0.2500 (   766 PWs)   bands (ev):

    -4.1862   0.3574   4.1933   5.0378

          k = 0.4167-0.4167 0.5833 (   765 PWs)   bands (ev):

    -3.4995  -0.7710   4.2571   4.6619

          k = 0.2500-0.2500 0.4167 (   769 PWs)   bands (ev):

    -4.5924   1.1945   4.7227   4.7511

          k = 0.0833-0.0833 0.2500 (   769 PWs)   bands (ev):

    -5.4977   4.0939   5.2401   5.4205

          k =-0.0833 0.4167 0.0833 (   770 PWs)   bands (ev):

    -5.0260   2.8967   4.5004   4.5183

          k =-0.2500 0.5833-0.0833 (   767 PWs)   bands (ev):

    -4.1266   1.0725   3.1990   4.1349

          k = 0.5833-0.2500 0.7500 (   759 PWs)   bands (ev):

    -3.0271  -0.6532   2.6006   3.9113

          k = 0.4167-0.0833 0.5833 (   766 PWs)   bands (ev):

    -3.7376   0.3888   2.5634   4.3909

          k = 0.2500 0.0833 0.4167 (   769 PWs)   bands (ev):

    -4.8034   2.0716   3.8879   5.0496

          k =-0.0833 0.7500 0.0833 (   767 PWs)   bands (ev):

    -3.4228   0.2472   3.1655   3.4999

          k = 0.7500-0.0833 0.9167 (   755 PWs)   bands (ev):

    -2.2422  -1.0794   2.3361   3.0998

          k = 0.5833 0.0833 0.7500 (   754 PWs)   bands (ev):

    -2.6118  -0.7420   1.8577   3.6386

          k = 0.4167 0.2500 0.5833 (   765 PWs)   bands (ev):

    -3.6284  -0.2798   3.4886   4.4870

          k =-0.0833-0.9167 0.0833 (   764 PWs)   bands (ev):

    -2.3315  -1.0867   2.8991   3.2867

          k =-0.2500-0.7500-0.0833 (   762 PWs)   bands (ev):

    -3.2570   0.0272   2.6517   3.4365

          k =-0.0833-0.5833 0.0833 (   762 PWs)   bands (ev):

    -4.3293   1.6016   3.7030   3.9180

          k =-0.2500 0.2500 0.2500 (   769 PWs)   bands (ev):

    -5.0377   2.1235   5.2700   5.2700

          k =-0.4167 0.4167 0.0833 (   763 PWs)   bands (ev):

    -4.3669   1.1916   3.1631   5.1016

          k = 0.4167-0.4167 0.9167 (   765 PWs)   bands (ev):

    -3.2038  -0.2391   2.0709   4.3251

          k = 0.2500-0.2500 0.7500 (   763 PWs)   bands (ev):

    -3.1515  -0.3178   2.5420   3.8490

          k =-0.2500 0.5833 0.2500 (   767 PWs)   bands (ev):

    -3.9483   0.3939   3.6172   4.2181

          k = 0.5833-0.2500 1.0833 (   759 PWs)   bands (ev):

    -2.9592  -0.3555   2.1705   3.4354

          k = 0.4167-0.0833 0.9167 (   755 PWs)   bands (ev):

    -2.1388  -1.0871   2.0115   2.7772

          k =-0.2500-1.0833 0.2500 (   756 PWs)   bands (ev):

    -2.3473  -0.9908   1.8866   3.6566

          k =-0.4167 0.4167 0.4167 (   769 PWs)   bands (ev):

    -3.8624  -0.3756   4.8844   4.8844

          k = 0.4167-0.4167 1.2500 (   765 PWs)   bands (ev):

    -3.2663  -0.6780   3.0685   4.4502

     highest occupied level (ev):     5.8777

!    total energy              =     -19.19335819 Ry
     Harris-Foulkes estimate   =     -19.19335818 Ry
     estimated scf accuracy    <          8.4E-09 Ry

     The total energy is the sum of the following terms:

     one-electron contribution =       4.98076492 Ry
     hartree contribution      =       1.13040253 Ry
     xc contribution           =      -8.60127589 Ry
     ewald contribution        =     -16.70324975 Ry

     convergence has been achieved in   5 iterations

     Writing output data file silicon.10.32.save

     init_run     :      0.35s CPU      0.39s WALL (       1 calls)
     electrons    :      1.12s CPU      1.54s WALL (       1 calls)

     Called by init_run:
     wfcinit      :      0.07s CPU      0.09s WALL (       1 calls)
     potinit      :      0.02s CPU      0.02s WALL (       1 calls)

     Called by electrons:
     c_bands      :      0.65s CPU      0.91s WALL (       6 calls)
     sum_band     :      0.27s CPU      0.34s WALL (       6 calls)
     v_of_rho     :      0.09s CPU      0.13s WALL (       6 calls)
     newd         :      0.13s CPU      0.17s WALL (       6 calls)
     mix_rho      :      0.01s CPU      0.01s WALL (       6 calls)

     Called by c_bands:
     init_us_2    :      0.05s CPU      0.05s WALL (     364 calls)
     cegterg      :      0.54s CPU      0.77s WALL (     168 calls)

     Called by sum_band:
     sum_band:bec :      0.00s CPU      0.00s WALL (     168 calls)
     addusdens    :      0.13s CPU      0.16s WALL (       6 calls)

     Called by *egterg:
     h_psi        :      0.48s CPU      0.67s WALL (     519 calls)
     s_psi        :      0.04s CPU      0.05s WALL (     519 calls)
     g_psi        :      0.00s CPU      0.00s WALL (     323 calls)
     cdiaghg      :      0.03s CPU      0.04s WALL (     463 calls)

     Called by h_psi:
     h_psi:pot    :      0.47s CPU      0.66s WALL (     519 calls)
     h_psi:calbec :      0.05s CPU      0.08s WALL (     519 calls)
     vloc_psi     :      0.38s CPU      0.53s WALL (     519 calls)
     add_vuspsi   :      0.04s CPU      0.05s WALL (     519 calls)

     General routines
     calbec       :      0.07s CPU      0.10s WALL (     687 calls)
     fft          :      0.07s CPU      0.12s WALL (      96 calls)
     ffts         :      0.00s CPU      0.01s WALL (      12 calls)
     fftw         :      0.39s CPU      0.54s WALL (    4614 calls)
     interpolate  :      0.01s CPU      0.01s WALL (      12 calls)
     davcio       :      0.00s CPU      0.00s WALL (      28 calls)

     Parallel routines
     fft_scatter  :      0.18s CPU      0.36s WALL (    4722 calls)

     PWSCF        :     1.68s CPU         2.16s WALL


   This run was terminated on:  10:14:41  10Nov2017            

=------------------------------------------------------------------------------=
   JOB DONE.
=------------------------------------------------------------------------------=
