
     Program PWSCF v.6.1 (svn rev. 13369) starts on 10Nov2017 at 12: 8:12 

     This program is part of the open-source Quantum ESPRESSO suite
     for quantum simulation of materials; please cite
         "P. Giannozzi et al., J. Phys.:Condens. Matter 21 395502 (2009);
          URL http://www.quantum-espresso.org", 
     in publications or presentations arising from this work. More details at
     http://www.quantum-espresso.org/quote

     Parallel version (MPI), running on     4 processors
     R & G space division:  proc/nbgrp/npool/nimage =       4
     Waiting for input...
     Reading input from standard input
     Message from routine read_cards :
     DEPRECATED: no units specified in ATOMIC_POSITIONS card
     Message from routine read_cards :
     ATOMIC_POSITIONS: units set to alat

     Current dimensions of program PWSCF are:
     Max number of different atomic species (ntypx) = 10
     Max number of k-points (npk) =  40000
     Max angular momentum in pseudopotentials (lmaxx) =  3

     Subspace diagonalization in iterative solution of the eigenvalue problem:
     a serial algorithm will be used


     Parallelization info
     --------------------
     sticks:   dense  smooth     PW     G-vecs:    dense   smooth      PW
     Min         228     112     37                 4535     1593     309
     Max         229     113     38                 4538     1594     312
     Sum         913     451    151                18149     6375    1243



     bravais-lattice index     =            2
     lattice parameter (alat)  =      10.3330  a.u.
     unit-cell volume          =     275.8159 (a.u.)^3
     number of atoms/cell      =            2
     number of atomic types    =            1
     number of electrons       =         8.00
     number of Kohn-Sham states=            4
     kinetic-energy cutoff     =      31.0000  Ry
     charge density cutoff     =     248.0000  Ry
     convergence threshold     =      1.0E-08
     mixing beta               =       0.7000
     number of iterations used =            8  plain     mixing
     Exchange-correlation      = SLA  PW   PBE  PBE ( 1  4  3  4 0 0)

     celldm(1)=  10.333000  celldm(2)=   0.000000  celldm(3)=   0.000000
     celldm(4)=   0.000000  celldm(5)=   0.000000  celldm(6)=   0.000000

     crystal axes: (cart. coord. in units of alat)
               a(1) = (  -0.500000   0.000000   0.500000 )  
               a(2) = (   0.000000   0.500000   0.500000 )  
               a(3) = (  -0.500000   0.500000   0.000000 )  

     reciprocal axes: (cart. coord. in units 2 pi/alat)
               b(1) = ( -1.000000 -1.000000  1.000000 )  
               b(2) = (  1.000000  1.000000  1.000000 )  
               b(3) = ( -1.000000  1.000000 -1.000000 )  


     PseudoPot. # 1 for Si read from file:
     /home/max/quantum_espresso/qe-6.1/pseudo/si_pbe_v1.uspp.F.UPF.txt
     MD5 check sum: a056efeee980c13900f22a371efd63c1
     Pseudo is Ultrasoft + core correction, Zval =  4.0
     Generated by new atomic code, or converted to UPF format
     Using radial grid of  899 points,  6 beta functions with: 
                l(1) =   0
                l(2) =   0
                l(3) =   1
                l(4) =   1
                l(5) =   2
                l(6) =   2
     Q(r) pseudized with  8 coefficients,  rinner =    0.900   0.900   0.900
                                                       0.900   0.900

     atomic species   valence    mass     pseudopotential
        Si             4.00    28.08600     Si( 1.00)

     48 Sym. Ops., with inversion, found (24 have fractional translation)



   Cartesian axes

     site n.     atom                  positions (alat units)
         1           Si  tau(   1) = (   0.0000000   0.0000000   0.0000000  )
         2           Si  tau(   2) = (   0.2500000   0.2500000   0.2500000  )

     number of k points=    28
                       cart. coord. in units 2pi/alat
        k(    1) = (  -0.0833333   0.0833333   0.0833333), wk =   0.0185185
        k(    2) = (  -0.2500000   0.2500000  -0.0833333), wk =   0.0555556
        k(    3) = (  -0.4166667   0.4166667  -0.2500000), wk =   0.0555556
        k(    4) = (   0.4166667  -0.4166667   0.5833333), wk =   0.0555556
        k(    5) = (   0.2500000  -0.2500000   0.4166667), wk =   0.0555556
        k(    6) = (   0.0833333  -0.0833333   0.2500000), wk =   0.0555556
        k(    7) = (  -0.0833333   0.4166667   0.0833333), wk =   0.0555556
        k(    8) = (  -0.2500000   0.5833333  -0.0833333), wk =   0.1111111
        k(    9) = (   0.5833333  -0.2500000   0.7500000), wk =   0.1111111
        k(   10) = (   0.4166667  -0.0833333   0.5833333), wk =   0.1111111
        k(   11) = (   0.2500000   0.0833333   0.4166667), wk =   0.1111111
        k(   12) = (  -0.0833333   0.7500000   0.0833333), wk =   0.0555556
        k(   13) = (   0.7500000  -0.0833333   0.9166667), wk =   0.1111111
        k(   14) = (   0.5833333   0.0833333   0.7500000), wk =   0.1111111
        k(   15) = (   0.4166667   0.2500000   0.5833333), wk =   0.1111111
        k(   16) = (  -0.0833333  -0.9166667   0.0833333), wk =   0.0555556
        k(   17) = (  -0.2500000  -0.7500000  -0.0833333), wk =   0.1111111
        k(   18) = (  -0.0833333  -0.5833333   0.0833333), wk =   0.0555556
        k(   19) = (  -0.2500000   0.2500000   0.2500000), wk =   0.0185185
        k(   20) = (  -0.4166667   0.4166667   0.0833333), wk =   0.0555556
        k(   21) = (   0.4166667  -0.4166667   0.9166667), wk =   0.0555556
        k(   22) = (   0.2500000  -0.2500000   0.7500000), wk =   0.0555556
        k(   23) = (  -0.2500000   0.5833333   0.2500000), wk =   0.0555556
        k(   24) = (   0.5833333  -0.2500000   1.0833333), wk =   0.1111111
        k(   25) = (   0.4166667  -0.0833333   0.9166667), wk =   0.1111111
        k(   26) = (  -0.2500000  -1.0833333   0.2500000), wk =   0.0555556
        k(   27) = (  -0.4166667   0.4166667   0.4166667), wk =   0.0185185
        k(   28) = (   0.4166667  -0.4166667   1.2500000), wk =   0.0555556

     Dense  grid:    18149 G-vectors     FFT dimensions: (  40,  40,  40)

     Smooth grid:     6375 G-vectors     FFT dimensions: (  25,  25,  25)

     Estimated max dynamical RAM per process >       3.47MB

     Estimated total allocated dynamical RAM >      13.87MB

     Initial potential from superposition of free atoms

     starting charge    7.99866, renormalised to    8.00000
     Starting wfc are    8 randomized atomic wfcs

     total cpu time spent up to now is        0.6 secs

     per-process dynamical memory:    11.0 Mb

     Self-consistent Calculation

     iteration #  1     ecut=    31.00 Ry     beta=0.70
     Davidson diagonalization with overlap
     ethr =  1.00E-02,  avg # of iterations =  2.0

     Threshold (ethr) on eigenvalues was too large:
     Diagonalizing with lowered threshold

     Davidson diagonalization with overlap
     ethr =  6.77E-04,  avg # of iterations =  1.0

     total cpu time spent up to now is        1.1 secs

     total energy              =     -19.19125678 Ry
     Harris-Foulkes estimate   =     -19.20370882 Ry
     estimated scf accuracy    <       0.05365902 Ry

     iteration #  2     ecut=    31.00 Ry     beta=0.70
     Davidson diagonalization with overlap
     ethr =  6.71E-04,  avg # of iterations =  1.0

     total cpu time spent up to now is        1.3 secs

     total energy              =     -19.19301021 Ry
     Harris-Foulkes estimate   =     -19.19318023 Ry
     estimated scf accuracy    <       0.00244785 Ry

     iteration #  3     ecut=    31.00 Ry     beta=0.70
     Davidson diagonalization with overlap
     ethr =  3.06E-05,  avg # of iterations =  2.1

     total cpu time spent up to now is        1.5 secs

     total energy              =     -19.19334184 Ry
     Harris-Foulkes estimate   =     -19.19335451 Ry
     estimated scf accuracy    <       0.00004180 Ry

     iteration #  4     ecut=    31.00 Ry     beta=0.70
     Davidson diagonalization with overlap
     ethr =  5.23E-07,  avg # of iterations =  3.4

     total cpu time spent up to now is        1.8 secs

     total energy              =     -19.19338092 Ry
     Harris-Foulkes estimate   =     -19.19338172 Ry
     estimated scf accuracy    <       0.00000301 Ry

     iteration #  5     ecut=    31.00 Ry     beta=0.70
     Davidson diagonalization with overlap
     ethr =  3.77E-08,  avg # of iterations =  2.0

     total cpu time spent up to now is        2.0 secs

     End of self-consistent calculation

          k =-0.0833 0.0833 0.0833 (   815 PWs)   bands (ev):

    -5.7491   5.1214   5.8395   5.8395

          k =-0.2500 0.2500-0.0833 (   814 PWs)   bands (ev):

    -5.2795   3.0551   4.6225   5.6302

          k =-0.4167 0.4167-0.2500 (   808 PWs)   bands (ev):

    -4.2053   0.3304   4.1597   5.0017

          k = 0.4167-0.4167 0.5833 (   801 PWs)   bands (ev):

    -3.5220  -0.7934   4.2226   4.6274

          k = 0.2500-0.2500 0.4167 (   802 PWs)   bands (ev):

    -4.6098   1.1646   4.6885   4.7149

          k = 0.0833-0.0833 0.2500 (   811 PWs)   bands (ev):

    -5.5120   4.0554   5.2045   5.3828

          k =-0.0833 0.4167 0.0833 (   816 PWs)   bands (ev):

    -5.0418   2.8584   4.4663   4.4852

          k =-0.2500 0.5833-0.0833 (   811 PWs)   bands (ev):

    -4.1456   1.0389   3.1704   4.1029

          k = 0.5833-0.2500 0.7500 (   804 PWs)   bands (ev):

    -3.0511  -0.6790   2.5727   3.8805

          k = 0.4167-0.0833 0.5833 (   803 PWs)   bands (ev):

    -3.7583   0.3580   2.5371   4.3579

          k = 0.2500 0.0833 0.4167 (   813 PWs)   bands (ev):

    -4.8200   2.0372   3.8566   5.0135

          k =-0.0833 0.7500 0.0833 (   800 PWs)   bands (ev):

    -3.4440   0.2139   3.1375   3.4701

          k = 0.7500-0.0833 0.9167 (   794 PWs)   bands (ev):

    -2.2679  -1.1087   2.3122   3.0722

          k = 0.5833 0.0833 0.7500 (   803 PWs)   bands (ev):

    -2.6371  -0.7707   1.8353   3.6089

          k = 0.4167 0.2500 0.5833 (   806 PWs)   bands (ev):

    -3.6498  -0.3053   3.4569   4.4534

          k =-0.0833-0.9167 0.0833 (   796 PWs)   bands (ev):

    -2.3564  -1.1158   2.8722   3.2575

          k =-0.2500-0.7500-0.0833 (   800 PWs)   bands (ev):

    -3.2791  -0.0050   2.6259   3.4077

          k =-0.0833-0.5833 0.0833 (   814 PWs)   bands (ev):

    -4.3475   1.5648   3.6727   3.8869

          k =-0.2500 0.2500 0.2500 (   812 PWs)   bands (ev):

    -5.0536   2.0914   5.2337   5.2337

          k =-0.4167 0.4167 0.0833 (   805 PWs)   bands (ev):

    -4.3851   1.1596   3.1345   5.0655

          k = 0.4167-0.4167 0.9167 (   798 PWs)   bands (ev):

    -3.2267  -0.2681   2.0468   4.2920

          k = 0.2500-0.2500 0.7500 (   803 PWs)   bands (ev):

    -3.1744  -0.3467   2.5155   3.8179

          k =-0.2500 0.5833 0.2500 (   803 PWs)   bands (ev):

    -3.9682   0.3651   3.5850   4.1857

          k = 0.5833-0.2500 1.0833 (   803 PWs)   bands (ev):

    -2.9828  -0.3857   2.1463   3.4070

          k = 0.4167-0.0833 0.9167 (   795 PWs)   bands (ev):

    -2.1655  -1.1164   1.9891   2.7517

          k =-0.2500-1.0833 0.2500 (   803 PWs)   bands (ev):

    -2.3734  -1.0194   1.8647   3.6261

          k =-0.4167 0.4167 0.4167 (   799 PWs)   bands (ev):

    -3.8832  -0.3994   4.8488   4.8488

          k = 0.4167-0.4167 1.2500 (   802 PWs)   bands (ev):

    -3.2895  -0.7020   3.0384   4.4166

     highest occupied level (ev):     5.8395

!    total energy              =     -19.19338132 Ry
     Harris-Foulkes estimate   =     -19.19338132 Ry
     estimated scf accuracy    <          9.7E-09 Ry

     The total energy is the sum of the following terms:

     one-electron contribution =       4.95191864 Ry
     hartree contribution      =       1.13372764 Ry
     xc contribution           =      -8.59679230 Ry
     ewald contribution        =     -16.68223531 Ry

     convergence has been achieved in   5 iterations


     Computing stress (Cartesian axis) and pressure

          total   stress  (Ry/bohr**3)                   (kbar)     P=   -0.25
  -0.00000167   0.00000000   0.00000000         -0.25      0.00      0.00
   0.00000000  -0.00000167  -0.00000000          0.00     -0.25     -0.00
   0.00000000  -0.00000000  -0.00000167          0.00     -0.00     -0.25


     Writing output data file silicon.31.save

     init_run     :      0.41s CPU      0.52s WALL (       1 calls)
     electrons    :      1.26s CPU      1.42s WALL (       1 calls)
     stress       :      0.33s CPU      0.34s WALL (       1 calls)

     Called by init_run:
     wfcinit      :      0.14s CPU      0.22s WALL (       1 calls)
     potinit      :      0.03s CPU      0.03s WALL (       1 calls)

     Called by electrons:
     c_bands      :      0.70s CPU      0.85s WALL (       6 calls)
     sum_band     :      0.32s CPU      0.33s WALL (       6 calls)
     v_of_rho     :      0.11s CPU      0.12s WALL (       6 calls)
     newd         :      0.14s CPU      0.14s WALL (       6 calls)
     mix_rho      :      0.01s CPU      0.01s WALL (       6 calls)

     Called by c_bands:
     init_us_2    :      0.06s CPU      0.06s WALL (     392 calls)
     cegterg      :      0.59s CPU      0.72s WALL (     168 calls)

     Called by sum_band:
     sum_band:bec :      0.00s CPU      0.00s WALL (     168 calls)
     addusdens    :      0.15s CPU      0.15s WALL (       6 calls)

     Called by *egterg:
     h_psi        :      0.56s CPU      0.73s WALL (     520 calls)
     s_psi        :      0.05s CPU      0.05s WALL (     520 calls)
     g_psi        :      0.00s CPU      0.00s WALL (     324 calls)
     cdiaghg      :      0.04s CPU      0.05s WALL (     464 calls)

     Called by h_psi:
     h_psi:pot    :      0.56s CPU      0.73s WALL (     520 calls)
     h_psi:calbec :      0.07s CPU      0.10s WALL (     520 calls)
     vloc_psi     :      0.44s CPU      0.58s WALL (     520 calls)
     add_vuspsi   :      0.05s CPU      0.05s WALL (     520 calls)

     General routines
     calbec       :      0.09s CPU      0.13s WALL (     716 calls)
     fft          :      0.09s CPU      0.09s WALL (     110 calls)
     ffts         :      0.00s CPU      0.00s WALL (      12 calls)
     fftw         :      0.44s CPU      0.57s WALL (    4618 calls)
     interpolate  :      0.01s CPU      0.01s WALL (      12 calls)
     davcio       :      0.00s CPU      0.00s WALL (      28 calls)

     Parallel routines
     fft_scatter  :      0.21s CPU      0.33s WALL (    4740 calls)

     PWSCF        :     2.22s CPU         2.54s WALL


   This run was terminated on:  12: 8:14  10Nov2017            

=------------------------------------------------------------------------------=
   JOB DONE.
=------------------------------------------------------------------------------=
