
     Program PHONON v.6.1 (svn rev. 13369) starts on 10Nov2017 at 15:49:56 

     This program is part of the open-source Quantum ESPRESSO suite
     for quantum simulation of materials; please cite
         "P. Giannozzi et al., J. Phys.:Condens. Matter 21 395502 (2009);
          URL http://www.quantum-espresso.org", 
     in publications or presentations arising from this work. More details at
     http://www.quantum-espresso.org/quote

     Parallel version (MPI), running on     4 processors
     R & G space division:  proc/nbgrp/npool/nimage =       4

     Reading data from directory:
     ./silicon.10.308.save

   Info: using nr1, nr2, nr3 values from input

   Info: using nr1, nr2, nr3 values from input

     IMPORTANT: XC functional enforced from input :
     Exchange-correlation      = SLA  PW   PBE  PBE ( 1  4  3  4 0 0)
     Any further DFT definition will be discarded
     Please, verify this is what you really want


     Parallelization info
     --------------------
     sticks:   dense  smooth     PW     G-vecs:    dense   smooth      PW
     Min         217     108     37                 4288     1495     284
     Max         219     109     38                 4289     1498     285
     Sum         871     433    151                17153     5985    1139



     Dynamical matrices for ( 4, 4, 4)  uniform grid of q-points
     (   8q-points):
       N         xq(1)         xq(2)         xq(3) 
       1   0.000000000   0.000000000   0.000000000
       2  -0.250000000   0.250000000  -0.250000000
       3   0.500000000  -0.500000000   0.500000000
       4   0.000000000   0.500000000   0.000000000
       5   0.750000000  -0.250000000   0.750000000
       6   0.500000000   0.000000000   0.500000000
       7   0.000000000  -1.000000000   0.000000000
       8  -0.500000000  -1.000000000   0.000000000

     Calculation of q =    0.0000000   0.0000000   0.0000000

                                                                                

     bravais-lattice index     =            2
     lattice parameter (alat)  =      10.3080  a.u.
     unit-cell volume          =     273.8188 (a.u.)^3
     number of atoms/cell      =            2
     number of atomic types    =            1
     kinetic-energy cut-off    =      30.0000  Ry
     charge density cut-off    =     240.0000  Ry
     convergence threshold     =      1.0E-12
     beta                      =       0.7000
     number of iterations used =            4
     Exchange-correlation      = SLA  PW   PBE  PBE ( 1  4  3  4 0 0)


     celldm(1)=   10.30800  celldm(2)=    0.00000  celldm(3)=    0.00000
     celldm(4)=    0.00000  celldm(5)=    0.00000  celldm(6)=    0.00000

     crystal axes: (cart. coord. in units of alat)
               a(1) = ( -0.5000  0.0000  0.5000 )  
               a(2) = (  0.0000  0.5000  0.5000 )  
               a(3) = ( -0.5000  0.5000  0.0000 )  

     reciprocal axes: (cart. coord. in units 2 pi/alat)
               b(1) = ( -1.0000 -1.0000  1.0000 )  
               b(2) = (  1.0000  1.0000  1.0000 )  
               b(3) = ( -1.0000  1.0000 -1.0000 )  


     Atoms inside the unit cell: 

     Cartesian axes

     site n.  atom      mass           positions (alat units)
        1     Si  28.0860   tau(    1) = (    0.00000    0.00000    0.00000  )
        2     Si  28.0860   tau(    2) = (    0.25000    0.25000    0.25000  )

     Computing dynamical matrix for 
                    q = (   0.0000000   0.0000000   0.0000000 )

     49 Sym.Ops. (with q -> -q+G )


     G cutoff =  645.9521  (   4288 G-vectors)     FFT grid: ( 36, 36, 36)
     G cutoff =  322.9761  (   1497 G-vectors)  smooth grid: ( 25, 25, 25)
     number of k points=    10

     PseudoPot. # 1 for Si read from file:
     /home/s1333534/quantum_espresso/qe-6.1/pseudo/si_pbe_v1.uspp.F.UPF.txt
     MD5 check sum: a056efeee980c13900f22a371efd63c1
     Pseudo is Ultrasoft + core correction, Zval =  4.0
     Generated by new atomic code, or converted to UPF format
     Using radial grid of  899 points,  6 beta functions with: 
                l(1) =   0
                l(2) =   0
                l(3) =   1
                l(4) =   1
                l(5) =   2
                l(6) =   2
     Q(r) pseudized with  8 coefficients,  rinner =    0.900   0.900   0.900
                                                       0.900   0.900

     Mode symmetry, O_h (m-3m)  point group:


     Electric field:
     Dielectric constant
     Born effective charges in two ways 


     Atomic displacements:
     There are   2 irreducible representations

     Representation     1      3 modes -T_2g G_25' G_5+  To be done

     Representation     2      3 modes -T_1u G_15  G_4-  To be done



     Alpha used in Ewald sum =   2.5000
     PHONON       :     0.96s CPU         1.40s WALL


     Electric Fields Calculation

      iter #   1 total cpu time :     2.5 secs   av.it.:   5.7
      thresh= 1.000E-02 alpha_mix =  0.700 |ddv_scf|^2 =  1.334E-07

      iter #   2 total cpu time :     3.3 secs   av.it.:  11.8
      thresh= 3.653E-05 alpha_mix =  0.700 |ddv_scf|^2 =  7.778E-09

      iter #   3 total cpu time :     3.9 secs   av.it.:  11.4
      thresh= 8.819E-06 alpha_mix =  0.700 |ddv_scf|^2 =  5.145E-10

      iter #   4 total cpu time :     4.6 secs   av.it.:  10.3
      thresh= 2.268E-06 alpha_mix =  0.700 |ddv_scf|^2 =  3.332E-12

      iter #   5 total cpu time :     5.2 secs   av.it.:  11.1
      thresh= 1.825E-07 alpha_mix =  0.700 |ddv_scf|^2 =  3.326E-15

     End of electric fields calculation

          Dielectric constant in cartesian axis 

          (      13.915996181       0.000000000      -0.000000000 )
          (       0.000000000      13.915996181       0.000000000 )
          (      -0.000000000       0.000000000      13.915996181 )

          Effective charges (d Force / dE) in cartesian axis

           atom      1   Si 
      Ex  (       -0.03896        0.00000        0.00000 )
      Ey  (        0.00000       -0.03896       -0.00000 )
      Ez  (       -0.00000       -0.00000       -0.03896 )
           atom      2   Si 
      Ex  (       -0.03896        0.00000        0.00000 )
      Ey  (        0.00000       -0.03896       -0.00000 )
      Ez  (        0.00000       -0.00000       -0.03896 )


     Representation #  1 modes #   1  2  3

     Self-consistent Calculation

      iter #   1 total cpu time :     6.7 secs   av.it.:   5.1
      thresh= 1.000E-02 alpha_mix =  0.700 |ddv_scf|^2 =  2.354E-08

      iter #   2 total cpu time :     7.4 secs   av.it.:  11.6
      thresh= 1.534E-05 alpha_mix =  0.700 |ddv_scf|^2 =  9.652E-10

      iter #   3 total cpu time :     8.1 secs   av.it.:  11.1
      thresh= 3.107E-06 alpha_mix =  0.700 |ddv_scf|^2 =  6.564E-11

      iter #   4 total cpu time :     8.6 secs   av.it.:  10.1
      thresh= 8.102E-07 alpha_mix =  0.700 |ddv_scf|^2 =  1.603E-13

     End of self-consistent calculation

     Convergence has been achieved 


     Representation #  2 modes #   4  5  6

     Self-consistent Calculation

      iter #   1 total cpu time :     9.4 secs   av.it.:   5.2
      thresh= 1.000E-02 alpha_mix =  0.700 |ddv_scf|^2 =  1.858E-08

      iter #   2 total cpu time :    10.0 secs   av.it.:  11.6
      thresh= 1.363E-05 alpha_mix =  0.700 |ddv_scf|^2 =  1.094E-09

      iter #   3 total cpu time :    10.8 secs   av.it.:  11.2
      thresh= 3.308E-06 alpha_mix =  0.700 |ddv_scf|^2 =  6.777E-11

      iter #   4 total cpu time :    11.3 secs   av.it.:  11.3
      thresh= 8.232E-07 alpha_mix =  0.700 |ddv_scf|^2 =  2.621E-13

     End of self-consistent calculation

     Convergence has been achieved 

     Number of q in the star =    1
     List of q in the star:
          1   0.000000000   0.000000000   0.000000000

          Dielectric constant in cartesian axis 

          (      13.915996181       0.000000000      -0.000000000 )
          (       0.000000000      13.915996181       0.000000000 )
          (      -0.000000000       0.000000000      13.915996181 )

          Effective charges (d Force / dE) in cartesian axis

           atom      1   Si 
      Ex  (       -0.03896        0.00000        0.00000 )
      Ey  (        0.00000       -0.03896       -0.00000 )
      Ez  (       -0.00000       -0.00000       -0.03896 )
           atom      2   Si 
      Ex  (       -0.03896        0.00000        0.00000 )
      Ey  (        0.00000       -0.03896       -0.00000 )
      Ez  (        0.00000       -0.00000       -0.03896 )

          Effective charges (d P / du) in cartesian axis 

           atom      1   Si 
      Px  (       -0.07215       -0.00000       -0.00000 )
      Py  (       -0.00000       -0.07215        0.00000 )
      Pz  (       -0.00000        0.00000       -0.07215 )
           atom      2   Si 
      Px  (       -0.07215       -0.00000       -0.00000 )
      Py  (       -0.00000       -0.07215        0.00000 )
      Pz  (       -0.00000        0.00000       -0.07215 )

     Diagonalizing the dynamical matrix

     q = (    0.000000000   0.000000000   0.000000000 ) 

 **************************************************************************
     freq (    1) =      -0.468702 [THz] =     -15.634221 [cm-1]
     freq (    2) =      -0.468702 [THz] =     -15.634221 [cm-1]
     freq (    3) =      -0.468702 [THz] =     -15.634221 [cm-1]
     freq (    4) =      15.178591 [THz] =     506.303310 [cm-1]
     freq (    5) =      15.178591 [THz] =     506.303310 [cm-1]
     freq (    6) =      15.178591 [THz] =     506.303310 [cm-1]
 **************************************************************************

     Mode symmetry, O_h (m-3m)  point group:

     freq (  1 -  3) =        -15.6  [cm-1]   --> T_1u G_15  G_4- I  
     freq (  4 -  6) =        506.3  [cm-1]   --> T_2g G_25' G_5+ R  

     Calculation of q =   -0.2500000   0.2500000  -0.2500000

   Info: using nr1, nr2, nr3 values from input

   Info: using nr1, nr2, nr3 values from input

     Parallelization info
     --------------------
     sticks:   dense  smooth     PW     G-vecs:    dense   smooth      PW
     Min         217     108     37                 4287     1495     309
     Max         218     109     38                 4289     1498     312
     Sum         871     433    151                17153     5985    1243



     bravais-lattice index     =            2
     lattice parameter (alat)  =      10.3080  a.u.
     unit-cell volume          =     273.8188 (a.u.)^3
     number of atoms/cell      =            2
     number of atomic types    =            1
     number of electrons       =         8.00
     number of Kohn-Sham states=            4
     kinetic-energy cutoff     =      30.0000  Ry
     charge density cutoff     =     240.0000  Ry
     Exchange-correlation      = SLA  PW   PBE  PBE ( 1  4  3  4 0 0)

     celldm(1)=  10.308000  celldm(2)=   0.000000  celldm(3)=   0.000000
     celldm(4)=   0.000000  celldm(5)=   0.000000  celldm(6)=   0.000000

     crystal axes: (cart. coord. in units of alat)
               a(1) = (  -0.500000   0.000000   0.500000 )  
               a(2) = (   0.000000   0.500000   0.500000 )  
               a(3) = (  -0.500000   0.500000   0.000000 )  

     reciprocal axes: (cart. coord. in units 2 pi/alat)
               b(1) = ( -1.000000 -1.000000  1.000000 )  
               b(2) = (  1.000000  1.000000  1.000000 )  
               b(3) = ( -1.000000  1.000000 -1.000000 )  


     PseudoPot. # 1 for Si read from file:
     /home/s1333534/quantum_espresso/qe-6.1/pseudo/si_pbe_v1.uspp.F.UPF.txt
     MD5 check sum: a056efeee980c13900f22a371efd63c1
     Pseudo is Ultrasoft + core correction, Zval =  4.0
     Generated by new atomic code, or converted to UPF format
     Using radial grid of  899 points,  6 beta functions with: 
                l(1) =   0
                l(2) =   0
                l(3) =   1
                l(4) =   1
                l(5) =   2
                l(6) =   2
     Q(r) pseudized with  8 coefficients,  rinner =    0.900   0.900   0.900
                                                       0.900   0.900

     atomic species   valence    mass     pseudopotential
        Si             4.00    28.08600     Si( 1.00)

     48 Sym. Ops., with inversion, found



   Cartesian axes

     site n.     atom                  positions (alat units)
         1           Si  tau(   1) = (   0.0000000   0.0000000   0.0000000  )
         2           Si  tau(   2) = (   0.2500000   0.2500000   0.2500000  )

     number of k points=   120

     Number of k-points >= 100: set verbosity='high' to print them.

     Dense  grid:    17153 G-vectors     FFT dimensions: (  36,  36,  36)

     Smooth grid:     5985 G-vectors     FFT dimensions: (  25,  25,  25)

     Estimated max dynamical RAM per process >       1.51MB

     Estimated total allocated dynamical RAM >       6.06MB

     The potential is recalculated from file :
     ./_ph0/silicon.10.308.save/charge-density.dat

     Starting wfc are    8 atomic wfcs

     Band Structure Calculation
     Davidson diagonalization with overlap

     ethr =  1.25E-10,  avg # of iterations = 12.2

     total cpu time spent up to now is        1.4 secs

     End of band structure calculation

     Number of k-points >= 100: set verbosity='high' to print the bands.

     highest occupied level (ev):     5.7705

     Writing output data file silicon.10.308.save

                                                                                

     bravais-lattice index     =            2
     lattice parameter (alat)  =      10.3080  a.u.
     unit-cell volume          =     273.8188 (a.u.)^3
     number of atoms/cell      =            2
     number of atomic types    =            1
     kinetic-energy cut-off    =      30.0000  Ry
     charge density cut-off    =     240.0000  Ry
     convergence threshold     =      1.0E-12
     beta                      =       0.7000
     number of iterations used =            4
     Exchange-correlation      = SLA  PW   PBE  PBE ( 1  4  3  4 0 0)


     celldm(1)=   10.30800  celldm(2)=    0.00000  celldm(3)=    0.00000
     celldm(4)=    0.00000  celldm(5)=    0.00000  celldm(6)=    0.00000

     crystal axes: (cart. coord. in units of alat)
               a(1) = ( -0.5000  0.0000  0.5000 )  
               a(2) = (  0.0000  0.5000  0.5000 )  
               a(3) = ( -0.5000  0.5000  0.0000 )  

     reciprocal axes: (cart. coord. in units 2 pi/alat)
               b(1) = ( -1.0000 -1.0000  1.0000 )  
               b(2) = (  1.0000  1.0000  1.0000 )  
               b(3) = ( -1.0000  1.0000 -1.0000 )  


     Atoms inside the unit cell: 

     Cartesian axes

     site n.  atom      mass           positions (alat units)
        1     Si  28.0860   tau(    1) = (    0.00000    0.00000    0.00000  )
        2     Si  28.0860   tau(    2) = (    0.25000    0.25000    0.25000  )

     Computing dynamical matrix for 
                    q = (  -0.2500000   0.2500000  -0.2500000 )

      6 Sym.Ops. (no q -> -q+G )


     G cutoff =  645.9521  (   4288 G-vectors)     FFT grid: ( 36, 36, 36)
     G cutoff =  322.9761  (   1496 G-vectors)  smooth grid: ( 25, 25, 25)
     number of k points=   120

     PseudoPot. # 1 for Si read from file:
     /home/s1333534/quantum_espresso/qe-6.1/pseudo/si_pbe_v1.uspp.F.UPF.txt
     MD5 check sum: a056efeee980c13900f22a371efd63c1
     Pseudo is Ultrasoft + core correction, Zval =  4.0
     Generated by new atomic code, or converted to UPF format
     Using radial grid of  899 points,  6 beta functions with: 
                l(1) =   0
                l(2) =   0
                l(3) =   1
                l(4) =   1
                l(5) =   2
                l(6) =   2
     Q(r) pseudized with  8 coefficients,  rinner =    0.900   0.900   0.900
                                                       0.900   0.900

     Mode symmetry, C_3v (3m)   point group:


     Atomic displacements:
     There are   4 irreducible representations

     Representation     1      1 modes -A_1  L_1  To be done

     Representation     2      1 modes -A_1  L_1  To be done

     Representation     3      2 modes -E    L_3  To be done

     Representation     4      2 modes -E    L_3  To be done



     Alpha used in Ewald sum =   2.5000
     PHONON       :    11.04s CPU        14.73s WALL



     Representation #  1 mode #   1

     Self-consistent Calculation

      iter #   1 total cpu time :    15.2 secs   av.it.:   5.9
      thresh= 1.000E-02 alpha_mix =  0.700 |ddv_scf|^2 =  4.293E-04

      iter #   2 total cpu time :    15.7 secs   av.it.:   9.0
      thresh= 2.072E-03 alpha_mix =  0.700 |ddv_scf|^2 =  6.526E-03

      iter #   3 total cpu time :    16.2 secs   av.it.:   7.0
      thresh= 8.078E-03 alpha_mix =  0.700 |ddv_scf|^2 =  2.721E-07

      iter #   4 total cpu time :    16.8 secs   av.it.:   9.6
      thresh= 5.216E-05 alpha_mix =  0.700 |ddv_scf|^2 =  1.791E-08

      iter #   5 total cpu time :    17.5 secs   av.it.:   9.6
      thresh= 1.338E-05 alpha_mix =  0.700 |ddv_scf|^2 =  3.375E-10

      iter #   6 total cpu time :    18.0 secs   av.it.:   9.7
      thresh= 1.837E-06 alpha_mix =  0.700 |ddv_scf|^2 =  1.176E-09

      iter #   7 total cpu time :    18.6 secs   av.it.:   7.6
      thresh= 3.429E-06 alpha_mix =  0.700 |ddv_scf|^2 =  3.699E-11

      iter #   8 total cpu time :    19.1 secs   av.it.:   9.3
      thresh= 6.082E-07 alpha_mix =  0.700 |ddv_scf|^2 =  4.716E-13

     End of self-consistent calculation

     Convergence has been achieved 


     Representation #  2 mode #   2

     Self-consistent Calculation

      iter #   1 total cpu time :    19.7 secs   av.it.:   5.9
      thresh= 1.000E-02 alpha_mix =  0.700 |ddv_scf|^2 =  4.293E-04

      iter #   2 total cpu time :    20.3 secs   av.it.:   9.0
      thresh= 2.072E-03 alpha_mix =  0.700 |ddv_scf|^2 =  6.526E-03

      iter #   3 total cpu time :    20.8 secs   av.it.:   7.0
      thresh= 8.078E-03 alpha_mix =  0.700 |ddv_scf|^2 =  2.721E-07

      iter #   4 total cpu time :    21.4 secs   av.it.:   9.6
      thresh= 5.216E-05 alpha_mix =  0.700 |ddv_scf|^2 =  1.791E-08

      iter #   5 total cpu time :    22.0 secs   av.it.:   9.6
      thresh= 1.338E-05 alpha_mix =  0.700 |ddv_scf|^2 =  3.375E-10

      iter #   6 total cpu time :    22.6 secs   av.it.:   9.7
      thresh= 1.837E-06 alpha_mix =  0.700 |ddv_scf|^2 =  1.176E-09

      iter #   7 total cpu time :    23.1 secs   av.it.:   7.6
      thresh= 3.429E-06 alpha_mix =  0.700 |ddv_scf|^2 =  3.699E-11

      iter #   8 total cpu time :    23.7 secs   av.it.:   9.3
      thresh= 6.082E-07 alpha_mix =  0.700 |ddv_scf|^2 =  4.716E-13

     End of self-consistent calculation

     Convergence has been achieved 


     Representation #  3 modes #   3  4

     Self-consistent Calculation

      iter #   1 total cpu time :    24.6 secs   av.it.:   5.2
      thresh= 1.000E-02 alpha_mix =  0.700 |ddv_scf|^2 =  6.629E-08

      iter #   2 total cpu time :    25.9 secs   av.it.:  11.4
      thresh= 2.575E-05 alpha_mix =  0.700 |ddv_scf|^2 =  4.259E-09

      iter #   3 total cpu time :    27.2 secs   av.it.:  11.1
      thresh= 6.526E-06 alpha_mix =  0.700 |ddv_scf|^2 =  2.256E-10

      iter #   4 total cpu time :    28.4 secs   av.it.:  11.0
      thresh= 1.502E-06 alpha_mix =  0.700 |ddv_scf|^2 =  8.551E-13

     End of self-consistent calculation

     Convergence has been achieved 


     Representation #  4 modes #   5  6

     Self-consistent Calculation

      iter #   1 total cpu time :    29.4 secs   av.it.:   5.2
      thresh= 1.000E-02 alpha_mix =  0.700 |ddv_scf|^2 =  6.630E-08

      iter #   2 total cpu time :    30.7 secs   av.it.:  11.4
      thresh= 2.575E-05 alpha_mix =  0.700 |ddv_scf|^2 =  4.259E-09

      iter #   3 total cpu time :    31.9 secs   av.it.:  11.2
      thresh= 6.526E-06 alpha_mix =  0.700 |ddv_scf|^2 =  2.255E-10

      iter #   4 total cpu time :    33.1 secs   av.it.:  11.0
      thresh= 1.502E-06 alpha_mix =  0.700 |ddv_scf|^2 =  8.599E-13

     End of self-consistent calculation

     Convergence has been achieved 

     Number of q in the star =    8
     List of q in the star:
          1  -0.250000000   0.250000000  -0.250000000
          2   0.250000000  -0.250000000  -0.250000000
          3   0.250000000  -0.250000000   0.250000000
          4   0.250000000   0.250000000   0.250000000
          5  -0.250000000  -0.250000000  -0.250000000
          6  -0.250000000  -0.250000000   0.250000000
          7  -0.250000000   0.250000000   0.250000000
          8   0.250000000   0.250000000  -0.250000000

     Diagonalizing the dynamical matrix

     q = (   -0.250000000   0.250000000  -0.250000000 ) 

 **************************************************************************
     freq (    1) =       2.771733 [THz] =      92.455074 [cm-1]
     freq (    2) =       2.771733 [THz] =      92.455074 [cm-1]
     freq (    3) =       6.783181 [THz] =     226.262555 [cm-1]
     freq (    4) =      14.327675 [THz] =     477.919794 [cm-1]
     freq (    5) =      14.613848 [THz] =     487.465510 [cm-1]
     freq (    6) =      14.613848 [THz] =     487.465510 [cm-1]
 **************************************************************************

     Mode symmetry, C_3v (3m)   point group:

     freq (  1 -  2) =         92.5  [cm-1]   --> E    L_3           
     freq (  3 -  3) =        226.3  [cm-1]   --> A_1  L_1           
     freq (  4 -  4) =        477.9  [cm-1]   --> A_1  L_1           
     freq (  5 -  6) =        487.5  [cm-1]   --> E    L_3           

     Calculation of q =    0.5000000  -0.5000000   0.5000000

   Info: using nr1, nr2, nr3 values from input

   Info: using nr1, nr2, nr3 values from input

     Parallelization info
     --------------------
     sticks:   dense  smooth     PW     G-vecs:    dense   smooth      PW
     Min         217     108     40                 4288     1495     351
     Max         219     109     41                 4289     1498     354
     Sum         871     433    163                17153     5985    1411



     bravais-lattice index     =            2
     lattice parameter (alat)  =      10.3080  a.u.
     unit-cell volume          =     273.8188 (a.u.)^3
     number of atoms/cell      =            2
     number of atomic types    =            1
     number of electrons       =         8.00
     number of Kohn-Sham states=            4
     kinetic-energy cutoff     =      30.0000  Ry
     charge density cutoff     =     240.0000  Ry
     Exchange-correlation      = SLA  PW   PBE  PBE ( 1  4  3  4 0 0)

     celldm(1)=  10.308000  celldm(2)=   0.000000  celldm(3)=   0.000000
     celldm(4)=   0.000000  celldm(5)=   0.000000  celldm(6)=   0.000000

     crystal axes: (cart. coord. in units of alat)
               a(1) = (  -0.500000   0.000000   0.500000 )  
               a(2) = (   0.000000   0.500000   0.500000 )  
               a(3) = (  -0.500000   0.500000   0.000000 )  

     reciprocal axes: (cart. coord. in units 2 pi/alat)
               b(1) = ( -1.000000 -1.000000  1.000000 )  
               b(2) = (  1.000000  1.000000  1.000000 )  
               b(3) = ( -1.000000  1.000000 -1.000000 )  


     PseudoPot. # 1 for Si read from file:
     /home/s1333534/quantum_espresso/qe-6.1/pseudo/si_pbe_v1.uspp.F.UPF.txt
     MD5 check sum: a056efeee980c13900f22a371efd63c1
     Pseudo is Ultrasoft + core correction, Zval =  4.0
     Generated by new atomic code, or converted to UPF format
     Using radial grid of  899 points,  6 beta functions with: 
                l(1) =   0
                l(2) =   0
                l(3) =   1
                l(4) =   1
                l(5) =   2
                l(6) =   2
     Q(r) pseudized with  8 coefficients,  rinner =    0.900   0.900   0.900
                                                       0.900   0.900

     atomic species   valence    mass     pseudopotential
        Si             4.00    28.08600     Si( 1.00)

     48 Sym. Ops., with inversion, found



   Cartesian axes

     site n.     atom                  positions (alat units)
         1           Si  tau(   1) = (   0.0000000   0.0000000   0.0000000  )
         2           Si  tau(   2) = (   0.2500000   0.2500000   0.2500000  )

     number of k points=    60
                       cart. coord. in units 2pi/alat
        k(    1) = (  -0.1250000   0.1250000   0.1250000), wk =   0.0468750
        k(    2) = (   0.3750000  -0.3750000   0.6250000), wk =   0.0000000
        k(    3) = (  -0.3750000   0.3750000  -0.1250000), wk =   0.0468750
        k(    4) = (   0.1250000  -0.1250000   0.3750000), wk =   0.0000000
        k(    5) = (   0.3750000  -0.3750000   0.6250000), wk =   0.0468750
        k(    6) = (   0.8750000  -0.8750000   1.1250000), wk =   0.0000000
        k(    7) = (   0.1250000  -0.1250000   0.3750000), wk =   0.0468750
        k(    8) = (   0.6250000  -0.6250000   0.8750000), wk =   0.0000000
        k(    9) = (  -0.1250000   0.6250000   0.1250000), wk =   0.0937500
        k(   10) = (   0.3750000   0.1250000   0.6250000), wk =   0.0000000
        k(   11) = (   0.6250000  -0.1250000   0.8750000), wk =   0.0937500
        k(   12) = (   1.1250000  -0.6250000   1.3750000), wk =   0.0000000
        k(   13) = (   0.3750000   0.1250000   0.6250000), wk =   0.0937500
        k(   14) = (   0.8750000  -0.3750000   1.1250000), wk =   0.0000000
        k(   15) = (  -0.1250000  -0.8750000   0.1250000), wk =   0.0937500
        k(   16) = (   0.3750000  -1.3750000   0.6250000), wk =   0.0000000
        k(   17) = (  -0.3750000   0.3750000   0.3750000), wk =   0.0468750
        k(   18) = (   0.1250000  -0.1250000   0.8750000), wk =   0.0000000
        k(   19) = (   0.3750000  -0.3750000   1.1250000), wk =   0.0468750
        k(   20) = (   0.8750000  -0.8750000   1.6250000), wk =   0.0000000
        k(   21) = (   0.1250000  -0.1250000   0.1250000), wk =   0.0156250
        k(   22) = (   0.6250000  -0.6250000   0.6250000), wk =   0.0000000
        k(   23) = (  -0.3750000  -0.3750000  -0.1250000), wk =   0.0937500
        k(   24) = (   0.1250000  -0.8750000   0.3750000), wk =   0.0000000
        k(   25) = (  -0.1250000  -0.3750000   0.3750000), wk =   0.0468750
        k(   26) = (   0.3750000  -0.8750000   0.8750000), wk =   0.0000000
        k(   27) = (   0.3750000   0.3750000   0.6250000), wk =   0.0937500
        k(   28) = (   0.8750000  -0.1250000   1.1250000), wk =   0.0000000
        k(   29) = (   0.6250000   0.3750000  -0.3750000), wk =   0.0468750
        k(   30) = (   1.1250000  -0.1250000   0.1250000), wk =   0.0000000
        k(   31) = (   0.1250000   0.1250000   0.3750000), wk =   0.0937500
        k(   32) = (   0.6250000  -0.3750000   0.8750000), wk =   0.0000000
        k(   33) = (   0.3750000   0.1250000  -0.1250000), wk =   0.0468750
        k(   34) = (   0.8750000  -0.3750000   0.3750000), wk =   0.0000000
        k(   35) = (  -0.1250000  -0.6250000  -0.1250000), wk =   0.0468750
        k(   36) = (   0.3750000  -1.1250000   0.3750000), wk =   0.0000000
        k(   37) = (   0.1250000  -0.6250000   0.1250000), wk =   0.0468750
        k(   38) = (   0.6250000  -1.1250000   0.6250000), wk =   0.0000000
        k(   39) = (   0.6250000   0.1250000   0.8750000), wk =   0.0937500
        k(   40) = (   1.1250000  -0.3750000   1.3750000), wk =   0.0000000
        k(   41) = (  -0.8750000   0.1250000   0.6250000), wk =   0.0937500
        k(   42) = (  -0.3750000  -0.3750000   1.1250000), wk =   0.0000000
        k(   43) = (   0.8750000   0.1250000  -0.6250000), wk =   0.0937500
        k(   44) = (   1.3750000  -0.3750000  -0.1250000), wk =   0.0000000
        k(   45) = (   0.3750000  -0.1250000   0.6250000), wk =   0.0937500
        k(   46) = (   0.8750000  -0.6250000   1.1250000), wk =   0.0000000
        k(   47) = (  -0.6250000  -0.1250000   0.3750000), wk =   0.0937500
        k(   48) = (  -0.1250000  -0.6250000   0.8750000), wk =   0.0000000
        k(   49) = (   0.6250000  -0.1250000  -0.3750000), wk =   0.0937500
        k(   50) = (   1.1250000  -0.6250000   0.1250000), wk =   0.0000000
        k(   51) = (  -0.1250000   0.8750000  -0.1250000), wk =   0.0468750
        k(   52) = (   0.3750000   0.3750000   0.3750000), wk =   0.0000000
        k(   53) = (   0.1250000   0.8750000   0.1250000), wk =   0.0468750
        k(   54) = (   0.6250000   0.3750000   0.6250000), wk =   0.0000000
        k(   55) = (   0.3750000  -0.3750000   0.3750000), wk =   0.0156250
        k(   56) = (   0.8750000  -0.8750000   0.8750000), wk =   0.0000000
        k(   57) = (   0.3750000   0.3750000   1.1250000), wk =   0.0937500
        k(   58) = (   0.8750000  -0.1250000   1.6250000), wk =   0.0000000
        k(   59) = (   1.1250000   0.3750000  -0.3750000), wk =   0.0468750
        k(   60) = (   1.6250000  -0.1250000   0.1250000), wk =   0.0000000

     Dense  grid:    17153 G-vectors     FFT dimensions: (  36,  36,  36)

     Smooth grid:     5985 G-vectors     FFT dimensions: (  25,  25,  25)

     Estimated max dynamical RAM per process >       1.51MB

     Estimated total allocated dynamical RAM >       6.06MB

     The potential is recalculated from file :
     ./_ph0/silicon.10.308.save/charge-density.dat

     Starting wfc are    8 atomic wfcs

     Band Structure Calculation
     Davidson diagonalization with overlap

     ethr =  1.25E-10,  avg # of iterations = 12.2

     total cpu time spent up to now is        2.3 secs

     End of band structure calculation

          k =-0.1250 0.1250 0.1250 (   752 PWs)   bands (ev):

    -5.6107   4.4614   5.7705   5.7705

          k = 0.3750-0.3750 0.6250 (   760 PWs)   bands (ev):

    -3.4286  -0.6355   3.7970   4.5117

          k =-0.3750 0.3750-0.1250 (   757 PWs)   bands (ev):

    -4.5776   1.4574   3.7728   5.2886

          k = 0.1250-0.1250 0.3750 (   766 PWs)   bands (ev):

    -5.0796   2.8423   4.7554   4.8235

          k = 0.3750-0.3750 0.6250 (   760 PWs)   bands (ev):

    -3.4286  -0.6355   3.7970   4.5117

          k = 0.8750-0.8750 1.1250 (   752 PWs)   bands (ev):

    -5.6107   4.4614   5.7705   5.7705

          k = 0.1250-0.1250 0.3750 (   766 PWs)   bands (ev):

    -5.0796   2.8423   4.7554   4.8235

          k = 0.6250-0.6250 0.8750 (   757 PWs)   bands (ev):

    -4.5776   1.4574   3.7728   5.2886

          k =-0.1250 0.6250 0.1250 (   762 PWs)   bands (ev):

    -4.0419   1.1297   3.4205   3.8763

          k = 0.3750 0.1250 0.6250 (   759 PWs)   bands (ev):

    -3.6230   0.2474   2.7759   4.1524

          k = 0.6250-0.1250 0.8750 (   754 PWs)   bands (ev):

    -2.3902  -0.8421   2.0545   3.1389

          k = 1.1250-0.6250 1.3750 (   757 PWs)   bands (ev):

    -4.5776   1.4574   3.7728   5.2886

          k = 0.3750 0.1250 0.6250 (   759 PWs)   bands (ev):

    -3.6230   0.2474   2.7759   4.1524

          k = 0.8750-0.3750 1.1250 (   762 PWs)   bands (ev):

    -4.0419   1.1297   3.4205   3.8763

          k =-0.1250-0.8750 0.1250 (   759 PWs)   bands (ev):

    -2.5607  -0.7432   2.6692   3.4068

          k = 0.3750-1.3750 0.6250 (   760 PWs)   bands (ev):

    -3.4286  -0.6355   3.7970   4.5117

          k =-0.3750 0.3750 0.3750 (   763 PWs)   bands (ev):

    -4.1412   0.1568   4.9797   4.9797

          k = 0.1250-0.1250 0.8750 (   759 PWs)   bands (ev):

    -2.5607  -0.7432   2.6692   3.4068

          k = 0.3750-0.3750 1.1250 (   759 PWs)   bands (ev):

    -2.9300  -0.5433   2.1159   4.1923

          k = 0.8750-0.8750 1.6250 (   762 PWs)   bands (ev):

    -4.0419   1.1297   3.4205   3.8763

          k = 0.1250-0.1250 0.1250 (   752 PWs)   bands (ev):

    -5.6107   4.4614   5.7705   5.7705

          k = 0.6250-0.6250 0.6250 (   763 PWs)   bands (ev):

    -4.1412   0.1568   4.9797   4.9797

          k =-0.3750-0.3750-0.1250 (   757 PWs)   bands (ev):

    -4.5776   1.4574   3.7728   5.2886

          k = 0.1250-0.8750 0.3750 (   754 PWs)   bands (ev):

    -2.3902  -0.8421   2.0545   3.1389

          k =-0.1250-0.3750 0.3750 (   757 PWs)   bands (ev):

    -4.5776   1.4574   3.7728   5.2886

          k = 0.3750-0.8750 0.8750 (   762 PWs)   bands (ev):

    -4.0419   1.1297   3.4205   3.8763

          k = 0.3750 0.3750 0.6250 (   760 PWs)   bands (ev):

    -3.4286  -0.6355   3.7970   4.5117

          k = 0.8750-0.1250 1.1250 (   759 PWs)   bands (ev):

    -2.5607  -0.7432   2.6692   3.4068

          k = 0.6250 0.3750-0.3750 (   760 PWs)   bands (ev):

    -3.4286  -0.6355   3.7970   4.5117

          k = 1.1250-0.1250 0.1250 (   759 PWs)   bands (ev):

    -2.5607  -0.7432   2.6692   3.4068

          k = 0.1250 0.1250 0.3750 (   766 PWs)   bands (ev):

    -5.0796   2.8423   4.7554   4.8235

          k = 0.6250-0.3750 0.8750 (   759 PWs)   bands (ev):

    -3.6230   0.2474   2.7759   4.1524

          k = 0.3750 0.1250-0.1250 (   766 PWs)   bands (ev):

    -5.0796   2.8423   4.7554   4.8235

          k = 0.8750-0.3750 0.3750 (   759 PWs)   bands (ev):

    -2.9300  -0.5433   2.1159   4.1923

          k =-0.1250-0.6250-0.1250 (   762 PWs)   bands (ev):

    -4.0419   1.1297   3.4205   3.8763

          k = 0.3750-1.1250 0.3750 (   759 PWs)   bands (ev):

    -2.9300  -0.5433   2.1159   4.1923

          k = 0.1250-0.6250 0.1250 (   762 PWs)   bands (ev):

    -4.0419   1.1297   3.4205   3.8763

          k = 0.6250-1.1250 0.6250 (   757 PWs)   bands (ev):

    -4.5776   1.4574   3.7728   5.2886

          k = 0.6250 0.1250 0.8750 (   754 PWs)   bands (ev):

    -2.3902  -0.8421   2.0545   3.1389

          k = 1.1250-0.3750 1.3750 (   759 PWs)   bands (ev):

    -3.6230   0.2474   2.7759   4.1524

          k =-0.8750 0.1250 0.6250 (   754 PWs)   bands (ev):

    -2.3902  -0.8421   2.0545   3.1389

          k =-0.3750-0.3750 1.1250 (   759 PWs)   bands (ev):

    -2.9300  -0.5433   2.1159   4.1923

          k = 0.8750 0.1250-0.6250 (   754 PWs)   bands (ev):

    -2.3902  -0.8421   2.0545   3.1389

          k = 1.3750-0.3750-0.1250 (   759 PWs)   bands (ev):

    -3.6230   0.2474   2.7759   4.1524

          k = 0.3750-0.1250 0.6250 (   759 PWs)   bands (ev):

    -3.6230   0.2474   2.7759   4.1524

          k = 0.8750-0.6250 1.1250 (   766 PWs)   bands (ev):

    -5.0796   2.8423   4.7554   4.8235

          k =-0.6250-0.1250 0.3750 (   759 PWs)   bands (ev):

    -3.6230   0.2474   2.7759   4.1524

          k =-0.1250-0.6250 0.8750 (   754 PWs)   bands (ev):

    -2.3902  -0.8421   2.0545   3.1389

          k = 0.6250-0.1250-0.3750 (   759 PWs)   bands (ev):

    -3.6230   0.2474   2.7759   4.1524

          k = 1.1250-0.6250 0.1250 (   754 PWs)   bands (ev):

    -2.3902  -0.8421   2.0545   3.1389

          k =-0.1250 0.8750-0.1250 (   759 PWs)   bands (ev):

    -2.5607  -0.7432   2.6692   3.4068

          k = 0.3750 0.3750 0.3750 (   763 PWs)   bands (ev):

    -4.1412   0.1568   4.9797   4.9797

          k = 0.1250 0.8750 0.1250 (   759 PWs)   bands (ev):

    -2.5607  -0.7432   2.6692   3.4068

          k = 0.6250 0.3750 0.6250 (   760 PWs)   bands (ev):

    -3.4286  -0.6355   3.7970   4.5117

          k = 0.3750-0.3750 0.3750 (   763 PWs)   bands (ev):

    -4.1412   0.1568   4.9797   4.9797

          k = 0.8750-0.8750 0.8750 (   752 PWs)   bands (ev):

    -5.6107   4.4614   5.7705   5.7705

          k = 0.3750 0.3750 1.1250 (   759 PWs)   bands (ev):

    -2.9300  -0.5433   2.1159   4.1923

          k = 0.8750-0.1250 1.6250 (   754 PWs)   bands (ev):

    -2.3902  -0.8421   2.0545   3.1389

          k = 1.1250 0.3750-0.3750 (   759 PWs)   bands (ev):

    -2.9300  -0.5433   2.1159   4.1923

          k = 1.6250-0.1250 0.1250 (   766 PWs)   bands (ev):

    -5.0796   2.8423   4.7554   4.8235

     highest occupied level (ev):     5.7705

     Writing output data file silicon.10.308.save

                                                                                

     bravais-lattice index     =            2
     lattice parameter (alat)  =      10.3080  a.u.
     unit-cell volume          =     273.8188 (a.u.)^3
     number of atoms/cell      =            2
     number of atomic types    =            1
     kinetic-energy cut-off    =      30.0000  Ry
     charge density cut-off    =     240.0000  Ry
     convergence threshold     =      1.0E-12
     beta                      =       0.7000
     number of iterations used =            4
     Exchange-correlation      = SLA  PW   PBE  PBE ( 1  4  3  4 0 0)


     celldm(1)=   10.30800  celldm(2)=    0.00000  celldm(3)=    0.00000
     celldm(4)=    0.00000  celldm(5)=    0.00000  celldm(6)=    0.00000

     crystal axes: (cart. coord. in units of alat)
               a(1) = ( -0.5000  0.0000  0.5000 )  
               a(2) = (  0.0000  0.5000  0.5000 )  
               a(3) = ( -0.5000  0.5000  0.0000 )  

     reciprocal axes: (cart. coord. in units 2 pi/alat)
               b(1) = ( -1.0000 -1.0000  1.0000 )  
               b(2) = (  1.0000  1.0000  1.0000 )  
               b(3) = ( -1.0000  1.0000 -1.0000 )  


     Atoms inside the unit cell: 

     Cartesian axes

     site n.  atom      mass           positions (alat units)
        1     Si  28.0860   tau(    1) = (    0.00000    0.00000    0.00000  )
        2     Si  28.0860   tau(    2) = (    0.25000    0.25000    0.25000  )

     Computing dynamical matrix for 
                    q = (   0.5000000  -0.5000000   0.5000000 )

     13 Sym.Ops. (with q -> -q+G )


     G cutoff =  645.9521  (   4288 G-vectors)     FFT grid: ( 36, 36, 36)
     G cutoff =  322.9761  (   1497 G-vectors)  smooth grid: ( 25, 25, 25)
     number of k points=    60

     PseudoPot. # 1 for Si read from file:
     /home/s1333534/quantum_espresso/qe-6.1/pseudo/si_pbe_v1.uspp.F.UPF.txt
     MD5 check sum: a056efeee980c13900f22a371efd63c1
     Pseudo is Ultrasoft + core correction, Zval =  4.0
     Generated by new atomic code, or converted to UPF format
     Using radial grid of  899 points,  6 beta functions with: 
                l(1) =   0
                l(2) =   0
                l(3) =   1
                l(4) =   1
                l(5) =   2
                l(6) =   2
     Q(r) pseudized with  8 coefficients,  rinner =    0.900   0.900   0.900
                                                       0.900   0.900


     Atomic displacements:
     There are   4 irreducible representations

     Representation     1      1 modes -  To be done

     Representation     2      1 modes -  To be done

     Representation     3      2 modes -  To be done

     Representation     4      2 modes -  To be done



     Alpha used in Ewald sum =   2.5000
     PHONON       :    27.86s CPU        35.55s WALL



     Representation #  1 mode #   1

     Self-consistent Calculation

      iter #   1 total cpu time :    35.8 secs   av.it.:   5.1
      thresh= 1.000E-02 alpha_mix =  0.700 |ddv_scf|^2 =  4.210E-06

      iter #   2 total cpu time :    36.3 secs   av.it.:   9.9
      thresh= 2.052E-04 alpha_mix =  0.700 |ddv_scf|^2 =  3.840E-06

      iter #   3 total cpu time :    36.7 secs   av.it.:   9.2
      thresh= 1.960E-04 alpha_mix =  0.700 |ddv_scf|^2 =  2.317E-09

      iter #   4 total cpu time :    37.2 secs   av.it.:   9.4
      thresh= 4.814E-06 alpha_mix =  0.700 |ddv_scf|^2 =  2.224E-11

      iter #   5 total cpu time :    37.5 secs   av.it.:   9.3
      thresh= 4.716E-07 alpha_mix =  0.700 |ddv_scf|^2 =  3.095E-13

     End of self-consistent calculation

     Convergence has been achieved 


     Representation #  2 mode #   2

     Self-consistent Calculation

      iter #   1 total cpu time :    37.9 secs   av.it.:   6.0
      thresh= 1.000E-02 alpha_mix =  0.700 |ddv_scf|^2 =  5.991E-05

      iter #   2 total cpu time :    38.3 secs   av.it.:   9.8
      thresh= 7.740E-04 alpha_mix =  0.700 |ddv_scf|^2 =  1.861E-04

      iter #   3 total cpu time :    38.7 secs   av.it.:   8.6
      thresh= 1.364E-03 alpha_mix =  0.700 |ddv_scf|^2 =  1.301E-08

      iter #   4 total cpu time :    39.1 secs   av.it.:   9.8
      thresh= 1.141E-05 alpha_mix =  0.700 |ddv_scf|^2 =  6.616E-10

      iter #   5 total cpu time :    39.6 secs   av.it.:  10.2
      thresh= 2.572E-06 alpha_mix =  0.700 |ddv_scf|^2 =  2.024E-11

      iter #   6 total cpu time :    40.0 secs   av.it.:   9.7
      thresh= 4.499E-07 alpha_mix =  0.700 |ddv_scf|^2 =  1.528E-13

     End of self-consistent calculation

     Convergence has been achieved 


     Representation #  3 modes #   3  4

     Self-consistent Calculation

      iter #   1 total cpu time :    40.6 secs   av.it.:   5.1
      thresh= 1.000E-02 alpha_mix =  0.700 |ddv_scf|^2 =  2.700E-08

      iter #   2 total cpu time :    41.4 secs   av.it.:  10.9
      thresh= 1.643E-05 alpha_mix =  0.700 |ddv_scf|^2 =  1.594E-09

      iter #   3 total cpu time :    42.1 secs   av.it.:  10.7
      thresh= 3.993E-06 alpha_mix =  0.700 |ddv_scf|^2 =  5.294E-11

      iter #   4 total cpu time :    42.8 secs   av.it.:  10.7
      thresh= 7.276E-07 alpha_mix =  0.700 |ddv_scf|^2 =  4.337E-13

     End of self-consistent calculation

     Convergence has been achieved 


     Representation #  4 modes #   5  6

     Self-consistent Calculation

      iter #   1 total cpu time :    43.4 secs   av.it.:   5.1
      thresh= 1.000E-02 alpha_mix =  0.700 |ddv_scf|^2 =  1.381E-07

      iter #   2 total cpu time :    44.2 secs   av.it.:  11.1
      thresh= 3.716E-05 alpha_mix =  0.700 |ddv_scf|^2 =  1.108E-08

      iter #   3 total cpu time :    44.9 secs   av.it.:  10.9
      thresh= 1.053E-05 alpha_mix =  0.700 |ddv_scf|^2 =  2.915E-10

      iter #   4 total cpu time :    45.6 secs   av.it.:   9.8
      thresh= 1.707E-06 alpha_mix =  0.700 |ddv_scf|^2 =  5.260E-13

     End of self-consistent calculation

     Convergence has been achieved 

     Number of q in the star =    4
     List of q in the star:
          1   0.500000000  -0.500000000   0.500000000
          2   0.500000000   0.500000000   0.500000000
          3  -0.500000000   0.500000000   0.500000000
          4   0.500000000   0.500000000  -0.500000000

     Diagonalizing the dynamical matrix

     q = (    0.500000000  -0.500000000   0.500000000 ) 

 **************************************************************************
     freq (    1) =       3.263875 [THz] =     108.871148 [cm-1]
     freq (    2) =       3.263875 [THz] =     108.871148 [cm-1]
     freq (    3) =      11.127127 [THz] =     371.161003 [cm-1]
     freq (    4) =      12.110952 [THz] =     403.977882 [cm-1]
     freq (    5) =      14.412242 [THz] =     480.740635 [cm-1]
     freq (    6) =      14.412242 [THz] =     480.740635 [cm-1]
 **************************************************************************

     Calculation of q =    0.0000000   0.5000000   0.0000000

   Info: using nr1, nr2, nr3 values from input

   Info: using nr1, nr2, nr3 values from input

     Parallelization info
     --------------------
     sticks:   dense  smooth     PW     G-vecs:    dense   smooth      PW
     Min         217     108     37                 4287     1495     309
     Max         218     109     38                 4289     1498     312
     Sum         871     433    151                17153     5985    1243



     bravais-lattice index     =            2
     lattice parameter (alat)  =      10.3080  a.u.
     unit-cell volume          =     273.8188 (a.u.)^3
     number of atoms/cell      =            2
     number of atomic types    =            1
     number of electrons       =         8.00
     number of Kohn-Sham states=            4
     kinetic-energy cutoff     =      30.0000  Ry
     charge density cutoff     =     240.0000  Ry
     Exchange-correlation      = SLA  PW   PBE  PBE ( 1  4  3  4 0 0)

     celldm(1)=  10.308000  celldm(2)=   0.000000  celldm(3)=   0.000000
     celldm(4)=   0.000000  celldm(5)=   0.000000  celldm(6)=   0.000000

     crystal axes: (cart. coord. in units of alat)
               a(1) = (  -0.500000   0.000000   0.500000 )  
               a(2) = (   0.000000   0.500000   0.500000 )  
               a(3) = (  -0.500000   0.500000   0.000000 )  

     reciprocal axes: (cart. coord. in units 2 pi/alat)
               b(1) = ( -1.000000 -1.000000  1.000000 )  
               b(2) = (  1.000000  1.000000  1.000000 )  
               b(3) = ( -1.000000  1.000000 -1.000000 )  


     PseudoPot. # 1 for Si read from file:
     /home/s1333534/quantum_espresso/qe-6.1/pseudo/si_pbe_v1.uspp.F.UPF.txt
     MD5 check sum: a056efeee980c13900f22a371efd63c1
     Pseudo is Ultrasoft + core correction, Zval =  4.0
     Generated by new atomic code, or converted to UPF format
     Using radial grid of  899 points,  6 beta functions with: 
                l(1) =   0
                l(2) =   0
                l(3) =   1
                l(4) =   1
                l(5) =   2
                l(6) =   2
     Q(r) pseudized with  8 coefficients,  rinner =    0.900   0.900   0.900
                                                       0.900   0.900

     atomic species   valence    mass     pseudopotential
        Si             4.00    28.08600     Si( 1.00)

     48 Sym. Ops., with inversion, found



   Cartesian axes

     site n.     atom                  positions (alat units)
         1           Si  tau(   1) = (   0.0000000   0.0000000   0.0000000  )
         2           Si  tau(   2) = (   0.2500000   0.2500000   0.2500000  )

     number of k points=    80
                       cart. coord. in units 2pi/alat
        k(    1) = (  -0.1250000   0.1250000   0.1250000), wk =   0.0312500
        k(    2) = (  -0.1250000   0.6250000   0.1250000), wk =   0.0000000
        k(    3) = (  -0.3750000   0.3750000  -0.1250000), wk =   0.0625000
        k(    4) = (  -0.3750000   0.8750000  -0.1250000), wk =   0.0000000
        k(    5) = (   0.3750000  -0.3750000   0.6250000), wk =   0.0625000
        k(    6) = (   0.3750000   0.1250000   0.6250000), wk =   0.0000000
        k(    7) = (   0.1250000  -0.1250000   0.3750000), wk =   0.0625000
        k(    8) = (   0.1250000   0.3750000   0.3750000), wk =   0.0000000
        k(    9) = (  -0.1250000   0.6250000   0.1250000), wk =   0.0312500
        k(   10) = (  -0.1250000   1.1250000   0.1250000), wk =   0.0000000
        k(   11) = (   0.6250000  -0.1250000   0.8750000), wk =   0.0625000
        k(   12) = (   0.6250000   0.3750000   0.8750000), wk =   0.0000000
        k(   13) = (   0.3750000   0.1250000   0.6250000), wk =   0.0625000
        k(   14) = (   0.3750000   0.6250000   0.6250000), wk =   0.0000000
        k(   15) = (  -0.1250000  -0.8750000   0.1250000), wk =   0.0312500
        k(   16) = (  -0.1250000  -0.3750000   0.1250000), wk =   0.0000000
        k(   17) = (  -0.3750000   0.3750000   0.3750000), wk =   0.0312500
        k(   18) = (  -0.3750000   0.8750000   0.3750000), wk =   0.0000000
        k(   19) = (   0.3750000  -0.3750000   1.1250000), wk =   0.0625000
        k(   20) = (   0.3750000   0.1250000   1.1250000), wk =   0.0000000
        k(   21) = (  -0.1250000  -0.1250000   0.1250000), wk =   0.0312500
        k(   22) = (  -0.1250000   0.3750000   0.1250000), wk =   0.0000000
        k(   23) = (   0.1250000  -0.3750000   0.3750000), wk =   0.0625000
        k(   24) = (   0.1250000   0.1250000   0.3750000), wk =   0.0000000
        k(   25) = (   0.3750000  -0.1250000   0.3750000), wk =   0.0312500
        k(   26) = (   0.3750000   0.3750000   0.3750000), wk =   0.0000000
        k(   27) = (   0.3750000   0.1250000   0.3750000), wk =   0.0312500
        k(   28) = (   0.3750000   0.6250000   0.3750000), wk =   0.0000000
        k(   29) = (  -0.6250000   0.3750000  -0.3750000), wk =   0.0625000
        k(   30) = (  -0.6250000   0.8750000  -0.3750000), wk =   0.0000000
        k(   31) = (  -0.3750000   0.6250000  -0.3750000), wk =   0.0312500
        k(   32) = (  -0.3750000   1.1250000  -0.3750000), wk =   0.0000000
        k(   33) = (  -0.3750000  -0.6250000  -0.3750000), wk =   0.0312500
        k(   34) = (  -0.3750000  -0.1250000  -0.3750000), wk =   0.0000000
        k(   35) = (  -0.3750000   0.1250000  -0.1250000), wk =   0.0625000
        k(   36) = (  -0.3750000   0.6250000  -0.1250000), wk =   0.0000000
        k(   37) = (  -0.1250000   0.3750000  -0.1250000), wk =   0.0312500
        k(   38) = (  -0.1250000   0.8750000  -0.1250000), wk =   0.0000000
        k(   39) = (  -0.1250000  -0.3750000  -0.1250000), wk =   0.0312500
        k(   40) = (  -0.1250000   0.1250000  -0.1250000), wk =   0.0000000
        k(   41) = (  -0.1250000  -0.6250000   0.1250000), wk =   0.0312500
        k(   42) = (  -0.1250000  -0.1250000   0.1250000), wk =   0.0000000
        k(   43) = (   0.6250000  -0.1250000  -0.1250000), wk =   0.0625000
        k(   44) = (   0.6250000   0.3750000  -0.1250000), wk =   0.0000000
        k(   45) = (   0.6250000   0.1250000   0.1250000), wk =   0.0625000
        k(   46) = (   0.6250000   0.6250000   0.1250000), wk =   0.0000000
        k(   47) = (  -0.8750000   0.1250000  -0.6250000), wk =   0.0625000
        k(   48) = (  -0.8750000   0.6250000  -0.6250000), wk =   0.0000000
        k(   49) = (  -0.1250000   0.6250000  -0.8750000), wk =   0.0625000
        k(   50) = (  -0.1250000   1.1250000  -0.8750000), wk =   0.0000000
        k(   51) = (  -0.1250000   0.8750000  -0.6250000), wk =   0.0625000
        k(   52) = (  -0.1250000   1.3750000  -0.6250000), wk =   0.0000000
        k(   53) = (  -0.1250000  -0.8750000  -0.6250000), wk =   0.0625000
        k(   54) = (  -0.1250000  -0.3750000  -0.6250000), wk =   0.0000000
        k(   55) = (   0.8750000  -0.6250000   0.1250000), wk =   0.0625000
        k(   56) = (   0.8750000  -0.1250000   0.1250000), wk =   0.0000000
        k(   57) = (  -0.6250000  -0.1250000  -0.3750000), wk =   0.0625000
        k(   58) = (  -0.6250000   0.3750000  -0.3750000), wk =   0.0000000
        k(   59) = (   0.1250000   0.3750000  -0.6250000), wk =   0.0625000
        k(   60) = (   0.1250000   0.8750000  -0.6250000), wk =   0.0000000
        k(   61) = (   0.1250000   0.6250000  -0.3750000), wk =   0.0625000
        k(   62) = (   0.1250000   1.1250000  -0.3750000), wk =   0.0000000
        k(   63) = (   0.1250000  -0.6250000  -0.3750000), wk =   0.0625000
        k(   64) = (   0.1250000  -0.1250000  -0.3750000), wk =   0.0000000
        k(   65) = (   0.6250000  -0.3750000  -0.1250000), wk =   0.0625000
        k(   66) = (   0.6250000   0.1250000  -0.1250000), wk =   0.0000000
        k(   67) = (  -0.1250000   0.8750000   0.1250000), wk =   0.0312500
        k(   68) = (  -0.1250000   1.3750000   0.1250000), wk =   0.0000000
        k(   69) = (  -0.8750000  -0.1250000  -0.1250000), wk =   0.0625000
        k(   70) = (  -0.8750000   0.3750000  -0.1250000), wk =   0.0000000
        k(   71) = (  -0.8750000   0.1250000   0.1250000), wk =   0.0625000
        k(   72) = (  -0.8750000   0.6250000   0.1250000), wk =   0.0000000
        k(   73) = (  -0.3750000  -0.3750000   0.3750000), wk =   0.0312500
        k(   74) = (  -0.3750000   0.1250000   0.3750000), wk =   0.0000000
        k(   75) = (  -1.1250000   0.3750000  -0.3750000), wk =   0.0625000
        k(   76) = (  -1.1250000   0.8750000  -0.3750000), wk =   0.0000000
        k(   77) = (  -0.3750000   1.1250000  -0.3750000), wk =   0.0312500
        k(   78) = (  -0.3750000   1.6250000  -0.3750000), wk =   0.0000000
        k(   79) = (  -0.3750000  -1.1250000  -0.3750000), wk =   0.0312500
        k(   80) = (  -0.3750000  -0.6250000  -0.3750000), wk =   0.0000000

     Dense  grid:    17153 G-vectors     FFT dimensions: (  36,  36,  36)

     Smooth grid:     5985 G-vectors     FFT dimensions: (  25,  25,  25)

     Estimated max dynamical RAM per process >       1.51MB

     Estimated total allocated dynamical RAM >       6.06MB

     The potential is recalculated from file :
     ./_ph0/silicon.10.308.save/charge-density.dat

     Starting wfc are    8 atomic wfcs

     Band Structure Calculation
     Davidson diagonalization with overlap

     ethr =  1.25E-10,  avg # of iterations = 12.2

     total cpu time spent up to now is        3.4 secs

     End of band structure calculation

          k =-0.1250 0.1250 0.1250 (   752 PWs)   bands (ev):

    -5.6107   4.4614   5.7705   5.7705

          k =-0.1250 0.6250 0.1250 (   762 PWs)   bands (ev):

    -4.0419   1.1297   3.4205   3.8763

          k =-0.3750 0.3750-0.1250 (   757 PWs)   bands (ev):

    -4.5776   1.4574   3.7728   5.2886

          k =-0.3750 0.8750-0.1250 (   754 PWs)   bands (ev):

    -2.3902  -0.8421   2.0545   3.1389

          k = 0.3750-0.3750 0.6250 (   760 PWs)   bands (ev):

    -3.4286  -0.6355   3.7970   4.5117

          k = 0.3750 0.1250 0.6250 (   759 PWs)   bands (ev):

    -3.6230   0.2474   2.7759   4.1524

          k = 0.1250-0.1250 0.3750 (   766 PWs)   bands (ev):

    -5.0796   2.8423   4.7554   4.8235

          k = 0.1250 0.3750 0.3750 (   757 PWs)   bands (ev):

    -4.5776   1.4574   3.7728   5.2886

          k =-0.1250 0.6250 0.1250 (   762 PWs)   bands (ev):

    -4.0419   1.1297   3.4205   3.8763

          k =-0.1250 1.1250 0.1250 (   759 PWs)   bands (ev):

    -2.5607  -0.7432   2.6692   3.4068

          k = 0.6250-0.1250 0.8750 (   754 PWs)   bands (ev):

    -2.3902  -0.8421   2.0545   3.1389

          k = 0.6250 0.3750 0.8750 (   759 PWs)   bands (ev):

    -3.6230   0.2474   2.7759   4.1524

          k = 0.3750 0.1250 0.6250 (   759 PWs)   bands (ev):

    -3.6230   0.2474   2.7759   4.1524

          k = 0.3750 0.6250 0.6250 (   760 PWs)   bands (ev):

    -3.4286  -0.6355   3.7970   4.5117

          k =-0.1250-0.8750 0.1250 (   759 PWs)   bands (ev):

    -2.5607  -0.7432   2.6692   3.4068

          k =-0.1250-0.3750 0.1250 (   766 PWs)   bands (ev):

    -5.0796   2.8423   4.7554   4.8235

          k =-0.3750 0.3750 0.3750 (   763 PWs)   bands (ev):

    -4.1412   0.1568   4.9797   4.9797

          k =-0.3750 0.8750 0.3750 (   759 PWs)   bands (ev):

    -2.9300  -0.5433   2.1159   4.1923

          k = 0.3750-0.3750 1.1250 (   759 PWs)   bands (ev):

    -2.9300  -0.5433   2.1159   4.1923

          k = 0.3750 0.1250 1.1250 (   754 PWs)   bands (ev):

    -2.3902  -0.8421   2.0545   3.1389

          k =-0.1250-0.1250 0.1250 (   752 PWs)   bands (ev):

    -5.6107   4.4614   5.7705   5.7705

          k =-0.1250 0.3750 0.1250 (   766 PWs)   bands (ev):

    -5.0796   2.8423   4.7554   4.8235

          k = 0.1250-0.3750 0.3750 (   757 PWs)   bands (ev):

    -4.5776   1.4574   3.7728   5.2886

          k = 0.1250 0.1250 0.3750 (   766 PWs)   bands (ev):

    -5.0796   2.8423   4.7554   4.8235

          k = 0.3750-0.1250 0.3750 (   757 PWs)   bands (ev):

    -4.5776   1.4574   3.7728   5.2886

          k = 0.3750 0.3750 0.3750 (   763 PWs)   bands (ev):

    -4.1412   0.1568   4.9797   4.9797

          k = 0.3750 0.1250 0.3750 (   757 PWs)   bands (ev):

    -4.5776   1.4574   3.7728   5.2886

          k = 0.3750 0.6250 0.3750 (   760 PWs)   bands (ev):

    -3.4286  -0.6355   3.7970   4.5117

          k =-0.6250 0.3750-0.3750 (   760 PWs)   bands (ev):

    -3.4286  -0.6355   3.7970   4.5117

          k =-0.6250 0.8750-0.3750 (   759 PWs)   bands (ev):

    -3.6230   0.2474   2.7759   4.1524

          k =-0.3750 0.6250-0.3750 (   760 PWs)   bands (ev):

    -3.4286  -0.6355   3.7970   4.5117

          k =-0.3750 1.1250-0.3750 (   759 PWs)   bands (ev):

    -2.9300  -0.5433   2.1159   4.1923

          k =-0.3750-0.6250-0.3750 (   760 PWs)   bands (ev):

    -3.4286  -0.6355   3.7970   4.5117

          k =-0.3750-0.1250-0.3750 (   757 PWs)   bands (ev):

    -4.5776   1.4574   3.7728   5.2886

          k =-0.3750 0.1250-0.1250 (   766 PWs)   bands (ev):

    -5.0796   2.8423   4.7554   4.8235

          k =-0.3750 0.6250-0.1250 (   759 PWs)   bands (ev):

    -3.6230   0.2474   2.7759   4.1524

          k =-0.1250 0.3750-0.1250 (   766 PWs)   bands (ev):

    -5.0796   2.8423   4.7554   4.8235

          k =-0.1250 0.8750-0.1250 (   759 PWs)   bands (ev):

    -2.5607  -0.7432   2.6692   3.4068

          k =-0.1250-0.3750-0.1250 (   766 PWs)   bands (ev):

    -5.0796   2.8423   4.7554   4.8235

          k =-0.1250 0.1250-0.1250 (   752 PWs)   bands (ev):

    -5.6107   4.4614   5.7705   5.7705

          k =-0.1250-0.6250 0.1250 (   762 PWs)   bands (ev):

    -4.0419   1.1297   3.4205   3.8763

          k =-0.1250-0.1250 0.1250 (   752 PWs)   bands (ev):

    -5.6107   4.4614   5.7705   5.7705

          k = 0.6250-0.1250-0.1250 (   762 PWs)   bands (ev):

    -4.0419   1.1297   3.4205   3.8763

          k = 0.6250 0.3750-0.1250 (   759 PWs)   bands (ev):

    -3.6230   0.2474   2.7759   4.1524

          k = 0.6250 0.1250 0.1250 (   762 PWs)   bands (ev):

    -4.0419   1.1297   3.4205   3.8763

          k = 0.6250 0.6250 0.1250 (   759 PWs)   bands (ev):

    -2.9300  -0.5433   2.1159   4.1923

          k =-0.8750 0.1250-0.6250 (   754 PWs)   bands (ev):

    -2.3902  -0.8421   2.0545   3.1389

          k =-0.8750 0.6250-0.6250 (   757 PWs)   bands (ev):

    -4.5776   1.4574   3.7728   5.2886

          k =-0.1250 0.6250-0.8750 (   754 PWs)   bands (ev):

    -2.3902  -0.8421   2.0545   3.1389

          k =-0.1250 1.1250-0.8750 (   759 PWs)   bands (ev):

    -2.5607  -0.7432   2.6692   3.4068

          k =-0.1250 0.8750-0.6250 (   754 PWs)   bands (ev):

    -2.3902  -0.8421   2.0545   3.1389

          k =-0.1250 1.3750-0.6250 (   759 PWs)   bands (ev):

    -2.9300  -0.5433   2.1159   4.1923

          k =-0.1250-0.8750-0.6250 (   754 PWs)   bands (ev):

    -2.3902  -0.8421   2.0545   3.1389

          k =-0.1250-0.3750-0.6250 (   759 PWs)   bands (ev):

    -3.6230   0.2474   2.7759   4.1524

          k = 0.8750-0.6250 0.1250 (   754 PWs)   bands (ev):

    -2.3902  -0.8421   2.0545   3.1389

          k = 0.8750-0.1250 0.1250 (   759 PWs)   bands (ev):

    -2.5607  -0.7432   2.6692   3.4068

          k =-0.6250-0.1250-0.3750 (   759 PWs)   bands (ev):

    -3.6230   0.2474   2.7759   4.1524

          k =-0.6250 0.3750-0.3750 (   760 PWs)   bands (ev):

    -3.4286  -0.6355   3.7970   4.5117

          k = 0.1250 0.3750-0.6250 (   759 PWs)   bands (ev):

    -3.6230   0.2474   2.7759   4.1524

          k = 0.1250 0.8750-0.6250 (   754 PWs)   bands (ev):

    -2.3902  -0.8421   2.0545   3.1389

          k = 0.1250 0.6250-0.3750 (   759 PWs)   bands (ev):

    -3.6230   0.2474   2.7759   4.1524

          k = 0.1250 1.1250-0.3750 (   754 PWs)   bands (ev):

    -2.3902  -0.8421   2.0545   3.1389

          k = 0.1250-0.6250-0.3750 (   759 PWs)   bands (ev):

    -3.6230   0.2474   2.7759   4.1524

          k = 0.1250-0.1250-0.3750 (   766 PWs)   bands (ev):

    -5.0796   2.8423   4.7554   4.8235

          k = 0.6250-0.3750-0.1250 (   759 PWs)   bands (ev):

    -3.6230   0.2474   2.7759   4.1524

          k = 0.6250 0.1250-0.1250 (   762 PWs)   bands (ev):

    -4.0419   1.1297   3.4205   3.8763

          k =-0.1250 0.8750 0.1250 (   759 PWs)   bands (ev):

    -2.5607  -0.7432   2.6692   3.4068

          k =-0.1250 1.3750 0.1250 (   762 PWs)   bands (ev):

    -4.0419   1.1297   3.4205   3.8763

          k =-0.8750-0.1250-0.1250 (   759 PWs)   bands (ev):

    -2.5607  -0.7432   2.6692   3.4068

          k =-0.8750 0.3750-0.1250 (   754 PWs)   bands (ev):

    -2.3902  -0.8421   2.0545   3.1389

          k =-0.8750 0.1250 0.1250 (   759 PWs)   bands (ev):

    -2.5607  -0.7432   2.6692   3.4068

          k =-0.8750 0.6250 0.1250 (   754 PWs)   bands (ev):

    -2.3902  -0.8421   2.0545   3.1389

          k =-0.3750-0.3750 0.3750 (   763 PWs)   bands (ev):

    -4.1412   0.1568   4.9797   4.9797

          k =-0.3750 0.1250 0.3750 (   757 PWs)   bands (ev):

    -4.5776   1.4574   3.7728   5.2886

          k =-1.1250 0.3750-0.3750 (   759 PWs)   bands (ev):

    -2.9300  -0.5433   2.1159   4.1923

          k =-1.1250 0.8750-0.3750 (   762 PWs)   bands (ev):

    -4.0419   1.1297   3.4205   3.8763

          k =-0.3750 1.1250-0.3750 (   759 PWs)   bands (ev):

    -2.9300  -0.5433   2.1159   4.1923

          k =-0.3750 1.6250-0.3750 (   763 PWs)   bands (ev):

    -4.1412   0.1568   4.9797   4.9797

          k =-0.3750-1.1250-0.3750 (   759 PWs)   bands (ev):

    -2.9300  -0.5433   2.1159   4.1923

          k =-0.3750-0.6250-0.3750 (   760 PWs)   bands (ev):

    -3.4286  -0.6355   3.7970   4.5117

     highest occupied level (ev):     5.7705

     Writing output data file silicon.10.308.save

                                                                                

     bravais-lattice index     =            2
     lattice parameter (alat)  =      10.3080  a.u.
     unit-cell volume          =     273.8188 (a.u.)^3
     number of atoms/cell      =            2
     number of atomic types    =            1
     kinetic-energy cut-off    =      30.0000  Ry
     charge density cut-off    =     240.0000  Ry
     convergence threshold     =      1.0E-12
     beta                      =       0.7000
     number of iterations used =            4
     Exchange-correlation      = SLA  PW   PBE  PBE ( 1  4  3  4 0 0)


     celldm(1)=   10.30800  celldm(2)=    0.00000  celldm(3)=    0.00000
     celldm(4)=    0.00000  celldm(5)=    0.00000  celldm(6)=    0.00000

     crystal axes: (cart. coord. in units of alat)
               a(1) = ( -0.5000  0.0000  0.5000 )  
               a(2) = (  0.0000  0.5000  0.5000 )  
               a(3) = ( -0.5000  0.5000  0.0000 )  

     reciprocal axes: (cart. coord. in units 2 pi/alat)
               b(1) = ( -1.0000 -1.0000  1.0000 )  
               b(2) = (  1.0000  1.0000  1.0000 )  
               b(3) = ( -1.0000  1.0000 -1.0000 )  


     Atoms inside the unit cell: 

     Cartesian axes

     site n.  atom      mass           positions (alat units)
        1     Si  28.0860   tau(    1) = (    0.00000    0.00000    0.00000  )
        2     Si  28.0860   tau(    2) = (    0.25000    0.25000    0.25000  )

     Computing dynamical matrix for 
                    q = (   0.0000000   0.5000000   0.0000000 )

      8 Sym.Ops. (no q -> -q+G )


     G cutoff =  645.9521  (   4288 G-vectors)     FFT grid: ( 36, 36, 36)
     G cutoff =  322.9761  (   1496 G-vectors)  smooth grid: ( 25, 25, 25)
     number of k points=    80

     PseudoPot. # 1 for Si read from file:
     /home/s1333534/quantum_espresso/qe-6.1/pseudo/si_pbe_v1.uspp.F.UPF.txt
     MD5 check sum: a056efeee980c13900f22a371efd63c1
     Pseudo is Ultrasoft + core correction, Zval =  4.0
     Generated by new atomic code, or converted to UPF format
     Using radial grid of  899 points,  6 beta functions with: 
                l(1) =   0
                l(2) =   0
                l(3) =   1
                l(4) =   1
                l(5) =   2
                l(6) =   2
     Q(r) pseudized with  8 coefficients,  rinner =    0.900   0.900   0.900
                                                       0.900   0.900

     Mode symmetry, C_4v (4mm)  point group:


     Atomic displacements:
     There are   4 irreducible representations

     Representation     1      1 modes -A_1  G_1 D_1  To be done

     Representation     2      1 modes -B_2  G_4 D_2'  To be done

     Representation     3      2 modes -E    G_5 D_5  To be done

     Representation     4      2 modes -E    G_5 D_5  To be done



     Alpha used in Ewald sum =   2.5000
     PHONON       :    37.50s CPU        48.06s WALL



     Representation #  1 mode #   1

     Self-consistent Calculation

      iter #   1 total cpu time :    48.4 secs   av.it.:   6.2
      thresh= 1.000E-02 alpha_mix =  0.700 |ddv_scf|^2 =  5.162E-04

      iter #   2 total cpu time :    48.9 secs   av.it.:   9.2
      thresh= 2.272E-03 alpha_mix =  0.700 |ddv_scf|^2 =  6.829E-03

      iter #   3 total cpu time :    49.2 secs   av.it.:   7.3
      thresh= 8.264E-03 alpha_mix =  0.700 |ddv_scf|^2 =  1.032E-08

      iter #   4 total cpu time :    49.7 secs   av.it.:  10.1
      thresh= 1.016E-05 alpha_mix =  0.700 |ddv_scf|^2 =  1.016E-09

      iter #   5 total cpu time :    50.1 secs   av.it.:   9.6
      thresh= 3.188E-06 alpha_mix =  0.700 |ddv_scf|^2 =  1.154E-10

      iter #   6 total cpu time :    50.6 secs   av.it.:   9.3
      thresh= 1.074E-06 alpha_mix =  0.700 |ddv_scf|^2 =  3.063E-13

     End of self-consistent calculation

     Convergence has been achieved 


     Representation #  2 mode #   2

     Self-consistent Calculation

      iter #   1 total cpu time :    51.0 secs   av.it.:   5.1
      thresh= 1.000E-02 alpha_mix =  0.700 |ddv_scf|^2 =  8.128E-07

      iter #   2 total cpu time :    51.5 secs   av.it.:  10.4
      thresh= 9.016E-05 alpha_mix =  0.700 |ddv_scf|^2 =  2.203E-07

      iter #   3 total cpu time :    52.0 secs   av.it.:   9.9
      thresh= 4.693E-05 alpha_mix =  0.700 |ddv_scf|^2 =  2.238E-09

      iter #   4 total cpu time :    52.5 secs   av.it.:  10.1
      thresh= 4.731E-06 alpha_mix =  0.700 |ddv_scf|^2 =  8.646E-11

      iter #   5 total cpu time :    52.9 secs   av.it.:  10.3
      thresh= 9.298E-07 alpha_mix =  0.700 |ddv_scf|^2 =  5.186E-13

     End of self-consistent calculation

     Convergence has been achieved 


     Representation #  3 modes #   3  4

     Self-consistent Calculation

      iter #   1 total cpu time :    53.7 secs   av.it.:   5.2
      thresh= 1.000E-02 alpha_mix =  0.700 |ddv_scf|^2 =  1.442E-07

      iter #   2 total cpu time :    54.7 secs   av.it.:  11.5
      thresh= 3.797E-05 alpha_mix =  0.700 |ddv_scf|^2 =  1.987E-08

      iter #   3 total cpu time :    55.6 secs   av.it.:  11.1
      thresh= 1.410E-05 alpha_mix =  0.700 |ddv_scf|^2 =  3.347E-10

      iter #   4 total cpu time :    56.4 secs   av.it.:  10.7
      thresh= 1.829E-06 alpha_mix =  0.700 |ddv_scf|^2 =  7.799E-13

     End of self-consistent calculation

     Convergence has been achieved 


     Representation #  4 modes #   5  6

     Self-consistent Calculation

      iter #   1 total cpu time :    57.2 secs   av.it.:   5.3
      thresh= 1.000E-02 alpha_mix =  0.700 |ddv_scf|^2 =  1.322E-07

      iter #   2 total cpu time :    58.1 secs   av.it.:  11.4
      thresh= 3.636E-05 alpha_mix =  0.700 |ddv_scf|^2 =  1.772E-08

      iter #   3 total cpu time :    59.1 secs   av.it.:  11.2
      thresh= 1.331E-05 alpha_mix =  0.700 |ddv_scf|^2 =  3.429E-10

      iter #   4 total cpu time :    59.9 secs   av.it.:  11.0
      thresh= 1.852E-06 alpha_mix =  0.700 |ddv_scf|^2 =  8.403E-13

     End of self-consistent calculation

     Convergence has been achieved 

     Number of q in the star =    6
     List of q in the star:
          1   0.000000000   0.500000000   0.000000000
          2   0.000000000  -0.500000000   0.000000000
          3   0.500000000   0.000000000   0.000000000
          4   0.000000000   0.000000000   0.500000000
          5   0.000000000   0.000000000  -0.500000000
          6  -0.500000000   0.000000000   0.000000000

     Diagonalizing the dynamical matrix

     q = (    0.000000000   0.500000000   0.000000000 ) 

 **************************************************************************
     freq (    1) =       3.753377 [THz] =     125.199173 [cm-1]
     freq (    2) =       3.753377 [THz] =     125.199173 [cm-1]
     freq (    3) =       7.114630 [THz] =     237.318514 [cm-1]
     freq (    4) =      13.952304 [THz] =     465.398781 [cm-1]
     freq (    5) =      13.952304 [THz] =     465.398781 [cm-1]
     freq (    6) =      14.561623 [THz] =     485.723468 [cm-1]
 **************************************************************************

     Mode symmetry, C_4v (4mm)  point group:

     freq (  1 -  2) =        125.2  [cm-1]   --> E    G_5 D_5       
     freq (  3 -  3) =        237.3  [cm-1]   --> A_1  G_1 D_1       
     freq (  4 -  5) =        465.4  [cm-1]   --> E    G_5 D_5       
     freq (  6 -  6) =        485.7  [cm-1]   --> B_2  G_4 D_2'      

     Calculation of q =    0.7500000  -0.2500000   0.7500000

   Info: using nr1, nr2, nr3 values from input

   Info: using nr1, nr2, nr3 values from input

     Parallelization info
     --------------------
     sticks:   dense  smooth     PW     G-vecs:    dense   smooth      PW
     Min         217     108     40                 4287     1495     362
     Max         218     109     41                 4289     1498     366
     Sum         871     433    163                17153     5985    1459



     bravais-lattice index     =            2
     lattice parameter (alat)  =      10.3080  a.u.
     unit-cell volume          =     273.8188 (a.u.)^3
     number of atoms/cell      =            2
     number of atomic types    =            1
     number of electrons       =         8.00
     number of Kohn-Sham states=            4
     kinetic-energy cutoff     =      30.0000  Ry
     charge density cutoff     =     240.0000  Ry
     Exchange-correlation      = SLA  PW   PBE  PBE ( 1  4  3  4 0 0)

     celldm(1)=  10.308000  celldm(2)=   0.000000  celldm(3)=   0.000000
     celldm(4)=   0.000000  celldm(5)=   0.000000  celldm(6)=   0.000000

     crystal axes: (cart. coord. in units of alat)
               a(1) = (  -0.500000   0.000000   0.500000 )  
               a(2) = (   0.000000   0.500000   0.500000 )  
               a(3) = (  -0.500000   0.500000   0.000000 )  

     reciprocal axes: (cart. coord. in units 2 pi/alat)
               b(1) = ( -1.000000 -1.000000  1.000000 )  
               b(2) = (  1.000000  1.000000  1.000000 )  
               b(3) = ( -1.000000  1.000000 -1.000000 )  


     PseudoPot. # 1 for Si read from file:
     /home/s1333534/quantum_espresso/qe-6.1/pseudo/si_pbe_v1.uspp.F.UPF.txt
     MD5 check sum: a056efeee980c13900f22a371efd63c1
     Pseudo is Ultrasoft + core correction, Zval =  4.0
     Generated by new atomic code, or converted to UPF format
     Using radial grid of  899 points,  6 beta functions with: 
                l(1) =   0
                l(2) =   0
                l(3) =   1
                l(4) =   1
                l(5) =   2
                l(6) =   2
     Q(r) pseudized with  8 coefficients,  rinner =    0.900   0.900   0.900
                                                       0.900   0.900

     atomic species   valence    mass     pseudopotential
        Si             4.00    28.08600     Si( 1.00)

     48 Sym. Ops., with inversion, found



   Cartesian axes

     site n.     atom                  positions (alat units)
         1           Si  tau(   1) = (   0.0000000   0.0000000   0.0000000  )
         2           Si  tau(   2) = (   0.2500000   0.2500000   0.2500000  )

     number of k points=   288

     Number of k-points >= 100: set verbosity='high' to print them.

     Dense  grid:    17153 G-vectors     FFT dimensions: (  36,  36,  36)

     Smooth grid:     5985 G-vectors     FFT dimensions: (  25,  25,  25)

     Estimated max dynamical RAM per process >       1.51MB

     Estimated total allocated dynamical RAM >       6.06MB

     The potential is recalculated from file :
     ./_ph0/silicon.10.308.save/charge-density.dat

     Starting wfc are    8 atomic wfcs

     Band Structure Calculation
     Davidson diagonalization with overlap

     ethr =  1.25E-10,  avg # of iterations = 12.1

     total cpu time spent up to now is        6.6 secs

     End of band structure calculation

     Number of k-points >= 100: set verbosity='high' to print the bands.

     highest occupied level (ev):     5.7705

     Writing output data file silicon.10.308.save

                                                                                

     bravais-lattice index     =            2
     lattice parameter (alat)  =      10.3080  a.u.
     unit-cell volume          =     273.8188 (a.u.)^3
     number of atoms/cell      =            2
     number of atomic types    =            1
     kinetic-energy cut-off    =      30.0000  Ry
     charge density cut-off    =     240.0000  Ry
     convergence threshold     =      1.0E-12
     beta                      =       0.7000
     number of iterations used =            4
     Exchange-correlation      = SLA  PW   PBE  PBE ( 1  4  3  4 0 0)


     celldm(1)=   10.30800  celldm(2)=    0.00000  celldm(3)=    0.00000
     celldm(4)=    0.00000  celldm(5)=    0.00000  celldm(6)=    0.00000

     crystal axes: (cart. coord. in units of alat)
               a(1) = ( -0.5000  0.0000  0.5000 )  
               a(2) = (  0.0000  0.5000  0.5000 )  
               a(3) = ( -0.5000  0.5000  0.0000 )  

     reciprocal axes: (cart. coord. in units 2 pi/alat)
               b(1) = ( -1.0000 -1.0000  1.0000 )  
               b(2) = (  1.0000  1.0000  1.0000 )  
               b(3) = ( -1.0000  1.0000 -1.0000 )  


     Atoms inside the unit cell: 

     Cartesian axes

     site n.  atom      mass           positions (alat units)
        1     Si  28.0860   tau(    1) = (    0.00000    0.00000    0.00000  )
        2     Si  28.0860   tau(    2) = (    0.25000    0.25000    0.25000  )

     Computing dynamical matrix for 
                    q = (   0.7500000  -0.2500000   0.7500000 )

      2 Sym.Ops. (no q -> -q+G )


     G cutoff =  645.9521  (   4288 G-vectors)     FFT grid: ( 36, 36, 36)
     G cutoff =  322.9761  (   1497 G-vectors)  smooth grid: ( 25, 25, 25)
     number of k points=   288

     PseudoPot. # 1 for Si read from file:
     /home/s1333534/quantum_espresso/qe-6.1/pseudo/si_pbe_v1.uspp.F.UPF.txt
     MD5 check sum: a056efeee980c13900f22a371efd63c1
     Pseudo is Ultrasoft + core correction, Zval =  4.0
     Generated by new atomic code, or converted to UPF format
     Using radial grid of  899 points,  6 beta functions with: 
                l(1) =   0
                l(2) =   0
                l(3) =   1
                l(4) =   1
                l(5) =   2
                l(6) =   2
     Q(r) pseudized with  8 coefficients,  rinner =    0.900   0.900   0.900
                                                       0.900   0.900

     Mode symmetry, C_s (m)     point group:


     Atomic displacements:
     There are   6 irreducible representations

     Representation     1      1 modes -A'  To be done

     Representation     2      1 modes -A'  To be done

     Representation     3      1 modes -A'  To be done

     Representation     4      1 modes -A'  To be done

     Representation     5      1 modes -A''  To be done

     Representation     6      1 modes -A''  To be done



     Alpha used in Ewald sum =   2.5000
     PHONON       :  0m51.39s CPU     1m 5.10s WALL



     Representation #  1 mode #   1

     Self-consistent Calculation

      iter #   1 total cpu time :    66.0 secs   av.it.:   5.7
      thresh= 1.000E-02 alpha_mix =  0.700 |ddv_scf|^2 =  1.052E-05

      iter #   2 total cpu time :    67.4 secs   av.it.:  10.6
      thresh= 3.244E-04 alpha_mix =  0.700 |ddv_scf|^2 =  2.800E-05

      iter #   3 total cpu time :    68.5 secs   av.it.:   9.2
      thresh= 5.291E-04 alpha_mix =  0.700 |ddv_scf|^2 =  1.880E-07

      iter #   4 total cpu time :    69.8 secs   av.it.:   9.9
      thresh= 4.336E-05 alpha_mix =  0.700 |ddv_scf|^2 =  3.702E-09

      iter #   5 total cpu time :    71.2 secs   av.it.:  10.4
      thresh= 6.085E-06 alpha_mix =  0.700 |ddv_scf|^2 =  6.397E-10

      iter #   6 total cpu time :    72.4 secs   av.it.:  10.4
      thresh= 2.529E-06 alpha_mix =  0.700 |ddv_scf|^2 =  9.490E-12

      iter #   7 total cpu time :    73.7 secs   av.it.:  10.6
      thresh= 3.081E-07 alpha_mix =  0.700 |ddv_scf|^2 =  3.540E-13

     End of self-consistent calculation

     Convergence has been achieved 


     Representation #  2 mode #   2

     Self-consistent Calculation

      iter #   1 total cpu time :    74.8 secs   av.it.:   5.8
      thresh= 1.000E-02 alpha_mix =  0.700 |ddv_scf|^2 =  1.886E-05

      iter #   2 total cpu time :    76.0 secs   av.it.:  10.4
      thresh= 4.343E-04 alpha_mix =  0.700 |ddv_scf|^2 =  5.453E-05

      iter #   3 total cpu time :    77.3 secs   av.it.:   9.0
      thresh= 7.385E-04 alpha_mix =  0.700 |ddv_scf|^2 =  1.260E-07

      iter #   4 total cpu time :    78.5 secs   av.it.:  10.2
      thresh= 3.549E-05 alpha_mix =  0.700 |ddv_scf|^2 =  4.179E-09

      iter #   5 total cpu time :    79.9 secs   av.it.:  10.4
      thresh= 6.465E-06 alpha_mix =  0.700 |ddv_scf|^2 =  8.524E-10

      iter #   6 total cpu time :    81.2 secs   av.it.:  10.3
      thresh= 2.920E-06 alpha_mix =  0.700 |ddv_scf|^2 =  8.778E-12

      iter #   7 total cpu time :    82.5 secs   av.it.:  10.6
      thresh= 2.963E-07 alpha_mix =  0.700 |ddv_scf|^2 =  3.071E-13

     End of self-consistent calculation

     Convergence has been achieved 


     Representation #  3 mode #   3

     Self-consistent Calculation

      iter #   1 total cpu time :    83.6 secs   av.it.:   5.7
      thresh= 1.000E-02 alpha_mix =  0.700 |ddv_scf|^2 =  1.478E-05

      iter #   2 total cpu time :    84.9 secs   av.it.:  10.4
      thresh= 3.845E-04 alpha_mix =  0.700 |ddv_scf|^2 =  4.017E-05

      iter #   3 total cpu time :    86.0 secs   av.it.:   9.0
      thresh= 6.338E-04 alpha_mix =  0.700 |ddv_scf|^2 =  2.201E-07

      iter #   4 total cpu time :    87.3 secs   av.it.:  10.0
      thresh= 4.691E-05 alpha_mix =  0.700 |ddv_scf|^2 =  4.260E-09

      iter #   5 total cpu time :    88.6 secs   av.it.:  10.4
      thresh= 6.527E-06 alpha_mix =  0.700 |ddv_scf|^2 =  8.311E-10

      iter #   6 total cpu time :    90.2 secs   av.it.:  10.3
      thresh= 2.883E-06 alpha_mix =  0.700 |ddv_scf|^2 =  6.128E-12

      iter #   7 total cpu time :    91.4 secs   av.it.:  10.5
      thresh= 2.475E-07 alpha_mix =  0.700 |ddv_scf|^2 =  1.785E-13

     End of self-consistent calculation

     Convergence has been achieved 


     Representation #  4 mode #   4

     Self-consistent Calculation

      iter #   1 total cpu time :    92.4 secs   av.it.:   5.5
      thresh= 1.000E-02 alpha_mix =  0.700 |ddv_scf|^2 =  6.439E-06

      iter #   2 total cpu time :    93.8 secs   av.it.:  10.7
      thresh= 2.537E-04 alpha_mix =  0.700 |ddv_scf|^2 =  1.360E-05

      iter #   3 total cpu time :    95.0 secs   av.it.:   9.5
      thresh= 3.688E-04 alpha_mix =  0.700 |ddv_scf|^2 =  2.946E-07

      iter #   4 total cpu time :    96.2 secs   av.it.:   9.8
      thresh= 5.428E-05 alpha_mix =  0.700 |ddv_scf|^2 =  3.651E-09

      iter #   5 total cpu time :    97.5 secs   av.it.:  10.5
      thresh= 6.043E-06 alpha_mix =  0.700 |ddv_scf|^2 =  6.829E-10

      iter #   6 total cpu time :    98.8 secs   av.it.:  10.4
      thresh= 2.613E-06 alpha_mix =  0.700 |ddv_scf|^2 =  4.017E-12

      iter #   7 total cpu time :   100.3 secs   av.it.:  10.7
      thresh= 2.004E-07 alpha_mix =  0.700 |ddv_scf|^2 =  1.811E-13

     End of self-consistent calculation

     Convergence has been achieved 


     Representation #  5 mode #   5

     Self-consistent Calculation

      iter #   1 total cpu time :   101.3 secs   av.it.:   5.2
      thresh= 1.000E-02 alpha_mix =  0.700 |ddv_scf|^2 =  6.667E-07

      iter #   2 total cpu time :   102.6 secs   av.it.:  10.4
      thresh= 8.165E-05 alpha_mix =  0.700 |ddv_scf|^2 =  1.087E-07

      iter #   3 total cpu time :   103.9 secs   av.it.:  10.1
      thresh= 3.297E-05 alpha_mix =  0.700 |ddv_scf|^2 =  1.450E-09

      iter #   4 total cpu time :   105.1 secs   av.it.:   9.6
      thresh= 3.808E-06 alpha_mix =  0.700 |ddv_scf|^2 =  3.371E-12

      iter #   5 total cpu time :   106.3 secs   av.it.:  10.0
      thresh= 1.836E-07 alpha_mix =  0.700 |ddv_scf|^2 =  9.437E-14

     End of self-consistent calculation

     Convergence has been achieved 


     Representation #  6 mode #   6

     Self-consistent Calculation

      iter #   1 total cpu time :   107.3 secs   av.it.:   5.2
      thresh= 1.000E-02 alpha_mix =  0.700 |ddv_scf|^2 =  6.667E-07

      iter #   2 total cpu time :   108.6 secs   av.it.:  10.4
[...]
        k(   59) = (  -0.8750000   0.1250000  -0.1250000), wk =   0.0625000
        k(   60) = (  -1.3750000  -0.8750000  -0.1250000), wk =   0.0000000
        k(   61) = (  -1.1250000   0.3750000  -0.3750000), wk =   0.0625000
        k(   62) = (  -1.6250000  -0.6250000  -0.3750000), wk =   0.0000000
        k(   63) = (  -0.3750000   0.3750000   1.1250000), wk =   0.0625000
        k(   64) = (  -0.8750000  -0.6250000   1.1250000), wk =   0.0000000

     Dense  grid:    17153 G-vectors     FFT dimensions: (  36,  36,  36)

     Smooth grid:     5985 G-vectors     FFT dimensions: (  25,  25,  25)

     Estimated max dynamical RAM per process >       1.51MB

     Estimated total allocated dynamical RAM >       6.06MB

     The potential is recalculated from file :
     ./_ph0/silicon.10.308.save/charge-density.dat

     Starting wfc are    8 atomic wfcs

     Band Structure Calculation
     Davidson diagonalization with overlap

     ethr =  1.25E-10,  avg # of iterations = 12.1

     total cpu time spent up to now is       10.4 secs

     End of band structure calculation

          k =-0.1250 0.1250 0.1250 (   752 PWs)   bands (ev):

    -5.6107   4.4614   5.7705   5.7705

          k =-0.6250-0.8750 0.1250 (   754 PWs)   bands (ev):

    -2.3902  -0.8421   2.0545   3.1389

          k =-0.3750 0.3750-0.1250 (   757 PWs)   bands (ev):

    -4.5776   1.4574   3.7728   5.2886

          k =-0.8750-0.6250-0.1250 (   754 PWs)   bands (ev):

    -2.3902  -0.8421   2.0545   3.1389

          k = 0.3750-0.3750 0.6250 (   760 PWs)   bands (ev):

    -3.4286  -0.6355   3.7970   4.5117

          k =-0.1250-1.3750 0.6250 (   759 PWs)   bands (ev):

    -2.9300  -0.5433   2.1159   4.1923

          k = 0.1250-0.1250 0.3750 (   766 PWs)   bands (ev):

    -5.0796   2.8423   4.7554   4.8235

          k =-0.3750-1.1250 0.3750 (   759 PWs)   bands (ev):

    -2.9300  -0.5433   2.1159   4.1923

          k =-0.1250 0.6250 0.1250 (   762 PWs)   bands (ev):

    -4.0419   1.1297   3.4205   3.8763

          k =-0.6250-0.3750 0.1250 (   759 PWs)   bands (ev):

    -3.6230   0.2474   2.7759   4.1524

          k = 0.6250-0.1250 0.8750 (   754 PWs)   bands (ev):

    -2.3902  -0.8421   2.0545   3.1389

          k = 0.1250-1.1250 0.8750 (   759 PWs)   bands (ev):

    -2.5607  -0.7432   2.6692   3.4068

          k = 0.3750 0.1250 0.6250 (   759 PWs)   bands (ev):

    -3.6230   0.2474   2.7759   4.1524

          k =-0.1250-0.8750 0.6250 (   754 PWs)   bands (ev):

    -2.3902  -0.8421   2.0545   3.1389

          k =-0.1250-0.8750 0.1250 (   759 PWs)   bands (ev):

    -2.5607  -0.7432   2.6692   3.4068

          k =-0.6250-1.8750 0.1250 (   762 PWs)   bands (ev):

    -4.0419   1.1297   3.4205   3.8763

          k =-0.3750 0.3750 0.3750 (   763 PWs)   bands (ev):

    -4.1412   0.1568   4.9797   4.9797

          k =-0.8750-0.6250 0.3750 (   759 PWs)   bands (ev):

    -3.6230   0.2474   2.7759   4.1524

          k = 0.3750-0.3750 1.1250 (   759 PWs)   bands (ev):

    -2.9300  -0.5433   2.1159   4.1923

          k =-0.1250-1.3750 1.1250 (   754 PWs)   bands (ev):

    -2.3902  -0.8421   2.0545   3.1389

          k = 0.1250-0.3750 0.3750 (   757 PWs)   bands (ev):

    -4.5776   1.4574   3.7728   5.2886

          k =-0.3750-1.3750 0.3750 (   760 PWs)   bands (ev):

    -3.4286  -0.6355   3.7970   4.5117

          k = 0.3750-0.3750-0.1250 (   757 PWs)   bands (ev):

    -4.5776   1.4574   3.7728   5.2886

          k =-0.1250-1.3750-0.1250 (   762 PWs)   bands (ev):

    -4.0419   1.1297   3.4205   3.8763

          k =-0.6250 0.3750-0.3750 (   760 PWs)   bands (ev):

    -3.4286  -0.6355   3.7970   4.5117

          k =-1.1250-0.6250-0.3750 (   759 PWs)   bands (ev):

    -3.6230   0.2474   2.7759   4.1524

          k =-0.3750 0.3750 0.6250 (   760 PWs)   bands (ev):

    -3.4286  -0.6355   3.7970   4.5117

          k =-0.8750-0.6250 0.6250 (   757 PWs)   bands (ev):

    -4.5776   1.4574   3.7728   5.2886

          k =-0.3750 0.1250-0.1250 (   766 PWs)   bands (ev):

    -5.0796   2.8423   4.7554   4.8235

          k =-0.8750-0.8750-0.1250 (   759 PWs)   bands (ev):

    -2.5607  -0.7432   2.6692   3.4068

          k =-0.1250 0.1250 0.3750 (   766 PWs)   bands (ev):

    -5.0796   2.8423   4.7554   4.8235

          k =-0.6250-0.8750 0.3750 (   759 PWs)   bands (ev):

    -3.6230   0.2474   2.7759   4.1524

          k = 0.1250 0.6250-0.1250 (   762 PWs)   bands (ev):

    -4.0419   1.1297   3.4205   3.8763

          k =-0.3750-0.3750-0.1250 (   757 PWs)   bands (ev):

    -4.5776   1.4574   3.7728   5.2886

          k = 0.6250 0.1250-0.1250 (   762 PWs)   bands (ev):

    -4.0419   1.1297   3.4205   3.8763

          k = 0.1250-0.8750-0.1250 (   759 PWs)   bands (ev):

    -2.5607  -0.7432   2.6692   3.4068

          k =-0.8750 0.1250-0.6250 (   754 PWs)   bands (ev):

    -2.3902  -0.8421   2.0545   3.1389

          k =-1.3750-0.8750-0.6250 (   757 PWs)   bands (ev):

    -4.5776   1.4574   3.7728   5.2886

          k = 0.8750-0.1250 0.6250 (   754 PWs)   bands (ev):

    -2.3902  -0.8421   2.0545   3.1389

          k = 0.3750-1.1250 0.6250 (   759 PWs)   bands (ev):

    -3.6230   0.2474   2.7759   4.1524

          k =-0.6250 0.1250 0.8750 (   754 PWs)   bands (ev):

    -2.3902  -0.8421   2.0545   3.1389

          k =-1.1250-0.8750 0.8750 (   752 PWs)   bands (ev):

    -5.6107   4.4614   5.7705   5.7705

          k =-0.1250 0.8750 0.6250 (   754 PWs)   bands (ev):

    -2.3902  -0.8421   2.0545   3.1389

          k =-0.6250-0.1250 0.6250 (   759 PWs)   bands (ev):

    -2.9300  -0.5433   2.1159   4.1923

          k = 0.1250 0.8750-0.6250 (   754 PWs)   bands (ev):

    -2.3902  -0.8421   2.0545   3.1389

          k =-0.3750-0.1250-0.6250 (   759 PWs)   bands (ev):

    -3.6230   0.2474   2.7759   4.1524

          k =-0.6250-0.1250-0.3750 (   759 PWs)   bands (ev):

    -3.6230   0.2474   2.7759   4.1524

          k =-1.1250-1.1250-0.3750 (   762 PWs)   bands (ev):

    -4.0419   1.1297   3.4205   3.8763

          k = 0.6250 0.1250 0.3750 (   759 PWs)   bands (ev):

    -3.6230   0.2474   2.7759   4.1524

          k = 0.1250-0.8750 0.3750 (   754 PWs)   bands (ev):

    -2.3902  -0.8421   2.0545   3.1389

          k =-0.3750-0.1250 0.6250 (   759 PWs)   bands (ev):

    -3.6230   0.2474   2.7759   4.1524

          k =-0.8750-1.1250 0.6250 (   766 PWs)   bands (ev):

    -5.0796   2.8423   4.7554   4.8235

          k = 0.1250 0.6250 0.3750 (   759 PWs)   bands (ev):

    -3.6230   0.2474   2.7759   4.1524

          k =-0.3750-0.3750 0.3750 (   763 PWs)   bands (ev):

    -4.1412   0.1568   4.9797   4.9797

          k =-0.1250 0.6250-0.3750 (   759 PWs)   bands (ev):

    -3.6230   0.2474   2.7759   4.1524

          k =-0.6250-0.3750-0.3750 (   760 PWs)   bands (ev):

    -3.4286  -0.6355   3.7970   4.5117

          k = 0.1250-0.8750-0.1250 (   759 PWs)   bands (ev):

    -2.5607  -0.7432   2.6692   3.4068

          k =-0.3750-1.8750-0.1250 (   766 PWs)   bands (ev):

    -5.0796   2.8423   4.7554   4.8235

          k =-0.8750 0.1250-0.1250 (   759 PWs)   bands (ev):

    -2.5607  -0.7432   2.6692   3.4068

          k =-1.3750-0.8750-0.1250 (   754 PWs)   bands (ev):

    -2.3902  -0.8421   2.0545   3.1389

          k =-1.1250 0.3750-0.3750 (   759 PWs)   bands (ev):

    -2.9300  -0.5433   2.1159   4.1923

          k =-1.6250-0.6250-0.3750 (   760 PWs)   bands (ev):

    -3.4286  -0.6355   3.7970   4.5117

          k =-0.3750 0.3750 1.1250 (   759 PWs)   bands (ev):

    -2.9300  -0.5433   2.1159   4.1923

          k =-0.8750-0.6250 1.1250 (   766 PWs)   bands (ev):

    -5.0796   2.8423   4.7554   4.8235

     highest occupied level (ev):     5.7705

     Writing output data file silicon.10.308.save

                                                                                

     bravais-lattice index     =            2
     lattice parameter (alat)  =      10.3080  a.u.
     unit-cell volume          =     273.8188 (a.u.)^3
     number of atoms/cell      =            2
     number of atomic types    =            1
     kinetic-energy cut-off    =      30.0000  Ry
     charge density cut-off    =     240.0000  Ry
     convergence threshold     =      1.0E-12
     beta                      =       0.7000
     number of iterations used =            4
     Exchange-correlation      = SLA  PW   PBE  PBE ( 1  4  3  4 0 0)


     celldm(1)=   10.30800  celldm(2)=    0.00000  celldm(3)=    0.00000
     celldm(4)=    0.00000  celldm(5)=    0.00000  celldm(6)=    0.00000

     crystal axes: (cart. coord. in units of alat)
               a(1) = ( -0.5000  0.0000  0.5000 )  
               a(2) = (  0.0000  0.5000  0.5000 )  
               a(3) = ( -0.5000  0.5000  0.0000 )  

     reciprocal axes: (cart. coord. in units 2 pi/alat)
               b(1) = ( -1.0000 -1.0000  1.0000 )  
               b(2) = (  1.0000  1.0000  1.0000 )  
               b(3) = ( -1.0000  1.0000 -1.0000 )  


     Atoms inside the unit cell: 

     Cartesian axes

     site n.  atom      mass           positions (alat units)
        1     Si  28.0860   tau(    1) = (    0.00000    0.00000    0.00000  )
        2     Si  28.0860   tau(    2) = (    0.25000    0.25000    0.25000  )

     Computing dynamical matrix for 
                    q = (  -0.5000000  -1.0000000   0.0000000 )

      8 Sym.Ops. (no q -> -q+G )


     G cutoff =  645.9521  (   4288 G-vectors)     FFT grid: ( 36, 36, 36)
     G cutoff =  322.9761  (   1497 G-vectors)  smooth grid: ( 25, 25, 25)
     number of k points=    64

     PseudoPot. # 1 for Si read from file:
     /home/s1333534/quantum_espresso/qe-6.1/pseudo/si_pbe_v1.uspp.F.UPF.txt
     MD5 check sum: a056efeee980c13900f22a371efd63c1
     Pseudo is Ultrasoft + core correction, Zval =  4.0
     Generated by new atomic code, or converted to UPF format
     Using radial grid of  899 points,  6 beta functions with: 
                l(1) =   0
                l(2) =   0
                l(3) =   1
                l(4) =   1
                l(5) =   2
                l(6) =   2
     Q(r) pseudized with  8 coefficients,  rinner =    0.900   0.900   0.900
                                                       0.900   0.900


     Atomic displacements:
     There are   3 irreducible representations

     Representation     1      2 modes -  To be done

     Representation     2      2 modes -  To be done

     Representation     3      2 modes -  To be done



     Alpha used in Ewald sum =   2.5000
     PHONON       :  2m 2.81s CPU     2m31.24s WALL



     Representation #  1 modes #   1  2

     Self-consistent Calculation

      iter #   1 total cpu time :   152.0 secs   av.it.:   5.7
      thresh= 1.000E-02 alpha_mix =  0.700 |ddv_scf|^2 =  1.089E-06

      iter #   2 total cpu time :   152.9 secs   av.it.:  11.6
      thresh= 1.044E-04 alpha_mix =  0.700 |ddv_scf|^2 =  6.174E-07

      iter #   3 total cpu time :   153.6 secs   av.it.:  11.1
      thresh= 7.858E-05 alpha_mix =  0.700 |ddv_scf|^2 =  5.907E-10

      iter #   4 total cpu time :   154.5 secs   av.it.:  11.0
      thresh= 2.430E-06 alpha_mix =  0.700 |ddv_scf|^2 =  2.620E-12

      iter #   5 total cpu time :   155.2 secs   av.it.:  11.1
      thresh= 1.619E-07 alpha_mix =  0.700 |ddv_scf|^2 =  6.912E-14

     End of self-consistent calculation

     Convergence has been achieved 


     Representation #  2 modes #   3  4

     Self-consistent Calculation

      iter #   1 total cpu time :   155.8 secs   av.it.:   5.6
      thresh= 1.000E-02 alpha_mix =  0.700 |ddv_scf|^2 =  1.686E-06

      iter #   2 total cpu time :   156.7 secs   av.it.:  11.6
      thresh= 1.298E-04 alpha_mix =  0.700 |ddv_scf|^2 =  2.270E-06

      iter #   3 total cpu time :   157.5 secs   av.it.:  10.9
      thresh= 1.507E-04 alpha_mix =  0.700 |ddv_scf|^2 =  6.972E-10

      iter #   4 total cpu time :   158.3 secs   av.it.:  11.0
      thresh= 2.640E-06 alpha_mix =  0.700 |ddv_scf|^2 =  1.041E-11

      iter #   5 total cpu time :   159.0 secs   av.it.:  11.1
      thresh= 3.226E-07 alpha_mix =  0.700 |ddv_scf|^2 =  1.760E-13

     End of self-consistent calculation

     Convergence has been achieved 


     Representation #  3 modes #   5  6

     Self-consistent Calculation

      iter #   1 total cpu time :   159.7 secs   av.it.:   5.3
      thresh= 1.000E-02 alpha_mix =  0.700 |ddv_scf|^2 =  4.425E-07

      iter #   2 total cpu time :   160.5 secs   av.it.:  11.6
      thresh= 6.652E-05 alpha_mix =  0.700 |ddv_scf|^2 =  2.587E-07

      iter #   3 total cpu time :   161.3 secs   av.it.:  11.1
      thresh= 5.086E-05 alpha_mix =  0.700 |ddv_scf|^2 =  5.140E-10

      iter #   4 total cpu time :   162.0 secs   av.it.:  11.0
      thresh= 2.267E-06 alpha_mix =  0.700 |ddv_scf|^2 =  5.970E-12

      iter #   5 total cpu time :   162.8 secs   av.it.:  11.1
      thresh= 2.443E-07 alpha_mix =  0.700 |ddv_scf|^2 =  8.344E-14

     End of self-consistent calculation

     Convergence has been achieved 

     Number of q in the star =    6
     List of q in the star:
          1  -0.500000000  -1.000000000   0.000000000
          2   0.000000000   1.000000000   0.500000000
          3   0.000000000  -1.000000000  -0.500000000
          4   0.500000000   1.000000000   0.000000000
          5  -1.000000000  -0.500000000   0.000000000
          6   0.000000000  -0.500000000  -1.000000000

     Diagonalizing the dynamical matrix

     q = (   -0.500000000  -1.000000000   0.000000000 ) 

 **************************************************************************
     freq (    1) =       5.999371 [THz] =     200.117464 [cm-1]
     freq (    2) =       5.999371 [THz] =     200.117464 [cm-1]
     freq (    3) =      10.414544 [THz] =     347.391808 [cm-1]
     freq (    4) =      10.414544 [THz] =     347.391808 [cm-1]
     freq (    5) =      13.706125 [THz] =     457.187132 [cm-1]
     freq (    6) =      13.706125 [THz] =     457.187132 [cm-1]
 **************************************************************************

     init_run     :      1.24s CPU      1.28s WALL (       7 calls)
     electrons    :      7.19s CPU      7.75s WALL (       7 calls)

     Called by init_run:
     wfcinit      :      0.00s CPU      0.01s WALL (       7 calls)
     potinit      :      0.07s CPU      0.09s WALL (       7 calls)

     Called by electrons:
     c_bands      :      7.19s CPU      7.75s WALL (       7 calls)
     v_of_rho     :      0.06s CPU      0.07s WALL (       8 calls)
     newd         :      0.12s CPU      0.12s WALL (       8 calls)

     Called by c_bands:
     init_us_2    :      1.63s CPU      1.56s WALL (   16040 calls)
     cegterg      :      6.00s CPU      6.46s WALL (     796 calls)

     Called by sum_band:

     Called by *egterg:
     h_psi        :     68.82s CPU     73.72s WALL (  154453 calls)
     s_psi        :      5.76s CPU      6.98s WALL (  311308 calls)
     g_psi        :      0.05s CPU      0.07s WALL (    9666 calls)
     cdiaghg      :      0.57s CPU      0.56s WALL (   10462 calls)

     Called by h_psi:
     h_psi:pot    :     68.40s CPU     73.21s WALL (  154453 calls)
     h_psi:calbec :      3.44s CPU      3.99s WALL (  154453 calls)
     vloc_psi     :     60.31s CPU     65.07s WALL (  154453 calls)
     add_vuspsi   :      4.30s CPU      3.68s WALL (  154453 calls)

     General routines
     calbec       :      8.03s CPU      8.47s WALL (  345760 calls)
     fft          :      1.34s CPU      1.41s WALL (    5265 calls)
     ffts         :      0.21s CPU      0.23s WALL (    3320 calls)
     fftw         :     63.65s CPU     67.78s WALL ( 1383648 calls)
     interpolate  :      0.21s CPU      0.23s WALL (     572 calls)
     davcio       :      0.32s CPU      0.97s WALL (   69876 calls)

     Parallel routines
     fft_scatter  :     16.18s CPU     19.52s WALL ( 1392233 calls)

     PHONON       :  2m12.06s CPU     2m43.43s WALL

     INITIALIZATION: 
     phq_setup    :      0.22s CPU      0.44s WALL (       8 calls)
     phq_init     :      6.76s CPU      7.07s WALL (       8 calls)

     phq_init     :      6.76s CPU      7.07s WALL (       8 calls)
     set_drhoc    :      1.82s CPU      1.82s WALL (      24 calls)
     init_vloc    :      0.03s CPU      0.03s WALL (       8 calls)
     init_us_1    :      0.97s CPU      0.98s WALL (       8 calls)
     newd         :      0.12s CPU      0.12s WALL (       8 calls)
     dvanqq       :      1.18s CPU      1.18s WALL (       8 calls)
     drho         :      2.60s CPU      2.68s WALL (       8 calls)

     DYNAMICAL MATRIX:
     dynmat0      :      1.70s CPU      1.85s WALL (       8 calls)
     phqscf       :    111.75s CPU    137.32s WALL (       8 calls)
     dynmatrix    :      0.01s CPU      0.22s WALL (       8 calls)

     phqscf       :    111.75s CPU    137.32s WALL (       8 calls)
     solve_linter :    110.90s CPU    134.90s WALL (      32 calls)
     drhodv       :      0.57s CPU      0.59s WALL (      32 calls)

     dynmat0      :      1.70s CPU      1.85s WALL (       8 calls)
     dynmat_us    :      0.38s CPU      0.38s WALL (       8 calls)
     d2ionq       :      0.04s CPU      0.04s WALL (       8 calls)
     dynmatcc     :      1.28s CPU      1.28s WALL (       8 calls)

     dynmat_us    :      0.38s CPU      0.38s WALL (       8 calls)
     addusdynmat  :      0.00s CPU      0.00s WALL (       8 calls)

     phqscf       :    111.75s CPU    137.32s WALL (       8 calls)
     solve_linter :    110.90s CPU    134.90s WALL (      32 calls)

     solve_linter :    110.90s CPU    134.90s WALL (      32 calls)
     dvqpsi_us    :      2.14s CPU      2.28s WALL (    2508 calls)
     ortho        :      1.22s CPU      1.32s WALL (   13630 calls)
     cgsolve      :     76.32s CPU     82.98s WALL (   13630 calls)
     incdrhoscf   :      6.32s CPU      6.90s WALL (   13630 calls)
     addusddens   :      7.07s CPU      7.11s WALL (     202 calls)
     vpsifft      :      4.52s CPU      4.91s WALL (   11002 calls)
     dv_of_drho   :      1.22s CPU      1.25s WALL (     256 calls)
     mix_pot      :      0.34s CPU      8.42s WALL (     175 calls)
     psymdvscf    :      4.08s CPU      4.14s WALL (     170 calls)
     newdq        :      7.63s CPU      7.68s WALL (     175 calls)
     adddvscf     :      0.44s CPU      0.42s WALL (   11122 calls)
     drhodvus     :      0.01s CPU      0.02s WALL (      32 calls)

     dvqpsi_us    :      2.14s CPU      2.28s WALL (    2508 calls)
     dvqpsi_us_on :      0.91s CPU      0.94s WALL (    2508 calls)

     cgsolve      :     76.32s CPU     82.98s WALL (   13630 calls)
     ch_psi       :     75.23s CPU     81.24s WALL (  143195 calls)

     ch_psi       :     75.23s CPU     81.24s WALL (  143195 calls)
     h_psi        :     68.82s CPU     73.72s WALL (  154453 calls)
     last         :      8.97s CPU      9.12s WALL (  143195 calls)

     h_psi        :     68.82s CPU     73.72s WALL (  154453 calls)
     add_vuspsi   :      4.30s CPU      3.68s WALL (  154453 calls)

     incdrhoscf   :      6.32s CPU      6.90s WALL (   13630 calls)
     addusdbec    :      0.48s CPU      0.52s WALL (   16078 calls)

     drhodvus     :      0.01s CPU      0.02s WALL (      32 calls)

      General routines
     calbec       :      8.03s CPU      8.47s WALL (  345760 calls)
     fft          :      1.34s CPU      1.41s WALL (    5265 calls)
     ffts         :      0.21s CPU      0.23s WALL (    3320 calls)
     fftw         :     63.65s CPU     67.78s WALL ( 1383648 calls)
     davcio       :      0.32s CPU      0.97s WALL (   69876 calls)
     write_rec    :      0.25s CPU      9.65s WALL (     207 calls)


     PHONON       :  2m12.06s CPU     2m43.43s WALL


   This run was terminated on:  15:52:39  10Nov2017            

=------------------------------------------------------------------------------=
   JOB DONE.
=------------------------------------------------------------------------------=
