
     Program PHONON v.6.1 (svn rev. 13369) starts on  9Nov2017 at 12:36:18 

     This program is part of the open-source Quantum ESPRESSO suite
     for quantum simulation of materials; please cite
         "P. Giannozzi et al., J. Phys.:Condens. Matter 21 395502 (2009);
          URL http://www.quantum-espresso.org", 
     in publications or presentations arising from this work. More details at
     http://www.quantum-espresso.org/quote

     Parallel version (MPI), running on     4 processors
     R & G space division:  proc/nbgrp/npool/nimage =       4

     Reading data from directory:
     ./silicon.10.340.save

   Info: using nr1, nr2, nr3 values from input

   Info: using nr1, nr2, nr3 values from input

     IMPORTANT: XC functional enforced from input :
     Exchange-correlation      = SLA  PW   PBE  PBE ( 1  4  3  4 0 0)
     Any further DFT definition will be discarded
     Please, verify this is what you really want


     Parallelization info
     --------------------
     sticks:   dense  smooth     PW     G-vecs:    dense   smooth      PW
     Min          63      63     22                  684      684     140
     Max          64      64     23                  688      688     141
     Sum         253     253     91                 2741     2741     561


     Check: negative/imaginary core charge=   -0.000005    0.000000


     Dynamical matrices for ( 4, 4, 4)  uniform grid of q-points
     (   8q-points):
       N         xq(1)         xq(2)         xq(3) 
       1   0.000000000   0.000000000   0.000000000
       2  -0.250000000   0.250000000  -0.250000000
       3   0.500000000  -0.500000000   0.500000000
       4   0.000000000   0.500000000   0.000000000
       5   0.750000000  -0.250000000   0.750000000
       6   0.500000000   0.000000000   0.500000000
       7   0.000000000  -1.000000000   0.000000000
       8  -0.500000000  -1.000000000   0.000000000

     Calculation of q =    0.0000000   0.0000000   0.0000000

                                                                                

     bravais-lattice index     =            2
     lattice parameter (alat)  =      10.3400  a.u.
     unit-cell volume          =     276.3768 (a.u.)^3
     number of atoms/cell      =            2
     number of atomic types    =            1
     kinetic-energy cut-off    =      18.0000  Ry
     charge density cut-off    =      72.0000  Ry
     convergence threshold     =      1.0E-12
     beta                      =       0.7000
     number of iterations used =            4
     Exchange-correlation      = SLA  PW   PBE  PBE ( 1  4  3  4 0 0)


     celldm(1)=   10.34000  celldm(2)=    0.00000  celldm(3)=    0.00000
     celldm(4)=    0.00000  celldm(5)=    0.00000  celldm(6)=    0.00000

     crystal axes: (cart. coord. in units of alat)
               a(1) = ( -0.5000  0.0000  0.5000 )  
               a(2) = (  0.0000  0.5000  0.5000 )  
               a(3) = ( -0.5000  0.5000  0.0000 )  

     reciprocal axes: (cart. coord. in units 2 pi/alat)
               b(1) = ( -1.0000 -1.0000  1.0000 )  
               b(2) = (  1.0000  1.0000  1.0000 )  
               b(3) = ( -1.0000  1.0000 -1.0000 )  


     Atoms inside the unit cell: 

     Cartesian axes

     site n.  atom      mass           positions (alat units)
        1     Si  28.0860   tau(    1) = (    0.00000    0.00000    0.00000  )
        2     Si  28.0860   tau(    2) = (    0.25000    0.25000    0.25000  )

     Computing dynamical matrix for 
                    q = (   0.0000000   0.0000000   0.0000000 )

     49 Sym.Ops. (with q -> -q+G )


     G cutoff =  194.9907  (    685 G-vectors)     FFT grid: ( 20, 20, 20)
     number of k points=    10

     PseudoPot. # 1 for Si read from file:
     /home/max/quantum_espresso/qe-6.1/pseudo/si_pbe_v1.uspp.F.UPF.txt
     MD5 check sum: a056efeee980c13900f22a371efd63c1
     Pseudo is Ultrasoft + core correction, Zval =  4.0
     Generated by new atomic code, or converted to UPF format
     Using radial grid of  899 points,  6 beta functions with: 
                l(1) =   0
                l(2) =   0
                l(3) =   1
                l(4) =   1
                l(5) =   2
                l(6) =   2
     Q(r) pseudized with  8 coefficients,  rinner =    0.900   0.900   0.900
                                                       0.900   0.900

     Mode symmetry, O_h (m-3m)  point group:


     Electric field:
     Dielectric constant
     Born effective charges in two ways 


     Atomic displacements:
     There are   2 irreducible representations

     Representation     1      3 modes -T_2g G_25' G_5+  To be done

     Representation     2      3 modes -T_1u G_15  G_4-  To be done



     Alpha used in Ewald sum =   0.7000
     PHONON       :     0.46s CPU         0.51s WALL


     Electric Fields Calculation

      iter #   1 total cpu time :     1.2 secs   av.it.:   5.6
      thresh= 1.000E-02 alpha_mix =  0.700 |ddv_scf|^2 =  9.060E-07

      iter #   2 total cpu time :     1.5 secs   av.it.:   9.9
      thresh= 9.518E-05 alpha_mix =  0.700 |ddv_scf|^2 =  5.591E-08

      iter #   3 total cpu time :     1.7 secs   av.it.:   9.8
      thresh= 2.364E-05 alpha_mix =  0.700 |ddv_scf|^2 =  4.244E-09

      iter #   4 total cpu time :     1.9 secs   av.it.:   9.0
      thresh= 6.515E-06 alpha_mix =  0.700 |ddv_scf|^2 =  2.517E-11

      iter #   5 total cpu time :     2.1 secs   av.it.:   9.2
      thresh= 5.017E-07 alpha_mix =  0.700 |ddv_scf|^2 =  1.336E-14

     End of electric fields calculation

          Dielectric constant in cartesian axis 

          (      13.884243050      -0.000000000      -0.000000000 )
          (      -0.000000000      13.884243050       0.000000000 )
          (      -0.000000000       0.000000000      13.884243050 )

          Effective charges (d Force / dE) in cartesian axis

           atom      1   Si 
      Ex  (       -0.03102       -0.00000        0.00000 )
      Ey  (       -0.00000       -0.03102        0.00000 )
      Ez  (        0.00000        0.00000       -0.03102 )
           atom      2   Si 
      Ex  (       -0.03102        0.00000        0.00000 )
      Ey  (        0.00000       -0.03102        0.00000 )
      Ez  (        0.00000        0.00000       -0.03102 )


     Representation #  1 modes #   1  2  3

     Self-consistent Calculation

      iter #   1 total cpu time :     2.9 secs   av.it.:   4.9
      thresh= 1.000E-02 alpha_mix =  0.700 |ddv_scf|^2 =  2.262E-07

      iter #   2 total cpu time :     3.1 secs   av.it.:   9.8
      thresh= 4.756E-05 alpha_mix =  0.700 |ddv_scf|^2 =  1.405E-08

      iter #   3 total cpu time :     3.3 secs   av.it.:   9.3
      thresh= 1.185E-05 alpha_mix =  0.700 |ddv_scf|^2 =  8.634E-10

      iter #   4 total cpu time :     3.5 secs   av.it.:   9.0
      thresh= 2.938E-06 alpha_mix =  0.700 |ddv_scf|^2 =  1.898E-12

      iter #   5 total cpu time :     3.7 secs   av.it.:   9.4
      thresh= 1.378E-07 alpha_mix =  0.700 |ddv_scf|^2 =  1.234E-14

     End of self-consistent calculation

     Convergence has been achieved 


     Representation #  2 modes #   4  5  6

     Self-consistent Calculation

      iter #   1 total cpu time :     4.0 secs   av.it.:   5.0
      thresh= 1.000E-02 alpha_mix =  0.700 |ddv_scf|^2 =  1.713E-07

      iter #   2 total cpu time :     4.2 secs   av.it.:   9.6
      thresh= 4.139E-05 alpha_mix =  0.700 |ddv_scf|^2 =  1.339E-08

      iter #   3 total cpu time :     4.4 secs   av.it.:   9.3
      thresh= 1.157E-05 alpha_mix =  0.700 |ddv_scf|^2 =  8.525E-10

      iter #   4 total cpu time :     5.0 secs   av.it.:   9.5
      thresh= 2.920E-06 alpha_mix =  0.700 |ddv_scf|^2 =  5.105E-12

      iter #   5 total cpu time :     5.2 secs   av.it.:   9.0
      thresh= 2.259E-07 alpha_mix =  0.700 |ddv_scf|^2 =  4.454E-15

     End of self-consistent calculation

     Convergence has been achieved 

     Number of q in the star =    1
     List of q in the star:
          1   0.000000000   0.000000000   0.000000000

          Dielectric constant in cartesian axis 

          (      13.884243050      -0.000000000      -0.000000000 )
          (      -0.000000000      13.884243050       0.000000000 )
          (      -0.000000000       0.000000000      13.884243050 )

          Effective charges (d Force / dE) in cartesian axis

           atom      1   Si 
      Ex  (       -0.03102       -0.00000        0.00000 )
      Ey  (       -0.00000       -0.03102        0.00000 )
      Ez  (        0.00000        0.00000       -0.03102 )
           atom      2   Si 
      Ex  (       -0.03102        0.00000        0.00000 )
      Ey  (        0.00000       -0.03102        0.00000 )
      Ez  (        0.00000        0.00000       -0.03102 )

          Effective charges (d P / du) in cartesian axis 

           atom      1   Si 
      Px  (       -0.07274       -0.00000       -0.00000 )
      Py  (       -0.00000       -0.07274        0.00000 )
      Pz  (       -0.00000        0.00000       -0.07274 )
           atom      2   Si 
      Px  (       -0.07274        0.00000       -0.00000 )
      Py  (        0.00000       -0.07274        0.00000 )
      Pz  (       -0.00000        0.00000       -0.07274 )

     Diagonalizing the dynamical matrix

     q = (    0.000000000   0.000000000   0.000000000 ) 

 **************************************************************************
     freq (    1) =       1.950916 [THz] =      65.075546 [cm-1]
     freq (    2) =       1.950916 [THz] =      65.075546 [cm-1]
     freq (    3) =       1.950916 [THz] =      65.075546 [cm-1]
     freq (    4) =      14.981354 [THz] =     499.724180 [cm-1]
     freq (    5) =      14.981354 [THz] =     499.724180 [cm-1]
     freq (    6) =      14.981354 [THz] =     499.724180 [cm-1]
 **************************************************************************

     Mode symmetry, O_h (m-3m)  point group:

     freq (  1 -  3) =         65.1  [cm-1]   --> T_1u G_15  G_4- I  
     freq (  4 -  6) =        499.7  [cm-1]   --> T_2g G_25' G_5+ R  

     Calculation of q =   -0.2500000   0.2500000  -0.2500000

   Info: using nr1, nr2, nr3 values from input

   Info: using nr1, nr2, nr3 values from input

     Parallelization info
     --------------------
     sticks:   dense  smooth     PW     G-vecs:    dense   smooth      PW
     Min          63      63     24                  684      684     161
     Max          64      64     25                  688      688     162
     Sum         253     253     97                 2741     2741     645



     bravais-lattice index     =            2
     lattice parameter (alat)  =      10.3400  a.u.
     unit-cell volume          =     276.3768 (a.u.)^3
     number of atoms/cell      =            2
     number of atomic types    =            1
     number of electrons       =         8.00
     number of Kohn-Sham states=            4
     kinetic-energy cutoff     =      18.0000  Ry
     charge density cutoff     =      72.0000  Ry
     Exchange-correlation      = SLA  PW   PBE  PBE ( 1  4  3  4 0 0)

     celldm(1)=  10.340000  celldm(2)=   0.000000  celldm(3)=   0.000000
     celldm(4)=   0.000000  celldm(5)=   0.000000  celldm(6)=   0.000000

     crystal axes: (cart. coord. in units of alat)
               a(1) = (  -0.500000   0.000000   0.500000 )  
               a(2) = (   0.000000   0.500000   0.500000 )  
               a(3) = (  -0.500000   0.500000   0.000000 )  

     reciprocal axes: (cart. coord. in units 2 pi/alat)
               b(1) = ( -1.000000 -1.000000  1.000000 )  
               b(2) = (  1.000000  1.000000  1.000000 )  
               b(3) = ( -1.000000  1.000000 -1.000000 )  


     PseudoPot. # 1 for Si read from file:
     /home/max/quantum_espresso/qe-6.1/pseudo/si_pbe_v1.uspp.F.UPF.txt
     MD5 check sum: a056efeee980c13900f22a371efd63c1
     Pseudo is Ultrasoft + core correction, Zval =  4.0
     Generated by new atomic code, or converted to UPF format
     Using radial grid of  899 points,  6 beta functions with: 
                l(1) =   0
                l(2) =   0
                l(3) =   1
                l(4) =   1
                l(5) =   2
                l(6) =   2
     Q(r) pseudized with  8 coefficients,  rinner =    0.900   0.900   0.900
                                                       0.900   0.900

     atomic species   valence    mass     pseudopotential
        Si             4.00    28.08600     Si( 1.00)

     48 Sym. Ops., with inversion, found



   Cartesian axes

     site n.     atom                  positions (alat units)
         1           Si  tau(   1) = (   0.0000000   0.0000000   0.0000000  )
         2           Si  tau(   2) = (   0.2500000   0.2500000   0.2500000  )

     number of k points=   120

     Number of k-points >= 100: set verbosity='high' to print them.

     Dense  grid:     2741 G-vectors     FFT dimensions: (  20,  20,  20)

     Estimated max dynamical RAM per process >       0.33MB

     Estimated total allocated dynamical RAM >       1.31MB

     Check: negative/imaginary core charge=   -0.000005    0.000000

     The potential is recalculated from file :
     ./_ph0/silicon.10.340.save/charge-density.dat

     Starting wfc are    8 atomic wfcs

     Band Structure Calculation
     Davidson diagonalization with overlap

     ethr =  1.25E-10,  avg # of iterations = 11.7

     total cpu time spent up to now is        0.9 secs

     End of band structure calculation

     Number of k-points >= 100: set verbosity='high' to print the bands.

     highest occupied level (ev):     5.6814

     Writing output data file silicon.10.340.save

                                                                                

     bravais-lattice index     =            2
     lattice parameter (alat)  =      10.3400  a.u.
     unit-cell volume          =     276.3768 (a.u.)^3
     number of atoms/cell      =            2
     number of atomic types    =            1
     kinetic-energy cut-off    =      18.0000  Ry
     charge density cut-off    =      72.0000  Ry
     convergence threshold     =      1.0E-12
     beta                      =       0.7000
     number of iterations used =            4
     Exchange-correlation      = SLA  PW   PBE  PBE ( 1  4  3  4 0 0)


     celldm(1)=   10.34000  celldm(2)=    0.00000  celldm(3)=    0.00000
     celldm(4)=    0.00000  celldm(5)=    0.00000  celldm(6)=    0.00000

     crystal axes: (cart. coord. in units of alat)
               a(1) = ( -0.5000  0.0000  0.5000 )  
               a(2) = (  0.0000  0.5000  0.5000 )  
               a(3) = ( -0.5000  0.5000  0.0000 )  

     reciprocal axes: (cart. coord. in units 2 pi/alat)
               b(1) = ( -1.0000 -1.0000  1.0000 )  
               b(2) = (  1.0000  1.0000  1.0000 )  
               b(3) = ( -1.0000  1.0000 -1.0000 )  


     Atoms inside the unit cell: 

     Cartesian axes

     site n.  atom      mass           positions (alat units)
        1     Si  28.0860   tau(    1) = (    0.00000    0.00000    0.00000  )
        2     Si  28.0860   tau(    2) = (    0.25000    0.25000    0.25000  )

     Computing dynamical matrix for 
                    q = (  -0.2500000   0.2500000  -0.2500000 )

      6 Sym.Ops. (no q -> -q+G )


     G cutoff =  194.9907  (    685 G-vectors)     FFT grid: ( 20, 20, 20)
     number of k points=   120

     PseudoPot. # 1 for Si read from file:
     /home/max/quantum_espresso/qe-6.1/pseudo/si_pbe_v1.uspp.F.UPF.txt
     MD5 check sum: a056efeee980c13900f22a371efd63c1
     Pseudo is Ultrasoft + core correction, Zval =  4.0
     Generated by new atomic code, or converted to UPF format
     Using radial grid of  899 points,  6 beta functions with: 
                l(1) =   0
                l(2) =   0
                l(3) =   1
                l(4) =   1
                l(5) =   2
                l(6) =   2
     Q(r) pseudized with  8 coefficients,  rinner =    0.900   0.900   0.900
                                                       0.900   0.900

     Mode symmetry, C_3v (3m)   point group:


     Atomic displacements:
     There are   4 irreducible representations

     Representation     1      1 modes -A_1  L_1  To be done

     Representation     2      1 modes -A_1  L_1  To be done

     Representation     3      2 modes -E    L_3  To be done

     Representation     4      2 modes -E    L_3  To be done



     Alpha used in Ewald sum =   0.7000
     PHONON       :     5.85s CPU         7.01s WALL



     Representation #  1 mode #   1

     Self-consistent Calculation

      iter #   1 total cpu time :     7.3 secs   av.it.:   5.5
      thresh= 1.000E-02 alpha_mix =  0.700 |ddv_scf|^2 =  2.466E-03

      iter #   2 total cpu time :     7.6 secs   av.it.:   7.5
      thresh= 4.966E-03 alpha_mix =  0.700 |ddv_scf|^2 =  3.724E-02

      iter #   3 total cpu time :     7.8 secs   av.it.:   6.3
      thresh= 1.000E-02 alpha_mix =  0.700 |ddv_scf|^2 =  1.715E-06

      iter #   4 total cpu time :     8.1 secs   av.it.:   8.2
      thresh= 1.310E-04 alpha_mix =  0.700 |ddv_scf|^2 =  1.153E-07

      iter #   5 total cpu time :     8.6 secs   av.it.:   8.1
      thresh= 3.395E-05 alpha_mix =  0.700 |ddv_scf|^2 =  4.374E-09

      iter #   6 total cpu time :     9.1 secs   av.it.:   8.0
      thresh= 6.614E-06 alpha_mix =  0.700 |ddv_scf|^2 =  4.400E-09

      iter #   7 total cpu time :     9.4 secs   av.it.:   6.1
      thresh= 6.634E-06 alpha_mix =  0.700 |ddv_scf|^2 =  4.592E-10

      iter #   8 total cpu time :     9.7 secs   av.it.:   7.3
      thresh= 2.143E-06 alpha_mix =  0.700 |ddv_scf|^2 =  3.708E-12

      iter #   9 total cpu time :    10.0 secs   av.it.:   7.2
      thresh= 1.926E-07 alpha_mix =  0.700 |ddv_scf|^2 =  1.314E-13

     End of self-consistent calculation

     Convergence has been achieved 


     Representation #  2 mode #   2

     Self-consistent Calculation

      iter #   1 total cpu time :    10.2 secs   av.it.:   5.5
      thresh= 1.000E-02 alpha_mix =  0.700 |ddv_scf|^2 =  2.466E-03

      iter #   2 total cpu time :    10.9 secs   av.it.:   7.5
      thresh= 4.966E-03 alpha_mix =  0.700 |ddv_scf|^2 =  3.724E-02

      iter #   3 total cpu time :    11.1 secs   av.it.:   6.3
      thresh= 1.000E-02 alpha_mix =  0.700 |ddv_scf|^2 =  1.715E-06

      iter #   4 total cpu time :    11.4 secs   av.it.:   8.2
      thresh= 1.310E-04 alpha_mix =  0.700 |ddv_scf|^2 =  1.153E-07

      iter #   5 total cpu time :    11.7 secs   av.it.:   8.1
      thresh= 3.395E-05 alpha_mix =  0.700 |ddv_scf|^2 =  4.374E-09

      iter #   6 total cpu time :    12.0 secs   av.it.:   8.0
      thresh= 6.614E-06 alpha_mix =  0.700 |ddv_scf|^2 =  4.400E-09

      iter #   7 total cpu time :    12.3 secs   av.it.:   6.1
      thresh= 6.634E-06 alpha_mix =  0.700 |ddv_scf|^2 =  4.592E-10

      iter #   8 total cpu time :    12.9 secs   av.it.:   7.3
      thresh= 2.143E-06 alpha_mix =  0.700 |ddv_scf|^2 =  3.708E-12

      iter #   9 total cpu time :    13.2 secs   av.it.:   7.2
      thresh= 1.926E-07 alpha_mix =  0.700 |ddv_scf|^2 =  1.314E-13

     End of self-consistent calculation

     Convergence has been achieved 


     Representation #  3 modes #   3  4

     Self-consistent Calculation

      iter #   1 total cpu time :    13.7 secs   av.it.:   5.0
      thresh= 1.000E-02 alpha_mix =  0.700 |ddv_scf|^2 =  5.580E-07

      iter #   2 total cpu time :    14.4 secs   av.it.:   9.5
      thresh= 7.470E-05 alpha_mix =  0.700 |ddv_scf|^2 =  4.125E-08

      iter #   3 total cpu time :    15.4 secs   av.it.:   9.2
      thresh= 2.031E-05 alpha_mix =  0.700 |ddv_scf|^2 =  3.549E-09

      iter #   4 total cpu time :    16.1 secs   av.it.:   9.0
      thresh= 5.957E-06 alpha_mix =  0.700 |ddv_scf|^2 =  1.089E-11

      iter #   5 total cpu time :    17.2 secs   av.it.:   9.2
      thresh= 3.300E-07 alpha_mix =  0.700 |ddv_scf|^2 =  4.943E-13

     End of self-consistent calculation

     Convergence has been achieved 


     Representation #  4 modes #   5  6

     Self-consistent Calculation

      iter #   1 total cpu time :    17.7 secs   av.it.:   5.0
      thresh= 1.000E-02 alpha_mix =  0.700 |ddv_scf|^2 =  5.579E-07

      iter #   2 total cpu time :    18.3 secs   av.it.:   9.6
      thresh= 7.469E-05 alpha_mix =  0.700 |ddv_scf|^2 =  4.121E-08

      iter #   3 total cpu time :    19.4 secs   av.it.:   9.4
      thresh= 2.030E-05 alpha_mix =  0.700 |ddv_scf|^2 =  3.546E-09

      iter #   4 total cpu time :    20.1 secs   av.it.:   9.1
      thresh= 5.955E-06 alpha_mix =  0.700 |ddv_scf|^2 =  1.090E-11

      iter #   5 total cpu time :    21.1 secs   av.it.:   9.2
      thresh= 3.301E-07 alpha_mix =  0.700 |ddv_scf|^2 =  4.950E-13

     End of self-consistent calculation

     Convergence has been achieved 

     Number of q in the star =    8
     List of q in the star:
          1  -0.250000000   0.250000000  -0.250000000
          2   0.250000000  -0.250000000  -0.250000000
          3   0.250000000  -0.250000000   0.250000000
          4   0.250000000   0.250000000   0.250000000
          5  -0.250000000  -0.250000000  -0.250000000
          6  -0.250000000  -0.250000000   0.250000000
          7  -0.250000000   0.250000000   0.250000000
          8   0.250000000   0.250000000  -0.250000000

     Diagonalizing the dynamical matrix

     q = (   -0.250000000   0.250000000  -0.250000000 ) 

 **************************************************************************
     freq (    1) =       3.397573 [THz] =     113.330824 [cm-1]
     freq (    2) =       3.397573 [THz] =     113.330824 [cm-1]
     freq (    3) =       6.924296 [THz] =     230.969640 [cm-1]
     freq (    4) =      14.056380 [THz] =     468.870362 [cm-1]
     freq (    5) =      14.363863 [THz] =     479.126909 [cm-1]
     freq (    6) =      14.363863 [THz] =     479.126909 [cm-1]
 **************************************************************************

     Mode symmetry, C_3v (3m)   point group:

     freq (  1 -  2) =        113.3  [cm-1]   --> E    L_3           
     freq (  3 -  3) =        231.0  [cm-1]   --> A_1  L_1           
     freq (  4 -  4) =        468.9  [cm-1]   --> A_1  L_1           
     freq (  5 -  6) =        479.1  [cm-1]   --> E    L_3           

     Calculation of q =    0.5000000  -0.5000000   0.5000000

   Info: using nr1, nr2, nr3 values from input

   Info: using nr1, nr2, nr3 values from input

     Parallelization info
     --------------------
     sticks:   dense  smooth     PW     G-vecs:    dense   smooth      PW
     Min          63      63     27                  684      684     186
     Max          64      64     28                  688      688     189
     Sum         253     253    109                 2741     2741     749



     bravais-lattice index     =            2
     lattice parameter (alat)  =      10.3400  a.u.
     unit-cell volume          =     276.3768 (a.u.)^3
     number of atoms/cell      =            2
     number of atomic types    =            1
     number of electrons       =         8.00
     number of Kohn-Sham states=            4
     kinetic-energy cutoff     =      18.0000  Ry
     charge density cutoff     =      72.0000  Ry
     Exchange-correlation      = SLA  PW   PBE  PBE ( 1  4  3  4 0 0)

     celldm(1)=  10.340000  celldm(2)=   0.000000  celldm(3)=   0.000000
     celldm(4)=   0.000000  celldm(5)=   0.000000  celldm(6)=   0.000000

     crystal axes: (cart. coord. in units of alat)
               a(1) = (  -0.500000   0.000000   0.500000 )  
               a(2) = (   0.000000   0.500000   0.500000 )  
               a(3) = (  -0.500000   0.500000   0.000000 )  

     reciprocal axes: (cart. coord. in units 2 pi/alat)
               b(1) = ( -1.000000 -1.000000  1.000000 )  
               b(2) = (  1.000000  1.000000  1.000000 )  
               b(3) = ( -1.000000  1.000000 -1.000000 )  


     PseudoPot. # 1 for Si read from file:
     /home/max/quantum_espresso/qe-6.1/pseudo/si_pbe_v1.uspp.F.UPF.txt
     MD5 check sum: a056efeee980c13900f22a371efd63c1
     Pseudo is Ultrasoft + core correction, Zval =  4.0
     Generated by new atomic code, or converted to UPF format
     Using radial grid of  899 points,  6 beta functions with: 
                l(1) =   0
                l(2) =   0
                l(3) =   1
                l(4) =   1
                l(5) =   2
                l(6) =   2
     Q(r) pseudized with  8 coefficients,  rinner =    0.900   0.900   0.900
                                                       0.900   0.900

     atomic species   valence    mass     pseudopotential
        Si             4.00    28.08600     Si( 1.00)

     48 Sym. Ops., with inversion, found



   Cartesian axes

     site n.     atom                  positions (alat units)
         1           Si  tau(   1) = (   0.0000000   0.0000000   0.0000000  )
         2           Si  tau(   2) = (   0.2500000   0.2500000   0.2500000  )

     number of k points=    60
                       cart. coord. in units 2pi/alat
        k(    1) = (  -0.1250000   0.1250000   0.1250000), wk =   0.0468750
        k(    2) = (   0.3750000  -0.3750000   0.6250000), wk =   0.0000000
        k(    3) = (  -0.3750000   0.3750000  -0.1250000), wk =   0.0468750
        k(    4) = (   0.1250000  -0.1250000   0.3750000), wk =   0.0000000
        k(    5) = (   0.3750000  -0.3750000   0.6250000), wk =   0.0468750
        k(    6) = (   0.8750000  -0.8750000   1.1250000), wk =   0.0000000
        k(    7) = (   0.1250000  -0.1250000   0.3750000), wk =   0.0468750
        k(    8) = (   0.6250000  -0.6250000   0.8750000), wk =   0.0000000
        k(    9) = (  -0.1250000   0.6250000   0.1250000), wk =   0.0937500
        k(   10) = (   0.3750000   0.1250000   0.6250000), wk =   0.0000000
        k(   11) = (   0.6250000  -0.1250000   0.8750000), wk =   0.0937500
        k(   12) = (   1.1250000  -0.6250000   1.3750000), wk =   0.0000000
        k(   13) = (   0.3750000   0.1250000   0.6250000), wk =   0.0937500
        k(   14) = (   0.8750000  -0.3750000   1.1250000), wk =   0.0000000
        k(   15) = (  -0.1250000  -0.8750000   0.1250000), wk =   0.0937500
        k(   16) = (   0.3750000  -1.3750000   0.6250000), wk =   0.0000000
        k(   17) = (  -0.3750000   0.3750000   0.3750000), wk =   0.0468750
        k(   18) = (   0.1250000  -0.1250000   0.8750000), wk =   0.0000000
        k(   19) = (   0.3750000  -0.3750000   1.1250000), wk =   0.0468750
        k(   20) = (   0.8750000  -0.8750000   1.6250000), wk =   0.0000000
        k(   21) = (   0.1250000  -0.1250000   0.1250000), wk =   0.0156250
        k(   22) = (   0.6250000  -0.6250000   0.6250000), wk =   0.0000000
        k(   23) = (  -0.3750000  -0.3750000  -0.1250000), wk =   0.0937500
        k(   24) = (   0.1250000  -0.8750000   0.3750000), wk =   0.0000000
        k(   25) = (  -0.1250000  -0.3750000   0.3750000), wk =   0.0468750
        k(   26) = (   0.3750000  -0.8750000   0.8750000), wk =   0.0000000
        k(   27) = (   0.3750000   0.3750000   0.6250000), wk =   0.0937500
        k(   28) = (   0.8750000  -0.1250000   1.1250000), wk =   0.0000000
        k(   29) = (   0.6250000   0.3750000  -0.3750000), wk =   0.0468750
        k(   30) = (   1.1250000  -0.1250000   0.1250000), wk =   0.0000000
        k(   31) = (   0.1250000   0.1250000   0.3750000), wk =   0.0937500
        k(   32) = (   0.6250000  -0.3750000   0.8750000), wk =   0.0000000
        k(   33) = (   0.3750000   0.1250000  -0.1250000), wk =   0.0468750
        k(   34) = (   0.8750000  -0.3750000   0.3750000), wk =   0.0000000
        k(   35) = (  -0.1250000  -0.6250000  -0.1250000), wk =   0.0468750
        k(   36) = (   0.3750000  -1.1250000   0.3750000), wk =   0.0000000
        k(   37) = (   0.1250000  -0.6250000   0.1250000), wk =   0.0468750
        k(   38) = (   0.6250000  -1.1250000   0.6250000), wk =   0.0000000
        k(   39) = (   0.6250000   0.1250000   0.8750000), wk =   0.0937500
        k(   40) = (   1.1250000  -0.3750000   1.3750000), wk =   0.0000000
        k(   41) = (  -0.8750000   0.1250000   0.6250000), wk =   0.0937500
        k(   42) = (  -0.3750000  -0.3750000   1.1250000), wk =   0.0000000
        k(   43) = (   0.8750000   0.1250000  -0.6250000), wk =   0.0937500
        k(   44) = (   1.3750000  -0.3750000  -0.1250000), wk =   0.0000000
        k(   45) = (   0.3750000  -0.1250000   0.6250000), wk =   0.0937500
        k(   46) = (   0.8750000  -0.6250000   1.1250000), wk =   0.0000000
        k(   47) = (  -0.6250000  -0.1250000   0.3750000), wk =   0.0937500
        k(   48) = (  -0.1250000  -0.6250000   0.8750000), wk =   0.0000000
        k(   49) = (   0.6250000  -0.1250000  -0.3750000), wk =   0.0937500
        k(   50) = (   1.1250000  -0.6250000   0.1250000), wk =   0.0000000
        k(   51) = (  -0.1250000   0.8750000  -0.1250000), wk =   0.0468750
        k(   52) = (   0.3750000   0.3750000   0.3750000), wk =   0.0000000
        k(   53) = (   0.1250000   0.8750000   0.1250000), wk =   0.0468750
        k(   54) = (   0.6250000   0.3750000   0.6250000), wk =   0.0000000
        k(   55) = (   0.3750000  -0.3750000   0.3750000), wk =   0.0156250
        k(   56) = (   0.8750000  -0.8750000   0.8750000), wk =   0.0000000
        k(   57) = (   0.3750000   0.3750000   1.1250000), wk =   0.0937500
        k(   58) = (   0.8750000  -0.1250000   1.6250000), wk =   0.0000000
        k(   59) = (   1.1250000   0.3750000  -0.3750000), wk =   0.0468750
        k(   60) = (   1.6250000  -0.1250000   0.1250000), wk =   0.0000000

     Dense  grid:     2741 G-vectors     FFT dimensions: (  20,  20,  20)

     Estimated max dynamical RAM per process >       0.33MB

     Estimated total allocated dynamical RAM >       1.31MB

     Check: negative/imaginary core charge=   -0.000005    0.000000

     The potential is recalculated from file :
     ./_ph0/silicon.10.340.save/charge-density.dat

     Starting wfc are    8 atomic wfcs

     Band Structure Calculation
     Davidson diagonalization with overlap

     ethr =  1.25E-10,  avg # of iterations = 11.7

     total cpu time spent up to now is        1.5 secs

     End of band structure calculation

          k =-0.1250 0.1250 0.1250 (   338 PWs)   bands (ev):

    -5.6374   4.3726   5.6814   5.6814

          k = 0.3750-0.3750 0.6250 (   361 PWs)   bands (ev):

    -3.4828  -0.6850   3.7213   4.4317

          k =-0.3750 0.3750-0.1250 (   352 PWs)   bands (ev):

    -4.6154   1.3833   3.7038   5.2000

          k = 0.1250-0.1250 0.3750 (   353 PWs)   bands (ev):

    -5.1120   2.7549   4.6765   4.7391

          k = 0.3750-0.3750 0.6250 (   361 PWs)   bands (ev):

    -3.4828  -0.6850   3.7213   4.4317

          k = 0.8750-0.8750 1.1250 (   338 PWs)   bands (ev):

    -5.6374   4.3726   5.6814   5.6814

          k = 0.1250-0.1250 0.3750 (   353 PWs)   bands (ev):

    -5.1120   2.7549   4.6765   4.7391

          k = 0.6250-0.6250 0.8750 (   352 PWs)   bands (ev):

    -4.6154   1.3833   3.7038   5.2000

          k =-0.1250 0.6250 0.1250 (   351 PWs)   bands (ev):

    -4.0846   1.0433   3.3575   3.8048

          k = 0.3750 0.1250 0.6250 (   357 PWs)   bands (ev):

    -3.6716   0.1765   2.7185   4.0800

          k = 0.6250-0.1250 0.8750 (   361 PWs)   bands (ev):

    -2.4526  -0.9147   2.0127   3.0817

          k = 1.1250-0.6250 1.3750 (   352 PWs)   bands (ev):

    -4.6154   1.3833   3.7038   5.2000

          k = 0.3750 0.1250 0.6250 (   357 PWs)   bands (ev):

    -3.6716   0.1765   2.7185   4.0800

          k = 0.8750-0.3750 1.1250 (   351 PWs)   bands (ev):

    -4.0846   1.0433   3.3575   3.8048

          k =-0.1250-0.8750 0.1250 (   358 PWs)   bands (ev):

    -2.6182  -0.8181   2.6174   3.3391

          k = 0.3750-1.3750 0.6250 (   361 PWs)   bands (ev):

    -3.4828  -0.6850   3.7213   4.4317

          k =-0.3750 0.3750 0.3750 (   353 PWs)   bands (ev):

    -4.1853   0.1009   4.8944   4.8944

          k = 0.1250-0.1250 0.8750 (   358 PWs)   bands (ev):

    -2.6182  -0.8181   2.6174   3.3391

          k = 0.3750-0.3750 1.1250 (   361 PWs)   bands (ev):

    -2.9884  -0.6075   2.0688   4.1166

          k = 0.8750-0.8750 1.6250 (   351 PWs)   bands (ev):

    -4.0846   1.0433   3.3575   3.8048

          k = 0.1250-0.1250 0.1250 (   338 PWs)   bands (ev):

    -5.6374   4.3726   5.6814   5.6814

          k = 0.6250-0.6250 0.6250 (   353 PWs)   bands (ev):

    -4.1853   0.1009   4.8944   4.8944

          k =-0.3750-0.3750-0.1250 (   352 PWs)   bands (ev):

    -4.6154   1.3833   3.7038   5.2000

          k = 0.1250-0.8750 0.3750 (   361 PWs)   bands (ev):

    -2.4526  -0.9147   2.0127   3.0817

          k =-0.1250-0.3750 0.3750 (   352 PWs)   bands (ev):

    -4.6154   1.3833   3.7038   5.2000

          k = 0.3750-0.8750 0.8750 (   351 PWs)   bands (ev):

    -4.0846   1.0433   3.3575   3.8048

          k = 0.3750 0.3750 0.6250 (   361 PWs)   bands (ev):

    -3.4828  -0.6850   3.7213   4.4317

          k = 0.8750-0.1250 1.1250 (   358 PWs)   bands (ev):

    -2.6182  -0.8181   2.6174   3.3391

          k = 0.6250 0.3750-0.3750 (   361 PWs)   bands (ev):

    -3.4828  -0.6850   3.7213   4.4317

          k = 1.1250-0.1250 0.1250 (   358 PWs)   bands (ev):

    -2.6182  -0.8181   2.6174   3.3391

          k = 0.1250 0.1250 0.3750 (   353 PWs)   bands (ev):

    -5.1120   2.7549   4.6765   4.7391

          k = 0.6250-0.3750 0.8750 (   357 PWs)   bands (ev):

    -3.6716   0.1765   2.7185   4.0800

          k = 0.3750 0.1250-0.1250 (   353 PWs)   bands (ev):

    -5.1120   2.7549   4.6765   4.7391

          k = 0.8750-0.3750 0.3750 (   361 PWs)   bands (ev):

    -2.9884  -0.6075   2.0688   4.1166

          k =-0.1250-0.6250-0.1250 (   351 PWs)   bands (ev):

    -4.0846   1.0433   3.3575   3.8048

          k = 0.3750-1.1250 0.3750 (   361 PWs)   bands (ev):

    -2.9884  -0.6075   2.0688   4.1166

          k = 0.1250-0.6250 0.1250 (   351 PWs)   bands (ev):

    -4.0846   1.0433   3.3575   3.8048

          k = 0.6250-1.1250 0.6250 (   352 PWs)   bands (ev):

    -4.6154   1.3833   3.7038   5.2000

          k = 0.6250 0.1250 0.8750 (   361 PWs)   bands (ev):

    -2.4526  -0.9147   2.0127   3.0817

          k = 1.1250-0.3750 1.3750 (   357 PWs)   bands (ev):

    -3.6716   0.1765   2.7185   4.0800

          k =-0.8750 0.1250 0.6250 (   361 PWs)   bands (ev):

    -2.4526  -0.9147   2.0127   3.0817

          k =-0.3750-0.3750 1.1250 (   361 PWs)   bands (ev):

    -2.9884  -0.6075   2.0688   4.1166

          k = 0.8750 0.1250-0.6250 (   361 PWs)   bands (ev):

    -2.4526  -0.9147   2.0127   3.0817

          k = 1.3750-0.3750-0.1250 (   357 PWs)   bands (ev):

    -3.6716   0.1765   2.7185   4.0800

          k = 0.3750-0.1250 0.6250 (   357 PWs)   bands (ev):

    -3.6716   0.1765   2.7185   4.0800

          k = 0.8750-0.6250 1.1250 (   353 PWs)   bands (ev):

    -5.1120   2.7549   4.6765   4.7391

          k =-0.6250-0.1250 0.3750 (   357 PWs)   bands (ev):

    -3.6716   0.1765   2.7185   4.0800

          k =-0.1250-0.6250 0.8750 (   361 PWs)   bands (ev):

    -2.4526  -0.9147   2.0127   3.0817

          k = 0.6250-0.1250-0.3750 (   357 PWs)   bands (ev):

    -3.6716   0.1765   2.7185   4.0800

          k = 1.1250-0.6250 0.1250 (   361 PWs)   bands (ev):

    -2.4526  -0.9147   2.0127   3.0817

          k =-0.1250 0.8750-0.1250 (   358 PWs)   bands (ev):

    -2.6182  -0.8181   2.6174   3.3391

          k = 0.3750 0.3750 0.3750 (   353 PWs)   bands (ev):

    -4.1853   0.1009   4.8944   4.8944

          k = 0.1250 0.8750 0.1250 (   358 PWs)   bands (ev):

    -2.6182  -0.8181   2.6174   3.3391

          k = 0.6250 0.3750 0.6250 (   361 PWs)   bands (ev):

    -3.4828  -0.6850   3.7213   4.4317

          k = 0.3750-0.3750 0.3750 (   353 PWs)   bands (ev):

    -4.1853   0.1009   4.8944   4.8944

          k = 0.8750-0.8750 0.8750 (   338 PWs)   bands (ev):

    -5.6374   4.3726   5.6814   5.6814

          k = 0.3750 0.3750 1.1250 (   361 PWs)   bands (ev):

    -2.9884  -0.6075   2.0688   4.1166

          k = 0.8750-0.1250 1.6250 (   361 PWs)   bands (ev):

    -2.4526  -0.9147   2.0127   3.0817

          k = 1.1250 0.3750-0.3750 (   361 PWs)   bands (ev):

    -2.9884  -0.6075   2.0688   4.1166

          k = 1.6250-0.1250 0.1250 (   353 PWs)   bands (ev):

    -5.1120   2.7549   4.6765   4.7391

     highest occupied level (ev):     5.6814

     Writing output data file silicon.10.340.save

                                                                                

     bravais-lattice index     =            2
     lattice parameter (alat)  =      10.3400  a.u.
     unit-cell volume          =     276.3768 (a.u.)^3
     number of atoms/cell      =            2
     number of atomic types    =            1
     kinetic-energy cut-off    =      18.0000  Ry
     charge density cut-off    =      72.0000  Ry
     convergence threshold     =      1.0E-12
     beta                      =       0.7000
     number of iterations used =            4
     Exchange-correlation      = SLA  PW   PBE  PBE ( 1  4  3  4 0 0)


     celldm(1)=   10.34000  celldm(2)=    0.00000  celldm(3)=    0.00000
     celldm(4)=    0.00000  celldm(5)=    0.00000  celldm(6)=    0.00000

     crystal axes: (cart. coord. in units of alat)
               a(1) = ( -0.5000  0.0000  0.5000 )  
               a(2) = (  0.0000  0.5000  0.5000 )  
               a(3) = ( -0.5000  0.5000  0.0000 )  

     reciprocal axes: (cart. coord. in units 2 pi/alat)
               b(1) = ( -1.0000 -1.0000  1.0000 )  
               b(2) = (  1.0000  1.0000  1.0000 )  
               b(3) = ( -1.0000  1.0000 -1.0000 )  


     Atoms inside the unit cell: 

     Cartesian axes

     site n.  atom      mass           positions (alat units)
        1     Si  28.0860   tau(    1) = (    0.00000    0.00000    0.00000  )
        2     Si  28.0860   tau(    2) = (    0.25000    0.25000    0.25000  )

     Computing dynamical matrix for 
                    q = (   0.5000000  -0.5000000   0.5000000 )

     13 Sym.Ops. (with q -> -q+G )


     G cutoff =  194.9907  (    685 G-vectors)     FFT grid: ( 20, 20, 20)
     number of k points=    60

     PseudoPot. # 1 for Si read from file:
     /home/max/quantum_espresso/qe-6.1/pseudo/si_pbe_v1.uspp.F.UPF.txt
     MD5 check sum: a056efeee980c13900f22a371efd63c1
     Pseudo is Ultrasoft + core correction, Zval =  4.0
     Generated by new atomic code, or converted to UPF format
     Using radial grid of  899 points,  6 beta functions with: 
                l(1) =   0
                l(2) =   0
                l(3) =   1
                l(4) =   1
                l(5) =   2
                l(6) =   2
     Q(r) pseudized with  8 coefficients,  rinner =    0.900   0.900   0.900
                                                       0.900   0.900


     Atomic displacements:
     There are   4 irreducible representations

     Representation     1      1 modes -  To be done

     Representation     2      1 modes -  To be done

     Representation     3      2 modes -  To be done

     Representation     4      2 modes -  To be done



     Alpha used in Ewald sum =   0.7000
     PHONON       :    19.50s CPU        21.90s WALL



     Representation #  1 mode #   1

     Self-consistent Calculation

      iter #   1 total cpu time :    22.0 secs   av.it.:   4.8
      thresh= 1.000E-02 alpha_mix =  0.700 |ddv_scf|^2 =  2.478E-05

      iter #   2 total cpu time :    22.2 secs   av.it.:   8.3
      thresh= 4.978E-04 alpha_mix =  0.700 |ddv_scf|^2 =  2.211E-05

      iter #   3 total cpu time :    22.3 secs   av.it.:   7.5
      thresh= 4.702E-04 alpha_mix =  0.700 |ddv_scf|^2 =  4.233E-08

      iter #   4 total cpu time :    22.8 secs   av.it.:   7.5
      thresh= 2.058E-05 alpha_mix =  0.700 |ddv_scf|^2 =  1.419E-10

      iter #   5 total cpu time :    23.0 secs   av.it.:   7.9
      thresh= 1.191E-06 alpha_mix =  0.700 |ddv_scf|^2 =  3.609E-12

      iter #   6 total cpu time :    23.2 secs   av.it.:   7.9
      thresh= 1.900E-07 alpha_mix =  0.700 |ddv_scf|^2 =  5.560E-14

     End of self-consistent calculation

     Convergence has been achieved 


     Representation #  2 mode #   2

     Self-consistent Calculation

      iter #   1 total cpu time :    23.3 secs   av.it.:   5.6
      thresh= 1.000E-02 alpha_mix =  0.700 |ddv_scf|^2 =  3.441E-04

      iter #   2 total cpu time :    23.5 secs   av.it.:   8.3
      thresh= 1.855E-03 alpha_mix =  0.700 |ddv_scf|^2 =  1.061E-03

      iter #   3 total cpu time :    23.7 secs   av.it.:   7.1
      thresh= 3.258E-03 alpha_mix =  0.700 |ddv_scf|^2 =  1.152E-07

      iter #   4 total cpu time :    23.8 secs   av.it.:   8.1
      thresh= 3.394E-05 alpha_mix =  0.700 |ddv_scf|^2 =  7.454E-09

      iter #   5 total cpu time :    24.0 secs   av.it.:   8.5
      thresh= 8.633E-06 alpha_mix =  0.700 |ddv_scf|^2 =  1.309E-10

      iter #   6 total cpu time :    24.1 secs   av.it.:   8.3
      thresh= 1.144E-06 alpha_mix =  0.700 |ddv_scf|^2 =  2.088E-12

      iter #   7 total cpu time :    24.3 secs   av.it.:   7.8
      thresh= 1.445E-07 alpha_mix =  0.700 |ddv_scf|^2 =  3.158E-15

     End of self-consistent calculation

     Convergence has been achieved 


     Representation #  3 modes #   3  4

     Self-consistent Calculation

      iter #   1 total cpu time :    24.9 secs   av.it.:   4.7
      thresh= 1.000E-02 alpha_mix =  0.700 |ddv_scf|^2 =  3.050E-07

      iter #   2 total cpu time :    25.3 secs   av.it.:   9.1
      thresh= 5.523E-05 alpha_mix =  0.700 |ddv_scf|^2 =  2.521E-08

      iter #   3 total cpu time :    25.6 secs   av.it.:   8.4
      thresh= 1.588E-05 alpha_mix =  0.700 |ddv_scf|^2 =  4.950E-10

      iter #   4 total cpu time :    25.9 secs   av.it.:   8.9
      thresh= 2.225E-06 alpha_mix =  0.700 |ddv_scf|^2 =  6.210E-12

      iter #   5 total cpu time :    26.2 secs   av.it.:   8.7
      thresh= 2.492E-07 alpha_mix =  0.700 |ddv_scf|^2 =  3.235E-14

     End of self-consistent calculation

     Convergence has been achieved 


     Representation #  4 modes #   5  6

     Self-consistent Calculation

      iter #   1 total cpu time :    26.7 secs   av.it.:   5.0
      thresh= 1.000E-02 alpha_mix =  0.700 |ddv_scf|^2 =  9.811E-07

      iter #   2 total cpu time :    27.2 secs   av.it.:   9.4
      thresh= 9.905E-05 alpha_mix =  0.700 |ddv_scf|^2 =  7.678E-08

      iter #   3 total cpu time :    27.6 secs   av.it.:   9.3
      thresh= 2.771E-05 alpha_mix =  0.700 |ddv_scf|^2 =  4.952E-09

      iter #   4 total cpu time :    27.9 secs   av.it.:   8.5
      thresh= 7.037E-06 alpha_mix =  0.700 |ddv_scf|^2 =  6.648E-12

      iter #   5 total cpu time :    28.2 secs   av.it.:   8.8
      thresh= 2.578E-07 alpha_mix =  0.700 |ddv_scf|^2 =  2.307E-14

     End of self-consistent calculation

     Convergence has been achieved 

     Number of q in the star =    4
     List of q in the star:
          1   0.500000000  -0.500000000   0.500000000
          2   0.500000000   0.500000000   0.500000000
          3  -0.500000000   0.500000000   0.500000000
          4   0.500000000   0.500000000  -0.500000000

     Diagonalizing the dynamical matrix

     q = (    0.500000000  -0.500000000   0.500000000 ) 

 **************************************************************************
     freq (    1) =       4.574393 [THz] =     152.585342 [cm-1]
     freq (    2) =       4.574393 [THz] =     152.585342 [cm-1]
     freq (    3) =      11.548635 [THz] =     385.220987 [cm-1]
     freq (    4) =      12.102740 [THz] =     403.703948 [cm-1]
     freq (    5) =      14.380183 [THz] =     479.671267 [cm-1]
     freq (    6) =      14.380183 [THz] =     479.671267 [cm-1]
 **************************************************************************

     Calculation of q =    0.0000000   0.5000000   0.0000000

   Info: using nr1, nr2, nr3 values from input

   Info: using nr1, nr2, nr3 values from input

     Parallelization info
     --------------------
     sticks:   dense  smooth     PW     G-vecs:    dense   smooth      PW
     Min          63      63     27                  684      684     175
     Max          64      64     28                  688      688     176
     Sum         253     253    109                 2741     2741     701



     bravais-lattice index     =            2
     lattice parameter (alat)  =      10.3400  a.u.
     unit-cell volume          =     276.3768 (a.u.)^3
     number of atoms/cell      =            2
     number of atomic types    =            1
     number of electrons       =         8.00
     number of Kohn-Sham states=            4
     kinetic-energy cutoff     =      18.0000  Ry
     charge density cutoff     =      72.0000  Ry
     Exchange-correlation      = SLA  PW   PBE  PBE ( 1  4  3  4 0 0)

     celldm(1)=  10.340000  celldm(2)=   0.000000  celldm(3)=   0.000000
     celldm(4)=   0.000000  celldm(5)=   0.000000  celldm(6)=   0.000000

     crystal axes: (cart. coord. in units of alat)
               a(1) = (  -0.500000   0.000000   0.500000 )  
               a(2) = (   0.000000   0.500000   0.500000 )  
               a(3) = (  -0.500000   0.500000   0.000000 )  

     reciprocal axes: (cart. coord. in units 2 pi/alat)
               b(1) = ( -1.000000 -1.000000  1.000000 )  
               b(2) = (  1.000000  1.000000  1.000000 )  
               b(3) = ( -1.000000  1.000000 -1.000000 )  


     PseudoPot. # 1 for Si read from file:
     /home/max/quantum_espresso/qe-6.1/pseudo/si_pbe_v1.uspp.F.UPF.txt
     MD5 check sum: a056efeee980c13900f22a371efd63c1
     Pseudo is Ultrasoft + core correction, Zval =  4.0
     Generated by new atomic code, or converted to UPF format
     Using radial grid of  899 points,  6 beta functions with: 
                l(1) =   0
                l(2) =   0
                l(3) =   1
                l(4) =   1
                l(5) =   2
                l(6) =   2
     Q(r) pseudized with  8 coefficients,  rinner =    0.900   0.900   0.900
                                                       0.900   0.900

     atomic species   valence    mass     pseudopotential
        Si             4.00    28.08600     Si( 1.00)

     48 Sym. Ops., with inversion, found



   Cartesian axes

     site n.     atom                  positions (alat units)
         1           Si  tau(   1) = (   0.0000000   0.0000000   0.0000000  )
         2           Si  tau(   2) = (   0.2500000   0.2500000   0.2500000  )

     number of k points=    80
                       cart. coord. in units 2pi/alat
        k(    1) = (  -0.1250000   0.1250000   0.1250000), wk =   0.0312500
        k(    2) = (  -0.1250000   0.6250000   0.1250000), wk =   0.0000000
        k(    3) = (  -0.3750000   0.3750000  -0.1250000), wk =   0.0625000
        k(    4) = (  -0.3750000   0.8750000  -0.1250000), wk =   0.0000000
        k(    5) = (   0.3750000  -0.3750000   0.6250000), wk =   0.0625000
        k(    6) = (   0.3750000   0.1250000   0.6250000), wk =   0.0000000
        k(    7) = (   0.1250000  -0.1250000   0.3750000), wk =   0.0625000
        k(    8) = (   0.1250000   0.3750000   0.3750000), wk =   0.0000000
        k(    9) = (  -0.1250000   0.6250000   0.1250000), wk =   0.0312500
        k(   10) = (  -0.1250000   1.1250000   0.1250000), wk =   0.0000000
        k(   11) = (   0.6250000  -0.1250000   0.8750000), wk =   0.0625000
        k(   12) = (   0.6250000   0.3750000   0.8750000), wk =   0.0000000
        k(   13) = (   0.3750000   0.1250000   0.6250000), wk =   0.0625000
        k(   14) = (   0.3750000   0.6250000   0.6250000), wk =   0.0000000
        k(   15) = (  -0.1250000  -0.8750000   0.1250000), wk =   0.0312500
        k(   16) = (  -0.1250000  -0.3750000   0.1250000), wk =   0.0000000
        k(   17) = (  -0.3750000   0.3750000   0.3750000), wk =   0.0312500
        k(   18) = (  -0.3750000   0.8750000   0.3750000), wk =   0.0000000
        k(   19) = (   0.3750000  -0.3750000   1.1250000), wk =   0.0625000
        k(   20) = (   0.3750000   0.1250000   1.1250000), wk =   0.0000000
        k(   21) = (  -0.1250000  -0.1250000   0.1250000), wk =   0.0312500
        k(   22) = (  -0.1250000   0.3750000   0.1250000), wk =   0.0000000
        k(   23) = (   0.1250000  -0.3750000   0.3750000), wk =   0.0625000
        k(   24) = (   0.1250000   0.1250000   0.3750000), wk =   0.0000000
        k(   25) = (   0.3750000  -0.1250000   0.3750000), wk =   0.0312500
        k(   26) = (   0.3750000   0.3750000   0.3750000), wk =   0.0000000
        k(   27) = (   0.3750000   0.1250000   0.3750000), wk =   0.0312500
        k(   28) = (   0.3750000   0.6250000   0.3750000), wk =   0.0000000
        k(   29) = (  -0.6250000   0.3750000  -0.3750000), wk =   0.0625000
        k(   30) = (  -0.6250000   0.8750000  -0.3750000), wk =   0.0000000
        k(   31) = (  -0.3750000   0.6250000  -0.3750000), wk =   0.0312500
        k(   32) = (  -0.3750000   1.1250000  -0.3750000), wk =   0.0000000
        k(   33) = (  -0.3750000  -0.6250000  -0.3750000), wk =   0.0312500
        k(   34) = (  -0.3750000  -0.1250000  -0.3750000), wk =   0.0000000
        k(   35) = (  -0.3750000   0.1250000  -0.1250000), wk =   0.0625000
        k(   36) = (  -0.3750000   0.6250000  -0.1250000), wk =   0.0000000
        k(   37) = (  -0.1250000   0.3750000  -0.1250000), wk =   0.0312500
        k(   38) = (  -0.1250000   0.8750000  -0.1250000), wk =   0.0000000
        k(   39) = (  -0.1250000  -0.3750000  -0.1250000), wk =   0.0312500
        k(   40) = (  -0.1250000   0.1250000  -0.1250000), wk =   0.0000000
        k(   41) = (  -0.1250000  -0.6250000   0.1250000), wk =   0.0312500
        k(   42) = (  -0.1250000  -0.1250000   0.1250000), wk =   0.0000000
        k(   43) = (   0.6250000  -0.1250000  -0.1250000), wk =   0.0625000
        k(   44) = (   0.6250000   0.3750000  -0.1250000), wk =   0.0000000
        k(   45) = (   0.6250000   0.1250000   0.1250000), wk =   0.0625000
        k(   46) = (   0.6250000   0.6250000   0.1250000), wk =   0.0000000
        k(   47) = (  -0.8750000   0.1250000  -0.6250000), wk =   0.0625000
        k(   48) = (  -0.8750000   0.6250000  -0.6250000), wk =   0.0000000
        k(   49) = (  -0.1250000   0.6250000  -0.8750000), wk =   0.0625000
        k(   50) = (  -0.1250000   1.1250000  -0.8750000), wk =   0.0000000
        k(   51) = (  -0.1250000   0.8750000  -0.6250000), wk =   0.0625000
        k(   52) = (  -0.1250000   1.3750000  -0.6250000), wk =   0.0000000
        k(   53) = (  -0.1250000  -0.8750000  -0.6250000), wk =   0.0625000
        k(   54) = (  -0.1250000  -0.3750000  -0.6250000), wk =   0.0000000
        k(   55) = (   0.8750000  -0.6250000   0.1250000), wk =   0.0625000
        k(   56) = (   0.8750000  -0.1250000   0.1250000), wk =   0.0000000
        k(   57) = (  -0.6250000  -0.1250000  -0.3750000), wk =   0.0625000
        k(   58) = (  -0.6250000   0.3750000  -0.3750000), wk =   0.0000000
        k(   59) = (   0.1250000   0.3750000  -0.6250000), wk =   0.0625000
        k(   60) = (   0.1250000   0.8750000  -0.6250000), wk =   0.0000000
        k(   61) = (   0.1250000   0.6250000  -0.3750000), wk =   0.0625000
        k(   62) = (   0.1250000   1.1250000  -0.3750000), wk =   0.0000000
        k(   63) = (   0.1250000  -0.6250000  -0.3750000), wk =   0.0625000
        k(   64) = (   0.1250000  -0.1250000  -0.3750000), wk =   0.0000000
        k(   65) = (   0.6250000  -0.3750000  -0.1250000), wk =   0.0625000
        k(   66) = (   0.6250000   0.1250000  -0.1250000), wk =   0.0000000
        k(   67) = (  -0.1250000   0.8750000   0.1250000), wk =   0.0312500
        k(   68) = (  -0.1250000   1.3750000   0.1250000), wk =   0.0000000
        k(   69) = (  -0.8750000  -0.1250000  -0.1250000), wk =   0.0625000
        k(   70) = (  -0.8750000   0.3750000  -0.1250000), wk =   0.0000000
        k(   71) = (  -0.8750000   0.1250000   0.1250000), wk =   0.0625000
        k(   72) = (  -0.8750000   0.6250000   0.1250000), wk =   0.0000000
        k(   73) = (  -0.3750000  -0.3750000   0.3750000), wk =   0.0312500
        k(   74) = (  -0.3750000   0.1250000   0.3750000), wk =   0.0000000
        k(   75) = (  -1.1250000   0.3750000  -0.3750000), wk =   0.0625000
        k(   76) = (  -1.1250000   0.8750000  -0.3750000), wk =   0.0000000
        k(   77) = (  -0.3750000   1.1250000  -0.3750000), wk =   0.0312500
        k(   78) = (  -0.3750000   1.6250000  -0.3750000), wk =   0.0000000
        k(   79) = (  -0.3750000  -1.1250000  -0.3750000), wk =   0.0312500
        k(   80) = (  -0.3750000  -0.6250000  -0.3750000), wk =   0.0000000

     Dense  grid:     2741 G-vectors     FFT dimensions: (  20,  20,  20)

     Estimated max dynamical RAM per process >       0.33MB

     Estimated total allocated dynamical RAM >       1.31MB

     Check: negative/imaginary core charge=   -0.000005    0.000000

     The potential is recalculated from file :
     ./_ph0/silicon.10.340.save/charge-density.dat

     Starting wfc are    8 atomic wfcs

     Band Structure Calculation
     Davidson diagonalization with overlap

     ethr =  1.25E-10,  avg # of iterations = 11.7

     total cpu time spent up to now is        2.6 secs

     End of band structure calculation

          k =-0.1250 0.1250 0.1250 (   338 PWs)   bands (ev):

    -5.6374   4.3726   5.6814   5.6814

          k =-0.1250 0.6250 0.1250 (   351 PWs)   bands (ev):

    -4.0846   1.0433   3.3575   3.8048

          k =-0.3750 0.3750-0.1250 (   352 PWs)   bands (ev):

    -4.6154   1.3833   3.7038   5.2000

          k =-0.3750 0.8750-0.1250 (   361 PWs)   bands (ev):

    -2.4526  -0.9147   2.0127   3.0817

          k = 0.3750-0.3750 0.6250 (   361 PWs)   bands (ev):

    -3.4828  -0.6850   3.7213   4.4317

          k = 0.3750 0.1250 0.6250 (   357 PWs)   bands (ev):

    -3.6716   0.1765   2.7185   4.0800

          k = 0.1250-0.1250 0.3750 (   353 PWs)   bands (ev):

    -5.1120   2.7549   4.6765   4.7391

          k = 0.1250 0.3750 0.3750 (   352 PWs)   bands (ev):

    -4.6154   1.3833   3.7038   5.2000

          k =-0.1250 0.6250 0.1250 (   351 PWs)   bands (ev):

    -4.0846   1.0433   3.3575   3.8048

          k =-0.1250 1.1250 0.1250 (   358 PWs)   bands (ev):

    -2.6182  -0.8181   2.6174   3.3391

          k = 0.6250-0.1250 0.8750 (   361 PWs)   bands (ev):

    -2.4526  -0.9147   2.0127   3.0817

          k = 0.6250 0.3750 0.8750 (   357 PWs)   bands (ev):

    -3.6716   0.1765   2.7185   4.0800

          k = 0.3750 0.1250 0.6250 (   357 PWs)   bands (ev):

    -3.6716   0.1765   2.7185   4.0800

          k = 0.3750 0.6250 0.6250 (   361 PWs)   bands (ev):

    -3.4828  -0.6850   3.7213   4.4317

          k =-0.1250-0.8750 0.1250 (   358 PWs)   bands (ev):

    -2.6182  -0.8181   2.6174   3.3391

          k =-0.1250-0.3750 0.1250 (   353 PWs)   bands (ev):

    -5.1120   2.7549   4.6765   4.7391

          k =-0.3750 0.3750 0.3750 (   353 PWs)   bands (ev):

    -4.1853   0.1009   4.8944   4.8944

          k =-0.3750 0.8750 0.3750 (   361 PWs)   bands (ev):

    -2.9884  -0.6075   2.0688   4.1166

          k = 0.3750-0.3750 1.1250 (   361 PWs)   bands (ev):

    -2.9884  -0.6075   2.0688   4.1166

          k = 0.3750 0.1250 1.1250 (   361 PWs)   bands (ev):

    -2.4526  -0.9147   2.0127   3.0817

          k =-0.1250-0.1250 0.1250 (   338 PWs)   bands (ev):

    -5.6374   4.3726   5.6814   5.6814

          k =-0.1250 0.3750 0.1250 (   353 PWs)   bands (ev):

    -5.1120   2.7549   4.6765   4.7391

          k = 0.1250-0.3750 0.3750 (   352 PWs)   bands (ev):

    -4.6154   1.3833   3.7038   5.2000

          k = 0.1250 0.1250 0.3750 (   353 PWs)   bands (ev):

    -5.1120   2.7549   4.6765   4.7391

          k = 0.3750-0.1250 0.3750 (   352 PWs)   bands (ev):

    -4.6154   1.3833   3.7038   5.2000

          k = 0.3750 0.3750 0.3750 (   353 PWs)   bands (ev):

    -4.1853   0.1009   4.8944   4.8944

          k = 0.3750 0.1250 0.3750 (   352 PWs)   bands (ev):

    -4.6154   1.3833   3.7038   5.2000

          k = 0.3750 0.6250 0.3750 (   361 PWs)   bands (ev):

    -3.4828  -0.6850   3.7213   4.4317

          k =-0.6250 0.3750-0.3750 (   361 PWs)   bands (ev):

    -3.4828  -0.6850   3.7213   4.4317

          k =-0.6250 0.8750-0.3750 (   357 PWs)   bands (ev):

    -3.6716   0.1765   2.7185   4.0800

          k =-0.3750 0.6250-0.3750 (   361 PWs)   bands (ev):

    -3.4828  -0.6850   3.7213   4.4317

          k =-0.3750 1.1250-0.3750 (   361 PWs)   bands (ev):

    -2.9884  -0.6075   2.0688   4.1166

          k =-0.3750-0.6250-0.3750 (   361 PWs)   bands (ev):

    -3.4828  -0.6850   3.7213   4.4317

          k =-0.3750-0.1250-0.3750 (   352 PWs)   bands (ev):

    -4.6154   1.3833   3.7038   5.2000

          k =-0.3750 0.1250-0.1250 (   353 PWs)   bands (ev):

    -5.1120   2.7549   4.6765   4.7391

          k =-0.3750 0.6250-0.1250 (   357 PWs)   bands (ev):

    -3.6716   0.1765   2.7185   4.0800

          k =-0.1250 0.3750-0.1250 (   353 PWs)   bands (ev):

    -5.1120   2.7549   4.6765   4.7391

          k =-0.1250 0.8750-0.1250 (   358 PWs)   bands (ev):

    -2.6182  -0.8181   2.6174   3.3391

          k =-0.1250-0.3750-0.1250 (   353 PWs)   bands (ev):

    -5.1120   2.7549   4.6765   4.7391

          k =-0.1250 0.1250-0.1250 (   338 PWs)   bands (ev):

    -5.6374   4.3726   5.6814   5.6814

          k =-0.1250-0.6250 0.1250 (   351 PWs)   bands (ev):

    -4.0846   1.0433   3.3575   3.8048

          k =-0.1250-0.1250 0.1250 (   338 PWs)   bands (ev):

    -5.6374   4.3726   5.6814   5.6814

          k = 0.6250-0.1250-0.1250 (   351 PWs)   bands (ev):

    -4.0846   1.0433   3.3575   3.8048

          k = 0.6250 0.3750-0.1250 (   357 PWs)   bands (ev):

    -3.6716   0.1765   2.7185   4.0800

          k = 0.6250 0.1250 0.1250 (   351 PWs)   bands (ev):

    -4.0846   1.0433   3.3575   3.8048

          k = 0.6250 0.6250 0.1250 (   361 PWs)   bands (ev):

    -2.9884  -0.6075   2.0688   4.1166

          k =-0.8750 0.1250-0.6250 (   361 PWs)   bands (ev):

    -2.4526  -0.9147   2.0127   3.0817

          k =-0.8750 0.6250-0.6250 (   352 PWs)   bands (ev):

    -4.6154   1.3833   3.7038   5.2000

          k =-0.1250 0.6250-0.8750 (   361 PWs)   bands (ev):

    -2.4526  -0.9147   2.0127   3.0817

          k =-0.1250 1.1250-0.8750 (   358 PWs)   bands (ev):

    -2.6182  -0.8181   2.6174   3.3391

          k =-0.1250 0.8750-0.6250 (   361 PWs)   bands (ev):

    -2.4526  -0.9147   2.0127   3.0817

          k =-0.1250 1.3750-0.6250 (   361 PWs)   bands (ev):

    -2.9884  -0.6075   2.0688   4.1166

          k =-0.1250-0.8750-0.6250 (   361 PWs)   bands (ev):

    -2.4526  -0.9147   2.0127   3.0817

          k =-0.1250-0.3750-0.6250 (   357 PWs)   bands (ev):

    -3.6716   0.1765   2.7185   4.0800

          k = 0.8750-0.6250 0.1250 (   361 PWs)   bands (ev):

    -2.4526  -0.9147   2.0127   3.0817

          k = 0.8750-0.1250 0.1250 (   358 PWs)   bands (ev):

    -2.6182  -0.8181   2.6174   3.3391

          k =-0.6250-0.1250-0.3750 (   357 PWs)   bands (ev):

    -3.6716   0.1765   2.7185   4.0800

          k =-0.6250 0.3750-0.3750 (   361 PWs)   bands (ev):

    -3.4828  -0.6850   3.7213   4.4317

          k = 0.1250 0.3750-0.6250 (   357 PWs)   bands (ev):

    -3.6716   0.1765   2.7185   4.0800

          k = 0.1250 0.8750-0.6250 (   361 PWs)   bands (ev):

    -2.4526  -0.9147   2.0127   3.0817

          k = 0.1250 0.6250-0.3750 (   357 PWs)   bands (ev):

    -3.6716   0.1765   2.7185   4.0800

          k = 0.1250 1.1250-0.3750 (   361 PWs)   bands (ev):

    -2.4526  -0.9147   2.0127   3.0817

          k = 0.1250-0.6250-0.3750 (   357 PWs)   bands (ev):

    -3.6716   0.1765   2.7185   4.0800

          k = 0.1250-0.1250-0.3750 (   353 PWs)   bands (ev):

    -5.1120   2.7549   4.6765   4.7391

          k = 0.6250-0.3750-0.1250 (   357 PWs)   bands (ev):

    -3.6716   0.1765   2.7185   4.0800

          k = 0.6250 0.1250-0.1250 (   351 PWs)   bands (ev):

    -4.0846   1.0433   3.3575   3.8048

          k =-0.1250 0.8750 0.1250 (   358 PWs)   bands (ev):

    -2.6182  -0.8181   2.6174   3.3391

          k =-0.1250 1.3750 0.1250 (   351 PWs)   bands (ev):

    -4.0846   1.0433   3.3575   3.8048

          k =-0.8750-0.1250-0.1250 (   358 PWs)   bands (ev):

    -2.6182  -0.8181   2.6174   3.3391

          k =-0.8750 0.3750-0.1250 (   361 PWs)   bands (ev):

    -2.4526  -0.9147   2.0127   3.0817

          k =-0.8750 0.1250 0.1250 (   358 PWs)   bands (ev):

    -2.6182  -0.8181   2.6174   3.3391

          k =-0.8750 0.6250 0.1250 (   361 PWs)   bands (ev):

    -2.4526  -0.9147   2.0127   3.0817

          k =-0.3750-0.3750 0.3750 (   353 PWs)   bands (ev):

    -4.1853   0.1009   4.8944   4.8944

          k =-0.3750 0.1250 0.3750 (   352 PWs)   bands (ev):

    -4.6154   1.3833   3.7038   5.2000

          k =-1.1250 0.3750-0.3750 (   361 PWs)   bands (ev):

    -2.9884  -0.6075   2.0688   4.1166

          k =-1.1250 0.8750-0.3750 (   351 PWs)   bands (ev):

    -4.0846   1.0433   3.3575   3.8048

          k =-0.3750 1.1250-0.3750 (   361 PWs)   bands (ev):

    -2.9884  -0.6075   2.0688   4.1166

          k =-0.3750 1.6250-0.3750 (   353 PWs)   bands (ev):

    -4.1853   0.1009   4.8944   4.8944

          k =-0.3750-1.1250-0.3750 (   361 PWs)   bands (ev):

    -2.9884  -0.6075   2.0688   4.1166

          k =-0.3750-0.6250-0.3750 (   361 PWs)   bands (ev):

    -3.4828  -0.6850   3.7213   4.4317

     highest occupied level (ev):     5.6814

     Writing output data file silicon.10.340.save

                                                                                

     bravais-lattice index     =            2
     lattice parameter (alat)  =      10.3400  a.u.
     unit-cell volume          =     276.3768 (a.u.)^3
     number of atoms/cell      =            2
     number of atomic types    =            1
     kinetic-energy cut-off    =      18.0000  Ry
     charge density cut-off    =      72.0000  Ry
     convergence threshold     =      1.0E-12
     beta                      =       0.7000
     number of iterations used =            4
     Exchange-correlation      = SLA  PW   PBE  PBE ( 1  4  3  4 0 0)


     celldm(1)=   10.34000  celldm(2)=    0.00000  celldm(3)=    0.00000
     celldm(4)=    0.00000  celldm(5)=    0.00000  celldm(6)=    0.00000

     crystal axes: (cart. coord. in units of alat)
               a(1) = ( -0.5000  0.0000  0.5000 )  
               a(2) = (  0.0000  0.5000  0.5000 )  
               a(3) = ( -0.5000  0.5000  0.0000 )  

     reciprocal axes: (cart. coord. in units 2 pi/alat)
               b(1) = ( -1.0000 -1.0000  1.0000 )  
               b(2) = (  1.0000  1.0000  1.0000 )  
               b(3) = ( -1.0000  1.0000 -1.0000 )  


     Atoms inside the unit cell: 

     Cartesian axes

     site n.  atom      mass           positions (alat units)
        1     Si  28.0860   tau(    1) = (    0.00000    0.00000    0.00000  )
        2     Si  28.0860   tau(    2) = (    0.25000    0.25000    0.25000  )

     Computing dynamical matrix for 
                    q = (   0.0000000   0.5000000   0.0000000 )

      8 Sym.Ops. (no q -> -q+G )


     G cutoff =  194.9907  (    685 G-vectors)     FFT grid: ( 20, 20, 20)
     number of k points=    80

     PseudoPot. # 1 for Si read from file:
     /home/max/quantum_espresso/qe-6.1/pseudo/si_pbe_v1.uspp.F.UPF.txt
     MD5 check sum: a056efeee980c13900f22a371efd63c1
     Pseudo is Ultrasoft + core correction, Zval =  4.0
     Generated by new atomic code, or converted to UPF format
     Using radial grid of  899 points,  6 beta functions with: 
                l(1) =   0
                l(2) =   0
                l(3) =   1
                l(4) =   1
                l(5) =   2
                l(6) =   2
     Q(r) pseudized with  8 coefficients,  rinner =    0.900   0.900   0.900
                                                       0.900   0.900

     Mode symmetry, C_4v (4mm)  point group:


     Atomic displacements:
     There are   4 irreducible representations

     Representation     1      1 modes -A_1  G_1 D_1  To be done

     Representation     2      1 modes -B_2  G_4 D_2'  To be done

     Representation     3      2 modes -E    G_5 D_5  To be done

     Representation     4      2 modes -E    G_5 D_5  To be done



     Alpha used in Ewald sum =   0.7000
     PHONON       :    26.52s CPU        29.54s WALL



     Representation #  1 mode #   1

     Self-consistent Calculation

      iter #   1 total cpu time :    29.7 secs   av.it.:   5.8
      thresh= 1.000E-02 alpha_mix =  0.700 |ddv_scf|^2 =  2.966E-03

      iter #   2 total cpu time :    29.9 secs   av.it.:   7.7
      thresh= 5.446E-03 alpha_mix =  0.700 |ddv_scf|^2 =  3.905E-02

      iter #   3 total cpu time :    30.1 secs   av.it.:   6.7
      thresh= 1.000E-02 alpha_mix =  0.700 |ddv_scf|^2 =  1.379E-07

      iter #   4 total cpu time :    30.3 secs   av.it.:   8.2
      thresh= 3.713E-05 alpha_mix =  0.700 |ddv_scf|^2 =  1.268E-08

      iter #   5 total cpu time :    30.7 secs   av.it.:   7.8
      thresh= 1.126E-05 alpha_mix =  0.700 |ddv_scf|^2 =  7.365E-10

      iter #   6 total cpu time :    31.1 secs   av.it.:   7.8
      thresh= 2.714E-06 alpha_mix =  0.700 |ddv_scf|^2 =  2.649E-12

      iter #   7 total cpu time :    31.3 secs   av.it.:   8.0
      thresh= 1.627E-07 alpha_mix =  0.700 |ddv_scf|^2 =  5.296E-13

     End of self-consistent calculation

     Convergence has been achieved 


     Representation #  2 mode #   2

     Self-consistent Calculation

      iter #   1 total cpu time :    31.5 secs   av.it.:   4.9
      thresh= 1.000E-02 alpha_mix =  0.700 |ddv_scf|^2 =  5.519E-06

      iter #   2 total cpu time :    31.7 secs   av.it.:   8.7
      thresh= 2.349E-04 alpha_mix =  0.700 |ddv_scf|^2 =  1.338E-06

      iter #   3 total cpu time :    32.0 secs   av.it.:   8.5
      thresh= 1.157E-04 alpha_mix =  0.700 |ddv_scf|^2 =  4.331E-08

      iter #   4 total cpu time :    32.2 secs   av.it.:   8.1
      thresh= 2.081E-05 alpha_mix =  0.700 |ddv_scf|^2 =  7.061E-10

      iter #   5 total cpu time :    32.4 secs   av.it.:   8.5
      thresh= 2.657E-06 alpha_mix =  0.700 |ddv_scf|^2 =  6.932E-12

      iter #   6 total cpu time :    33.0 secs   av.it.:   7.9
      thresh= 2.633E-07 alpha_mix =  0.700 |ddv_scf|^2 =  7.095E-14

     End of self-consistent calculation

     Convergence has been achieved 


     Representation #  3 modes #   3  4

     Self-consistent Calculation

      iter #   1 total cpu time :    33.4 secs   av.it.:   5.0
      thresh= 1.000E-02 alpha_mix =  0.700 |ddv_scf|^2 =  1.026E-06

      iter #   2 total cpu time :    33.9 secs   av.it.:   9.7
      thresh= 1.013E-04 alpha_mix =  0.700 |ddv_scf|^2 =  1.269E-07

      iter #   3 total cpu time :    34.3 secs   av.it.:   9.5
      thresh= 3.562E-05 alpha_mix =  0.700 |ddv_scf|^2 =  6.761E-09

      iter #   4 total cpu time :    35.2 secs   av.it.:   8.8
      thresh= 8.223E-06 alpha_mix =  0.700 |ddv_scf|^2 =  9.425E-12

      iter #   5 total cpu time :    35.6 secs   av.it.:   9.2
      thresh= 3.070E-07 alpha_mix =  0.700 |ddv_scf|^2 =  2.868E-13

     End of self-consistent calculation

     Convergence has been achieved 


     Representation #  4 modes #   5  6

     Self-consistent Calculation

      iter #   1 total cpu time :    36.0 secs   av.it.:   5.0
      thresh= 1.000E-02 alpha_mix =  0.700 |ddv_scf|^2 =  9.089E-07

      iter #   2 total cpu time :    36.6 secs   av.it.:   9.8
      thresh= 9.534E-05 alpha_mix =  0.700 |ddv_scf|^2 =  1.151E-07

      iter #   3 total cpu time :    37.3 secs   av.it.:   9.4
      thresh= 3.392E-05 alpha_mix =  0.700 |ddv_scf|^2 =  6.196E-09

      iter #   4 total cpu time :    37.7 secs   av.it.:   8.9
      thresh= 7.871E-06 alpha_mix =  0.700 |ddv_scf|^2 =  1.409E-11

      iter #   5 total cpu time :    38.1 secs   av.it.:   9.2
      thresh= 3.753E-07 alpha_mix =  0.700 |ddv_scf|^2 =  4.338E-14

     End of self-consistent calculation

     Convergence has been achieved 

     Number of q in the star =    6
     List of q in the star:
          1   0.000000000   0.500000000   0.000000000
          2   0.000000000  -0.500000000   0.000000000
          3   0.500000000   0.000000000   0.000000000
          4   0.000000000   0.000000000   0.500000000
          5   0.000000000   0.000000000  -0.500000000
          6  -0.500000000   0.000000000   0.000000000

     Diagonalizing the dynamical matrix

     q = (    0.000000000   0.500000000   0.000000000 ) 

 **************************************************************************
     freq (    1) =       4.224073 [THz] =     140.899898 [cm-1]
     freq (    2) =       4.224073 [THz] =     140.899898 [cm-1]
     freq (    3) =       7.172679 [THz] =     239.254828 [cm-1]
     freq (    4) =      13.670757 [THz] =     456.007369 [cm-1]
     freq (    5) =      13.670757 [THz] =     456.007369 [cm-1]
     freq (    6) =      14.290406 [THz] =     476.676625 [cm-1]
 **************************************************************************

     Mode symmetry, C_4v (4mm)  point group:

     freq (  1 -  2) =        140.9  [cm-1]   --> E    G_5 D_5       
     freq (  3 -  3) =        239.3  [cm-1]   --> A_1  G_1 D_1       
     freq (  4 -  5) =        456.0  [cm-1]   --> E    G_5 D_5       
     freq (  6 -  6) =        476.7  [cm-1]   --> B_2  G_4 D_2'      

     Calculation of q =    0.7500000  -0.2500000   0.7500000

   Info: using nr1, nr2, nr3 values from input

   Info: using nr1, nr2, nr3 values from input

     Parallelization info
     --------------------
     sticks:   dense  smooth     PW     G-vecs:    dense   smooth      PW
     Min          63      63     30                  684      684     216
     Max          64      64     31                  688      688     218
     Sum         253     253    121                 2741     2741     869



     bravais-lattice index     =            2
     lattice parameter (alat)  =      10.3400  a.u.
     unit-cell volume          =     276.3768 (a.u.)^3
     number of atoms/cell      =            2
     number of atomic types    =            1
     number of electrons       =         8.00
     number of Kohn-Sham states=            4
     kinetic-energy cutoff     =      18.0000  Ry
     charge density cutoff     =      72.0000  Ry
     Exchange-correlation      = SLA  PW   PBE  PBE ( 1  4  3  4 0 0)

     celldm(1)=  10.340000  celldm(2)=   0.000000  celldm(3)=   0.000000
     celldm(4)=   0.000000  celldm(5)=   0.000000  celldm(6)=   0.000000

     crystal axes: (cart. coord. in units of alat)
               a(1) = (  -0.500000   0.000000   0.500000 )  
               a(2) = (   0.000000   0.500000   0.500000 )  
               a(3) = (  -0.500000   0.500000   0.000000 )  

     reciprocal axes: (cart. coord. in units 2 pi/alat)
               b(1) = ( -1.000000 -1.000000  1.000000 )  
               b(2) = (  1.000000  1.000000  1.000000 )  
               b(3) = ( -1.000000  1.000000 -1.000000 )  


     PseudoPot. # 1 for Si read from file:
     /home/max/quantum_espresso/qe-6.1/pseudo/si_pbe_v1.uspp.F.UPF.txt
     MD5 check sum: a056efeee980c13900f22a371efd63c1
     Pseudo is Ultrasoft + core correction, Zval =  4.0
     Generated by new atomic code, or converted to UPF format
     Using radial grid of  899 points,  6 beta functions with: 
                l(1) =   0
                l(2) =   0
                l(3) =   1
                l(4) =   1
                l(5) =   2
                l(6) =   2
     Q(r) pseudized with  8 coefficients,  rinner =    0.900   0.900   0.900
                                                       0.900   0.900

     atomic species   valence    mass     pseudopotential
        Si             4.00    28.08600     Si( 1.00)

     48 Sym. Ops., with inversion, found



   Cartesian axes

     site n.     atom                  positions (alat units)
         1           Si  tau(   1) = (   0.0000000   0.0000000   0.0000000  )
         2           Si  tau(   2) = (   0.2500000   0.2500000   0.2500000  )

     number of k points=   288

     Number of k-points >= 100: set verbosity='high' to print them.

     Dense  grid:     2741 G-vectors     FFT dimensions: (  20,  20,  20)

     Estimated max dynamical RAM per process >       0.33MB

     Estimated total allocated dynamical RAM >       1.31MB

     Check: negative/imaginary core charge=   -0.000005    0.000000

     The potential is recalculated from file :
     ./_ph0/silicon.10.340.save/charge-density.dat

     Starting wfc are    8 atomic wfcs

     Band Structure Calculation
     Davidson diagonalization with overlap

     ethr =  1.25E-10,  avg # of iterations = 11.6

     total cpu time spent up to now is        5.6 secs

     End of band structure calculation

     Number of k-points >= 100: set verbosity='high' to print the bands.

     highest occupied level (ev):     5.6814

     Writing output data file silicon.10.340.save

                                                                                

     bravais-lattice index     =            2
     lattice parameter (alat)  =      10.3400  a.u.
     unit-cell volume          =     276.3768 (a.u.)^3
     number of atoms/cell      =            2
     number of atomic types    =            1
     kinetic-energy cut-off    =      18.0000  Ry
     charge density cut-off    =      72.0000  Ry
     convergence threshold     =      1.0E-12
     beta                      =       0.7000
     number of iterations used =            4
     Exchange-correlation      = SLA  PW   PBE  PBE ( 1  4  3  4 0 0)


     celldm(1)=   10.34000  celldm(2)=    0.00000  celldm(3)=    0.00000
     celldm(4)=    0.00000  celldm(5)=    0.00000  celldm(6)=    0.00000

     crystal axes: (cart. coord. in units of alat)
               a(1) = ( -0.5000  0.0000  0.5000 )  
               a(2) = (  0.0000  0.5000  0.5000 )  
               a(3) = ( -0.5000  0.5000  0.0000 )  

     reciprocal axes: (cart. coord. in units 2 pi/alat)
               b(1) = ( -1.0000 -1.0000  1.0000 )  
               b(2) = (  1.0000  1.0000  1.0000 )  
               b(3) = ( -1.0000  1.0000 -1.0000 )  


     Atoms inside the unit cell: 

     Cartesian axes

     site n.  atom      mass           positions (alat units)
        1     Si  28.0860   tau(    1) = (    0.00000    0.00000    0.00000  )
        2     Si  28.0860   tau(    2) = (    0.25000    0.25000    0.25000  )

     Computing dynamical matrix for 
                    q = (   0.7500000  -0.2500000   0.7500000 )

      2 Sym.Ops. (no q -> -q+G )


     G cutoff =  194.9907  (    685 G-vectors)     FFT grid: ( 20, 20, 20)
     number of k points=   288

     PseudoPot. # 1 for Si read from file:
     /home/max/quantum_espresso/qe-6.1/pseudo/si_pbe_v1.uspp.F.UPF.txt
     MD5 check sum: a056efeee980c13900f22a371efd63c1
     Pseudo is Ultrasoft + core correction, Zval =  4.0
     Generated by new atomic code, or converted to UPF format
     Using radial grid of  899 points,  6 beta functions with: 
                l(1) =   0
                l(2) =   0
                l(3) =   1
                l(4) =   1
                l(5) =   2
                l(6) =   2
     Q(r) pseudized with  8 coefficients,  rinner =    0.900   0.900   0.900
                                                       0.900   0.900

     Mode symmetry, C_s (m)     point group:


     Atomic displacements:
     There are   6 irreducible representations

     Representation     1      1 modes -A'  To be done

     Representation     2      1 modes -A'  To be done

     Representation     3      1 modes -A'  To be done

     Representation     4      1 modes -A'  To be done

     Representation     5      1 modes -A''  To be done

     Representation     6      1 modes -A''  To be done



     Alpha used in Ewald sum =   0.7000
     PHONON       :    37.43s CPU        41.93s WALL



     Representation #  1 mode #   1

     Self-consistent Calculation

      iter #   1 total cpu time :    42.8 secs   av.it.:   5.3
      thresh= 1.000E-02 alpha_mix =  0.700 |ddv_scf|^2 =  6.111E-05

      iter #   2 total cpu time :    43.6 secs   av.it.:   8.9
      thresh= 7.817E-04 alpha_mix =  0.700 |ddv_scf|^2 =  1.601E-04

      iter #   3 total cpu time :    44.3 secs   av.it.:   7.6
      thresh= 1.265E-03 alpha_mix =  0.700 |ddv_scf|^2 =  1.140E-06

      iter #   4 total cpu time :    45.5 secs   av.it.:   8.4
      thresh= 1.067E-04 alpha_mix =  0.700 |ddv_scf|^2 =  5.705E-08

      iter #   5 total cpu time :    46.2 secs   av.it.:   8.3
      thresh= 2.388E-05 alpha_mix =  0.700 |ddv_scf|^2 =  7.298E-09

      iter #   6 total cpu time :    47.3 secs   av.it.:   8.5
      thresh= 8.543E-06 alpha_mix =  0.700 |ddv_scf|^2 =  8.019E-11

      iter #   7 total cpu time :    48.1 secs   av.it.:   8.8
      thresh= 8.955E-07 alpha_mix =  0.700 |ddv_scf|^2 =  2.907E-12

      iter #   8 total cpu time :    49.2 secs   av.it.:   8.6
      thresh= 1.705E-07 alpha_mix =  0.700 |ddv_scf|^2 =  1.779E-13

     End of self-consistent calculation

     Convergence has been achieved 


     Representation #  2 mode #   2

     Self-consistent Calculation

      iter #   1 total cpu time :    49.9 secs   av.it.:   5.4
      thresh= 1.000E-02 alpha_mix =  0.700 |ddv_scf|^2 =  1.087E-04

      iter #   2 total cpu time :    51.0 secs   av.it.:   8.7
      thresh= 1.043E-03 alpha_mix =  0.700 |ddv_scf|^2 =  3.101E-04

      iter #   3 total cpu time :    51.7 secs   av.it.:   7.4
      thresh= 1.761E-03 alpha_mix =  0.700 |ddv_scf|^2 =  7.848E-07

      iter #   4 total cpu time :    52.4 secs   av.it.:   8.5
      thresh= 8.859E-05 alpha_mix =  0.700 |ddv_scf|^2 =  5.646E-08

      iter #   5 total cpu time :    53.5 secs   av.it.:   8.2
      thresh= 2.376E-05 alpha_mix =  0.700 |ddv_scf|^2 =  1.033E-08

      iter #   6 total cpu time :    54.3 secs   av.it.:   8.5
      thresh= 1.016E-05 alpha_mix =  0.700 |ddv_scf|^2 =  7.944E-11

      iter #   7 total cpu time :    55.4 secs   av.it.:   8.8
      thresh= 8.913E-07 alpha_mix =  0.700 |ddv_scf|^2 =  2.587E-12

      iter #   8 total cpu time :    56.2 secs   av.it.:   8.7
      thresh= 1.608E-07 alpha_mix =  0.700 |ddv_scf|^2 =  7.050E-13

     End of self-consistent calculation

     Convergence has been achieved 


     Representation #  3 mode #   3

     Self-consistent Calculation

      iter #   1 total cpu time :    57.2 secs   av.it.:   5.3
      thresh= 1.000E-02 alpha_mix =  0.700 |ddv_scf|^2 =  8.525E-05

      iter #   2 total cpu time :    57.9 secs   av.it.:   8.7
      thresh= 9.233E-04 alpha_mix =  0.700 |ddv_scf|^2 =  2.275E-04

      iter #   3 total cpu time :    59.0 secs   av.it.:   7.4
      thresh= 1.508E-03 alpha_mix =  0.700 |ddv_scf|^2 =  1.339E-06

      iter #   4 total cpu time :    59.7 secs   av.it.:   8.2
      thresh= 1.157E-04 alpha_mix =  0.700 |ddv_scf|^2 =  5.755E-08

      iter #   5 total cpu time :    60.5 secs   av.it.:   8.4
      thresh= 2.399E-05 alpha_mix =  0.700 |ddv_scf|^2 =  1.061E-08

      iter #   6 total cpu time :    61.6 secs   av.it.:   8.5
      thresh= 1.030E-05 alpha_mix =  0.700 |ddv_scf|^2 =  4.643E-11

      iter #   7 total cpu time :    62.3 secs   av.it.:   8.7
      thresh= 6.814E-07 alpha_mix =  0.700 |ddv_scf|^2 =  1.640E-12

      iter #   8 total cpu time :    63.5 secs   av.it.:   8.8
      thresh= 1.281E-07 alpha_mix =  0.700 |ddv_scf|^2 =  3.246E-13

     End of self-consistent calculation

     Convergence has been achieved 


     Representation #  4 mode #   4

     Self-consistent Calculation

      iter #   1 total cpu time :    64.1 secs   av.it.:   5.2
      thresh= 1.000E-02 alpha_mix =  0.700 |ddv_scf|^2 =  3.765E-05

      iter #   2 total cpu time :    65.4 secs   av.it.:   8.9
[...]
        k(   59) = (  -0.8750000   0.1250000  -0.1250000), wk =   0.0625000
        k(   60) = (  -1.3750000  -0.8750000  -0.1250000), wk =   0.0000000
        k(   61) = (  -1.1250000   0.3750000  -0.3750000), wk =   0.0625000
        k(   62) = (  -1.6250000  -0.6250000  -0.3750000), wk =   0.0000000
        k(   63) = (  -0.3750000   0.3750000   1.1250000), wk =   0.0625000
        k(   64) = (  -0.8750000  -0.6250000   1.1250000), wk =   0.0000000

     Dense  grid:     2741 G-vectors     FFT dimensions: (  20,  20,  20)

     Estimated max dynamical RAM per process >       0.33MB

     Estimated total allocated dynamical RAM >       1.31MB

     Check: negative/imaginary core charge=   -0.000005    0.000000

     The potential is recalculated from file :
     ./_ph0/silicon.10.340.save/charge-density.dat

     Starting wfc are    8 atomic wfcs

     Band Structure Calculation
     Davidson diagonalization with overlap

     ethr =  1.25E-10,  avg # of iterations = 11.6

     total cpu time spent up to now is        8.1 secs

     End of band structure calculation

          k =-0.1250 0.1250 0.1250 (   338 PWs)   bands (ev):

    -5.6374   4.3726   5.6814   5.6814

          k =-0.6250-0.8750 0.1250 (   361 PWs)   bands (ev):

    -2.4526  -0.9147   2.0127   3.0817

          k =-0.3750 0.3750-0.1250 (   352 PWs)   bands (ev):

    -4.6154   1.3833   3.7038   5.2000

          k =-0.8750-0.6250-0.1250 (   361 PWs)   bands (ev):

    -2.4526  -0.9147   2.0127   3.0817

          k = 0.3750-0.3750 0.6250 (   361 PWs)   bands (ev):

    -3.4828  -0.6850   3.7213   4.4317

          k =-0.1250-1.3750 0.6250 (   361 PWs)   bands (ev):

    -2.9884  -0.6075   2.0688   4.1166

          k = 0.1250-0.1250 0.3750 (   353 PWs)   bands (ev):

    -5.1120   2.7549   4.6765   4.7391

          k =-0.3750-1.1250 0.3750 (   361 PWs)   bands (ev):

    -2.9884  -0.6075   2.0688   4.1166

          k =-0.1250 0.6250 0.1250 (   351 PWs)   bands (ev):

    -4.0846   1.0433   3.3575   3.8048

          k =-0.6250-0.3750 0.1250 (   357 PWs)   bands (ev):

    -3.6716   0.1765   2.7185   4.0800

          k = 0.6250-0.1250 0.8750 (   361 PWs)   bands (ev):

    -2.4526  -0.9147   2.0127   3.0817

          k = 0.1250-1.1250 0.8750 (   358 PWs)   bands (ev):

    -2.6182  -0.8181   2.6174   3.3391

          k = 0.3750 0.1250 0.6250 (   357 PWs)   bands (ev):

    -3.6716   0.1765   2.7185   4.0800

          k =-0.1250-0.8750 0.6250 (   361 PWs)   bands (ev):

    -2.4526  -0.9147   2.0127   3.0817

          k =-0.1250-0.8750 0.1250 (   358 PWs)   bands (ev):

    -2.6182  -0.8181   2.6174   3.3391

          k =-0.6250-1.8750 0.1250 (   351 PWs)   bands (ev):

    -4.0846   1.0433   3.3575   3.8048

          k =-0.3750 0.3750 0.3750 (   353 PWs)   bands (ev):

    -4.1853   0.1009   4.8944   4.8944

          k =-0.8750-0.6250 0.3750 (   357 PWs)   bands (ev):

    -3.6716   0.1765   2.7185   4.0800

          k = 0.3750-0.3750 1.1250 (   361 PWs)   bands (ev):

    -2.9884  -0.6075   2.0688   4.1166

          k =-0.1250-1.3750 1.1250 (   361 PWs)   bands (ev):

    -2.4526  -0.9147   2.0127   3.0817

          k = 0.1250-0.3750 0.3750 (   352 PWs)   bands (ev):

    -4.6154   1.3833   3.7038   5.2000

          k =-0.3750-1.3750 0.3750 (   361 PWs)   bands (ev):

    -3.4828  -0.6850   3.7213   4.4317

          k = 0.3750-0.3750-0.1250 (   352 PWs)   bands (ev):

    -4.6154   1.3833   3.7038   5.2000

          k =-0.1250-1.3750-0.1250 (   351 PWs)   bands (ev):

    -4.0846   1.0433   3.3575   3.8048

          k =-0.6250 0.3750-0.3750 (   361 PWs)   bands (ev):

    -3.4828  -0.6850   3.7213   4.4317

          k =-1.1250-0.6250-0.3750 (   357 PWs)   bands (ev):

    -3.6716   0.1765   2.7185   4.0800

          k =-0.3750 0.3750 0.6250 (   361 PWs)   bands (ev):

    -3.4828  -0.6850   3.7213   4.4317

          k =-0.8750-0.6250 0.6250 (   352 PWs)   bands (ev):

    -4.6154   1.3833   3.7038   5.2000

          k =-0.3750 0.1250-0.1250 (   353 PWs)   bands (ev):

    -5.1120   2.7549   4.6765   4.7391

          k =-0.8750-0.8750-0.1250 (   358 PWs)   bands (ev):

    -2.6182  -0.8181   2.6174   3.3391

          k =-0.1250 0.1250 0.3750 (   353 PWs)   bands (ev):

    -5.1120   2.7549   4.6765   4.7391

          k =-0.6250-0.8750 0.3750 (   357 PWs)   bands (ev):

    -3.6716   0.1765   2.7185   4.0800

          k = 0.1250 0.6250-0.1250 (   351 PWs)   bands (ev):

    -4.0846   1.0433   3.3575   3.8048

          k =-0.3750-0.3750-0.1250 (   352 PWs)   bands (ev):

    -4.6154   1.3833   3.7038   5.2000

          k = 0.6250 0.1250-0.1250 (   351 PWs)   bands (ev):

    -4.0846   1.0433   3.3575   3.8048

          k = 0.1250-0.8750-0.1250 (   358 PWs)   bands (ev):

    -2.6182  -0.8181   2.6174   3.3391

          k =-0.8750 0.1250-0.6250 (   361 PWs)   bands (ev):

    -2.4526  -0.9147   2.0127   3.0817

          k =-1.3750-0.8750-0.6250 (   352 PWs)   bands (ev):

    -4.6154   1.3833   3.7038   5.2000

          k = 0.8750-0.1250 0.6250 (   361 PWs)   bands (ev):

    -2.4526  -0.9147   2.0127   3.0817

          k = 0.3750-1.1250 0.6250 (   357 PWs)   bands (ev):

    -3.6716   0.1765   2.7185   4.0800

          k =-0.6250 0.1250 0.8750 (   361 PWs)   bands (ev):

    -2.4526  -0.9147   2.0127   3.0817

          k =-1.1250-0.8750 0.8750 (   338 PWs)   bands (ev):

    -5.6374   4.3726   5.6814   5.6814

          k =-0.1250 0.8750 0.6250 (   361 PWs)   bands (ev):

    -2.4526  -0.9147   2.0127   3.0817

          k =-0.6250-0.1250 0.6250 (   361 PWs)   bands (ev):

    -2.9884  -0.6075   2.0688   4.1166

          k = 0.1250 0.8750-0.6250 (   361 PWs)   bands (ev):

    -2.4526  -0.9147   2.0127   3.0817

          k =-0.3750-0.1250-0.6250 (   357 PWs)   bands (ev):

    -3.6716   0.1765   2.7185   4.0800

          k =-0.6250-0.1250-0.3750 (   357 PWs)   bands (ev):

    -3.6716   0.1765   2.7185   4.0800

          k =-1.1250-1.1250-0.3750 (   351 PWs)   bands (ev):

    -4.0846   1.0433   3.3575   3.8048

          k = 0.6250 0.1250 0.3750 (   357 PWs)   bands (ev):

    -3.6716   0.1765   2.7185   4.0800

          k = 0.1250-0.8750 0.3750 (   361 PWs)   bands (ev):

    -2.4526  -0.9147   2.0127   3.0817

          k =-0.3750-0.1250 0.6250 (   357 PWs)   bands (ev):

    -3.6716   0.1765   2.7185   4.0800

          k =-0.8750-1.1250 0.6250 (   353 PWs)   bands (ev):

    -5.1120   2.7549   4.6765   4.7391

          k = 0.1250 0.6250 0.3750 (   357 PWs)   bands (ev):

    -3.6716   0.1765   2.7185   4.0800

          k =-0.3750-0.3750 0.3750 (   353 PWs)   bands (ev):

    -4.1853   0.1009   4.8944   4.8944

          k =-0.1250 0.6250-0.3750 (   357 PWs)   bands (ev):

    -3.6716   0.1765   2.7185   4.0800

          k =-0.6250-0.3750-0.3750 (   361 PWs)   bands (ev):

    -3.4828  -0.6850   3.7213   4.4317

          k = 0.1250-0.8750-0.1250 (   358 PWs)   bands (ev):

    -2.6182  -0.8181   2.6174   3.3391

          k =-0.3750-1.8750-0.1250 (   353 PWs)   bands (ev):

    -5.1120   2.7549   4.6765   4.7391

          k =-0.8750 0.1250-0.1250 (   358 PWs)   bands (ev):

    -2.6182  -0.8181   2.6174   3.3391

          k =-1.3750-0.8750-0.1250 (   361 PWs)   bands (ev):

    -2.4526  -0.9147   2.0127   3.0817

          k =-1.1250 0.3750-0.3750 (   361 PWs)   bands (ev):

    -2.9884  -0.6075   2.0688   4.1166

          k =-1.6250-0.6250-0.3750 (   361 PWs)   bands (ev):

    -3.4828  -0.6850   3.7213   4.4317

          k =-0.3750 0.3750 1.1250 (   361 PWs)   bands (ev):

    -2.9884  -0.6075   2.0688   4.1166

          k =-0.8750-0.6250 1.1250 (   353 PWs)   bands (ev):

    -5.1120   2.7549   4.6765   4.7391

     highest occupied level (ev):     5.6814

     Writing output data file silicon.10.340.save

                                                                                

     bravais-lattice index     =            2
     lattice parameter (alat)  =      10.3400  a.u.
     unit-cell volume          =     276.3768 (a.u.)^3
     number of atoms/cell      =            2
     number of atomic types    =            1
     kinetic-energy cut-off    =      18.0000  Ry
     charge density cut-off    =      72.0000  Ry
     convergence threshold     =      1.0E-12
     beta                      =       0.7000
     number of iterations used =            4
     Exchange-correlation      = SLA  PW   PBE  PBE ( 1  4  3  4 0 0)


     celldm(1)=   10.34000  celldm(2)=    0.00000  celldm(3)=    0.00000
     celldm(4)=    0.00000  celldm(5)=    0.00000  celldm(6)=    0.00000

     crystal axes: (cart. coord. in units of alat)
               a(1) = ( -0.5000  0.0000  0.5000 )  
               a(2) = (  0.0000  0.5000  0.5000 )  
               a(3) = ( -0.5000  0.5000  0.0000 )  

     reciprocal axes: (cart. coord. in units 2 pi/alat)
               b(1) = ( -1.0000 -1.0000  1.0000 )  
               b(2) = (  1.0000  1.0000  1.0000 )  
               b(3) = ( -1.0000  1.0000 -1.0000 )  


     Atoms inside the unit cell: 

     Cartesian axes

     site n.  atom      mass           positions (alat units)
        1     Si  28.0860   tau(    1) = (    0.00000    0.00000    0.00000  )
        2     Si  28.0860   tau(    2) = (    0.25000    0.25000    0.25000  )

     Computing dynamical matrix for 
                    q = (  -0.5000000  -1.0000000   0.0000000 )

      8 Sym.Ops. (no q -> -q+G )


     G cutoff =  194.9907  (    685 G-vectors)     FFT grid: ( 20, 20, 20)
     number of k points=    64

     PseudoPot. # 1 for Si read from file:
     /home/max/quantum_espresso/qe-6.1/pseudo/si_pbe_v1.uspp.F.UPF.txt
     MD5 check sum: a056efeee980c13900f22a371efd63c1
     Pseudo is Ultrasoft + core correction, Zval =  4.0
     Generated by new atomic code, or converted to UPF format
     Using radial grid of  899 points,  6 beta functions with: 
                l(1) =   0
                l(2) =   0
                l(3) =   1
                l(4) =   1
                l(5) =   2
                l(6) =   2
     Q(r) pseudized with  8 coefficients,  rinner =    0.900   0.900   0.900
                                                       0.900   0.900


     Atomic displacements:
     There are   3 irreducible representations

     Representation     1      2 modes -  To be done

     Representation     2      2 modes -  To be done

     Representation     3      2 modes -  To be done



     Alpha used in Ewald sum =   0.7000
     PHONON       :  1m32.53s CPU     1m43.96s WALL



     Representation #  1 modes #   1  2

     Self-consistent Calculation

      iter #   1 total cpu time :   104.2 secs   av.it.:   5.3
      thresh= 1.000E-02 alpha_mix =  0.700 |ddv_scf|^2 =  6.322E-06

      iter #   2 total cpu time :   105.0 secs   av.it.:   9.9
      thresh= 2.514E-04 alpha_mix =  0.700 |ddv_scf|^2 =  3.421E-06

      iter #   3 total cpu time :   105.3 secs   av.it.:   9.3
      thresh= 1.850E-04 alpha_mix =  0.700 |ddv_scf|^2 =  8.484E-09

      iter #   4 total cpu time :   105.7 secs   av.it.:   9.1
      thresh= 9.211E-06 alpha_mix =  0.700 |ddv_scf|^2 =  1.917E-11

      iter #   5 total cpu time :   106.1 secs   av.it.:   9.1
      thresh= 4.378E-07 alpha_mix =  0.700 |ddv_scf|^2 =  5.297E-13

     End of self-consistent calculation

     Convergence has been achieved 


     Representation #  2 modes #   3  4

     Self-consistent Calculation

      iter #   1 total cpu time :   106.4 secs   av.it.:   5.2
      thresh= 1.000E-02 alpha_mix =  0.700 |ddv_scf|^2 =  9.805E-06

      iter #   2 total cpu time :   107.1 secs   av.it.:   9.9
      thresh= 3.131E-04 alpha_mix =  0.700 |ddv_scf|^2 =  1.307E-05

      iter #   3 total cpu time :   107.5 secs   av.it.:   9.1
      thresh= 3.615E-04 alpha_mix =  0.700 |ddv_scf|^2 =  9.987E-09

      iter #   4 total cpu time :   107.9 secs   av.it.:   8.9
      thresh= 9.994E-06 alpha_mix =  0.700 |ddv_scf|^2 =  8.207E-11

      iter #   5 total cpu time :   108.2 secs   av.it.:   9.4
      thresh= 9.059E-07 alpha_mix =  0.700 |ddv_scf|^2 =  1.750E-12

      iter #   6 total cpu time :   108.9 secs   av.it.:   9.1
      thresh= 1.323E-07 alpha_mix =  0.700 |ddv_scf|^2 =  1.455E-14

     End of self-consistent calculation

     Convergence has been achieved 


     Representation #  3 modes #   5  6

     Self-consistent Calculation

      iter #   1 total cpu time :   109.2 secs   av.it.:   5.1
      thresh= 1.000E-02 alpha_mix =  0.700 |ddv_scf|^2 =  2.647E-06

      iter #   2 total cpu time :   109.6 secs   av.it.:   9.7
      thresh= 1.627E-04 alpha_mix =  0.700 |ddv_scf|^2 =  1.444E-06

      iter #   3 total cpu time :   110.0 secs   av.it.:   9.1
      thresh= 1.202E-04 alpha_mix =  0.700 |ddv_scf|^2 =  8.364E-09

      iter #   4 total cpu time :   110.3 secs   av.it.:   8.8
      thresh= 9.145E-06 alpha_mix =  0.700 |ddv_scf|^2 =  4.283E-11

      iter #   5 total cpu time :   111.0 secs   av.it.:   9.1
      thresh= 6.544E-07 alpha_mix =  0.700 |ddv_scf|^2 =  6.995E-13

     End of self-consistent calculation

     Convergence has been achieved 

     Number of q in the star =    6
     List of q in the star:
          1  -0.500000000  -1.000000000   0.000000000
          2   0.000000000   1.000000000   0.500000000
          3   0.000000000  -1.000000000  -0.500000000
          4   0.500000000   1.000000000   0.000000000
          5  -1.000000000  -0.500000000   0.000000000
          6   0.000000000  -0.500000000  -1.000000000

     Diagonalizing the dynamical matrix

     q = (   -0.500000000  -1.000000000   0.000000000 ) 

 **************************************************************************
     freq (    1) =       7.016371 [THz] =     234.040959 [cm-1]
     freq (    2) =       7.016371 [THz] =     234.040959 [cm-1]
     freq (    3) =      10.767806 [THz] =     359.175350 [cm-1]
     freq (    4) =      10.767806 [THz] =     359.175350 [cm-1]
     freq (    5) =      13.750711 [THz] =     458.674345 [cm-1]
     freq (    6) =      13.750711 [THz] =     458.674345 [cm-1]
 **************************************************************************

     init_run     :      0.56s CPU      0.59s WALL (       7 calls)
     electrons    :      5.76s CPU      6.56s WALL (       7 calls)

     Called by init_run:
     wfcinit      :      0.00s CPU      0.00s WALL (       7 calls)
     potinit      :      0.02s CPU      0.02s WALL (       7 calls)

     Called by electrons:
     c_bands      :      5.76s CPU      6.54s WALL (       7 calls)
     v_of_rho     :      0.01s CPU      0.01s WALL (       8 calls)
     newd         :      0.03s CPU      0.03s WALL (       8 calls)

     Called by c_bands:
     init_us_2    :      0.68s CPU      0.74s WALL (   17588 calls)
     cegterg      :      4.81s CPU      5.39s WALL (     796 calls)

     Called by sum_band:

     Called by *egterg:
     h_psi        :     53.53s CPU     60.03s WALL (  152202 calls)
     s_psi        :      5.81s CPU      6.41s WALL (  309124 calls)
     g_psi        :      0.03s CPU      0.03s WALL (    9268 calls)
     cdiaghg      :      0.51s CPU      0.60s WALL (   10064 calls)

     Called by h_psi:
     h_psi:pot    :     53.34s CPU     59.82s WALL (  152202 calls)
     h_psi:calbec :      6.04s CPU      6.83s WALL (  152202 calls)
     vloc_psi     :     44.18s CPU     49.57s WALL (  152202 calls)
     add_vuspsi   :      2.90s CPU      3.19s WALL (  152202 calls)

     General routines
     calbec       :     13.16s CPU     15.01s WALL (  345496 calls)
     fft          :      0.78s CPU      0.87s WALL (    5239 calls)
     ffts         :      0.22s CPU      0.24s WALL (    2748 calls)
     fftw         :     52.34s CPU     58.70s WALL ( 1378228 calls)
     davcio       :      0.31s CPU      0.36s WALL (   79045 calls)

     Parallel routines
     fft_scatter  :     20.57s CPU     23.78s WALL ( 1386215 calls)

     PHONON       :  1m38.61s CPU     1m51.06s WALL

     INITIALIZATION: 
     phq_setup    :      0.08s CPU      0.08s WALL (       8 calls)
     phq_init     :      2.72s CPU      3.09s WALL (       8 calls)

     phq_init     :      2.72s CPU      3.09s WALL (       8 calls)
     set_drhoc    :      0.28s CPU      0.30s WALL (      24 calls)
     init_vloc    :      0.01s CPU      0.01s WALL (       8 calls)
     init_us_1    :      0.52s CPU      0.53s WALL (       8 calls)
     newd         :      0.03s CPU      0.03s WALL (       8 calls)
     dvanqq       :      0.25s CPU      0.29s WALL (       8 calls)
     drho         :      1.56s CPU      1.80s WALL (       8 calls)

     DYNAMICAL MATRIX:
     dynmat0      :      0.62s CPU      0.64s WALL (       8 calls)
     phqscf       :     86.76s CPU     97.49s WALL (       8 calls)
     dynmatrix    :      0.01s CPU      0.01s WALL (       8 calls)

     phqscf       :     86.76s CPU     97.49s WALL (       8 calls)
     solve_linter :     85.79s CPU     96.45s WALL (      32 calls)
     drhodv       :      0.77s CPU      0.81s WALL (      32 calls)

     dynmat0      :      0.62s CPU      0.64s WALL (       8 calls)
     dynmat_us    :      0.34s CPU      0.35s WALL (       8 calls)
     d2ionq       :      0.01s CPU      0.02s WALL (       8 calls)
     dynmatcc     :      0.24s CPU      0.25s WALL (       8 calls)

     dynmat_us    :      0.34s CPU      0.35s WALL (       8 calls)
     addusdynmat  :      0.00s CPU      0.00s WALL (       8 calls)

     phqscf       :     86.76s CPU     97.49s WALL (       8 calls)
     solve_linter :     85.79s CPU     96.45s WALL (      32 calls)

     solve_linter :     85.79s CPU     96.45s WALL (      32 calls)
     dvqpsi_us    :      1.97s CPU      2.19s WALL (    2508 calls)
     ortho        :      1.55s CPU      1.75s WALL (   15550 calls)
     cgsolve      :     67.28s CPU     76.03s WALL (   15550 calls)
     incdrhoscf   :      6.24s CPU      6.97s WALL (   15550 calls)
     addusddens   :      1.31s CPU      1.41s WALL (     228 calls)
     vpsifft      :      4.24s CPU      4.67s WALL (   12922 calls)
     dv_of_drho   :      0.26s CPU      0.30s WALL (     295 calls)
     mix_pot      :      0.06s CPU      0.09s WALL (     201 calls)
     psymdvscf    :      0.81s CPU      0.88s WALL (     196 calls)
     newdq        :      1.37s CPU      1.50s WALL (     201 calls)
     adddvscf     :      0.48s CPU      0.52s WALL (   13042 calls)
     drhodvus     :      0.00s CPU      0.00s WALL (      32 calls)

     dvqpsi_us    :      1.97s CPU      2.19s WALL (    2508 calls)
     dvqpsi_us_on :      0.83s CPU      0.92s WALL (    2508 calls)

     cgsolve      :     67.28s CPU     76.03s WALL (   15550 calls)
     ch_psi       :     63.66s CPU     71.69s WALL (  141342 calls)

     ch_psi       :     63.66s CPU     71.69s WALL (  141342 calls)
     h_psi        :     53.53s CPU     60.03s WALL (  152202 calls)
     last         :     11.08s CPU     12.73s WALL (  141342 calls)

     h_psi        :     53.53s CPU     60.03s WALL (  152202 calls)
     add_vuspsi   :      2.90s CPU      3.19s WALL (  152202 calls)

     incdrhoscf   :      6.24s CPU      6.97s WALL (   15550 calls)
     addusdbec    :      1.06s CPU      1.21s WALL (   17998 calls)

     drhodvus     :      0.00s CPU      0.00s WALL (      32 calls)

      General routines
     calbec       :     13.16s CPU     15.01s WALL (  345496 calls)
     fft          :      0.78s CPU      0.87s WALL (    5239 calls)
     ffts         :      0.22s CPU      0.24s WALL (    2748 calls)
     fftw         :     52.34s CPU     58.70s WALL ( 1378228 calls)
     davcio       :      0.31s CPU      0.36s WALL (   79045 calls)
     write_rec    :      0.21s CPU      0.23s WALL (     233 calls)


     PHONON       :  1m38.61s CPU     1m51.06s WALL


   This run was terminated on:  12:38: 9   9Nov2017            

=------------------------------------------------------------------------------=
   JOB DONE.
=------------------------------------------------------------------------------=
