
     Program PWSCF v.6.1 (svn rev. 13369) starts on 10Nov2017 at 10: 3:33 

     This program is part of the open-source Quantum ESPRESSO suite
     for quantum simulation of materials; please cite
         "P. Giannozzi et al., J. Phys.:Condens. Matter 21 395502 (2009);
          URL http://www.quantum-espresso.org", 
     in publications or presentations arising from this work. More details at
     http://www.quantum-espresso.org/quote

     Parallel version (MPI), running on     4 processors
     R & G space division:  proc/nbgrp/npool/nimage =       4
     Waiting for input...
     Reading input from standard input
     Message from routine read_cards :
     DEPRECATED: no units specified in ATOMIC_POSITIONS card
     Message from routine read_cards :
     ATOMIC_POSITIONS: units set to alat

     Current dimensions of program PWSCF are:
     Max number of different atomic species (ntypx) = 10
     Max number of k-points (npk) =  40000
     Max angular momentum in pseudopotentials (lmaxx) =  3

     Subspace diagonalization in iterative solution of the eigenvalue problem:
     a serial algorithm will be used


     Parallelization info
     --------------------
     sticks:   dense  smooth     PW     G-vecs:    dense   smooth      PW
     Min         133      66     22                 2024      722     152
     Max         134      67     23                 2025      724     153
     Sum         535     265     91                 8099     2891     609



     bravais-lattice index     =            2
     lattice parameter (alat)  =      10.4000  a.u.
     unit-cell volume          =     281.2160 (a.u.)^3
     number of atoms/cell      =            2
     number of atomic types    =            1
     number of electrons       =         8.00
     number of Kohn-Sham states=            4
     kinetic-energy cutoff     =      18.0000  Ry
     charge density cutoff     =     144.0000  Ry
     convergence threshold     =      1.0E-08
     mixing beta               =       0.7000
     number of iterations used =            8  plain     mixing
     Exchange-correlation      = SLA  PW   PBE  PBE ( 1  4  3  4 0 0)

     celldm(1)=  10.400000  celldm(2)=   0.000000  celldm(3)=   0.000000
     celldm(4)=   0.000000  celldm(5)=   0.000000  celldm(6)=   0.000000

     crystal axes: (cart. coord. in units of alat)
               a(1) = (  -0.500000   0.000000   0.500000 )  
               a(2) = (   0.000000   0.500000   0.500000 )  
               a(3) = (  -0.500000   0.500000   0.000000 )  

     reciprocal axes: (cart. coord. in units 2 pi/alat)
               b(1) = ( -1.000000 -1.000000  1.000000 )  
               b(2) = (  1.000000  1.000000  1.000000 )  
               b(3) = ( -1.000000  1.000000 -1.000000 )  


     PseudoPot. # 1 for Si read from file:
     /home/max/quantum_espresso/qe-6.1/pseudo/si_pbe_v1.uspp.F.UPF.txt
     MD5 check sum: a056efeee980c13900f22a371efd63c1
     Pseudo is Ultrasoft + core correction, Zval =  4.0
     Generated by new atomic code, or converted to UPF format
     Using radial grid of  899 points,  6 beta functions with: 
                l(1) =   0
                l(2) =   0
                l(3) =   1
                l(4) =   1
                l(5) =   2
                l(6) =   2
     Q(r) pseudized with  8 coefficients,  rinner =    0.900   0.900   0.900
                                                       0.900   0.900

     atomic species   valence    mass     pseudopotential
        Si             4.00    28.08600     Si( 1.00)

     24 Sym. Ops. (no inversion) found
          (note: 24 additional sym.ops. were found but ignored
           their fractional translations are incommensurate with FFT grid)


   Cartesian axes

     site n.     atom                  positions (alat units)
         1           Si  tau(   1) = (   0.0000000   0.0000000   0.0000000  )
         2           Si  tau(   2) = (   0.2500000   0.2500000   0.2500000  )

     number of k points=    60
                       cart. coord. in units 2pi/alat
        k(    1) = (  -0.0625000   0.0625000   0.0625000), wk =   0.0078125
        k(    2) = (  -0.1875000   0.1875000  -0.0625000), wk =   0.0234375
        k(    3) = (  -0.3125000   0.3125000  -0.1875000), wk =   0.0234375
        k(    4) = (  -0.4375000   0.4375000  -0.3125000), wk =   0.0234375
        k(    5) = (   0.4375000  -0.4375000   0.5625000), wk =   0.0234375
        k(    6) = (   0.3125000  -0.3125000   0.4375000), wk =   0.0234375
        k(    7) = (   0.1875000  -0.1875000   0.3125000), wk =   0.0234375
        k(    8) = (   0.0625000  -0.0625000   0.1875000), wk =   0.0234375
        k(    9) = (  -0.0625000   0.3125000   0.0625000), wk =   0.0234375
        k(   10) = (  -0.1875000   0.4375000  -0.0625000), wk =   0.0468750
        k(   11) = (  -0.3125000   0.5625000  -0.1875000), wk =   0.0468750
        k(   12) = (   0.5625000  -0.3125000   0.6875000), wk =   0.0468750
        k(   13) = (   0.4375000  -0.1875000   0.5625000), wk =   0.0468750
        k(   14) = (   0.3125000  -0.0625000   0.4375000), wk =   0.0468750
        k(   15) = (   0.1875000   0.0625000   0.3125000), wk =   0.0468750
        k(   16) = (  -0.0625000   0.5625000   0.0625000), wk =   0.0234375
        k(   17) = (  -0.1875000   0.6875000  -0.0625000), wk =   0.0468750
        k(   18) = (   0.6875000  -0.1875000   0.8125000), wk =   0.0468750
        k(   19) = (   0.5625000  -0.0625000   0.6875000), wk =   0.0468750
        k(   20) = (   0.4375000   0.0625000   0.5625000), wk =   0.0468750
        k(   21) = (   0.3125000   0.1875000   0.4375000), wk =   0.0468750
        k(   22) = (  -0.0625000   0.8125000   0.0625000), wk =   0.0234375
        k(   23) = (   0.8125000  -0.0625000   0.9375000), wk =   0.0468750
        k(   24) = (   0.6875000   0.0625000   0.8125000), wk =   0.0468750
        k(   25) = (   0.5625000   0.1875000   0.6875000), wk =   0.0468750
        k(   26) = (   0.4375000   0.3125000   0.5625000), wk =   0.0468750
        k(   27) = (  -0.0625000  -0.9375000   0.0625000), wk =   0.0234375
        k(   28) = (  -0.1875000  -0.8125000  -0.0625000), wk =   0.0468750
        k(   29) = (  -0.3125000  -0.6875000  -0.1875000), wk =   0.0468750
        k(   30) = (  -0.0625000  -0.6875000   0.0625000), wk =   0.0234375
        k(   31) = (  -0.1875000  -0.5625000  -0.0625000), wk =   0.0468750
        k(   32) = (  -0.0625000  -0.4375000   0.0625000), wk =   0.0234375
        k(   33) = (  -0.1875000   0.1875000   0.1875000), wk =   0.0078125
        k(   34) = (  -0.3125000   0.3125000   0.0625000), wk =   0.0234375
        k(   35) = (  -0.4375000   0.4375000  -0.0625000), wk =   0.0234375
        k(   36) = (   0.4375000  -0.4375000   0.8125000), wk =   0.0234375
        k(   37) = (   0.3125000  -0.3125000   0.6875000), wk =   0.0234375
        k(   38) = (   0.1875000  -0.1875000   0.5625000), wk =   0.0234375
        k(   39) = (  -0.1875000   0.4375000   0.1875000), wk =   0.0234375
        k(   40) = (  -0.3125000   0.5625000   0.0625000), wk =   0.0468750
        k(   41) = (   0.5625000  -0.3125000   0.9375000), wk =   0.0468750
        k(   42) = (   0.4375000  -0.1875000   0.8125000), wk =   0.0468750
        k(   43) = (   0.3125000  -0.0625000   0.6875000), wk =   0.0468750
        k(   44) = (  -0.1875000   0.6875000   0.1875000), wk =   0.0234375
        k(   45) = (   0.6875000  -0.1875000   1.0625000), wk =   0.0468750
        k(   46) = (   0.5625000  -0.0625000   0.9375000), wk =   0.0468750
        k(   47) = (   0.4375000   0.0625000   0.8125000), wk =   0.0468750
        k(   48) = (  -0.1875000  -1.0625000   0.1875000), wk =   0.0234375
        k(   49) = (  -0.3125000  -0.9375000   0.0625000), wk =   0.0468750
        k(   50) = (  -0.1875000  -0.8125000   0.1875000), wk =   0.0234375
        k(   51) = (  -0.3125000   0.3125000   0.3125000), wk =   0.0078125
        k(   52) = (  -0.4375000   0.4375000   0.1875000), wk =   0.0234375
        k(   53) = (   0.4375000  -0.4375000   1.0625000), wk =   0.0234375
        k(   54) = (   0.3125000  -0.3125000   0.9375000), wk =   0.0234375
        k(   55) = (  -0.3125000   0.5625000   0.3125000), wk =   0.0234375
        k(   56) = (   0.5625000  -0.3125000   1.1875000), wk =   0.0468750
        k(   57) = (   0.4375000  -0.1875000   1.0625000), wk =   0.0468750
        k(   58) = (  -0.3125000  -1.1875000   0.3125000), wk =   0.0234375
        k(   59) = (  -0.4375000   0.4375000   0.4375000), wk =   0.0078125
        k(   60) = (   0.4375000  -0.4375000   1.3125000), wk =   0.0234375

     Dense  grid:     8099 G-vectors     FFT dimensions: (  30,  30,  30)

     Smooth grid:     2891 G-vectors     FFT dimensions: (  20,  20,  20)

     Estimated max dynamical RAM per process >       1.73MB

     Estimated total allocated dynamical RAM >       6.94MB

     Initial potential from superposition of free atoms

     starting charge    7.99866, renormalised to    8.00000
     Starting wfc are    8 randomized atomic wfcs

     total cpu time spent up to now is        0.4 secs

     per-process dynamical memory:     8.6 Mb

     Self-consistent Calculation

     iteration #  1     ecut=    18.00 Ry     beta=0.70
     Davidson diagonalization with overlap
     ethr =  1.00E-02,  avg # of iterations =  2.0

     Threshold (ethr) on eigenvalues was too large:
     Diagonalizing with lowered threshold

     Davidson diagonalization with overlap
     ethr =  6.54E-04,  avg # of iterations =  1.1

     total cpu time spent up to now is        1.2 secs

     total energy              =     -19.18912880 Ry
     Harris-Foulkes estimate   =     -19.20076539 Ry
     estimated scf accuracy    <       0.05208558 Ry

     iteration #  2     ecut=    18.00 Ry     beta=0.70
     Davidson diagonalization with overlap
     ethr =  6.51E-04,  avg # of iterations =  1.0

     total cpu time spent up to now is        1.4 secs

     total energy              =     -19.19072139 Ry
     Harris-Foulkes estimate   =     -19.19089123 Ry
     estimated scf accuracy    <       0.00245235 Ry

     iteration #  3     ecut=    18.00 Ry     beta=0.70
     Davidson diagonalization with overlap
     ethr =  3.07E-05,  avg # of iterations =  1.9

     total cpu time spent up to now is        1.6 secs

     total energy              =     -19.19098499 Ry
     Harris-Foulkes estimate   =     -19.19099715 Ry
     estimated scf accuracy    <       0.00003878 Ry

     iteration #  4     ecut=    18.00 Ry     beta=0.70
     Davidson diagonalization with overlap
     ethr =  4.85E-07,  avg # of iterations =  2.8

     total cpu time spent up to now is        1.8 secs

     total energy              =     -19.19100811 Ry
     Harris-Foulkes estimate   =     -19.19100856 Ry
     estimated scf accuracy    <       0.00000200 Ry

     iteration #  5     ecut=    18.00 Ry     beta=0.70
     Davidson diagonalization with overlap
     ethr =  2.50E-08,  avg # of iterations =  2.1

     total cpu time spent up to now is        2.0 secs

     total energy              =     -19.19100852 Ry
     Harris-Foulkes estimate   =     -19.19100854 Ry
     estimated scf accuracy    <       0.00000004 Ry

     iteration #  6     ecut=    18.00 Ry     beta=0.70
     Davidson diagonalization with overlap
     ethr =  5.57E-10,  avg # of iterations =  2.8

     total cpu time spent up to now is        2.2 secs

     End of self-consistent calculation

          k =-0.0625 0.0625 0.0625 (   338 PWs)   bands (ev):

    -5.8530   5.2525   5.7045   5.7045

          k =-0.1875 0.1875-0.0625 (   353 PWs)   bands (ev):

    -5.5918   3.7582   4.9184   5.5869

          k =-0.3125 0.3125-0.1875 (   356 PWs)   bands (ev):

    -4.9604   1.5762   4.4370   5.1341

          k =-0.4375 0.4375-0.3125 (   360 PWs)   bands (ev):

    -4.0833  -0.2659   4.2216   4.7355

          k = 0.4375-0.4375 0.5625 (   360 PWs)   bands (ev):

    -3.6507  -0.9458   4.2683   4.5231

          k = 0.3125-0.3125 0.4375 (   357 PWs)   bands (ev):

    -4.3830   0.2779   4.5452   4.5483

          k = 0.1875-0.1875 0.3125 (   357 PWs)   bands (ev):

    -5.2079   2.2907   4.8178   5.0039

          k = 0.0625-0.0625 0.1875 (   346 PWs)   bands (ev):

    -5.7215   4.5007   5.2902   5.4394

          k =-0.0625 0.3125 0.0625 (   354 PWs)   bands (ev):

    -5.4597   3.6060   4.7458   4.8206

          k =-0.1875 0.4375-0.0625 (   357 PWs)   bands (ev):

    -4.9478   2.1297   3.7977   4.5679

          k =-0.3125 0.5625-0.1875 (   361 PWs)   bands (ev):

    -4.1250   0.3186   3.3048   4.1698

          k = 0.5625-0.3125 0.6875 (   368 PWs)   bands (ev):

    -3.3881  -0.8560   3.0191   4.0797

          k = 0.4375-0.1875 0.5625 (   364 PWs)   bands (ev):

    -3.8303  -0.1868   2.9518   4.3560

          k = 0.3125-0.0625 0.4375 (   361 PWs)   bands (ev):

    -4.7064   1.4953   3.2557   4.8502

          k = 0.1875 0.0625 0.3125 (   359 PWs)   bands (ev):

    -5.3329   2.9489   4.3548   5.2139

          k =-0.0625 0.5625 0.0625 (   355 PWs)   bands (ev):

    -4.5562   1.6203   3.6591   3.7775

          k =-0.1875 0.6875-0.0625 (   359 PWs)   bands (ev):

    -3.8226   0.4084   2.8935   3.4401

          k = 0.6875-0.1875 0.8125 (   367 PWs)   bands (ev):

    -2.9508  -0.7570   2.0747   3.4090

          k = 0.5625-0.0625 0.6875 (   369 PWs)   bands (ev):

    -3.0217  -0.6647   1.7334   3.7439

          k = 0.4375 0.0625 0.5625 (   365 PWs)   bands (ev):

    -3.8931   0.2731   2.3185   4.3134

          k = 0.3125 0.1875 0.4375 (   358 PWs)   bands (ev):

    -4.5962   0.9141   3.9038   4.7526

          k =-0.0625 0.8125 0.0625 (   364 PWs)   bands (ev):

    -3.1837  -0.4387   2.9873   3.1966

          k = 0.8125-0.0625 0.9375 (   363 PWs)   bands (ev):

    -2.2966  -1.4066   2.4479   2.9615

          k = 0.6875 0.0625 0.8125 (   369 PWs)   bands (ev):

    -2.3972  -1.2413   1.7411   3.2688

          k = 0.5625 0.1875 0.6875 (   365 PWs)   bands (ev):

    -3.1372  -0.8217   2.2649   3.8546

          k = 0.4375 0.3125 0.5625 (   365 PWs)   bands (ev):

    -3.7308  -0.6609   3.7279   4.4259

          k =-0.0625-0.9375 0.0625 (   362 PWs)   bands (ev):

    -2.3454  -1.4224   2.8527   3.0779

          k =-0.1875-0.8125-0.0625 (   359 PWs)   bands (ev):

    -3.1010  -0.5008   2.6005   3.1177

          k =-0.3125-0.6875-0.1875 (   364 PWs)   bands (ev):

    -3.5640  -0.2279   2.6508   3.7018

          k =-0.0625-0.6875 0.0625 (   358 PWs)   bands (ev):

    -3.9249   0.5858   3.2566   3.4317

          k =-0.1875-0.5625-0.0625 (   356 PWs)   bands (ev):

    -4.4420   1.2881   3.3017   3.9354

          k =-0.0625-0.4375 0.0625 (   351 PWs)   bands (ev):

    -5.0698   2.6372   4.1896   4.2234

          k =-0.1875 0.1875 0.1875 (   359 PWs)   bands (ev):

    -5.4632   3.0494   5.2725   5.2725

          k =-0.3125 0.3125 0.0625 (   360 PWs)   bands (ev):

    -5.0803   2.2140   3.7958   5.2871

          k =-0.4375 0.4375-0.0625 (   362 PWs)   bands (ev):

    -4.3513   0.8663   2.7401   4.7939

          k = 0.4375-0.4375 0.8125 (   367 PWs)   bands (ev):

    -3.4820  -0.5824   2.5829   4.2759

          k = 0.3125-0.3125 0.6875 (   368 PWs)   bands (ev):

    -3.4668  -0.6103   2.8729   3.9660

          k = 0.1875-0.1875 0.5625 (   358 PWs)   bands (ev):

    -4.3341   0.8632   3.4739   3.9443

          k =-0.1875 0.4375 0.1875 (   362 PWs)   bands (ev):

    -4.8296   1.5636   4.2789   4.3536

          k =-0.3125 0.5625 0.0625 (   361 PWs)   bands (ev):

    -4.2178   0.7959   2.7956   4.1614

          k = 0.5625-0.3125 0.9375 (   367 PWs)   bands (ev):

    -3.3496  -0.2880   2.0270   3.6098

          k = 0.4375-0.1875 0.8125 (   369 PWs)   bands (ev):

    -2.8763  -0.8841   2.0264   3.3060

          k = 0.3125-0.0625 0.6875 (   362 PWs)   bands (ev):

    -3.6259   0.0932   2.4419   3.4800

          k =-0.1875 0.6875 0.1875 (   362 PWs)   bands (ev):

    -3.7322   0.1521   2.7652   3.6205

          k = 0.6875-0.1875 1.0625 (   363 PWs)   bands (ev):

    -2.9479  -0.6378   2.2066   2.9580

          k = 0.5625-0.0625 0.9375 (   370 PWs)   bands (ev):

    -2.1617  -1.3798   1.8996   2.4709

          k = 0.4375 0.0625 0.8125 (   367 PWs)   bands (ev):

    -2.7498  -0.8395   1.8891   2.9338

          k =-0.1875-1.0625 0.1875 (   364 PWs)   bands (ev):

    -2.3193  -1.3560   2.0008   3.2853

          k =-0.3125-0.9375 0.0625 (   366 PWs)   bands (ev):

    -2.2211  -1.3880   2.0922   2.6782

          k =-0.1875-0.8125 0.1875 (   362 PWs)   bands (ev):

    -3.0425  -0.5989   2.2582   3.3982

          k =-0.3125 0.3125 0.3125 (   359 PWs)   bands (ev):

    -4.7252   0.8890   4.8660   4.8660

          k =-0.4375 0.4375 0.1875 (   362 PWs)   bands (ev):

    -4.2575   0.3181   3.4301   4.7792

          k = 0.4375-0.4375 1.0625 (   367 PWs)   bands (ev):

    -3.4849  -0.2205   1.9484   4.2135

          k = 0.3125-0.3125 0.9375 (   364 PWs)   bands (ev):

    -2.6849  -0.9908   1.6230   3.6802

          k =-0.3125 0.5625 0.3125 (   368 PWs)   bands (ev):

    -3.9522  -0.2268   3.7532   4.2307

          k = 0.5625-0.3125 1.1875 (   367 PWs)   bands (ev):

    -3.3479  -0.5885   2.4799   3.7700

          k = 0.4375-0.1875 1.0625 (   370 PWs)   bands (ev):

    -2.5497  -1.0589   1.7128   3.0759

          k =-0.3125-1.1875 0.3125 (   363 PWs)   bands (ev):

    -2.9985  -0.8656   2.1014   3.7778

          k =-0.4375 0.4375 0.4375 (   356 PWs)   bands (ev):

    -3.8610  -0.7162   4.6484   4.6484

          k = 0.4375-0.4375 1.3125 (   365 PWs)   bands (ev):

    -3.5199  -0.8917   3.4447   4.3875

     highest occupied level (ev):     5.7045

!    total energy              =     -19.19100855 Ry
     Harris-Foulkes estimate   =     -19.19100855 Ry
     estimated scf accuracy    <          7.2E-09 Ry

     The total energy is the sum of the following terms:

     one-electron contribution =       4.80645158 Ry
     hartree contribution      =       1.15031621 Ry
     xc contribution           =      -8.57301309 Ry
     ewald contribution        =     -16.57476325 Ry

     convergence has been achieved in   6 iterations

     Writing output data file silicon.10.400.save

     init_run     :      0.27s CPU      0.30s WALL (       1 calls)
     electrons    :      1.24s CPU      1.83s WALL (       1 calls)

     Called by init_run:
     wfcinit      :      0.07s CPU      0.08s WALL (       1 calls)
     potinit      :      0.01s CPU      0.01s WALL (       1 calls)

     Called by electrons:
     c_bands      :      0.88s CPU      1.27s WALL (       7 calls)
     sum_band     :      0.23s CPU      0.36s WALL (       7 calls)
     v_of_rho     :      0.06s CPU      0.10s WALL (       7 calls)
     newd         :      0.09s CPU      0.10s WALL (       7 calls)
     mix_rho      :      0.00s CPU      0.01s WALL (       7 calls)

     Called by c_bands:
     init_us_2    :      0.06s CPU      0.06s WALL (     900 calls)
     cegterg      :      0.75s CPU      1.08s WALL (     420 calls)

     Called by sum_band:
     sum_band:bec :      0.00s CPU      0.01s WALL (     420 calls)
     addusdens    :      0.07s CPU      0.11s WALL (       7 calls)

     Called by *egterg:
     h_psi        :      0.52s CPU      0.74s WALL (    1300 calls)
     s_psi        :      0.05s CPU      0.06s WALL (    1300 calls)
     g_psi        :      0.00s CPU      0.00s WALL (     820 calls)
     cdiaghg      :      0.09s CPU      0.10s WALL (    1180 calls)

     Called by h_psi:
     h_psi:pot    :      0.52s CPU      0.73s WALL (    1300 calls)
     h_psi:calbec :      0.08s CPU      0.12s WALL (    1300 calls)
     vloc_psi     :      0.38s CPU      0.54s WALL (    1300 calls)
     add_vuspsi   :      0.05s CPU      0.06s WALL (    1300 calls)

     General routines
     calbec       :      0.11s CPU      0.18s WALL (    1720 calls)
     fft          :      0.06s CPU      0.14s WALL (     112 calls)
     ffts         :      0.00s CPU      0.00s WALL (      14 calls)
     fftw         :      0.38s CPU      0.57s WALL (   11622 calls)
     interpolate  :      0.01s CPU      0.03s WALL (      14 calls)
     davcio       :      0.00s CPU      0.00s WALL (      60 calls)

     Parallel routines
     fft_scatter  :      0.24s CPU      0.49s WALL (   11748 calls)

     PWSCF        :     1.78s CPU         2.41s WALL


   This run was terminated on:  10: 3:35  10Nov2017            

=------------------------------------------------------------------------------=
   JOB DONE.
=------------------------------------------------------------------------------=
