
     Program PWSCF v.6.1 (svn rev. 13369) starts on 10Nov2017 at 10: 3:45 

     This program is part of the open-source Quantum ESPRESSO suite
     for quantum simulation of materials; please cite
         "P. Giannozzi et al., J. Phys.:Condens. Matter 21 395502 (2009);
          URL http://www.quantum-espresso.org", 
     in publications or presentations arising from this work. More details at
     http://www.quantum-espresso.org/quote

     Parallel version (MPI), running on     4 processors
     R & G space division:  proc/nbgrp/npool/nimage =       4
     Waiting for input...
     Reading input from standard input
     Message from routine read_cards :
     DEPRECATED: no units specified in ATOMIC_POSITIONS card
     Message from routine read_cards :
     ATOMIC_POSITIONS: units set to alat

     Current dimensions of program PWSCF are:
     Max number of different atomic species (ntypx) = 10
     Max number of k-points (npk) =  40000
     Max angular momentum in pseudopotentials (lmaxx) =  3

     Subspace diagonalization in iterative solution of the eigenvalue problem:
     a serial algorithm will be used


     Parallelization info
     --------------------
     sticks:   dense  smooth     PW     G-vecs:    dense   smooth      PW
     Min         133      66     22                 2024      722     152
     Max         134      67     23                 2025      724     153
     Sum         535     265     91                 8099     2891     609



     bravais-lattice index     =            2
     lattice parameter (alat)  =      10.4050  a.u.
     unit-cell volume          =     281.6218 (a.u.)^3
     number of atoms/cell      =            2
     number of atomic types    =            1
     number of electrons       =         8.00
     number of Kohn-Sham states=            4
     kinetic-energy cutoff     =      18.0000  Ry
     charge density cutoff     =     144.0000  Ry
     convergence threshold     =      1.0E-08
     mixing beta               =       0.7000
     number of iterations used =            8  plain     mixing
     Exchange-correlation      = SLA  PW   PBE  PBE ( 1  4  3  4 0 0)

     celldm(1)=  10.405000  celldm(2)=   0.000000  celldm(3)=   0.000000
     celldm(4)=   0.000000  celldm(5)=   0.000000  celldm(6)=   0.000000

     crystal axes: (cart. coord. in units of alat)
               a(1) = (  -0.500000   0.000000   0.500000 )  
               a(2) = (   0.000000   0.500000   0.500000 )  
               a(3) = (  -0.500000   0.500000   0.000000 )  

     reciprocal axes: (cart. coord. in units 2 pi/alat)
               b(1) = ( -1.000000 -1.000000  1.000000 )  
               b(2) = (  1.000000  1.000000  1.000000 )  
               b(3) = ( -1.000000  1.000000 -1.000000 )  


     PseudoPot. # 1 for Si read from file:
     /home/max/quantum_espresso/qe-6.1/pseudo/si_pbe_v1.uspp.F.UPF.txt
     MD5 check sum: a056efeee980c13900f22a371efd63c1
     Pseudo is Ultrasoft + core correction, Zval =  4.0
     Generated by new atomic code, or converted to UPF format
     Using radial grid of  899 points,  6 beta functions with: 
                l(1) =   0
                l(2) =   0
                l(3) =   1
                l(4) =   1
                l(5) =   2
                l(6) =   2
     Q(r) pseudized with  8 coefficients,  rinner =    0.900   0.900   0.900
                                                       0.900   0.900

     atomic species   valence    mass     pseudopotential
        Si             4.00    28.08600     Si( 1.00)

     24 Sym. Ops. (no inversion) found
          (note: 24 additional sym.ops. were found but ignored
           their fractional translations are incommensurate with FFT grid)


   Cartesian axes

     site n.     atom                  positions (alat units)
         1           Si  tau(   1) = (   0.0000000   0.0000000   0.0000000  )
         2           Si  tau(   2) = (   0.2500000   0.2500000   0.2500000  )

     number of k points=    60
                       cart. coord. in units 2pi/alat
        k(    1) = (  -0.0625000   0.0625000   0.0625000), wk =   0.0078125
        k(    2) = (  -0.1875000   0.1875000  -0.0625000), wk =   0.0234375
        k(    3) = (  -0.3125000   0.3125000  -0.1875000), wk =   0.0234375
        k(    4) = (  -0.4375000   0.4375000  -0.3125000), wk =   0.0234375
        k(    5) = (   0.4375000  -0.4375000   0.5625000), wk =   0.0234375
        k(    6) = (   0.3125000  -0.3125000   0.4375000), wk =   0.0234375
        k(    7) = (   0.1875000  -0.1875000   0.3125000), wk =   0.0234375
        k(    8) = (   0.0625000  -0.0625000   0.1875000), wk =   0.0234375
        k(    9) = (  -0.0625000   0.3125000   0.0625000), wk =   0.0234375
        k(   10) = (  -0.1875000   0.4375000  -0.0625000), wk =   0.0468750
        k(   11) = (  -0.3125000   0.5625000  -0.1875000), wk =   0.0468750
        k(   12) = (   0.5625000  -0.3125000   0.6875000), wk =   0.0468750
        k(   13) = (   0.4375000  -0.1875000   0.5625000), wk =   0.0468750
        k(   14) = (   0.3125000  -0.0625000   0.4375000), wk =   0.0468750
        k(   15) = (   0.1875000   0.0625000   0.3125000), wk =   0.0468750
        k(   16) = (  -0.0625000   0.5625000   0.0625000), wk =   0.0234375
        k(   17) = (  -0.1875000   0.6875000  -0.0625000), wk =   0.0468750
        k(   18) = (   0.6875000  -0.1875000   0.8125000), wk =   0.0468750
        k(   19) = (   0.5625000  -0.0625000   0.6875000), wk =   0.0468750
        k(   20) = (   0.4375000   0.0625000   0.5625000), wk =   0.0468750
        k(   21) = (   0.3125000   0.1875000   0.4375000), wk =   0.0468750
        k(   22) = (  -0.0625000   0.8125000   0.0625000), wk =   0.0234375
        k(   23) = (   0.8125000  -0.0625000   0.9375000), wk =   0.0468750
        k(   24) = (   0.6875000   0.0625000   0.8125000), wk =   0.0468750
        k(   25) = (   0.5625000   0.1875000   0.6875000), wk =   0.0468750
        k(   26) = (   0.4375000   0.3125000   0.5625000), wk =   0.0468750
        k(   27) = (  -0.0625000  -0.9375000   0.0625000), wk =   0.0234375
        k(   28) = (  -0.1875000  -0.8125000  -0.0625000), wk =   0.0468750
        k(   29) = (  -0.3125000  -0.6875000  -0.1875000), wk =   0.0468750
        k(   30) = (  -0.0625000  -0.6875000   0.0625000), wk =   0.0234375
        k(   31) = (  -0.1875000  -0.5625000  -0.0625000), wk =   0.0468750
        k(   32) = (  -0.0625000  -0.4375000   0.0625000), wk =   0.0234375
        k(   33) = (  -0.1875000   0.1875000   0.1875000), wk =   0.0078125
        k(   34) = (  -0.3125000   0.3125000   0.0625000), wk =   0.0234375
        k(   35) = (  -0.4375000   0.4375000  -0.0625000), wk =   0.0234375
        k(   36) = (   0.4375000  -0.4375000   0.8125000), wk =   0.0234375
        k(   37) = (   0.3125000  -0.3125000   0.6875000), wk =   0.0234375
        k(   38) = (   0.1875000  -0.1875000   0.5625000), wk =   0.0234375
        k(   39) = (  -0.1875000   0.4375000   0.1875000), wk =   0.0234375
        k(   40) = (  -0.3125000   0.5625000   0.0625000), wk =   0.0468750
        k(   41) = (   0.5625000  -0.3125000   0.9375000), wk =   0.0468750
        k(   42) = (   0.4375000  -0.1875000   0.8125000), wk =   0.0468750
        k(   43) = (   0.3125000  -0.0625000   0.6875000), wk =   0.0468750
        k(   44) = (  -0.1875000   0.6875000   0.1875000), wk =   0.0234375
        k(   45) = (   0.6875000  -0.1875000   1.0625000), wk =   0.0468750
        k(   46) = (   0.5625000  -0.0625000   0.9375000), wk =   0.0468750
        k(   47) = (   0.4375000   0.0625000   0.8125000), wk =   0.0468750
        k(   48) = (  -0.1875000  -1.0625000   0.1875000), wk =   0.0234375
        k(   49) = (  -0.3125000  -0.9375000   0.0625000), wk =   0.0468750
        k(   50) = (  -0.1875000  -0.8125000   0.1875000), wk =   0.0234375
        k(   51) = (  -0.3125000   0.3125000   0.3125000), wk =   0.0078125
        k(   52) = (  -0.4375000   0.4375000   0.1875000), wk =   0.0234375
        k(   53) = (   0.4375000  -0.4375000   1.0625000), wk =   0.0234375
        k(   54) = (   0.3125000  -0.3125000   0.9375000), wk =   0.0234375
        k(   55) = (  -0.3125000   0.5625000   0.3125000), wk =   0.0234375
        k(   56) = (   0.5625000  -0.3125000   1.1875000), wk =   0.0468750
        k(   57) = (   0.4375000  -0.1875000   1.0625000), wk =   0.0468750
        k(   58) = (  -0.3125000  -1.1875000   0.3125000), wk =   0.0234375
        k(   59) = (  -0.4375000   0.4375000   0.4375000), wk =   0.0078125
        k(   60) = (   0.4375000  -0.4375000   1.3125000), wk =   0.0234375

     Dense  grid:     8099 G-vectors     FFT dimensions: (  30,  30,  30)

     Smooth grid:     2891 G-vectors     FFT dimensions: (  20,  20,  20)

     Estimated max dynamical RAM per process >       1.73MB

     Estimated total allocated dynamical RAM >       6.94MB

     Initial potential from superposition of free atoms

     starting charge    7.99866, renormalised to    8.00000
     Starting wfc are    8 randomized atomic wfcs

     total cpu time spent up to now is        0.8 secs

     per-process dynamical memory:     8.6 Mb

     Self-consistent Calculation

     iteration #  1     ecut=    18.00 Ry     beta=0.70
     Davidson diagonalization with overlap
     ethr =  1.00E-02,  avg # of iterations =  2.0

     Threshold (ethr) on eigenvalues was too large:
     Diagonalizing with lowered threshold

     Davidson diagonalization with overlap
     ethr =  6.53E-04,  avg # of iterations =  1.0

     total cpu time spent up to now is        1.1 secs

     total energy              =     -19.18909230 Ry
     Harris-Foulkes estimate   =     -19.20067234 Ry
     estimated scf accuracy    <       0.05194844 Ry

     iteration #  2     ecut=    18.00 Ry     beta=0.70
     Davidson diagonalization with overlap
     ethr =  6.49E-04,  avg # of iterations =  1.0

     total cpu time spent up to now is        1.3 secs

     total energy              =     -19.19068408 Ry
     Harris-Foulkes estimate   =     -19.19085369 Ry
     estimated scf accuracy    <       0.00245562 Ry

     iteration #  3     ecut=    18.00 Ry     beta=0.70
     Davidson diagonalization with overlap
     ethr =  3.07E-05,  avg # of iterations =  1.9

     total cpu time spent up to now is        1.5 secs

     total energy              =     -19.19094857 Ry
     Harris-Foulkes estimate   =     -19.19096067 Ry
     estimated scf accuracy    <       0.00003849 Ry

     iteration #  4     ecut=    18.00 Ry     beta=0.70
     Davidson diagonalization with overlap
     ethr =  4.81E-07,  avg # of iterations =  2.8

     total cpu time spent up to now is        1.7 secs

     total energy              =     -19.19097269 Ry
     Harris-Foulkes estimate   =     -19.19097315 Ry
     estimated scf accuracy    <       0.00000203 Ry

     iteration #  5     ecut=    18.00 Ry     beta=0.70
     Davidson diagonalization with overlap
     ethr =  2.53E-08,  avg # of iterations =  2.1

     total cpu time spent up to now is        1.9 secs

     total energy              =     -19.19097310 Ry
     Harris-Foulkes estimate   =     -19.19097311 Ry
     estimated scf accuracy    <       0.00000004 Ry

     iteration #  6     ecut=    18.00 Ry     beta=0.70
     Davidson diagonalization with overlap
     ethr =  5.60E-10,  avg # of iterations =  2.7

     total cpu time spent up to now is        2.1 secs

     End of self-consistent calculation

          k =-0.0625 0.0625 0.0625 (   338 PWs)   bands (ev):

    -5.8579   5.2378   5.6902   5.6902

          k =-0.1875 0.1875-0.0625 (   355 PWs)   bands (ev):

    -5.5971   3.7435   4.9053   5.5725

          k =-0.3125 0.3125-0.1875 (   360 PWs)   bands (ev):

    -4.9667   1.5643   4.4240   5.1201

          k =-0.4375 0.4375-0.3125 (   364 PWs)   bands (ev):

    -4.0909  -0.2755   4.2086   4.7220

          k = 0.4375-0.4375 0.5625 (   364 PWs)   bands (ev):

    -3.6595  -0.9543   4.2552   4.5101

          k = 0.3125-0.3125 0.4375 (   357 PWs)   bands (ev):

    -4.3899   0.2677   4.5323   4.5349

          k = 0.1875-0.1875 0.3125 (   357 PWs)   bands (ev):

    -5.2136   2.2781   4.8047   4.9900

          k = 0.0625-0.0625 0.1875 (   346 PWs)   bands (ev):

    -5.7266   4.4859   5.2766   5.4251

          k =-0.0625 0.3125 0.0625 (   354 PWs)   bands (ev):

    -5.4651   3.5911   4.7330   4.8072

          k =-0.1875 0.4375-0.0625 (   358 PWs)   bands (ev):

    -4.9540   2.1160   3.7860   4.5549

          k =-0.3125 0.5625-0.1875 (   364 PWs)   bands (ev):

    -4.1324   0.3072   3.2931   4.1574

          k = 0.5625-0.3125 0.6875 (   368 PWs)   bands (ev):

    -3.3967  -0.8650   3.0076   4.0676

          k = 0.4375-0.1875 0.5625 (   364 PWs)   bands (ev):

    -3.8381  -0.1970   2.9407   4.3434

          k = 0.3125-0.0625 0.4375 (   361 PWs)   bands (ev):

    -4.7128   1.4826   3.2448   4.8368

          k = 0.1875 0.0625 0.3125 (   359 PWs)   bands (ev):

    -5.3385   2.9351   4.3425   5.1999

          k =-0.0625 0.5625 0.0625 (   357 PWs)   bands (ev):

    -4.5629   1.6062   3.6476   3.7659

          k =-0.1875 0.6875-0.0625 (   359 PWs)   bands (ev):

    -3.8302   0.3957   2.8832   3.4290

          k = 0.6875-0.1875 0.8125 (   367 PWs)   bands (ev):

    -2.9597  -0.7679   2.0656   3.3980

          k = 0.5625-0.0625 0.6875 (   369 PWs)   bands (ev):

    -3.0307  -0.6756   1.7250   3.7323

          k = 0.4375 0.0625 0.5625 (   365 PWs)   bands (ev):

    -3.9007   0.2615   2.3090   4.3009

          k = 0.3125 0.1875 0.4375 (   361 PWs)   bands (ev):

    -4.6030   0.9029   3.8914   4.7393

          k =-0.0625 0.8125 0.0625 (   364 PWs)   bands (ev):

    -3.1920  -0.4506   2.9768   3.1857

          k = 0.8125-0.0625 0.9375 (   363 PWs)   bands (ev):

    -2.3062  -1.4173   2.4385   2.9510

          k = 0.6875 0.0625 0.8125 (   369 PWs)   bands (ev):

    -2.4071  -1.2520   1.7330   3.2579

          k = 0.5625 0.1875 0.6875 (   367 PWs)   bands (ev):

    -3.1465  -0.8314   2.2549   3.8429

          k = 0.4375 0.3125 0.5625 (   366 PWs)   bands (ev):

    -3.7389  -0.6699   3.7155   4.4130

          k =-0.0625-0.9375 0.0625 (   362 PWs)   bands (ev):

    -2.3548  -1.4330   2.8424   3.0671

          k =-0.1875-0.8125-0.0625 (   361 PWs)   bands (ev):

    -3.1095  -0.5129   2.5908   3.1071

          k =-0.3125-0.6875-0.1875 (   365 PWs)   bands (ev):

    -3.5721  -0.2390   2.6401   3.6903

          k =-0.0625-0.6875 0.0625 (   362 PWs)   bands (ev):

    -3.9325   0.5721   3.2456   3.4205

          k =-0.1875-0.5625-0.0625 (   358 PWs)   bands (ev):

    -4.4489   1.2749   3.2906   3.9235

          k =-0.0625-0.4375 0.0625 (   353 PWs)   bands (ev):

    -5.0758   2.6223   4.1773   4.2111

          k =-0.1875 0.1875 0.1875 (   359 PWs)   bands (ev):

    -5.4687   3.0361   5.2588   5.2588

          k =-0.3125 0.3125 0.0625 (   362 PWs)   bands (ev):

    -5.0864   2.2007   3.7842   5.2730

          k =-0.4375 0.4375-0.0625 (   362 PWs)   bands (ev):

    -4.3583   0.8542   2.7299   4.7806

          k = 0.4375-0.4375 0.8125 (   367 PWs)   bands (ev):

    -3.4904  -0.5921   2.5723   4.2633

          k = 0.3125-0.3125 0.6875 (   368 PWs)   bands (ev):

    -3.4752  -0.6200   2.8617   3.9539

          k = 0.1875-0.1875 0.5625 (   358 PWs)   bands (ev):

    -4.3410   0.8511   3.4621   3.9324

          k =-0.1875 0.4375 0.1875 (   362 PWs)   bands (ev):

    -4.8359   1.5513   4.2658   4.3412

          k =-0.3125 0.5625 0.0625 (   361 PWs)   bands (ev):

    -4.2249   0.7835   2.7853   4.1491

          k = 0.5625-0.3125 0.9375 (   367 PWs)   bands (ev):

    -3.3580  -0.2995   2.0180   3.5985

          k = 0.4375-0.1875 0.8125 (   369 PWs)   bands (ev):

    -2.8855  -0.8945   2.0171   3.2953

          k = 0.3125-0.0625 0.6875 (   365 PWs)   bands (ev):

    -3.6338   0.0807   2.4321   3.4690

          k =-0.1875 0.6875 0.1875 (   362 PWs)   bands (ev):

    -3.7399   0.1402   2.7549   3.6090

          k = 0.6875-0.1875 1.0625 (   363 PWs)   bands (ev):

    -2.9568  -0.6494   2.1975   2.9479

          k = 0.5625-0.0625 0.9375 (   370 PWs)   bands (ev):

    -2.1718  -1.3906   1.8913   2.4617

          k = 0.4375 0.0625 0.8125 (   371 PWs)   bands (ev):

    -2.7595  -0.8507   1.8804   2.9238

          k =-0.1875-1.0625 0.1875 (   364 PWs)   bands (ev):

    -2.3290  -1.3667   1.9922   3.2742

          k =-0.3125-0.9375 0.0625 (   368 PWs)   bands (ev):

    -2.2312  -1.3990   2.0834   2.6685

          k =-0.1875-0.8125 0.1875 (   364 PWs)   bands (ev):

    -3.0514  -0.6104   2.2490   3.3870

          k =-0.3125 0.3125 0.3125 (   359 PWs)   bands (ev):

    -4.7316   0.8781   4.8526   4.8526

          k =-0.4375 0.4375 0.1875 (   362 PWs)   bands (ev):

    -4.2646   0.3075   3.4184   4.7659

          k = 0.4375-0.4375 1.0625 (   367 PWs)   bands (ev):

    -3.4931  -0.2317   1.9395   4.2011

          k = 0.3125-0.3125 0.9375 (   366 PWs)   bands (ev):

    -2.6945  -1.0018   1.6147   3.6684

          k =-0.3125 0.5625 0.3125 (   368 PWs)   bands (ev):

    -3.9598  -0.2366   3.7406   4.2183

          k = 0.5625-0.3125 1.1875 (   368 PWs)   bands (ev):

    -3.3564  -0.5986   2.4694   3.7585

          k = 0.4375-0.1875 1.0625 (   372 PWs)   bands (ev):

    -2.5595  -1.0699   1.7046   3.0654

          k =-0.3125-1.1875 0.3125 (   365 PWs)   bands (ev):

    -3.0081  -0.8756   2.0920   3.7660

          k =-0.4375 0.4375 0.4375 (   356 PWs)   bands (ev):

    -3.8689  -0.7248   4.6352   4.6352

          k = 0.4375-0.4375 1.3125 (   365 PWs)   bands (ev):

    -3.5284  -0.9003   3.4326   4.3748

     highest occupied level (ev):     5.6902

!    total energy              =     -19.19097312 Ry
     Harris-Foulkes estimate   =     -19.19097313 Ry
     estimated scf accuracy    <          6.2E-09 Ry

     The total energy is the sum of the following terms:

     one-electron contribution =       4.79557099 Ry
     hartree contribution      =       1.15160000 Ry
     xc contribution           =      -8.57134567 Ry
     ewald contribution        =     -16.56679844 Ry

     convergence has been achieved in   6 iterations

     Writing output data file silicon.10.405.save

     init_run     :      0.31s CPU      0.67s WALL (       1 calls)
     electrons    :      1.11s CPU      1.31s WALL (       1 calls)

     Called by init_run:
     wfcinit      :      0.10s CPU      0.28s WALL (       1 calls)
     potinit      :      0.01s CPU      0.05s WALL (       1 calls)

     Called by electrons:
     c_bands      :      0.77s CPU      0.94s WALL (       7 calls)
     sum_band     :      0.21s CPU      0.23s WALL (       7 calls)
     v_of_rho     :      0.06s CPU      0.08s WALL (       7 calls)
     newd         :      0.09s CPU      0.11s WALL (       7 calls)
     mix_rho      :      0.00s CPU      0.01s WALL (       7 calls)

     Called by c_bands:
     init_us_2    :      0.06s CPU      0.06s WALL (     900 calls)
     cegterg      :      0.64s CPU      0.78s WALL (     420 calls)

     Called by sum_band:
     sum_band:bec :      0.01s CPU      0.01s WALL (     420 calls)
     addusdens    :      0.08s CPU      0.08s WALL (       7 calls)

     Called by *egterg:
     h_psi        :      0.49s CPU      0.71s WALL (    1300 calls)
     s_psi        :      0.06s CPU      0.06s WALL (    1300 calls)
     g_psi        :      0.00s CPU      0.00s WALL (     820 calls)
     cdiaghg      :      0.08s CPU      0.10s WALL (    1180 calls)

     Called by h_psi:
     h_psi:pot    :      0.49s CPU      0.70s WALL (    1300 calls)
     h_psi:calbec :      0.08s CPU      0.14s WALL (    1300 calls)
     vloc_psi     :      0.34s CPU      0.50s WALL (    1300 calls)
     add_vuspsi   :      0.06s CPU      0.07s WALL (    1300 calls)

     General routines
     calbec       :      0.11s CPU      0.16s WALL (    1720 calls)
     fft          :      0.06s CPU      0.09s WALL (     112 calls)
     ffts         :      0.00s CPU      0.00s WALL (      14 calls)
     fftw         :      0.32s CPU      0.47s WALL (   11618 calls)
     interpolate  :      0.01s CPU      0.01s WALL (      14 calls)
     davcio       :      0.00s CPU      0.00s WALL (      60 calls)

     Parallel routines
     fft_scatter  :      0.17s CPU      0.32s WALL (   11744 calls)

     PWSCF        :     1.69s CPU         2.30s WALL


   This run was terminated on:  10: 3:47  10Nov2017            

=------------------------------------------------------------------------------=
   JOB DONE.
=------------------------------------------------------------------------------=
