
     Program PHONON v.6.1 (svn rev. 13369) starts on 10Nov2017 at 15:51:47 

     This program is part of the open-source Quantum ESPRESSO suite
     for quantum simulation of materials; please cite
         "P. Giannozzi et al., J. Phys.:Condens. Matter 21 395502 (2009);
          URL http://www.quantum-espresso.org", 
     in publications or presentations arising from this work. More details at
     http://www.quantum-espresso.org/quote

     Parallel version (MPI), running on     4 processors
     R & G space division:  proc/nbgrp/npool/nimage =       4

     Reading data from directory:
     ./silicon.10.340.save

   Info: using nr1, nr2, nr3 values from input

   Info: using nr1, nr2, nr3 values from input

     IMPORTANT: XC functional enforced from input :
     Exchange-correlation      = SLA  PW   PBE  PBE ( 1  4  3  4 0 0)
     Any further DFT definition will be discarded
     Please, verify this is what you really want


     Parallelization info
     --------------------
     sticks:   dense  smooth     PW     G-vecs:    dense   smooth      PW
     Min         219     109     37                 4315     1545     284
     Max         220     110     38                 4316     1546     285
     Sum         877     439    151                17261     6183    1139



     Dynamical matrices for ( 4, 4, 4)  uniform grid of q-points
     (   8q-points):
       N         xq(1)         xq(2)         xq(3) 
       1   0.000000000   0.000000000   0.000000000
       2  -0.250000000   0.250000000  -0.250000000
       3   0.500000000  -0.500000000   0.500000000
       4   0.000000000   0.500000000   0.000000000
       5   0.750000000  -0.250000000   0.750000000
       6   0.500000000   0.000000000   0.500000000
       7   0.000000000  -1.000000000   0.000000000
       8  -0.500000000  -1.000000000   0.000000000

     Calculation of q =    0.0000000   0.0000000   0.0000000

                                                                                

     bravais-lattice index     =            2
     lattice parameter (alat)  =      10.3400  a.u.
     unit-cell volume          =     276.3768 (a.u.)^3
     number of atoms/cell      =            2
     number of atomic types    =            1
     kinetic-energy cut-off    =      30.0000  Ry
     charge density cut-off    =     240.0000  Ry
     convergence threshold     =      1.0E-12
     beta                      =       0.7000
     number of iterations used =            4
     Exchange-correlation      = SLA  PW   PBE  PBE ( 1  4  3  4 0 0)


     celldm(1)=   10.34000  celldm(2)=    0.00000  celldm(3)=    0.00000
     celldm(4)=    0.00000  celldm(5)=    0.00000  celldm(6)=    0.00000

     crystal axes: (cart. coord. in units of alat)
               a(1) = ( -0.5000  0.0000  0.5000 )  
               a(2) = (  0.0000  0.5000  0.5000 )  
               a(3) = ( -0.5000  0.5000  0.0000 )  

     reciprocal axes: (cart. coord. in units 2 pi/alat)
               b(1) = ( -1.0000 -1.0000  1.0000 )  
               b(2) = (  1.0000  1.0000  1.0000 )  
               b(3) = ( -1.0000  1.0000 -1.0000 )  


     Atoms inside the unit cell: 

     Cartesian axes

     site n.  atom      mass           positions (alat units)
        1     Si  28.0860   tau(    1) = (    0.00000    0.00000    0.00000  )
        2     Si  28.0860   tau(    2) = (    0.25000    0.25000    0.25000  )

     Computing dynamical matrix for 
                    q = (   0.0000000   0.0000000   0.0000000 )

     49 Sym.Ops. (with q -> -q+G )


     G cutoff =  649.9689  (   4315 G-vectors)     FFT grid: ( 40, 40, 40)
     G cutoff =  324.9845  (   1546 G-vectors)  smooth grid: ( 25, 25, 25)
     number of k points=    10

     PseudoPot. # 1 for Si read from file:
     /home/s1333534/quantum_espresso/qe-6.1/pseudo/si_pbe_v1.uspp.F.UPF.txt
     MD5 check sum: a056efeee980c13900f22a371efd63c1
     Pseudo is Ultrasoft + core correction, Zval =  4.0
     Generated by new atomic code, or converted to UPF format
     Using radial grid of  899 points,  6 beta functions with: 
                l(1) =   0
                l(2) =   0
                l(3) =   1
                l(4) =   1
                l(5) =   2
                l(6) =   2
     Q(r) pseudized with  8 coefficients,  rinner =    0.900   0.900   0.900
                                                       0.900   0.900

     Mode symmetry, O_h (m-3m)  point group:


     Electric field:
     Dielectric constant
     Born effective charges in two ways 


     Atomic displacements:
     There are   2 irreducible representations

     Representation     1      3 modes -T_2g G_25' G_5+  To be done

     Representation     2      3 modes -T_1u G_15  G_4-  To be done



     Alpha used in Ewald sum =   2.5000
     PHONON       :     0.96s CPU         1.43s WALL


     Electric Fields Calculation

      iter #   1 total cpu time :     2.6 secs   av.it.:   5.7
      thresh= 1.000E-02 alpha_mix =  0.700 |ddv_scf|^2 =  9.692E-08

      iter #   2 total cpu time :     3.4 secs   av.it.:  11.9
      thresh= 3.113E-05 alpha_mix =  0.700 |ddv_scf|^2 =  5.725E-09

      iter #   3 total cpu time :     4.2 secs   av.it.:  11.7
      thresh= 7.566E-06 alpha_mix =  0.700 |ddv_scf|^2 =  3.832E-10

      iter #   4 total cpu time :     5.0 secs   av.it.:  10.6
      thresh= 1.957E-06 alpha_mix =  0.700 |ddv_scf|^2 =  2.531E-12

      iter #   5 total cpu time :     5.6 secs   av.it.:  11.2
      thresh= 1.591E-07 alpha_mix =  0.700 |ddv_scf|^2 =  2.524E-15

     End of electric fields calculation

          Dielectric constant in cartesian axis 

          (      13.979377894      -0.000000000       0.000000000 )
          (      -0.000000000      13.979377894      -0.000000000 )
          (       0.000000000      -0.000000000      13.979377894 )

          Effective charges (d Force / dE) in cartesian axis

           atom      1   Si 
      Ex  (       -0.03840        0.00000       -0.00000 )
      Ey  (        0.00000       -0.03840       -0.00000 )
      Ez  (        0.00000        0.00000       -0.03840 )
           atom      2   Si 
      Ex  (       -0.03840       -0.00000        0.00000 )
      Ey  (        0.00000       -0.03840        0.00000 )
      Ez  (       -0.00000       -0.00000       -0.03840 )


     Representation #  1 modes #   1  2  3

     Self-consistent Calculation

      iter #   1 total cpu time :     7.0 secs   av.it.:   5.1
      thresh= 1.000E-02 alpha_mix =  0.700 |ddv_scf|^2 =  1.713E-08

      iter #   2 total cpu time :     7.9 secs   av.it.:  11.8
      thresh= 1.309E-05 alpha_mix =  0.700 |ddv_scf|^2 =  7.007E-10

      iter #   3 total cpu time :     8.8 secs   av.it.:  11.3
      thresh= 2.647E-06 alpha_mix =  0.700 |ddv_scf|^2 =  4.767E-11

      iter #   4 total cpu time :     9.5 secs   av.it.:  10.4
      thresh= 6.904E-07 alpha_mix =  0.700 |ddv_scf|^2 =  1.180E-13

     End of self-consistent calculation

     Convergence has been achieved 


     Representation #  2 modes #   4  5  6

     Self-consistent Calculation

      iter #   1 total cpu time :    10.5 secs   av.it.:   5.2
      thresh= 1.000E-02 alpha_mix =  0.700 |ddv_scf|^2 =  1.351E-08

      iter #   2 total cpu time :    11.3 secs   av.it.:  11.8
      thresh= 1.162E-05 alpha_mix =  0.700 |ddv_scf|^2 =  7.948E-10

      iter #   3 total cpu time :    12.1 secs   av.it.:  11.4
      thresh= 2.819E-06 alpha_mix =  0.700 |ddv_scf|^2 =  4.932E-11

      iter #   4 total cpu time :    12.8 secs   av.it.:  11.5
      thresh= 7.023E-07 alpha_mix =  0.700 |ddv_scf|^2 =  1.913E-13

     End of self-consistent calculation

     Convergence has been achieved 

     Number of q in the star =    1
     List of q in the star:
          1   0.000000000   0.000000000   0.000000000

          Dielectric constant in cartesian axis 

          (      13.979377894      -0.000000000       0.000000000 )
          (      -0.000000000      13.979377894      -0.000000000 )
          (       0.000000000      -0.000000000      13.979377894 )

          Effective charges (d Force / dE) in cartesian axis

           atom      1   Si 
      Ex  (       -0.03840        0.00000       -0.00000 )
      Ey  (        0.00000       -0.03840       -0.00000 )
      Ez  (        0.00000        0.00000       -0.03840 )
           atom      2   Si 
      Ex  (       -0.03840       -0.00000        0.00000 )
      Ey  (        0.00000       -0.03840        0.00000 )
      Ez  (       -0.00000       -0.00000       -0.03840 )

          Effective charges (d P / du) in cartesian axis 

           atom      1   Si 
      Px  (       -0.07258       -0.00000        0.00000 )
      Py  (       -0.00000       -0.07258       -0.00000 )
      Pz  (        0.00000       -0.00000       -0.07258 )
           atom      2   Si 
      Px  (       -0.07258        0.00000        0.00000 )
      Py  (        0.00000       -0.07258       -0.00000 )
      Pz  (        0.00000       -0.00000       -0.07258 )

     Diagonalizing the dynamical matrix

     q = (    0.000000000   0.000000000   0.000000000 ) 

 **************************************************************************
     freq (    1) =      -0.476203 [THz] =     -15.884406 [cm-1]
     freq (    2) =      -0.476203 [THz] =     -15.884406 [cm-1]
     freq (    3) =      -0.476203 [THz] =     -15.884406 [cm-1]
     freq (    4) =      15.039827 [THz] =     501.674638 [cm-1]
     freq (    5) =      15.039827 [THz] =     501.674638 [cm-1]
     freq (    6) =      15.039827 [THz] =     501.674638 [cm-1]
 **************************************************************************

     Mode symmetry, O_h (m-3m)  point group:

     freq (  1 -  3) =        -15.9  [cm-1]   --> T_1u G_15  G_4- I  
     freq (  4 -  6) =        501.7  [cm-1]   --> T_2g G_25' G_5+ R  

     Calculation of q =   -0.2500000   0.2500000  -0.2500000

   Info: using nr1, nr2, nr3 values from input

   Info: using nr1, nr2, nr3 values from input

     Parallelization info
     --------------------
     sticks:   dense  smooth     PW     G-vecs:    dense   smooth      PW
     Min         218     109     37                 4315     1545     309
     Max         220     110     38                 4316     1546     312
     Sum         877     439    151                17261     6183    1243



     bravais-lattice index     =            2
     lattice parameter (alat)  =      10.3400  a.u.
     unit-cell volume          =     276.3768 (a.u.)^3
     number of atoms/cell      =            2
     number of atomic types    =            1
     number of electrons       =         8.00
     number of Kohn-Sham states=            4
     kinetic-energy cutoff     =      30.0000  Ry
     charge density cutoff     =     240.0000  Ry
     Exchange-correlation      = SLA  PW   PBE  PBE ( 1  4  3  4 0 0)

     celldm(1)=  10.340000  celldm(2)=   0.000000  celldm(3)=   0.000000
     celldm(4)=   0.000000  celldm(5)=   0.000000  celldm(6)=   0.000000

     crystal axes: (cart. coord. in units of alat)
               a(1) = (  -0.500000   0.000000   0.500000 )  
               a(2) = (   0.000000   0.500000   0.500000 )  
               a(3) = (  -0.500000   0.500000   0.000000 )  

     reciprocal axes: (cart. coord. in units 2 pi/alat)
               b(1) = ( -1.000000 -1.000000  1.000000 )  
               b(2) = (  1.000000  1.000000  1.000000 )  
               b(3) = ( -1.000000  1.000000 -1.000000 )  


     PseudoPot. # 1 for Si read from file:
     /home/s1333534/quantum_espresso/qe-6.1/pseudo/si_pbe_v1.uspp.F.UPF.txt
     MD5 check sum: a056efeee980c13900f22a371efd63c1
     Pseudo is Ultrasoft + core correction, Zval =  4.0
     Generated by new atomic code, or converted to UPF format
     Using radial grid of  899 points,  6 beta functions with: 
                l(1) =   0
                l(2) =   0
                l(3) =   1
                l(4) =   1
                l(5) =   2
                l(6) =   2
     Q(r) pseudized with  8 coefficients,  rinner =    0.900   0.900   0.900
                                                       0.900   0.900

     atomic species   valence    mass     pseudopotential
        Si             4.00    28.08600     Si( 1.00)

     48 Sym. Ops., with inversion, found



   Cartesian axes

     site n.     atom                  positions (alat units)
         1           Si  tau(   1) = (   0.0000000   0.0000000   0.0000000  )
         2           Si  tau(   2) = (   0.2500000   0.2500000   0.2500000  )

     number of k points=   120

     Number of k-points >= 100: set verbosity='high' to print them.

     Dense  grid:    17261 G-vectors     FFT dimensions: (  40,  40,  40)

     Smooth grid:     6183 G-vectors     FFT dimensions: (  25,  25,  25)

     Estimated max dynamical RAM per process >       1.78MB

     Estimated total allocated dynamical RAM >       7.14MB

     The potential is recalculated from file :
     ./_ph0/silicon.10.340.save/charge-density.dat

     Starting wfc are    8 atomic wfcs

     Band Structure Calculation
     Davidson diagonalization with overlap

     ethr =  1.25E-10,  avg # of iterations = 12.2

     total cpu time spent up to now is        1.4 secs

     End of band structure calculation

     Number of k-points >= 100: set verbosity='high' to print the bands.

     highest occupied level (ev):     5.6777

     Writing output data file silicon.10.340.save

                                                                                

     bravais-lattice index     =            2
     lattice parameter (alat)  =      10.3400  a.u.
     unit-cell volume          =     276.3768 (a.u.)^3
     number of atoms/cell      =            2
     number of atomic types    =            1
     kinetic-energy cut-off    =      30.0000  Ry
     charge density cut-off    =     240.0000  Ry
     convergence threshold     =      1.0E-12
     beta                      =       0.7000
     number of iterations used =            4
     Exchange-correlation      = SLA  PW   PBE  PBE ( 1  4  3  4 0 0)


     celldm(1)=   10.34000  celldm(2)=    0.00000  celldm(3)=    0.00000
     celldm(4)=    0.00000  celldm(5)=    0.00000  celldm(6)=    0.00000

     crystal axes: (cart. coord. in units of alat)
               a(1) = ( -0.5000  0.0000  0.5000 )  
               a(2) = (  0.0000  0.5000  0.5000 )  
               a(3) = ( -0.5000  0.5000  0.0000 )  

     reciprocal axes: (cart. coord. in units 2 pi/alat)
               b(1) = ( -1.0000 -1.0000  1.0000 )  
               b(2) = (  1.0000  1.0000  1.0000 )  
               b(3) = ( -1.0000  1.0000 -1.0000 )  


     Atoms inside the unit cell: 

     Cartesian axes

     site n.  atom      mass           positions (alat units)
        1     Si  28.0860   tau(    1) = (    0.00000    0.00000    0.00000  )
        2     Si  28.0860   tau(    2) = (    0.25000    0.25000    0.25000  )

     Computing dynamical matrix for 
                    q = (  -0.2500000   0.2500000  -0.2500000 )

      6 Sym.Ops. (no q -> -q+G )


     G cutoff =  649.9689  (   4315 G-vectors)     FFT grid: ( 40, 40, 40)
     G cutoff =  324.9845  (   1546 G-vectors)  smooth grid: ( 25, 25, 25)
     number of k points=   120

     PseudoPot. # 1 for Si read from file:
     /home/s1333534/quantum_espresso/qe-6.1/pseudo/si_pbe_v1.uspp.F.UPF.txt
     MD5 check sum: a056efeee980c13900f22a371efd63c1
     Pseudo is Ultrasoft + core correction, Zval =  4.0
     Generated by new atomic code, or converted to UPF format
     Using radial grid of  899 points,  6 beta functions with: 
                l(1) =   0
                l(2) =   0
                l(3) =   1
                l(4) =   1
                l(5) =   2
                l(6) =   2
     Q(r) pseudized with  8 coefficients,  rinner =    0.900   0.900   0.900
                                                       0.900   0.900

     Mode symmetry, C_3v (3m)   point group:


     Atomic displacements:
     There are   4 irreducible representations

     Representation     1      1 modes -A_1  L_1  To be done

     Representation     2      1 modes -A_1  L_1  To be done

     Representation     3      2 modes -E    L_3  To be done

     Representation     4      2 modes -E    L_3  To be done



     Alpha used in Ewald sum =   2.5000
     PHONON       :    12.09s CPU        16.54s WALL



     Representation #  1 mode #   1

     Self-consistent Calculation

      iter #   1 total cpu time :    17.0 secs   av.it.:   5.9
      thresh= 1.000E-02 alpha_mix =  0.700 |ddv_scf|^2 =  3.101E-04

      iter #   2 total cpu time :    17.6 secs   av.it.:   9.2
      thresh= 1.761E-03 alpha_mix =  0.700 |ddv_scf|^2 =  4.730E-03

      iter #   3 total cpu time :    18.2 secs   av.it.:   7.1
      thresh= 6.877E-03 alpha_mix =  0.700 |ddv_scf|^2 =  1.955E-07

      iter #   4 total cpu time :    18.8 secs   av.it.:   9.7
      thresh= 4.421E-05 alpha_mix =  0.700 |ddv_scf|^2 =  1.291E-08

      iter #   5 total cpu time :    19.5 secs   av.it.:   9.7
      thresh= 1.136E-05 alpha_mix =  0.700 |ddv_scf|^2 =  2.392E-10

      iter #   6 total cpu time :    20.1 secs   av.it.:   9.9
      thresh= 1.546E-06 alpha_mix =  0.700 |ddv_scf|^2 =  5.655E-10

      iter #   7 total cpu time :    20.7 secs   av.it.:   7.8
      thresh= 2.378E-06 alpha_mix =  0.700 |ddv_scf|^2 =  3.889E-11

      iter #   8 total cpu time :    21.3 secs   av.it.:   9.4
      thresh= 6.236E-07 alpha_mix =  0.700 |ddv_scf|^2 =  4.122E-13

     End of self-consistent calculation

     Convergence has been achieved 


     Representation #  2 mode #   2

     Self-consistent Calculation

      iter #   1 total cpu time :    21.9 secs   av.it.:   5.9
      thresh= 1.000E-02 alpha_mix =  0.700 |ddv_scf|^2 =  3.101E-04

      iter #   2 total cpu time :    22.5 secs   av.it.:   9.2
      thresh= 1.761E-03 alpha_mix =  0.700 |ddv_scf|^2 =  4.730E-03

      iter #   3 total cpu time :    23.0 secs   av.it.:   7.1
      thresh= 6.877E-03 alpha_mix =  0.700 |ddv_scf|^2 =  1.955E-07

      iter #   4 total cpu time :    23.7 secs   av.it.:   9.7
      thresh= 4.421E-05 alpha_mix =  0.700 |ddv_scf|^2 =  1.291E-08

      iter #   5 total cpu time :    24.3 secs   av.it.:   9.7
      thresh= 1.136E-05 alpha_mix =  0.700 |ddv_scf|^2 =  2.392E-10

      iter #   6 total cpu time :    24.9 secs   av.it.:   9.9
      thresh= 1.546E-06 alpha_mix =  0.700 |ddv_scf|^2 =  5.655E-10

      iter #   7 total cpu time :    25.5 secs   av.it.:   7.8
      thresh= 2.378E-06 alpha_mix =  0.700 |ddv_scf|^2 =  3.889E-11

      iter #   8 total cpu time :    26.1 secs   av.it.:   9.4
      thresh= 6.236E-07 alpha_mix =  0.700 |ddv_scf|^2 =  4.122E-13

     End of self-consistent calculation

     Convergence has been achieved 


     Representation #  3 modes #   3  4

     Self-consistent Calculation

      iter #   1 total cpu time :    27.1 secs   av.it.:   5.2
      thresh= 1.000E-02 alpha_mix =  0.700 |ddv_scf|^2 =  4.819E-08

      iter #   2 total cpu time :    28.4 secs   av.it.:  11.7
      thresh= 2.195E-05 alpha_mix =  0.700 |ddv_scf|^2 =  3.096E-09

      iter #   3 total cpu time :    29.7 secs   av.it.:  11.2
      thresh= 5.564E-06 alpha_mix =  0.700 |ddv_scf|^2 =  1.637E-10

      iter #   4 total cpu time :    31.0 secs   av.it.:  11.1
      thresh= 1.279E-06 alpha_mix =  0.700 |ddv_scf|^2 =  6.271E-13

     End of self-consistent calculation

     Convergence has been achieved 


     Representation #  4 modes #   5  6

     Self-consistent Calculation

      iter #   1 total cpu time :    32.0 secs   av.it.:   5.2
      thresh= 1.000E-02 alpha_mix =  0.700 |ddv_scf|^2 =  4.820E-08

      iter #   2 total cpu time :    33.4 secs   av.it.:  11.7
      thresh= 2.195E-05 alpha_mix =  0.700 |ddv_scf|^2 =  3.097E-09

      iter #   3 total cpu time :    34.7 secs   av.it.:  11.4
      thresh= 5.565E-06 alpha_mix =  0.700 |ddv_scf|^2 =  1.636E-10

      iter #   4 total cpu time :    35.9 secs   av.it.:  11.2
      thresh= 1.279E-06 alpha_mix =  0.700 |ddv_scf|^2 =  6.306E-13

     End of self-consistent calculation

     Convergence has been achieved 

     Number of q in the star =    8
     List of q in the star:
          1  -0.250000000   0.250000000  -0.250000000
          2   0.250000000  -0.250000000  -0.250000000
          3   0.250000000  -0.250000000   0.250000000
          4   0.250000000   0.250000000   0.250000000
          5  -0.250000000  -0.250000000  -0.250000000
          6  -0.250000000  -0.250000000   0.250000000
          7  -0.250000000   0.250000000   0.250000000
          8   0.250000000   0.250000000  -0.250000000

     Diagonalizing the dynamical matrix

     q = (   -0.250000000   0.250000000  -0.250000000 ) 

 **************************************************************************
     freq (    1) =       2.789198 [THz] =      93.037640 [cm-1]
     freq (    2) =       2.789198 [THz] =      93.037640 [cm-1]
     freq (    3) =       6.717023 [THz] =     224.055776 [cm-1]
     freq (    4) =      14.192331 [THz] =     473.405199 [cm-1]
     freq (    5) =      14.461468 [THz] =     482.382659 [cm-1]
     freq (    6) =      14.461468 [THz] =     482.382659 [cm-1]
 **************************************************************************

     Mode symmetry, C_3v (3m)   point group:

     freq (  1 -  2) =         93.0  [cm-1]   --> E    L_3           
     freq (  3 -  3) =        224.1  [cm-1]   --> A_1  L_1           
     freq (  4 -  4) =        473.4  [cm-1]   --> A_1  L_1           
     freq (  5 -  6) =        482.4  [cm-1]   --> E    L_3           

     Calculation of q =    0.5000000  -0.5000000   0.5000000

   Info: using nr1, nr2, nr3 values from input

   Info: using nr1, nr2, nr3 values from input

     Parallelization info
     --------------------
     sticks:   dense  smooth     PW     G-vecs:    dense   smooth      PW
     Min         219     109     40                 4315     1545     351
     Max         220     110     41                 4316     1546     354
     Sum         877     439    163                17261     6183    1411



     bravais-lattice index     =            2
     lattice parameter (alat)  =      10.3400  a.u.
     unit-cell volume          =     276.3768 (a.u.)^3
     number of atoms/cell      =            2
     number of atomic types    =            1
     number of electrons       =         8.00
     number of Kohn-Sham states=            4
     kinetic-energy cutoff     =      30.0000  Ry
     charge density cutoff     =     240.0000  Ry
     Exchange-correlation      = SLA  PW   PBE  PBE ( 1  4  3  4 0 0)

     celldm(1)=  10.340000  celldm(2)=   0.000000  celldm(3)=   0.000000
     celldm(4)=   0.000000  celldm(5)=   0.000000  celldm(6)=   0.000000

     crystal axes: (cart. coord. in units of alat)
               a(1) = (  -0.500000   0.000000   0.500000 )  
               a(2) = (   0.000000   0.500000   0.500000 )  
               a(3) = (  -0.500000   0.500000   0.000000 )  

     reciprocal axes: (cart. coord. in units 2 pi/alat)
               b(1) = ( -1.000000 -1.000000  1.000000 )  
               b(2) = (  1.000000  1.000000  1.000000 )  
               b(3) = ( -1.000000  1.000000 -1.000000 )  


     PseudoPot. # 1 for Si read from file:
     /home/s1333534/quantum_espresso/qe-6.1/pseudo/si_pbe_v1.uspp.F.UPF.txt
     MD5 check sum: a056efeee980c13900f22a371efd63c1
     Pseudo is Ultrasoft + core correction, Zval =  4.0
     Generated by new atomic code, or converted to UPF format
     Using radial grid of  899 points,  6 beta functions with: 
                l(1) =   0
                l(2) =   0
                l(3) =   1
                l(4) =   1
                l(5) =   2
                l(6) =   2
     Q(r) pseudized with  8 coefficients,  rinner =    0.900   0.900   0.900
                                                       0.900   0.900

     atomic species   valence    mass     pseudopotential
        Si             4.00    28.08600     Si( 1.00)

     48 Sym. Ops., with inversion, found



   Cartesian axes

     site n.     atom                  positions (alat units)
         1           Si  tau(   1) = (   0.0000000   0.0000000   0.0000000  )
         2           Si  tau(   2) = (   0.2500000   0.2500000   0.2500000  )

     number of k points=    60
                       cart. coord. in units 2pi/alat
        k(    1) = (  -0.1250000   0.1250000   0.1250000), wk =   0.0468750
        k(    2) = (   0.3750000  -0.3750000   0.6250000), wk =   0.0000000
        k(    3) = (  -0.3750000   0.3750000  -0.1250000), wk =   0.0468750
        k(    4) = (   0.1250000  -0.1250000   0.3750000), wk =   0.0000000
        k(    5) = (   0.3750000  -0.3750000   0.6250000), wk =   0.0468750
        k(    6) = (   0.8750000  -0.8750000   1.1250000), wk =   0.0000000
        k(    7) = (   0.1250000  -0.1250000   0.3750000), wk =   0.0468750
        k(    8) = (   0.6250000  -0.6250000   0.8750000), wk =   0.0000000
        k(    9) = (  -0.1250000   0.6250000   0.1250000), wk =   0.0937500
        k(   10) = (   0.3750000   0.1250000   0.6250000), wk =   0.0000000
        k(   11) = (   0.6250000  -0.1250000   0.8750000), wk =   0.0937500
        k(   12) = (   1.1250000  -0.6250000   1.3750000), wk =   0.0000000
        k(   13) = (   0.3750000   0.1250000   0.6250000), wk =   0.0937500
        k(   14) = (   0.8750000  -0.3750000   1.1250000), wk =   0.0000000
        k(   15) = (  -0.1250000  -0.8750000   0.1250000), wk =   0.0937500
        k(   16) = (   0.3750000  -1.3750000   0.6250000), wk =   0.0000000
        k(   17) = (  -0.3750000   0.3750000   0.3750000), wk =   0.0468750
        k(   18) = (   0.1250000  -0.1250000   0.8750000), wk =   0.0000000
        k(   19) = (   0.3750000  -0.3750000   1.1250000), wk =   0.0468750
        k(   20) = (   0.8750000  -0.8750000   1.6250000), wk =   0.0000000
        k(   21) = (   0.1250000  -0.1250000   0.1250000), wk =   0.0156250
        k(   22) = (   0.6250000  -0.6250000   0.6250000), wk =   0.0000000
        k(   23) = (  -0.3750000  -0.3750000  -0.1250000), wk =   0.0937500
        k(   24) = (   0.1250000  -0.8750000   0.3750000), wk =   0.0000000
        k(   25) = (  -0.1250000  -0.3750000   0.3750000), wk =   0.0468750
        k(   26) = (   0.3750000  -0.8750000   0.8750000), wk =   0.0000000
        k(   27) = (   0.3750000   0.3750000   0.6250000), wk =   0.0937500
        k(   28) = (   0.8750000  -0.1250000   1.1250000), wk =   0.0000000
        k(   29) = (   0.6250000   0.3750000  -0.3750000), wk =   0.0468750
        k(   30) = (   1.1250000  -0.1250000   0.1250000), wk =   0.0000000
        k(   31) = (   0.1250000   0.1250000   0.3750000), wk =   0.0937500
        k(   32) = (   0.6250000  -0.3750000   0.8750000), wk =   0.0000000
        k(   33) = (   0.3750000   0.1250000  -0.1250000), wk =   0.0468750
        k(   34) = (   0.8750000  -0.3750000   0.3750000), wk =   0.0000000
        k(   35) = (  -0.1250000  -0.6250000  -0.1250000), wk =   0.0468750
        k(   36) = (   0.3750000  -1.1250000   0.3750000), wk =   0.0000000
        k(   37) = (   0.1250000  -0.6250000   0.1250000), wk =   0.0468750
        k(   38) = (   0.6250000  -1.1250000   0.6250000), wk =   0.0000000
        k(   39) = (   0.6250000   0.1250000   0.8750000), wk =   0.0937500
        k(   40) = (   1.1250000  -0.3750000   1.3750000), wk =   0.0000000
        k(   41) = (  -0.8750000   0.1250000   0.6250000), wk =   0.0937500
        k(   42) = (  -0.3750000  -0.3750000   1.1250000), wk =   0.0000000
        k(   43) = (   0.8750000   0.1250000  -0.6250000), wk =   0.0937500
        k(   44) = (   1.3750000  -0.3750000  -0.1250000), wk =   0.0000000
        k(   45) = (   0.3750000  -0.1250000   0.6250000), wk =   0.0937500
        k(   46) = (   0.8750000  -0.6250000   1.1250000), wk =   0.0000000
        k(   47) = (  -0.6250000  -0.1250000   0.3750000), wk =   0.0937500
        k(   48) = (  -0.1250000  -0.6250000   0.8750000), wk =   0.0000000
        k(   49) = (   0.6250000  -0.1250000  -0.3750000), wk =   0.0937500
        k(   50) = (   1.1250000  -0.6250000   0.1250000), wk =   0.0000000
        k(   51) = (  -0.1250000   0.8750000  -0.1250000), wk =   0.0468750
        k(   52) = (   0.3750000   0.3750000   0.3750000), wk =   0.0000000
        k(   53) = (   0.1250000   0.8750000   0.1250000), wk =   0.0468750
        k(   54) = (   0.6250000   0.3750000   0.6250000), wk =   0.0000000
        k(   55) = (   0.3750000  -0.3750000   0.3750000), wk =   0.0156250
        k(   56) = (   0.8750000  -0.8750000   0.8750000), wk =   0.0000000
        k(   57) = (   0.3750000   0.3750000   1.1250000), wk =   0.0937500
        k(   58) = (   0.8750000  -0.1250000   1.6250000), wk =   0.0000000
        k(   59) = (   1.1250000   0.3750000  -0.3750000), wk =   0.0468750
        k(   60) = (   1.6250000  -0.1250000   0.1250000), wk =   0.0000000

     Dense  grid:    17261 G-vectors     FFT dimensions: (  40,  40,  40)

     Smooth grid:     6183 G-vectors     FFT dimensions: (  25,  25,  25)

     Estimated max dynamical RAM per process >       1.78MB

     Estimated total allocated dynamical RAM >       7.14MB

     The potential is recalculated from file :
     ./_ph0/silicon.10.340.save/charge-density.dat

     Starting wfc are    8 atomic wfcs

     Band Structure Calculation
     Davidson diagonalization with overlap

     ethr =  1.25E-10,  avg # of iterations = 12.2

     total cpu time spent up to now is        2.5 secs

     End of band structure calculation

          k =-0.1250 0.1250 0.1250 (   770 PWs)   bands (ev):

    -5.6448   4.3683   5.6777   5.6777

          k = 0.3750-0.3750 0.6250 (   767 PWs)   bands (ev):

    -3.4841  -0.6930   3.7156   4.4287

          k =-0.3750 0.3750-0.1250 (   773 PWs)   bands (ev):

    -4.6204   1.3798   3.6958   5.1982

          k = 0.1250-0.1250 0.3750 (   774 PWs)   bands (ev):

    -5.1180   2.7534   4.6723   4.7350

          k = 0.3750-0.3750 0.6250 (   767 PWs)   bands (ev):

    -3.4841  -0.6930   3.7156   4.4287

          k = 0.8750-0.8750 1.1250 (   770 PWs)   bands (ev):

    -5.6448   4.3683   5.6777   5.6777

          k = 0.1250-0.1250 0.3750 (   774 PWs)   bands (ev):

    -5.1180   2.7534   4.6723   4.7350

          k = 0.6250-0.6250 0.8750 (   773 PWs)   bands (ev):

    -4.6204   1.3798   3.6958   5.1982

          k =-0.1250 0.6250 0.1250 (   768 PWs)   bands (ev):

    -4.0889   1.0439   3.3486   3.8002

          k = 0.3750 0.1250 0.6250 (   768 PWs)   bands (ev):

    -3.6746   0.1738   2.7078   4.0742

          k = 0.6250-0.1250 0.8750 (   757 PWs)   bands (ev):

    -2.4534  -0.9143   1.9983   3.0721

          k = 1.1250-0.6250 1.3750 (   773 PWs)   bands (ev):

    -4.6204   1.3798   3.6958   5.1982

          k = 0.3750 0.1250 0.6250 (   768 PWs)   bands (ev):

    -3.6746   0.1738   2.7078   4.0742

          k = 0.8750-0.3750 1.1250 (   768 PWs)   bands (ev):

    -4.0889   1.0439   3.3486   3.8002

          k =-0.1250-0.8750 0.1250 (   762 PWs)   bands (ev):

    -2.6202  -0.8175   2.6065   3.3342

          k = 0.3750-1.3750 0.6250 (   767 PWs)   bands (ev):

    -3.4841  -0.6930   3.7156   4.4287

          k =-0.3750 0.3750 0.3750 (   763 PWs)   bands (ev):

    -4.1887   0.0933   4.8919   4.8919

          k = 0.1250-0.1250 0.8750 (   762 PWs)   bands (ev):

    -2.6202  -0.8175   2.6065   3.3342

          k = 0.3750-0.3750 1.1250 (   767 PWs)   bands (ev):

    -2.9894  -0.6107   2.0556   4.1126

          k = 0.8750-0.8750 1.6250 (   768 PWs)   bands (ev):

    -4.0889   1.0439   3.3486   3.8002

          k = 0.1250-0.1250 0.1250 (   770 PWs)   bands (ev):

    -5.6448   4.3683   5.6777   5.6777

          k = 0.6250-0.6250 0.6250 (   763 PWs)   bands (ev):

    -4.1887   0.0933   4.8919   4.8919

          k =-0.3750-0.3750-0.1250 (   773 PWs)   bands (ev):

    -4.6204   1.3798   3.6958   5.1982

          k = 0.1250-0.8750 0.3750 (   757 PWs)   bands (ev):

    -2.4534  -0.9143   1.9983   3.0721

          k =-0.1250-0.3750 0.3750 (   773 PWs)   bands (ev):

    -4.6204   1.3798   3.6958   5.1982

          k = 0.3750-0.8750 0.8750 (   768 PWs)   bands (ev):

    -4.0889   1.0439   3.3486   3.8002

          k = 0.3750 0.3750 0.6250 (   767 PWs)   bands (ev):

    -3.4841  -0.6930   3.7156   4.4287

          k = 0.8750-0.1250 1.1250 (   762 PWs)   bands (ev):

    -2.6202  -0.8175   2.6065   3.3342

          k = 0.6250 0.3750-0.3750 (   767 PWs)   bands (ev):

    -3.4841  -0.6930   3.7156   4.4287

          k = 1.1250-0.1250 0.1250 (   762 PWs)   bands (ev):

    -2.6202  -0.8175   2.6065   3.3342

          k = 0.1250 0.1250 0.3750 (   774 PWs)   bands (ev):

    -5.1180   2.7534   4.6723   4.7350

          k = 0.6250-0.3750 0.8750 (   768 PWs)   bands (ev):

    -3.6746   0.1738   2.7078   4.0742

          k = 0.3750 0.1250-0.1250 (   774 PWs)   bands (ev):

    -5.1180   2.7534   4.6723   4.7350

          k = 0.8750-0.3750 0.3750 (   767 PWs)   bands (ev):

    -2.9894  -0.6107   2.0556   4.1126

          k =-0.1250-0.6250-0.1250 (   768 PWs)   bands (ev):

    -4.0889   1.0439   3.3486   3.8002

          k = 0.3750-1.1250 0.3750 (   767 PWs)   bands (ev):

    -2.9894  -0.6107   2.0556   4.1126

          k = 0.1250-0.6250 0.1250 (   768 PWs)   bands (ev):

    -4.0889   1.0439   3.3486   3.8002

          k = 0.6250-1.1250 0.6250 (   773 PWs)   bands (ev):

    -4.6204   1.3798   3.6958   5.1982

          k = 0.6250 0.1250 0.8750 (   757 PWs)   bands (ev):

    -2.4534  -0.9143   1.9983   3.0721

          k = 1.1250-0.3750 1.3750 (   768 PWs)   bands (ev):

    -3.6746   0.1738   2.7078   4.0742

          k =-0.8750 0.1250 0.6250 (   757 PWs)   bands (ev):

    -2.4534  -0.9143   1.9983   3.0721

          k =-0.3750-0.3750 1.1250 (   767 PWs)   bands (ev):

    -2.9894  -0.6107   2.0556   4.1126

          k = 0.8750 0.1250-0.6250 (   757 PWs)   bands (ev):

    -2.4534  -0.9143   1.9983   3.0721

          k = 1.3750-0.3750-0.1250 (   768 PWs)   bands (ev):

    -3.6746   0.1738   2.7078   4.0742

          k = 0.3750-0.1250 0.6250 (   768 PWs)   bands (ev):

    -3.6746   0.1738   2.7078   4.0742

          k = 0.8750-0.6250 1.1250 (   774 PWs)   bands (ev):

    -5.1180   2.7534   4.6723   4.7350

          k =-0.6250-0.1250 0.3750 (   768 PWs)   bands (ev):

    -3.6746   0.1738   2.7078   4.0742

          k =-0.1250-0.6250 0.8750 (   757 PWs)   bands (ev):

    -2.4534  -0.9143   1.9983   3.0721

          k = 0.6250-0.1250-0.3750 (   768 PWs)   bands (ev):

    -3.6746   0.1738   2.7078   4.0742

          k = 1.1250-0.6250 0.1250 (   757 PWs)   bands (ev):

    -2.4534  -0.9143   1.9983   3.0721

          k =-0.1250 0.8750-0.1250 (   762 PWs)   bands (ev):

    -2.6202  -0.8175   2.6065   3.3342

          k = 0.3750 0.3750 0.3750 (   763 PWs)   bands (ev):

    -4.1887   0.0933   4.8919   4.8919

          k = 0.1250 0.8750 0.1250 (   762 PWs)   bands (ev):

    -2.6202  -0.8175   2.6065   3.3342

          k = 0.6250 0.3750 0.6250 (   767 PWs)   bands (ev):

    -3.4841  -0.6930   3.7156   4.4287

          k = 0.3750-0.3750 0.3750 (   763 PWs)   bands (ev):

    -4.1887   0.0933   4.8919   4.8919

          k = 0.8750-0.8750 0.8750 (   770 PWs)   bands (ev):

    -5.6448   4.3683   5.6777   5.6777

          k = 0.3750 0.3750 1.1250 (   767 PWs)   bands (ev):

    -2.9894  -0.6107   2.0556   4.1126

          k = 0.8750-0.1250 1.6250 (   757 PWs)   bands (ev):

    -2.4534  -0.9143   1.9983   3.0721

          k = 1.1250 0.3750-0.3750 (   767 PWs)   bands (ev):

    -2.9894  -0.6107   2.0556   4.1126

          k = 1.6250-0.1250 0.1250 (   774 PWs)   bands (ev):

    -5.1180   2.7534   4.6723   4.7350

     highest occupied level (ev):     5.6777

     Writing output data file silicon.10.340.save

                                                                                

     bravais-lattice index     =            2
     lattice parameter (alat)  =      10.3400  a.u.
     unit-cell volume          =     276.3768 (a.u.)^3
     number of atoms/cell      =            2
     number of atomic types    =            1
     kinetic-energy cut-off    =      30.0000  Ry
     charge density cut-off    =     240.0000  Ry
     convergence threshold     =      1.0E-12
     beta                      =       0.7000
     number of iterations used =            4
     Exchange-correlation      = SLA  PW   PBE  PBE ( 1  4  3  4 0 0)


     celldm(1)=   10.34000  celldm(2)=    0.00000  celldm(3)=    0.00000
     celldm(4)=    0.00000  celldm(5)=    0.00000  celldm(6)=    0.00000

     crystal axes: (cart. coord. in units of alat)
               a(1) = ( -0.5000  0.0000  0.5000 )  
               a(2) = (  0.0000  0.5000  0.5000 )  
               a(3) = ( -0.5000  0.5000  0.0000 )  

     reciprocal axes: (cart. coord. in units 2 pi/alat)
               b(1) = ( -1.0000 -1.0000  1.0000 )  
               b(2) = (  1.0000  1.0000  1.0000 )  
               b(3) = ( -1.0000  1.0000 -1.0000 )  


     Atoms inside the unit cell: 

     Cartesian axes

     site n.  atom      mass           positions (alat units)
        1     Si  28.0860   tau(    1) = (    0.00000    0.00000    0.00000  )
        2     Si  28.0860   tau(    2) = (    0.25000    0.25000    0.25000  )

     Computing dynamical matrix for 
                    q = (   0.5000000  -0.5000000   0.5000000 )

     13 Sym.Ops. (with q -> -q+G )


     G cutoff =  649.9689  (   4316 G-vectors)     FFT grid: ( 40, 40, 40)
     G cutoff =  324.9845  (   1546 G-vectors)  smooth grid: ( 25, 25, 25)
     number of k points=    60

     PseudoPot. # 1 for Si read from file:
     /home/s1333534/quantum_espresso/qe-6.1/pseudo/si_pbe_v1.uspp.F.UPF.txt
     MD5 check sum: a056efeee980c13900f22a371efd63c1
     Pseudo is Ultrasoft + core correction, Zval =  4.0
     Generated by new atomic code, or converted to UPF format
     Using radial grid of  899 points,  6 beta functions with: 
                l(1) =   0
                l(2) =   0
                l(3) =   1
                l(4) =   1
                l(5) =   2
                l(6) =   2
     Q(r) pseudized with  8 coefficients,  rinner =    0.900   0.900   0.900
                                                       0.900   0.900


     Atomic displacements:
     There are   4 irreducible representations

     Representation     1      1 modes -  To be done

     Representation     2      1 modes -  To be done

     Representation     3      2 modes -  To be done

     Representation     4      2 modes -  To be done



     Alpha used in Ewald sum =   2.5000
     PHONON       :    29.75s CPU        38.32s WALL



     Representation #  1 mode #   1

     Self-consistent Calculation

      iter #   1 total cpu time :    38.6 secs   av.it.:   5.1
      thresh= 1.000E-02 alpha_mix =  0.700 |ddv_scf|^2 =  3.043E-06

      iter #   2 total cpu time :    39.1 secs   av.it.:  10.1
      thresh= 1.744E-04 alpha_mix =  0.700 |ddv_scf|^2 =  2.800E-06

      iter #   3 total cpu time :    39.5 secs   av.it.:   9.4
      thresh= 1.673E-04 alpha_mix =  0.700 |ddv_scf|^2 =  1.676E-09

      iter #   4 total cpu time :    39.9 secs   av.it.:   9.6
      thresh= 4.094E-06 alpha_mix =  0.700 |ddv_scf|^2 =  1.632E-11

      iter #   5 total cpu time :    40.3 secs   av.it.:   9.6
      thresh= 4.040E-07 alpha_mix =  0.700 |ddv_scf|^2 =  2.232E-13

     End of self-consistent calculation

     Convergence has been achieved 


     Representation #  2 mode #   2

     Self-consistent Calculation

      iter #   1 total cpu time :    40.7 secs   av.it.:   6.0
      thresh= 1.000E-02 alpha_mix =  0.700 |ddv_scf|^2 =  4.325E-05

      iter #   2 total cpu time :    41.2 secs   av.it.:  10.0
      thresh= 6.576E-04 alpha_mix =  0.700 |ddv_scf|^2 =  1.347E-04

      iter #   3 total cpu time :    41.6 secs   av.it.:   8.9
      thresh= 1.160E-03 alpha_mix =  0.700 |ddv_scf|^2 =  9.903E-09

      iter #   4 total cpu time :    42.1 secs   av.it.:  10.1
      thresh= 9.952E-06 alpha_mix =  0.700 |ddv_scf|^2 =  5.011E-10

      iter #   5 total cpu time :    42.5 secs   av.it.:  10.4
      thresh= 2.239E-06 alpha_mix =  0.700 |ddv_scf|^2 =  1.496E-11

      iter #   6 total cpu time :    42.9 secs   av.it.:   9.9
      thresh= 3.868E-07 alpha_mix =  0.700 |ddv_scf|^2 =  1.112E-13

     End of self-consistent calculation

     Convergence has been achieved 


     Representation #  3 modes #   3  4

     Self-consistent Calculation

      iter #   1 total cpu time :    43.6 secs   av.it.:   5.1
      thresh= 1.000E-02 alpha_mix =  0.700 |ddv_scf|^2 =  1.958E-08

      iter #   2 total cpu time :    44.5 secs   av.it.:  11.1
      thresh= 1.399E-05 alpha_mix =  0.700 |ddv_scf|^2 =  1.153E-09

      iter #   3 total cpu time :    45.4 secs   av.it.:  10.8
      thresh= 3.396E-06 alpha_mix =  0.700 |ddv_scf|^2 =  3.875E-11

      iter #   4 total cpu time :    46.1 secs   av.it.:  10.8
      thresh= 6.225E-07 alpha_mix =  0.700 |ddv_scf|^2 =  3.161E-13

     End of self-consistent calculation

     Convergence has been achieved 


     Representation #  4 modes #   5  6

     Self-consistent Calculation

      iter #   1 total cpu time :    46.9 secs   av.it.:   5.1
      thresh= 1.000E-02 alpha_mix =  0.700 |ddv_scf|^2 =  1.004E-07

      iter #   2 total cpu time :    47.7 secs   av.it.:  11.2
      thresh= 3.168E-05 alpha_mix =  0.700 |ddv_scf|^2 =  8.056E-09

      iter #   3 total cpu time :    48.6 secs   av.it.:  11.1
      thresh= 8.975E-06 alpha_mix =  0.700 |ddv_scf|^2 =  2.117E-10

      iter #   4 total cpu time :    49.3 secs   av.it.:  10.1
      thresh= 1.455E-06 alpha_mix =  0.700 |ddv_scf|^2 =  3.851E-13

     End of self-consistent calculation

     Convergence has been achieved 

     Number of q in the star =    4
     List of q in the star:
          1   0.500000000  -0.500000000   0.500000000
          2   0.500000000   0.500000000   0.500000000
          3  -0.500000000   0.500000000   0.500000000
          4   0.500000000   0.500000000  -0.500000000

     Diagonalizing the dynamical matrix

     q = (    0.500000000  -0.500000000   0.500000000 ) 

 **************************************************************************
     freq (    1) =       3.311854 [THz] =     110.471559 [cm-1]
     freq (    2) =       3.311854 [THz] =     110.471559 [cm-1]
     freq (    3) =      11.089376 [THz] =     369.901759 [cm-1]
     freq (    4) =      11.929512 [THz] =     397.925696 [cm-1]
     freq (    5) =      14.248194 [THz] =     475.268602 [cm-1]
     freq (    6) =      14.248194 [THz] =     475.268602 [cm-1]
 **************************************************************************

     Calculation of q =    0.0000000   0.5000000   0.0000000

   Info: using nr1, nr2, nr3 values from input

   Info: using nr1, nr2, nr3 values from input

     Parallelization info
     --------------------
     sticks:   dense  smooth     PW     G-vecs:    dense   smooth      PW
     Min         218     109     37                 4315     1545     309
     Max         220     110     38                 4316     1546     312
     Sum         877     439    151                17261     6183    1243



     bravais-lattice index     =            2
     lattice parameter (alat)  =      10.3400  a.u.
     unit-cell volume          =     276.3768 (a.u.)^3
     number of atoms/cell      =            2
     number of atomic types    =            1
     number of electrons       =         8.00
     number of Kohn-Sham states=            4
     kinetic-energy cutoff     =      30.0000  Ry
     charge density cutoff     =     240.0000  Ry
     Exchange-correlation      = SLA  PW   PBE  PBE ( 1  4  3  4 0 0)

     celldm(1)=  10.340000  celldm(2)=   0.000000  celldm(3)=   0.000000
     celldm(4)=   0.000000  celldm(5)=   0.000000  celldm(6)=   0.000000

     crystal axes: (cart. coord. in units of alat)
               a(1) = (  -0.500000   0.000000   0.500000 )  
               a(2) = (   0.000000   0.500000   0.500000 )  
               a(3) = (  -0.500000   0.500000   0.000000 )  

     reciprocal axes: (cart. coord. in units 2 pi/alat)
               b(1) = ( -1.000000 -1.000000  1.000000 )  
               b(2) = (  1.000000  1.000000  1.000000 )  
               b(3) = ( -1.000000  1.000000 -1.000000 )  


     PseudoPot. # 1 for Si read from file:
     /home/s1333534/quantum_espresso/qe-6.1/pseudo/si_pbe_v1.uspp.F.UPF.txt
     MD5 check sum: a056efeee980c13900f22a371efd63c1
     Pseudo is Ultrasoft + core correction, Zval =  4.0
     Generated by new atomic code, or converted to UPF format
     Using radial grid of  899 points,  6 beta functions with: 
                l(1) =   0
                l(2) =   0
                l(3) =   1
                l(4) =   1
                l(5) =   2
                l(6) =   2
     Q(r) pseudized with  8 coefficients,  rinner =    0.900   0.900   0.900
                                                       0.900   0.900

     atomic species   valence    mass     pseudopotential
        Si             4.00    28.08600     Si( 1.00)

     48 Sym. Ops., with inversion, found



   Cartesian axes

     site n.     atom                  positions (alat units)
         1           Si  tau(   1) = (   0.0000000   0.0000000   0.0000000  )
         2           Si  tau(   2) = (   0.2500000   0.2500000   0.2500000  )

     number of k points=    80
                       cart. coord. in units 2pi/alat
        k(    1) = (  -0.1250000   0.1250000   0.1250000), wk =   0.0312500
        k(    2) = (  -0.1250000   0.6250000   0.1250000), wk =   0.0000000
        k(    3) = (  -0.3750000   0.3750000  -0.1250000), wk =   0.0625000
        k(    4) = (  -0.3750000   0.8750000  -0.1250000), wk =   0.0000000
        k(    5) = (   0.3750000  -0.3750000   0.6250000), wk =   0.0625000
        k(    6) = (   0.3750000   0.1250000   0.6250000), wk =   0.0000000
        k(    7) = (   0.1250000  -0.1250000   0.3750000), wk =   0.0625000
        k(    8) = (   0.1250000   0.3750000   0.3750000), wk =   0.0000000
        k(    9) = (  -0.1250000   0.6250000   0.1250000), wk =   0.0312500
        k(   10) = (  -0.1250000   1.1250000   0.1250000), wk =   0.0000000
        k(   11) = (   0.6250000  -0.1250000   0.8750000), wk =   0.0625000
        k(   12) = (   0.6250000   0.3750000   0.8750000), wk =   0.0000000
        k(   13) = (   0.3750000   0.1250000   0.6250000), wk =   0.0625000
        k(   14) = (   0.3750000   0.6250000   0.6250000), wk =   0.0000000
        k(   15) = (  -0.1250000  -0.8750000   0.1250000), wk =   0.0312500
        k(   16) = (  -0.1250000  -0.3750000   0.1250000), wk =   0.0000000
        k(   17) = (  -0.3750000   0.3750000   0.3750000), wk =   0.0312500
        k(   18) = (  -0.3750000   0.8750000   0.3750000), wk =   0.0000000
        k(   19) = (   0.3750000  -0.3750000   1.1250000), wk =   0.0625000
        k(   20) = (   0.3750000   0.1250000   1.1250000), wk =   0.0000000
        k(   21) = (  -0.1250000  -0.1250000   0.1250000), wk =   0.0312500
        k(   22) = (  -0.1250000   0.3750000   0.1250000), wk =   0.0000000
        k(   23) = (   0.1250000  -0.3750000   0.3750000), wk =   0.0625000
        k(   24) = (   0.1250000   0.1250000   0.3750000), wk =   0.0000000
        k(   25) = (   0.3750000  -0.1250000   0.3750000), wk =   0.0312500
        k(   26) = (   0.3750000   0.3750000   0.3750000), wk =   0.0000000
        k(   27) = (   0.3750000   0.1250000   0.3750000), wk =   0.0312500
        k(   28) = (   0.3750000   0.6250000   0.3750000), wk =   0.0000000
        k(   29) = (  -0.6250000   0.3750000  -0.3750000), wk =   0.0625000
        k(   30) = (  -0.6250000   0.8750000  -0.3750000), wk =   0.0000000
        k(   31) = (  -0.3750000   0.6250000  -0.3750000), wk =   0.0312500
        k(   32) = (  -0.3750000   1.1250000  -0.3750000), wk =   0.0000000
        k(   33) = (  -0.3750000  -0.6250000  -0.3750000), wk =   0.0312500
        k(   34) = (  -0.3750000  -0.1250000  -0.3750000), wk =   0.0000000
        k(   35) = (  -0.3750000   0.1250000  -0.1250000), wk =   0.0625000
        k(   36) = (  -0.3750000   0.6250000  -0.1250000), wk =   0.0000000
        k(   37) = (  -0.1250000   0.3750000  -0.1250000), wk =   0.0312500
        k(   38) = (  -0.1250000   0.8750000  -0.1250000), wk =   0.0000000
        k(   39) = (  -0.1250000  -0.3750000  -0.1250000), wk =   0.0312500
        k(   40) = (  -0.1250000   0.1250000  -0.1250000), wk =   0.0000000
        k(   41) = (  -0.1250000  -0.6250000   0.1250000), wk =   0.0312500
        k(   42) = (  -0.1250000  -0.1250000   0.1250000), wk =   0.0000000
        k(   43) = (   0.6250000  -0.1250000  -0.1250000), wk =   0.0625000
        k(   44) = (   0.6250000   0.3750000  -0.1250000), wk =   0.0000000
        k(   45) = (   0.6250000   0.1250000   0.1250000), wk =   0.0625000
        k(   46) = (   0.6250000   0.6250000   0.1250000), wk =   0.0000000
        k(   47) = (  -0.8750000   0.1250000  -0.6250000), wk =   0.0625000
        k(   48) = (  -0.8750000   0.6250000  -0.6250000), wk =   0.0000000
        k(   49) = (  -0.1250000   0.6250000  -0.8750000), wk =   0.0625000
        k(   50) = (  -0.1250000   1.1250000  -0.8750000), wk =   0.0000000
        k(   51) = (  -0.1250000   0.8750000  -0.6250000), wk =   0.0625000
        k(   52) = (  -0.1250000   1.3750000  -0.6250000), wk =   0.0000000
        k(   53) = (  -0.1250000  -0.8750000  -0.6250000), wk =   0.0625000
        k(   54) = (  -0.1250000  -0.3750000  -0.6250000), wk =   0.0000000
        k(   55) = (   0.8750000  -0.6250000   0.1250000), wk =   0.0625000
        k(   56) = (   0.8750000  -0.1250000   0.1250000), wk =   0.0000000
        k(   57) = (  -0.6250000  -0.1250000  -0.3750000), wk =   0.0625000
        k(   58) = (  -0.6250000   0.3750000  -0.3750000), wk =   0.0000000
        k(   59) = (   0.1250000   0.3750000  -0.6250000), wk =   0.0625000
        k(   60) = (   0.1250000   0.8750000  -0.6250000), wk =   0.0000000
        k(   61) = (   0.1250000   0.6250000  -0.3750000), wk =   0.0625000
        k(   62) = (   0.1250000   1.1250000  -0.3750000), wk =   0.0000000
        k(   63) = (   0.1250000  -0.6250000  -0.3750000), wk =   0.0625000
        k(   64) = (   0.1250000  -0.1250000  -0.3750000), wk =   0.0000000
        k(   65) = (   0.6250000  -0.3750000  -0.1250000), wk =   0.0625000
        k(   66) = (   0.6250000   0.1250000  -0.1250000), wk =   0.0000000
        k(   67) = (  -0.1250000   0.8750000   0.1250000), wk =   0.0312500
        k(   68) = (  -0.1250000   1.3750000   0.1250000), wk =   0.0000000
        k(   69) = (  -0.8750000  -0.1250000  -0.1250000), wk =   0.0625000
        k(   70) = (  -0.8750000   0.3750000  -0.1250000), wk =   0.0000000
        k(   71) = (  -0.8750000   0.1250000   0.1250000), wk =   0.0625000
        k(   72) = (  -0.8750000   0.6250000   0.1250000), wk =   0.0000000
        k(   73) = (  -0.3750000  -0.3750000   0.3750000), wk =   0.0312500
        k(   74) = (  -0.3750000   0.1250000   0.3750000), wk =   0.0000000
        k(   75) = (  -1.1250000   0.3750000  -0.3750000), wk =   0.0625000
        k(   76) = (  -1.1250000   0.8750000  -0.3750000), wk =   0.0000000
        k(   77) = (  -0.3750000   1.1250000  -0.3750000), wk =   0.0312500
        k(   78) = (  -0.3750000   1.6250000  -0.3750000), wk =   0.0000000
        k(   79) = (  -0.3750000  -1.1250000  -0.3750000), wk =   0.0312500
        k(   80) = (  -0.3750000  -0.6250000  -0.3750000), wk =   0.0000000

     Dense  grid:    17261 G-vectors     FFT dimensions: (  40,  40,  40)

     Smooth grid:     6183 G-vectors     FFT dimensions: (  25,  25,  25)

     Estimated max dynamical RAM per process >       1.78MB

     Estimated total allocated dynamical RAM >       7.14MB

     The potential is recalculated from file :
     ./_ph0/silicon.10.340.save/charge-density.dat

     Starting wfc are    8 atomic wfcs

     Band Structure Calculation
     Davidson diagonalization with overlap

     ethr =  1.25E-10,  avg # of iterations = 12.2

     total cpu time spent up to now is        3.7 secs

     End of band structure calculation

          k =-0.1250 0.1250 0.1250 (   770 PWs)   bands (ev):

    -5.6448   4.3683   5.6777   5.6777

          k =-0.1250 0.6250 0.1250 (   768 PWs)   bands (ev):

    -4.0889   1.0439   3.3486   3.8002

          k =-0.3750 0.3750-0.1250 (   773 PWs)   bands (ev):

    -4.6204   1.3798   3.6958   5.1982

          k =-0.3750 0.8750-0.1250 (   757 PWs)   bands (ev):

    -2.4534  -0.9143   1.9983   3.0721

          k = 0.3750-0.3750 0.6250 (   767 PWs)   bands (ev):

    -3.4841  -0.6930   3.7156   4.4287

          k = 0.3750 0.1250 0.6250 (   768 PWs)   bands (ev):

    -3.6746   0.1738   2.7078   4.0742

          k = 0.1250-0.1250 0.3750 (   774 PWs)   bands (ev):

    -5.1180   2.7534   4.6723   4.7350

          k = 0.1250 0.3750 0.3750 (   773 PWs)   bands (ev):

    -4.6204   1.3798   3.6958   5.1982

          k =-0.1250 0.6250 0.1250 (   768 PWs)   bands (ev):

    -4.0889   1.0439   3.3486   3.8002

          k =-0.1250 1.1250 0.1250 (   762 PWs)   bands (ev):

    -2.6202  -0.8175   2.6065   3.3342

          k = 0.6250-0.1250 0.8750 (   757 PWs)   bands (ev):

    -2.4534  -0.9143   1.9983   3.0721

          k = 0.6250 0.3750 0.8750 (   768 PWs)   bands (ev):

    -3.6746   0.1738   2.7078   4.0742

          k = 0.3750 0.1250 0.6250 (   768 PWs)   bands (ev):

    -3.6746   0.1738   2.7078   4.0742

          k = 0.3750 0.6250 0.6250 (   767 PWs)   bands (ev):

    -3.4841  -0.6930   3.7156   4.4287

          k =-0.1250-0.8750 0.1250 (   762 PWs)   bands (ev):

    -2.6202  -0.8175   2.6065   3.3342

          k =-0.1250-0.3750 0.1250 (   774 PWs)   bands (ev):

    -5.1180   2.7534   4.6723   4.7350

          k =-0.3750 0.3750 0.3750 (   763 PWs)   bands (ev):

    -4.1887   0.0933   4.8919   4.8919

          k =-0.3750 0.8750 0.3750 (   767 PWs)   bands (ev):

    -2.9894  -0.6107   2.0556   4.1126

          k = 0.3750-0.3750 1.1250 (   767 PWs)   bands (ev):

    -2.9894  -0.6107   2.0556   4.1126

          k = 0.3750 0.1250 1.1250 (   757 PWs)   bands (ev):

    -2.4534  -0.9143   1.9983   3.0721

          k =-0.1250-0.1250 0.1250 (   770 PWs)   bands (ev):

    -5.6448   4.3683   5.6777   5.6777

          k =-0.1250 0.3750 0.1250 (   774 PWs)   bands (ev):

    -5.1180   2.7534   4.6723   4.7350

          k = 0.1250-0.3750 0.3750 (   773 PWs)   bands (ev):

    -4.6204   1.3798   3.6958   5.1982

          k = 0.1250 0.1250 0.3750 (   774 PWs)   bands (ev):

    -5.1180   2.7534   4.6723   4.7350

          k = 0.3750-0.1250 0.3750 (   773 PWs)   bands (ev):

    -4.6204   1.3798   3.6958   5.1982

          k = 0.3750 0.3750 0.3750 (   763 PWs)   bands (ev):

    -4.1887   0.0933   4.8919   4.8919

          k = 0.3750 0.1250 0.3750 (   773 PWs)   bands (ev):

    -4.6204   1.3798   3.6958   5.1982

          k = 0.3750 0.6250 0.3750 (   767 PWs)   bands (ev):

    -3.4841  -0.6930   3.7156   4.4287

          k =-0.6250 0.3750-0.3750 (   767 PWs)   bands (ev):

    -3.4841  -0.6930   3.7156   4.4287

          k =-0.6250 0.8750-0.3750 (   768 PWs)   bands (ev):

    -3.6746   0.1738   2.7078   4.0742

          k =-0.3750 0.6250-0.3750 (   767 PWs)   bands (ev):

    -3.4841  -0.6930   3.7156   4.4287

          k =-0.3750 1.1250-0.3750 (   767 PWs)   bands (ev):

    -2.9894  -0.6107   2.0556   4.1126

          k =-0.3750-0.6250-0.3750 (   767 PWs)   bands (ev):

    -3.4841  -0.6930   3.7156   4.4287

          k =-0.3750-0.1250-0.3750 (   773 PWs)   bands (ev):

    -4.6204   1.3798   3.6958   5.1982

          k =-0.3750 0.1250-0.1250 (   774 PWs)   bands (ev):

    -5.1180   2.7534   4.6723   4.7350

          k =-0.3750 0.6250-0.1250 (   768 PWs)   bands (ev):

    -3.6746   0.1738   2.7078   4.0742

          k =-0.1250 0.3750-0.1250 (   774 PWs)   bands (ev):

    -5.1180   2.7534   4.6723   4.7350

          k =-0.1250 0.8750-0.1250 (   762 PWs)   bands (ev):

    -2.6202  -0.8175   2.6065   3.3342

          k =-0.1250-0.3750-0.1250 (   774 PWs)   bands (ev):

    -5.1180   2.7534   4.6723   4.7350

          k =-0.1250 0.1250-0.1250 (   770 PWs)   bands (ev):

    -5.6448   4.3683   5.6777   5.6777

          k =-0.1250-0.6250 0.1250 (   768 PWs)   bands (ev):

    -4.0889   1.0439   3.3486   3.8002

          k =-0.1250-0.1250 0.1250 (   770 PWs)   bands (ev):

    -5.6448   4.3683   5.6777   5.6777

          k = 0.6250-0.1250-0.1250 (   768 PWs)   bands (ev):

    -4.0889   1.0439   3.3486   3.8002

          k = 0.6250 0.3750-0.1250 (   768 PWs)   bands (ev):

    -3.6746   0.1738   2.7078   4.0742

          k = 0.6250 0.1250 0.1250 (   768 PWs)   bands (ev):

    -4.0889   1.0439   3.3486   3.8002

          k = 0.6250 0.6250 0.1250 (   767 PWs)   bands (ev):

    -2.9894  -0.6107   2.0556   4.1126

          k =-0.8750 0.1250-0.6250 (   757 PWs)   bands (ev):

    -2.4534  -0.9143   1.9983   3.0721

          k =-0.8750 0.6250-0.6250 (   773 PWs)   bands (ev):

    -4.6204   1.3798   3.6958   5.1982

          k =-0.1250 0.6250-0.8750 (   757 PWs)   bands (ev):

    -2.4534  -0.9143   1.9983   3.0721

          k =-0.1250 1.1250-0.8750 (   762 PWs)   bands (ev):

    -2.6202  -0.8175   2.6065   3.3342

          k =-0.1250 0.8750-0.6250 (   757 PWs)   bands (ev):

    -2.4534  -0.9143   1.9983   3.0721

          k =-0.1250 1.3750-0.6250 (   767 PWs)   bands (ev):

    -2.9894  -0.6107   2.0556   4.1126

          k =-0.1250-0.8750-0.6250 (   757 PWs)   bands (ev):

    -2.4534  -0.9143   1.9983   3.0721

          k =-0.1250-0.3750-0.6250 (   768 PWs)   bands (ev):

    -3.6746   0.1738   2.7078   4.0742

          k = 0.8750-0.6250 0.1250 (   757 PWs)   bands (ev):

    -2.4534  -0.9143   1.9983   3.0721

          k = 0.8750-0.1250 0.1250 (   762 PWs)   bands (ev):

    -2.6202  -0.8175   2.6065   3.3342

          k =-0.6250-0.1250-0.3750 (   768 PWs)   bands (ev):

    -3.6746   0.1738   2.7078   4.0742

          k =-0.6250 0.3750-0.3750 (   767 PWs)   bands (ev):

    -3.4841  -0.6930   3.7156   4.4287

          k = 0.1250 0.3750-0.6250 (   768 PWs)   bands (ev):

    -3.6746   0.1738   2.7078   4.0742

          k = 0.1250 0.8750-0.6250 (   757 PWs)   bands (ev):

    -2.4534  -0.9143   1.9983   3.0721

          k = 0.1250 0.6250-0.3750 (   768 PWs)   bands (ev):

    -3.6746   0.1738   2.7078   4.0742

          k = 0.1250 1.1250-0.3750 (   757 PWs)   bands (ev):

    -2.4534  -0.9143   1.9983   3.0721

          k = 0.1250-0.6250-0.3750 (   768 PWs)   bands (ev):

    -3.6746   0.1738   2.7078   4.0742

          k = 0.1250-0.1250-0.3750 (   774 PWs)   bands (ev):

    -5.1180   2.7534   4.6723   4.7350

          k = 0.6250-0.3750-0.1250 (   768 PWs)   bands (ev):

    -3.6746   0.1738   2.7078   4.0742

          k = 0.6250 0.1250-0.1250 (   768 PWs)   bands (ev):

    -4.0889   1.0439   3.3486   3.8002

          k =-0.1250 0.8750 0.1250 (   762 PWs)   bands (ev):

    -2.6202  -0.8175   2.6065   3.3342

          k =-0.1250 1.3750 0.1250 (   768 PWs)   bands (ev):

    -4.0889   1.0439   3.3486   3.8002

          k =-0.8750-0.1250-0.1250 (   762 PWs)   bands (ev):

    -2.6202  -0.8175   2.6065   3.3342

          k =-0.8750 0.3750-0.1250 (   757 PWs)   bands (ev):

    -2.4534  -0.9143   1.9983   3.0721

          k =-0.8750 0.1250 0.1250 (   762 PWs)   bands (ev):

    -2.6202  -0.8175   2.6065   3.3342

          k =-0.8750 0.6250 0.1250 (   757 PWs)   bands (ev):

    -2.4534  -0.9143   1.9983   3.0721

          k =-0.3750-0.3750 0.3750 (   763 PWs)   bands (ev):

    -4.1887   0.0933   4.8919   4.8919

          k =-0.3750 0.1250 0.3750 (   773 PWs)   bands (ev):

    -4.6204   1.3798   3.6958   5.1982

          k =-1.1250 0.3750-0.3750 (   767 PWs)   bands (ev):

    -2.9894  -0.6107   2.0556   4.1126

          k =-1.1250 0.8750-0.3750 (   768 PWs)   bands (ev):

    -4.0889   1.0439   3.3486   3.8002

          k =-0.3750 1.1250-0.3750 (   767 PWs)   bands (ev):

    -2.9894  -0.6107   2.0556   4.1126

          k =-0.3750 1.6250-0.3750 (   763 PWs)   bands (ev):

    -4.1887   0.0933   4.8919   4.8919

          k =-0.3750-1.1250-0.3750 (   767 PWs)   bands (ev):

    -2.9894  -0.6107   2.0556   4.1126

          k =-0.3750-0.6250-0.3750 (   767 PWs)   bands (ev):

    -3.4841  -0.6930   3.7156   4.4287

     highest occupied level (ev):     5.6777

     Writing output data file silicon.10.340.save

                                                                                

     bravais-lattice index     =            2
     lattice parameter (alat)  =      10.3400  a.u.
     unit-cell volume          =     276.3768 (a.u.)^3
     number of atoms/cell      =            2
     number of atomic types    =            1
     kinetic-energy cut-off    =      30.0000  Ry
     charge density cut-off    =     240.0000  Ry
     convergence threshold     =      1.0E-12
     beta                      =       0.7000
     number of iterations used =            4
     Exchange-correlation      = SLA  PW   PBE  PBE ( 1  4  3  4 0 0)


     celldm(1)=   10.34000  celldm(2)=    0.00000  celldm(3)=    0.00000
     celldm(4)=    0.00000  celldm(5)=    0.00000  celldm(6)=    0.00000

     crystal axes: (cart. coord. in units of alat)
               a(1) = ( -0.5000  0.0000  0.5000 )  
               a(2) = (  0.0000  0.5000  0.5000 )  
               a(3) = ( -0.5000  0.5000  0.0000 )  

     reciprocal axes: (cart. coord. in units 2 pi/alat)
               b(1) = ( -1.0000 -1.0000  1.0000 )  
               b(2) = (  1.0000  1.0000  1.0000 )  
               b(3) = ( -1.0000  1.0000 -1.0000 )  


     Atoms inside the unit cell: 

     Cartesian axes

     site n.  atom      mass           positions (alat units)
        1     Si  28.0860   tau(    1) = (    0.00000    0.00000    0.00000  )
        2     Si  28.0860   tau(    2) = (    0.25000    0.25000    0.25000  )

     Computing dynamical matrix for 
                    q = (   0.0000000   0.5000000   0.0000000 )

      8 Sym.Ops. (no q -> -q+G )


     G cutoff =  649.9689  (   4315 G-vectors)     FFT grid: ( 40, 40, 40)
     G cutoff =  324.9845  (   1546 G-vectors)  smooth grid: ( 25, 25, 25)
     number of k points=    80

     PseudoPot. # 1 for Si read from file:
     /home/s1333534/quantum_espresso/qe-6.1/pseudo/si_pbe_v1.uspp.F.UPF.txt
     MD5 check sum: a056efeee980c13900f22a371efd63c1
     Pseudo is Ultrasoft + core correction, Zval =  4.0
     Generated by new atomic code, or converted to UPF format
     Using radial grid of  899 points,  6 beta functions with: 
                l(1) =   0
                l(2) =   0
                l(3) =   1
                l(4) =   1
                l(5) =   2
                l(6) =   2
     Q(r) pseudized with  8 coefficients,  rinner =    0.900   0.900   0.900
                                                       0.900   0.900

     Mode symmetry, C_4v (4mm)  point group:


     Atomic displacements:
     There are   4 irreducible representations

     Representation     1      1 modes -A_1  G_1 D_1  To be done

     Representation     2      1 modes -B_2  G_4 D_2'  To be done

     Representation     3      2 modes -E    G_5 D_5  To be done

     Representation     4      2 modes -E    G_5 D_5  To be done



     Alpha used in Ewald sum =   2.5000
     PHONON       :    39.99s CPU        51.82s WALL



     Representation #  1 mode #   1

     Self-consistent Calculation

      iter #   1 total cpu time :    52.2 secs   av.it.:   6.2
      thresh= 1.000E-02 alpha_mix =  0.700 |ddv_scf|^2 =  3.731E-04

      iter #   2 total cpu time :    52.7 secs   av.it.:   9.5
      thresh= 1.932E-03 alpha_mix =  0.700 |ddv_scf|^2 =  4.958E-03

      iter #   3 total cpu time :    53.2 secs   av.it.:   7.5
      thresh= 7.041E-03 alpha_mix =  0.700 |ddv_scf|^2 =  7.409E-09

      iter #   4 total cpu time :    53.7 secs   av.it.:  10.3
      thresh= 8.607E-06 alpha_mix =  0.700 |ddv_scf|^2 =  7.270E-10

      iter #   5 total cpu time :    54.2 secs   av.it.:   9.9
      thresh= 2.696E-06 alpha_mix =  0.700 |ddv_scf|^2 =  8.096E-11

      iter #   6 total cpu time :    54.6 secs   av.it.:   9.5
      thresh= 8.998E-07 alpha_mix =  0.700 |ddv_scf|^2 =  2.412E-13

     End of self-consistent calculation

     Convergence has been achieved 


     Representation #  2 mode #   2

     Self-consistent Calculation

      iter #   1 total cpu time :    55.1 secs   av.it.:   5.1
      thresh= 1.000E-02 alpha_mix =  0.700 |ddv_scf|^2 =  5.904E-07

      iter #   2 total cpu time :    55.6 secs   av.it.:  10.6
      thresh= 7.684E-05 alpha_mix =  0.700 |ddv_scf|^2 =  1.625E-07

      iter #   3 total cpu time :    56.1 secs   av.it.:  10.2
      thresh= 4.031E-05 alpha_mix =  0.700 |ddv_scf|^2 =  1.660E-09

      iter #   4 total cpu time :    56.6 secs   av.it.:  10.3
      thresh= 4.074E-06 alpha_mix =  0.700 |ddv_scf|^2 =  6.559E-11

      iter #   5 total cpu time :    57.1 secs   av.it.:  10.5
      thresh= 8.099E-07 alpha_mix =  0.700 |ddv_scf|^2 =  3.856E-13

     End of self-consistent calculation

     Convergence has been achieved 


     Representation #  3 modes #   3  4

     Self-consistent Calculation

      iter #   1 total cpu time :    57.8 secs   av.it.:   5.2
      thresh= 1.000E-02 alpha_mix =  0.700 |ddv_scf|^2 =  1.046E-07

      iter #   2 total cpu time :    58.9 secs   av.it.:  11.7
      thresh= 3.234E-05 alpha_mix =  0.700 |ddv_scf|^2 =  1.443E-08

      iter #   3 total cpu time :    59.9 secs   av.it.:  11.3
      thresh= 1.201E-05 alpha_mix =  0.700 |ddv_scf|^2 =  2.429E-10

      iter #   4 total cpu time :    60.8 secs   av.it.:  10.8
      thresh= 1.559E-06 alpha_mix =  0.700 |ddv_scf|^2 =  5.747E-13

     End of self-consistent calculation

     Convergence has been achieved 


     Representation #  4 modes #   5  6

     Self-consistent Calculation

      iter #   1 total cpu time :    61.6 secs   av.it.:   5.3
      thresh= 1.000E-02 alpha_mix =  0.700 |ddv_scf|^2 =  9.588E-08

      iter #   2 total cpu time :    62.6 secs   av.it.:  11.6
      thresh= 3.097E-05 alpha_mix =  0.700 |ddv_scf|^2 =  1.288E-08

      iter #   3 total cpu time :    63.5 secs   av.it.:  11.4
      thresh= 1.135E-05 alpha_mix =  0.700 |ddv_scf|^2 =  2.484E-10

      iter #   4 total cpu time :    64.4 secs   av.it.:  11.1
      thresh= 1.576E-06 alpha_mix =  0.700 |ddv_scf|^2 =  6.117E-13

     End of self-consistent calculation

     Convergence has been achieved 

     Number of q in the star =    6
     List of q in the star:
          1   0.000000000   0.500000000   0.000000000
          2   0.000000000  -0.500000000   0.000000000
          3   0.500000000   0.000000000   0.000000000
          4   0.000000000   0.000000000   0.500000000
          5   0.000000000   0.000000000  -0.500000000
          6  -0.500000000   0.000000000   0.000000000

     Diagonalizing the dynamical matrix

     q = (    0.000000000   0.500000000   0.000000000 ) 

 **************************************************************************
     freq (    1) =       3.773465 [THz] =     125.869236 [cm-1]
     freq (    2) =       3.773465 [THz] =     125.869236 [cm-1]
     freq (    3) =       7.044821 [THz] =     234.989940 [cm-1]
     freq (    4) =      13.787581 [THz] =     459.904186 [cm-1]
     freq (    5) =      13.787581 [THz] =     459.904186 [cm-1]
     freq (    6) =      14.429039 [THz] =     481.300934 [cm-1]
 **************************************************************************

     Mode symmetry, C_4v (4mm)  point group:

     freq (  1 -  2) =        125.9  [cm-1]   --> E    G_5 D_5       
     freq (  3 -  3) =        235.0  [cm-1]   --> A_1  G_1 D_1       
     freq (  4 -  5) =        459.9  [cm-1]   --> E    G_5 D_5       
     freq (  6 -  6) =        481.3  [cm-1]   --> B_2  G_4 D_2'      

     Calculation of q =    0.7500000  -0.2500000   0.7500000

   Info: using nr1, nr2, nr3 values from input

   Info: using nr1, nr2, nr3 values from input

     Parallelization info
     --------------------
     sticks:   dense  smooth     PW     G-vecs:    dense   smooth      PW
     Min         219     109     40                 4315     1545     362
     Max         220     110     41                 4316     1546     366
     Sum         877     439    163                17261     6183    1459



     bravais-lattice index     =            2
     lattice parameter (alat)  =      10.3400  a.u.
     unit-cell volume          =     276.3768 (a.u.)^3
     number of atoms/cell      =            2
     number of atomic types    =            1
     number of electrons       =         8.00
     number of Kohn-Sham states=            4
     kinetic-energy cutoff     =      30.0000  Ry
     charge density cutoff     =     240.0000  Ry
     Exchange-correlation      = SLA  PW   PBE  PBE ( 1  4  3  4 0 0)

     celldm(1)=  10.340000  celldm(2)=   0.000000  celldm(3)=   0.000000
     celldm(4)=   0.000000  celldm(5)=   0.000000  celldm(6)=   0.000000

     crystal axes: (cart. coord. in units of alat)
               a(1) = (  -0.500000   0.000000   0.500000 )  
               a(2) = (   0.000000   0.500000   0.500000 )  
               a(3) = (  -0.500000   0.500000   0.000000 )  

     reciprocal axes: (cart. coord. in units 2 pi/alat)
               b(1) = ( -1.000000 -1.000000  1.000000 )  
               b(2) = (  1.000000  1.000000  1.000000 )  
               b(3) = ( -1.000000  1.000000 -1.000000 )  


     PseudoPot. # 1 for Si read from file:
     /home/s1333534/quantum_espresso/qe-6.1/pseudo/si_pbe_v1.uspp.F.UPF.txt
     MD5 check sum: a056efeee980c13900f22a371efd63c1
     Pseudo is Ultrasoft + core correction, Zval =  4.0
     Generated by new atomic code, or converted to UPF format
     Using radial grid of  899 points,  6 beta functions with: 
                l(1) =   0
                l(2) =   0
                l(3) =   1
                l(4) =   1
                l(5) =   2
                l(6) =   2
     Q(r) pseudized with  8 coefficients,  rinner =    0.900   0.900   0.900
                                                       0.900   0.900

     atomic species   valence    mass     pseudopotential
        Si             4.00    28.08600     Si( 1.00)

     48 Sym. Ops., with inversion, found



   Cartesian axes

     site n.     atom                  positions (alat units)
         1           Si  tau(   1) = (   0.0000000   0.0000000   0.0000000  )
         2           Si  tau(   2) = (   0.2500000   0.2500000   0.2500000  )

     number of k points=   288

     Number of k-points >= 100: set verbosity='high' to print them.

     Dense  grid:    17261 G-vectors     FFT dimensions: (  40,  40,  40)

     Smooth grid:     6183 G-vectors     FFT dimensions: (  25,  25,  25)

     Estimated max dynamical RAM per process >       1.78MB

     Estimated total allocated dynamical RAM >       7.14MB

     The potential is recalculated from file :
     ./_ph0/silicon.10.340.save/charge-density.dat

     Starting wfc are    8 atomic wfcs

     Band Structure Calculation
     Davidson diagonalization with overlap

     ethr =  1.25E-10,  avg # of iterations = 12.1

     total cpu time spent up to now is        7.0 secs

     End of band structure calculation

     Number of k-points >= 100: set verbosity='high' to print the bands.

     highest occupied level (ev):     5.6777

     Writing output data file silicon.10.340.save

                                                                                

     bravais-lattice index     =            2
     lattice parameter (alat)  =      10.3400  a.u.
     unit-cell volume          =     276.3768 (a.u.)^3
     number of atoms/cell      =            2
     number of atomic types    =            1
     kinetic-energy cut-off    =      30.0000  Ry
     charge density cut-off    =     240.0000  Ry
     convergence threshold     =      1.0E-12
     beta                      =       0.7000
     number of iterations used =            4
     Exchange-correlation      = SLA  PW   PBE  PBE ( 1  4  3  4 0 0)


     celldm(1)=   10.34000  celldm(2)=    0.00000  celldm(3)=    0.00000
     celldm(4)=    0.00000  celldm(5)=    0.00000  celldm(6)=    0.00000

     crystal axes: (cart. coord. in units of alat)
               a(1) = ( -0.5000  0.0000  0.5000 )  
               a(2) = (  0.0000  0.5000  0.5000 )  
               a(3) = ( -0.5000  0.5000  0.0000 )  

     reciprocal axes: (cart. coord. in units 2 pi/alat)
               b(1) = ( -1.0000 -1.0000  1.0000 )  
               b(2) = (  1.0000  1.0000  1.0000 )  
               b(3) = ( -1.0000  1.0000 -1.0000 )  


     Atoms inside the unit cell: 

     Cartesian axes

     site n.  atom      mass           positions (alat units)
        1     Si  28.0860   tau(    1) = (    0.00000    0.00000    0.00000  )
        2     Si  28.0860   tau(    2) = (    0.25000    0.25000    0.25000  )

     Computing dynamical matrix for 
                    q = (   0.7500000  -0.2500000   0.7500000 )

      2 Sym.Ops. (no q -> -q+G )


     G cutoff =  649.9689  (   4315 G-vectors)     FFT grid: ( 40, 40, 40)
     G cutoff =  324.9845  (   1546 G-vectors)  smooth grid: ( 25, 25, 25)
     number of k points=   288

     PseudoPot. # 1 for Si read from file:
     /home/s1333534/quantum_espresso/qe-6.1/pseudo/si_pbe_v1.uspp.F.UPF.txt
     MD5 check sum: a056efeee980c13900f22a371efd63c1
     Pseudo is Ultrasoft + core correction, Zval =  4.0
     Generated by new atomic code, or converted to UPF format
     Using radial grid of  899 points,  6 beta functions with: 
                l(1) =   0
                l(2) =   0
                l(3) =   1
                l(4) =   1
                l(5) =   2
                l(6) =   2
     Q(r) pseudized with  8 coefficients,  rinner =    0.900   0.900   0.900
                                                       0.900   0.900

     Mode symmetry, C_s (m)     point group:


     Atomic displacements:
     There are   6 irreducible representations

     Representation     1      1 modes -A'  To be done

     Representation     2      1 modes -A'  To be done

     Representation     3      1 modes -A'  To be done

     Representation     4      1 modes -A'  To be done

     Representation     5      1 modes -A''  To be done

     Representation     6      1 modes -A''  To be done



     Alpha used in Ewald sum =   2.5000
     PHONON       :  0m54.56s CPU     1m 9.73s WALL



     Representation #  1 mode #   1

     Self-consistent Calculation

      iter #   1 total cpu time :    70.7 secs   av.it.:   5.7
      thresh= 1.000E-02 alpha_mix =  0.700 |ddv_scf|^2 =  7.612E-06

      iter #   2 total cpu time :    72.1 secs   av.it.:  10.7
      thresh= 2.759E-04 alpha_mix =  0.700 |ddv_scf|^2 =  2.036E-05

      iter #   3 total cpu time :    73.7 secs   av.it.:   9.4
      thresh= 4.513E-04 alpha_mix =  0.700 |ddv_scf|^2 =  1.365E-07

      iter #   4 total cpu time :    75.0 secs   av.it.:  10.1
      thresh= 3.695E-05 alpha_mix =  0.700 |ddv_scf|^2 =  2.722E-09

      iter #   5 total cpu time :    76.4 secs   av.it.:  10.6
      thresh= 5.218E-06 alpha_mix =  0.700 |ddv_scf|^2 =  4.658E-10

      iter #   6 total cpu time :    77.7 secs   av.it.:  10.6
      thresh= 2.158E-06 alpha_mix =  0.700 |ddv_scf|^2 =  7.217E-12

      iter #   7 total cpu time :    79.1 secs   av.it.:  10.7
      thresh= 2.686E-07 alpha_mix =  0.700 |ddv_scf|^2 =  2.752E-13

     End of self-consistent calculation

     Convergence has been achieved 


     Representation #  2 mode #   2

     Self-consistent Calculation

      iter #   1 total cpu time :    80.2 secs   av.it.:   5.8
      thresh= 1.000E-02 alpha_mix =  0.700 |ddv_scf|^2 =  1.362E-05

      iter #   2 total cpu time :    81.6 secs   av.it.:  10.6
      thresh= 3.691E-04 alpha_mix =  0.700 |ddv_scf|^2 =  3.953E-05

      iter #   3 total cpu time :    82.9 secs   av.it.:   9.2
      thresh= 6.288E-04 alpha_mix =  0.700 |ddv_scf|^2 =  9.250E-08

      iter #   4 total cpu time :    84.3 secs   av.it.:  10.4
      thresh= 3.041E-05 alpha_mix =  0.700 |ddv_scf|^2 =  3.079E-09

      iter #   5 total cpu time :    85.6 secs   av.it.:  10.6
      thresh= 5.549E-06 alpha_mix =  0.700 |ddv_scf|^2 =  6.269E-10

      iter #   6 total cpu time :    87.0 secs   av.it.:  10.5
      thresh= 2.504E-06 alpha_mix =  0.700 |ddv_scf|^2 =  6.531E-12

      iter #   7 total cpu time :    88.3 secs   av.it.:  10.7
      thresh= 2.555E-07 alpha_mix =  0.700 |ddv_scf|^2 =  2.323E-13

     End of self-consistent calculation

     Convergence has been achieved 


     Representation #  3 mode #   3

     Self-consistent Calculation

      iter #   1 total cpu time :    89.4 secs   av.it.:   5.7
      thresh= 1.000E-02 alpha_mix =  0.700 |ddv_scf|^2 =  1.067E-05

      iter #   2 total cpu time :    90.8 secs   av.it.:  10.7
      thresh= 3.267E-04 alpha_mix =  0.700 |ddv_scf|^2 =  2.908E-05

      iter #   3 total cpu time :    92.1 secs   av.it.:   9.2
      thresh= 5.393E-04 alpha_mix =  0.700 |ddv_scf|^2 =  1.613E-07

      iter #   4 total cpu time :    93.4 secs   av.it.:  10.0
      thresh= 4.016E-05 alpha_mix =  0.700 |ddv_scf|^2 =  3.137E-09

      iter #   5 total cpu time :    94.7 secs   av.it.:  10.7
      thresh= 5.601E-06 alpha_mix =  0.700 |ddv_scf|^2 =  6.137E-10

      iter #   6 total cpu time :    96.1 secs   av.it.:  10.5
      thresh= 2.477E-06 alpha_mix =  0.700 |ddv_scf|^2 =  4.547E-12

      iter #   7 total cpu time :    97.5 secs   av.it.:  10.7
      thresh= 2.132E-07 alpha_mix =  0.700 |ddv_scf|^2 =  1.338E-13

     End of self-consistent calculation

     Convergence has been achieved 


     Representation #  4 mode #   4

     Self-consistent Calculation

      iter #   1 total cpu time :    98.5 secs   av.it.:   5.5
      thresh= 1.000E-02 alpha_mix =  0.700 |ddv_scf|^2 =  4.658E-06

      iter #   2 total cpu time :    99.9 secs   av.it.:  10.9
      thresh= 2.158E-04 alpha_mix =  0.700 |ddv_scf|^2 =  9.892E-06

      iter #   3 total cpu time :   101.4 secs   av.it.:   9.7
      thresh= 3.145E-04 alpha_mix =  0.700 |ddv_scf|^2 =  2.141E-07

      iter #   4 total cpu time :   102.7 secs   av.it.:  10.0
      thresh= 4.627E-05 alpha_mix =  0.700 |ddv_scf|^2 =  2.687E-09

      iter #   5 total cpu time :   104.1 secs   av.it.:  10.7
      thresh= 5.183E-06 alpha_mix =  0.700 |ddv_scf|^2 =  5.030E-10

      iter #   6 total cpu time :   105.5 secs   av.it.:  10.5
      thresh= 2.243E-06 alpha_mix =  0.700 |ddv_scf|^2 =  3.037E-12

      iter #   7 total cpu time :   106.8 secs   av.it.:  10.8
      thresh= 1.743E-07 alpha_mix =  0.700 |ddv_scf|^2 =  1.409E-13

     End of self-consistent calculation

     Convergence has been achieved 


     Representation #  5 mode #   5

     Self-consistent Calculation

      iter #   1 total cpu time :   107.8 secs   av.it.:   5.2
      thresh= 1.000E-02 alpha_mix =  0.700 |ddv_scf|^2 =  4.834E-07

      iter #   2 total cpu time :   109.2 secs   av.it.:  10.4
      thresh= 6.953E-05 alpha_mix =  0.700 |ddv_scf|^2 =  7.889E-08

      iter #   3 total cpu time :   110.6 secs   av.it.:  10.2
      thresh= 2.809E-05 alpha_mix =  0.700 |ddv_scf|^2 =  1.051E-09

      iter #   4 total cpu time :   111.8 secs   av.it.:   9.8
      thresh= 3.243E-06 alpha_mix =  0.700 |ddv_scf|^2 =  2.469E-12

      iter #   5 total cpu time :   113.1 secs   av.it.:  10.3
      thresh= 1.571E-07 alpha_mix =  0.700 |ddv_scf|^2 =  6.975E-14

     End of self-consistent calculation

     Convergence has been achieved 


     Representation #  6 mode #   6

     Self-consistent Calculation

      iter #   1 total cpu time :   114.2 secs   av.it.:   5.2
      thresh= 1.000E-02 alpha_mix =  0.700 |ddv_scf|^2 =  4.834E-07

      iter #   2 total cpu time :   115.5 secs   av.it.:  10.4
[...]
        k(   59) = (  -0.8750000   0.1250000  -0.1250000), wk =   0.0625000
        k(   60) = (  -1.3750000  -0.8750000  -0.1250000), wk =   0.0000000
        k(   61) = (  -1.1250000   0.3750000  -0.3750000), wk =   0.0625000
        k(   62) = (  -1.6250000  -0.6250000  -0.3750000), wk =   0.0000000
        k(   63) = (  -0.3750000   0.3750000   1.1250000), wk =   0.0625000
        k(   64) = (  -0.8750000  -0.6250000   1.1250000), wk =   0.0000000

     Dense  grid:    17261 G-vectors     FFT dimensions: (  40,  40,  40)

     Smooth grid:     6183 G-vectors     FFT dimensions: (  25,  25,  25)

     Estimated max dynamical RAM per process >       1.78MB

     Estimated total allocated dynamical RAM >       7.14MB

     The potential is recalculated from file :
     ./_ph0/silicon.10.340.save/charge-density.dat

     Starting wfc are    8 atomic wfcs

     Band Structure Calculation
     Davidson diagonalization with overlap

     ethr =  1.25E-10,  avg # of iterations = 12.1

     total cpu time spent up to now is       12.1 secs

     End of band structure calculation

          k =-0.1250 0.1250 0.1250 (   770 PWs)   bands (ev):

    -5.6448   4.3683   5.6777   5.6777

          k =-0.6250-0.8750 0.1250 (   757 PWs)   bands (ev):

    -2.4534  -0.9143   1.9983   3.0721

          k =-0.3750 0.3750-0.1250 (   773 PWs)   bands (ev):

    -4.6204   1.3798   3.6958   5.1982

          k =-0.8750-0.6250-0.1250 (   757 PWs)   bands (ev):

    -2.4534  -0.9143   1.9983   3.0721

          k = 0.3750-0.3750 0.6250 (   767 PWs)   bands (ev):

    -3.4841  -0.6930   3.7156   4.4287

          k =-0.1250-1.3750 0.6250 (   767 PWs)   bands (ev):

    -2.9894  -0.6107   2.0556   4.1126

          k = 0.1250-0.1250 0.3750 (   774 PWs)   bands (ev):

    -5.1180   2.7534   4.6723   4.7350

          k =-0.3750-1.1250 0.3750 (   767 PWs)   bands (ev):

    -2.9894  -0.6107   2.0556   4.1126

          k =-0.1250 0.6250 0.1250 (   768 PWs)   bands (ev):

    -4.0889   1.0439   3.3486   3.8002

          k =-0.6250-0.3750 0.1250 (   768 PWs)   bands (ev):

    -3.6746   0.1738   2.7078   4.0742

          k = 0.6250-0.1250 0.8750 (   757 PWs)   bands (ev):

    -2.4534  -0.9143   1.9983   3.0721

          k = 0.1250-1.1250 0.8750 (   762 PWs)   bands (ev):

    -2.6202  -0.8175   2.6065   3.3342

          k = 0.3750 0.1250 0.6250 (   768 PWs)   bands (ev):

    -3.6746   0.1738   2.7078   4.0742

          k =-0.1250-0.8750 0.6250 (   757 PWs)   bands (ev):

    -2.4534  -0.9143   1.9983   3.0721

          k =-0.1250-0.8750 0.1250 (   762 PWs)   bands (ev):

    -2.6202  -0.8175   2.6065   3.3342

          k =-0.6250-1.8750 0.1250 (   768 PWs)   bands (ev):

    -4.0889   1.0439   3.3486   3.8002

          k =-0.3750 0.3750 0.3750 (   763 PWs)   bands (ev):

    -4.1887   0.0933   4.8919   4.8919

          k =-0.8750-0.6250 0.3750 (   768 PWs)   bands (ev):

    -3.6746   0.1738   2.7078   4.0742

          k = 0.3750-0.3750 1.1250 (   767 PWs)   bands (ev):

    -2.9894  -0.6107   2.0556   4.1126

          k =-0.1250-1.3750 1.1250 (   757 PWs)   bands (ev):

    -2.4534  -0.9143   1.9983   3.0721

          k = 0.1250-0.3750 0.3750 (   773 PWs)   bands (ev):

    -4.6204   1.3798   3.6958   5.1982

          k =-0.3750-1.3750 0.3750 (   767 PWs)   bands (ev):

    -3.4841  -0.6930   3.7156   4.4287

          k = 0.3750-0.3750-0.1250 (   773 PWs)   bands (ev):

    -4.6204   1.3798   3.6958   5.1982

          k =-0.1250-1.3750-0.1250 (   768 PWs)   bands (ev):

    -4.0889   1.0439   3.3486   3.8002

          k =-0.6250 0.3750-0.3750 (   767 PWs)   bands (ev):

    -3.4841  -0.6930   3.7156   4.4287

          k =-1.1250-0.6250-0.3750 (   768 PWs)   bands (ev):

    -3.6746   0.1738   2.7078   4.0742

          k =-0.3750 0.3750 0.6250 (   767 PWs)   bands (ev):

    -3.4841  -0.6930   3.7156   4.4287

          k =-0.8750-0.6250 0.6250 (   773 PWs)   bands (ev):

    -4.6204   1.3798   3.6958   5.1982

          k =-0.3750 0.1250-0.1250 (   774 PWs)   bands (ev):

    -5.1180   2.7534   4.6723   4.7350

          k =-0.8750-0.8750-0.1250 (   762 PWs)   bands (ev):

    -2.6202  -0.8175   2.6065   3.3342

          k =-0.1250 0.1250 0.3750 (   774 PWs)   bands (ev):

    -5.1180   2.7534   4.6723   4.7350

          k =-0.6250-0.8750 0.3750 (   768 PWs)   bands (ev):

    -3.6746   0.1738   2.7078   4.0742

          k = 0.1250 0.6250-0.1250 (   768 PWs)   bands (ev):

    -4.0889   1.0439   3.3486   3.8002

          k =-0.3750-0.3750-0.1250 (   773 PWs)   bands (ev):

    -4.6204   1.3798   3.6958   5.1982

          k = 0.6250 0.1250-0.1250 (   768 PWs)   bands (ev):

    -4.0889   1.0439   3.3486   3.8002

          k = 0.1250-0.8750-0.1250 (   762 PWs)   bands (ev):

    -2.6202  -0.8175   2.6065   3.3342

          k =-0.8750 0.1250-0.6250 (   757 PWs)   bands (ev):

    -2.4534  -0.9143   1.9983   3.0721

          k =-1.3750-0.8750-0.6250 (   773 PWs)   bands (ev):

    -4.6204   1.3798   3.6958   5.1982

          k = 0.8750-0.1250 0.6250 (   757 PWs)   bands (ev):

    -2.4534  -0.9143   1.9983   3.0721

          k = 0.3750-1.1250 0.6250 (   768 PWs)   bands (ev):

    -3.6746   0.1738   2.7078   4.0742

          k =-0.6250 0.1250 0.8750 (   757 PWs)   bands (ev):

    -2.4534  -0.9143   1.9983   3.0721

          k =-1.1250-0.8750 0.8750 (   770 PWs)   bands (ev):

    -5.6448   4.3683   5.6777   5.6777

          k =-0.1250 0.8750 0.6250 (   757 PWs)   bands (ev):

    -2.4534  -0.9143   1.9983   3.0721

          k =-0.6250-0.1250 0.6250 (   767 PWs)   bands (ev):

    -2.9894  -0.6107   2.0556   4.1126

          k = 0.1250 0.8750-0.6250 (   757 PWs)   bands (ev):

    -2.4534  -0.9143   1.9983   3.0721

          k =-0.3750-0.1250-0.6250 (   768 PWs)   bands (ev):

    -3.6746   0.1738   2.7078   4.0742

          k =-0.6250-0.1250-0.3750 (   768 PWs)   bands (ev):

    -3.6746   0.1738   2.7078   4.0742

          k =-1.1250-1.1250-0.3750 (   768 PWs)   bands (ev):

    -4.0889   1.0439   3.3486   3.8002

          k = 0.6250 0.1250 0.3750 (   768 PWs)   bands (ev):

    -3.6746   0.1738   2.7078   4.0742

          k = 0.1250-0.8750 0.3750 (   757 PWs)   bands (ev):

    -2.4534  -0.9143   1.9983   3.0721

          k =-0.3750-0.1250 0.6250 (   768 PWs)   bands (ev):

    -3.6746   0.1738   2.7078   4.0742

          k =-0.8750-1.1250 0.6250 (   774 PWs)   bands (ev):

    -5.1180   2.7534   4.6723   4.7350

          k = 0.1250 0.6250 0.3750 (   768 PWs)   bands (ev):

    -3.6746   0.1738   2.7078   4.0742

          k =-0.3750-0.3750 0.3750 (   763 PWs)   bands (ev):

    -4.1887   0.0933   4.8919   4.8919

          k =-0.1250 0.6250-0.3750 (   768 PWs)   bands (ev):

    -3.6746   0.1738   2.7078   4.0742

          k =-0.6250-0.3750-0.3750 (   767 PWs)   bands (ev):

    -3.4841  -0.6930   3.7156   4.4287

          k = 0.1250-0.8750-0.1250 (   762 PWs)   bands (ev):

    -2.6202  -0.8175   2.6065   3.3342

          k =-0.3750-1.8750-0.1250 (   774 PWs)   bands (ev):

    -5.1180   2.7534   4.6723   4.7350

          k =-0.8750 0.1250-0.1250 (   762 PWs)   bands (ev):

    -2.6202  -0.8175   2.6065   3.3342

          k =-1.3750-0.8750-0.1250 (   757 PWs)   bands (ev):

    -2.4534  -0.9143   1.9983   3.0721

          k =-1.1250 0.3750-0.3750 (   767 PWs)   bands (ev):

    -2.9894  -0.6107   2.0556   4.1126

          k =-1.6250-0.6250-0.3750 (   767 PWs)   bands (ev):

    -3.4841  -0.6930   3.7156   4.4287

          k =-0.3750 0.3750 1.1250 (   767 PWs)   bands (ev):

    -2.9894  -0.6107   2.0556   4.1126

          k =-0.8750-0.6250 1.1250 (   774 PWs)   bands (ev):

    -5.1180   2.7534   4.6723   4.7350

     highest occupied level (ev):     5.6777

     Writing output data file silicon.10.340.save

                                                                                

     bravais-lattice index     =            2
     lattice parameter (alat)  =      10.3400  a.u.
     unit-cell volume          =     276.3768 (a.u.)^3
     number of atoms/cell      =            2
     number of atomic types    =            1
     kinetic-energy cut-off    =      30.0000  Ry
     charge density cut-off    =     240.0000  Ry
     convergence threshold     =      1.0E-12
     beta                      =       0.7000
     number of iterations used =            4
     Exchange-correlation      = SLA  PW   PBE  PBE ( 1  4  3  4 0 0)


     celldm(1)=   10.34000  celldm(2)=    0.00000  celldm(3)=    0.00000
     celldm(4)=    0.00000  celldm(5)=    0.00000  celldm(6)=    0.00000

     crystal axes: (cart. coord. in units of alat)
               a(1) = ( -0.5000  0.0000  0.5000 )  
               a(2) = (  0.0000  0.5000  0.5000 )  
               a(3) = ( -0.5000  0.5000  0.0000 )  

     reciprocal axes: (cart. coord. in units 2 pi/alat)
               b(1) = ( -1.0000 -1.0000  1.0000 )  
               b(2) = (  1.0000  1.0000  1.0000 )  
               b(3) = ( -1.0000  1.0000 -1.0000 )  


     Atoms inside the unit cell: 

     Cartesian axes

     site n.  atom      mass           positions (alat units)
        1     Si  28.0860   tau(    1) = (    0.00000    0.00000    0.00000  )
        2     Si  28.0860   tau(    2) = (    0.25000    0.25000    0.25000  )

     Computing dynamical matrix for 
                    q = (  -0.5000000  -1.0000000   0.0000000 )

      8 Sym.Ops. (no q -> -q+G )


     G cutoff =  649.9689  (   4316 G-vectors)     FFT grid: ( 40, 40, 40)
     G cutoff =  324.9845  (   1546 G-vectors)  smooth grid: ( 25, 25, 25)
     number of k points=    64

     PseudoPot. # 1 for Si read from file:
     /home/s1333534/quantum_espresso/qe-6.1/pseudo/si_pbe_v1.uspp.F.UPF.txt
     MD5 check sum: a056efeee980c13900f22a371efd63c1
     Pseudo is Ultrasoft + core correction, Zval =  4.0
     Generated by new atomic code, or converted to UPF format
     Using radial grid of  899 points,  6 beta functions with: 
                l(1) =   0
                l(2) =   0
                l(3) =   1
                l(4) =   1
                l(5) =   2
                l(6) =   2
     Q(r) pseudized with  8 coefficients,  rinner =    0.900   0.900   0.900
                                                       0.900   0.900


     Atomic displacements:
     There are   3 irreducible representations

     Representation     1      2 modes -  To be done

     Representation     2      2 modes -  To be done

     Representation     3      2 modes -  To be done



     Alpha used in Ewald sum =   2.5000
     PHONON       :  2m 8.48s CPU     2m50.38s WALL



     Representation #  1 modes #   1  2

     Self-consistent Calculation

      iter #   1 total cpu time :   171.5 secs   av.it.:   5.7
      thresh= 1.000E-02 alpha_mix =  0.700 |ddv_scf|^2 =  7.868E-07

      iter #   2 total cpu time :   173.6 secs   av.it.:  11.8
      thresh= 8.870E-05 alpha_mix =  0.700 |ddv_scf|^2 =  4.452E-07

      iter #   3 total cpu time :   174.5 secs   av.it.:  11.3
      thresh= 6.672E-05 alpha_mix =  0.700 |ddv_scf|^2 =  4.286E-10

      iter #   4 total cpu time :   175.3 secs   av.it.:  11.1
      thresh= 2.070E-06 alpha_mix =  0.700 |ddv_scf|^2 =  1.930E-12

      iter #   5 total cpu time :   176.1 secs   av.it.:  11.3
      thresh= 1.389E-07 alpha_mix =  0.700 |ddv_scf|^2 =  5.065E-14

     End of self-consistent calculation

     Convergence has been achieved 


     Representation #  2 modes #   3  4

     Self-consistent Calculation

      iter #   1 total cpu time :   176.8 secs   av.it.:   5.6
      thresh= 1.000E-02 alpha_mix =  0.700 |ddv_scf|^2 =  1.222E-06

      iter #   2 total cpu time :   177.7 secs   av.it.:  11.8
      thresh= 1.105E-04 alpha_mix =  0.700 |ddv_scf|^2 =  1.661E-06

      iter #   3 total cpu time :   178.7 secs   av.it.:  11.0
      thresh= 1.289E-04 alpha_mix =  0.700 |ddv_scf|^2 =  5.095E-10

      iter #   4 total cpu time :   179.6 secs   av.it.:  11.0
      thresh= 2.257E-06 alpha_mix =  0.700 |ddv_scf|^2 =  8.022E-12

      iter #   5 total cpu time :   180.4 secs   av.it.:  11.3
      thresh= 2.832E-07 alpha_mix =  0.700 |ddv_scf|^2 =  1.318E-13

     End of self-consistent calculation

     Convergence has been achieved 


     Representation #  3 modes #   5  6

     Self-consistent Calculation

      iter #   1 total cpu time :   181.3 secs   av.it.:   5.3
      thresh= 1.000E-02 alpha_mix =  0.700 |ddv_scf|^2 =  3.196E-07

      iter #   2 total cpu time :   182.5 secs   av.it.:  11.9
      thresh= 5.654E-05 alpha_mix =  0.700 |ddv_scf|^2 =  1.866E-07

      iter #   3 total cpu time :   183.4 secs   av.it.:  11.3
      thresh= 4.320E-05 alpha_mix =  0.700 |ddv_scf|^2 =  3.720E-10

      iter #   4 total cpu time :   184.3 secs   av.it.:  11.1
      thresh= 1.929E-06 alpha_mix =  0.700 |ddv_scf|^2 =  4.390E-12

      iter #   5 total cpu time :   185.0 secs   av.it.:  11.2
      thresh= 2.095E-07 alpha_mix =  0.700 |ddv_scf|^2 =  6.059E-14

     End of self-consistent calculation

     Convergence has been achieved 

     Number of q in the star =    6
     List of q in the star:
          1  -0.500000000  -1.000000000   0.000000000
          2   0.000000000   1.000000000   0.500000000
          3   0.000000000  -1.000000000  -0.500000000
          4   0.500000000   1.000000000   0.000000000
          5  -1.000000000  -0.500000000   0.000000000
          6   0.000000000  -0.500000000  -1.000000000

     Diagonalizing the dynamical matrix

     q = (   -0.500000000  -1.000000000   0.000000000 ) 

 **************************************************************************
     freq (    1) =       6.024474 [THz] =     200.954831 [cm-1]
     freq (    2) =       6.024474 [THz] =     200.954831 [cm-1]
     freq (    3) =      10.301390 [THz] =     343.617371 [cm-1]
     freq (    4) =      10.301390 [THz] =     343.617371 [cm-1]
     freq (    5) =      13.517965 [THz] =     450.910768 [cm-1]
     freq (    6) =      13.517965 [THz] =     450.910768 [cm-1]
 **************************************************************************

     init_run     :      1.30s CPU      1.38s WALL (       7 calls)
     electrons    :      7.41s CPU      7.98s WALL (       7 calls)

     Called by init_run:
     wfcinit      :      0.00s CPU      0.05s WALL (       7 calls)
     potinit      :      0.11s CPU      0.13s WALL (       7 calls)

     Called by electrons:
     c_bands      :      7.40s CPU      7.98s WALL (       7 calls)
     v_of_rho     :      0.09s CPU      0.10s WALL (       8 calls)
     newd         :      0.13s CPU      0.13s WALL (       8 calls)

     Called by c_bands:
     init_us_2    :      1.65s CPU      1.58s WALL (   15896 calls)
     cegterg      :      6.19s CPU      6.64s WALL (     796 calls)

     Called by sum_band:

     Called by *egterg:
     h_psi        :     71.41s CPU     76.55s WALL (  154693 calls)
     s_psi        :      5.84s CPU      7.01s WALL (  311644 calls)
     g_psi        :      0.05s CPU      0.07s WALL (    9666 calls)
     cdiaghg      :      0.56s CPU      0.55s WALL (   10462 calls)

     Called by h_psi:
     h_psi:pot    :     70.96s CPU     76.03s WALL (  154693 calls)
     h_psi:calbec :      3.52s CPU      4.09s WALL (  154693 calls)
     vloc_psi     :     62.82s CPU     67.77s WALL (  154693 calls)
     add_vuspsi   :      4.27s CPU      3.69s WALL (  154693 calls)

     General routines
     calbec       :      8.17s CPU      8.55s WALL (  345952 calls)
     fft          :      1.84s CPU      1.91s WALL (    5233 calls)
     ffts         :      0.21s CPU      0.23s WALL (    3316 calls)
     fftw         :     64.57s CPU     68.42s WALL ( 1384576 calls)
     interpolate  :      0.27s CPU      0.29s WALL (     568 calls)
     davcio       :      0.34s CPU      1.31s WALL (   69130 calls)

     Parallel routines
     fft_scatter  :     15.46s CPU     19.88s WALL ( 1393125 calls)

     PHONON       :  2m18.18s CPU     3m 5.48s WALL

     INITIALIZATION: 
     phq_setup    :      0.30s CPU      0.59s WALL (       8 calls)
     phq_init     :      6.84s CPU      7.13s WALL (       8 calls)

     phq_init     :      6.84s CPU      7.13s WALL (       8 calls)
     set_drhoc    :      1.84s CPU      1.84s WALL (      24 calls)
     init_vloc    :      0.03s CPU      0.03s WALL (       8 calls)
     init_us_1    :      0.98s CPU      0.99s WALL (       8 calls)
     newd         :      0.13s CPU      0.13s WALL (       8 calls)
     dvanqq       :      1.16s CPU      1.17s WALL (       8 calls)
     drho         :      2.64s CPU      2.70s WALL (       8 calls)

     DYNAMICAL MATRIX:
     dynmat0      :      1.74s CPU      1.90s WALL (       8 calls)
     phqscf       :    116.64s CPU    155.90s WALL (       8 calls)
     dynmatrix    :      0.01s CPU      0.23s WALL (       8 calls)

     phqscf       :    116.64s CPU    155.90s WALL (       8 calls)
     solve_linter :    115.77s CPU    152.75s WALL (      32 calls)
     drhodv       :      0.59s CPU      0.60s WALL (      32 calls)

     dynmat0      :      1.74s CPU      1.90s WALL (       8 calls)
     dynmat_us    :      0.39s CPU      0.39s WALL (       8 calls)
     d2ionq       :      0.04s CPU      0.04s WALL (       8 calls)
     dynmatcc     :      1.31s CPU      1.31s WALL (       8 calls)

     dynmat_us    :      0.39s CPU      0.39s WALL (       8 calls)
     addusdynmat  :      0.00s CPU      0.00s WALL (       8 calls)

     phqscf       :    116.64s CPU    155.90s WALL (       8 calls)
     solve_linter :    115.77s CPU    152.75s WALL (      32 calls)

     solve_linter :    115.77s CPU    152.75s WALL (      32 calls)
     dvqpsi_us    :      2.12s CPU      2.27s WALL (    2508 calls)
     ortho        :      0.90s CPU      1.00s WALL (   13486 calls)
     cgsolve      :     78.80s CPU     85.70s WALL (   13486 calls)
     incdrhoscf   :      6.21s CPU      6.73s WALL (   13486 calls)
     addusddens   :      7.07s CPU      7.11s WALL (     200 calls)
     vpsifft      :      4.47s CPU      4.84s WALL (   10858 calls)
     dv_of_drho   :      1.70s CPU      1.75s WALL (     254 calls)
     mix_pot      :      0.39s CPU     15.32s WALL (     173 calls)
     psymdvscf    :      5.77s CPU      5.83s WALL (     168 calls)
     newdq        :      7.75s CPU      7.77s WALL (     173 calls)
     adddvscf     :      0.46s CPU      0.44s WALL (   10978 calls)
     drhodvus     :      0.01s CPU      0.02s WALL (      32 calls)

     dvqpsi_us    :      2.12s CPU      2.27s WALL (    2508 calls)
     dvqpsi_us_on :      0.90s CPU      0.93s WALL (    2508 calls)

     cgsolve      :     78.80s CPU     85.70s WALL (   13486 calls)
     ch_psi       :     77.71s CPU     83.95s WALL (  143435 calls)

     ch_psi       :     77.71s CPU     83.95s WALL (  143435 calls)
     h_psi        :     71.41s CPU     76.55s WALL (  154693 calls)
     last         :      8.96s CPU      9.16s WALL (  143435 calls)

     h_psi        :     71.41s CPU     76.55s WALL (  154693 calls)
     add_vuspsi   :      4.27s CPU      3.69s WALL (  154693 calls)

     incdrhoscf   :      6.21s CPU      6.73s WALL (   13486 calls)
     addusdbec    :      0.48s CPU      0.52s WALL (   15934 calls)

     drhodvus     :      0.01s CPU      0.02s WALL (      32 calls)

      General routines
     calbec       :      8.17s CPU      8.55s WALL (  345952 calls)
     fft          :      1.84s CPU      1.91s WALL (    5233 calls)
     ffts         :      0.21s CPU      0.23s WALL (    3316 calls)
     fftw         :     64.57s CPU     68.42s WALL ( 1384576 calls)
     davcio       :      0.34s CPU      1.31s WALL (   69130 calls)
     write_rec    :      0.25s CPU     15.91s WALL (     205 calls)


     PHONON       :  2m18.18s CPU     3m 5.48s WALL


   This run was terminated on:  15:54:53  10Nov2017            

=------------------------------------------------------------------------------=
   JOB DONE.
=------------------------------------------------------------------------------=
