
     Program PHONON v.6.1 (svn rev. 13369) starts on 10Nov2017 at 15:30: 1 

     This program is part of the open-source Quantum ESPRESSO suite
     for quantum simulation of materials; please cite
         "P. Giannozzi et al., J. Phys.:Condens. Matter 21 395502 (2009);
          URL http://www.quantum-espresso.org", 
     in publications or presentations arising from this work. More details at
     http://www.quantum-espresso.org/quote

     Parallel version (MPI), running on     4 processors
     R & G space division:  proc/nbgrp/npool/nimage =       4

     Reading data from directory:
     ./silicon.10.344.save

   Info: using nr1, nr2, nr3 values from input

   Info: using nr1, nr2, nr3 values from input

     IMPORTANT: XC functional enforced from input :
     Exchange-correlation      = SLA  PW   PBE  PBE ( 1  4  3  4 0 0)
     Any further DFT definition will be discarded
     Please, verify this is what you really want


     Parallelization info
     --------------------
     sticks:   dense  smooth     PW     G-vecs:    dense   smooth      PW
     Min         219     109     37                 4315     1545     284
     Max         220     110     38                 4316     1546     285
     Sum         877     439    151                17261     6183    1139



     Dynamical matrices for ( 4, 4, 4)  uniform grid of q-points
     (   8q-points):
       N         xq(1)         xq(2)         xq(3) 
       1   0.000000000   0.000000000   0.000000000
       2  -0.250000000   0.250000000  -0.250000000
       3   0.500000000  -0.500000000   0.500000000
       4   0.000000000   0.500000000   0.000000000
       5   0.750000000  -0.250000000   0.750000000
       6   0.500000000   0.000000000   0.500000000
       7   0.000000000  -1.000000000   0.000000000
       8  -0.500000000  -1.000000000   0.000000000

     Calculation of q =    0.0000000   0.0000000   0.0000000

                                                                                

     bravais-lattice index     =            2
     lattice parameter (alat)  =      10.3440  a.u.
     unit-cell volume          =     276.6977 (a.u.)^3
     number of atoms/cell      =            2
     number of atomic types    =            1
     kinetic-energy cut-off    =      30.0000  Ry
     charge density cut-off    =     240.0000  Ry
     convergence threshold     =      1.0E-12
     beta                      =       0.7000
     number of iterations used =            4
     Exchange-correlation      = SLA  PW   PBE  PBE ( 1  4  3  4 0 0)


     celldm(1)=   10.34400  celldm(2)=    0.00000  celldm(3)=    0.00000
     celldm(4)=    0.00000  celldm(5)=    0.00000  celldm(6)=    0.00000

     crystal axes: (cart. coord. in units of alat)
               a(1) = ( -0.5000  0.0000  0.5000 )  
               a(2) = (  0.0000  0.5000  0.5000 )  
               a(3) = ( -0.5000  0.5000  0.0000 )  

     reciprocal axes: (cart. coord. in units 2 pi/alat)
               b(1) = ( -1.0000 -1.0000  1.0000 )  
               b(2) = (  1.0000  1.0000  1.0000 )  
               b(3) = ( -1.0000  1.0000 -1.0000 )  


     Atoms inside the unit cell: 

     Cartesian axes

     site n.  atom      mass           positions (alat units)
        1     Si  28.0860   tau(    1) = (    0.00000    0.00000    0.00000  )
        2     Si  28.0860   tau(    2) = (    0.25000    0.25000    0.25000  )

     Computing dynamical matrix for 
                    q = (   0.0000000   0.0000000   0.0000000 )

     49 Sym.Ops. (with q -> -q+G )


     G cutoff =  650.4719  (   4315 G-vectors)     FFT grid: ( 40, 40, 40)
     G cutoff =  325.2359  (   1546 G-vectors)  smooth grid: ( 25, 25, 25)
     number of k points=    10

     PseudoPot. # 1 for Si read from file:
     /home/s1333534/quantum_espresso/qe-6.1/pseudo/si_pbe_v1.uspp.F.UPF.txt
     MD5 check sum: a056efeee980c13900f22a371efd63c1
     Pseudo is Ultrasoft + core correction, Zval =  4.0
     Generated by new atomic code, or converted to UPF format
     Using radial grid of  899 points,  6 beta functions with: 
                l(1) =   0
                l(2) =   0
                l(3) =   1
                l(4) =   1
                l(5) =   2
                l(6) =   2
     Q(r) pseudized with  8 coefficients,  rinner =    0.900   0.900   0.900
                                                       0.900   0.900

     Mode symmetry, O_h (m-3m)  point group:


     Electric field:
     Dielectric constant
     Born effective charges in two ways 


     Atomic displacements:
     There are   2 irreducible representations

     Representation     1      3 modes -T_2g G_25' G_5+  To be done

     Representation     2      3 modes -T_1u G_15  G_4-  To be done



     Alpha used in Ewald sum =   2.5000
     PHONON       :     0.97s CPU         1.23s WALL


     Electric Fields Calculation

      iter #   1 total cpu time :     2.4 secs   av.it.:   5.8
      thresh= 1.000E-02 alpha_mix =  0.700 |ddv_scf|^2 =  9.687E-08

      iter #   2 total cpu time :     3.2 secs   av.it.:  11.9
      thresh= 3.112E-05 alpha_mix =  0.700 |ddv_scf|^2 =  5.731E-09

      iter #   3 total cpu time :     4.0 secs   av.it.:  11.7
      thresh= 7.571E-06 alpha_mix =  0.700 |ddv_scf|^2 =  3.842E-10

      iter #   4 total cpu time :     4.8 secs   av.it.:  10.6
      thresh= 1.960E-06 alpha_mix =  0.700 |ddv_scf|^2 =  2.545E-12

      iter #   5 total cpu time :     5.5 secs   av.it.:  11.2
      thresh= 1.595E-07 alpha_mix =  0.700 |ddv_scf|^2 =  2.550E-15

     End of electric fields calculation

          Dielectric constant in cartesian axis 

          (      13.987568028      -0.000000000       0.000000000 )
          (      -0.000000000      13.987568028      -0.000000000 )
          (       0.000000000      -0.000000000      13.987568028 )

          Effective charges (d Force / dE) in cartesian axis

           atom      1   Si 
      Ex  (       -0.03832        0.00000        0.00000 )
      Ey  (        0.00000       -0.03832        0.00000 )
      Ez  (        0.00000       -0.00000       -0.03832 )
           atom      2   Si 
      Ex  (       -0.03832       -0.00000       -0.00000 )
      Ey  (       -0.00000       -0.03832        0.00000 )
      Ez  (       -0.00000        0.00000       -0.03832 )


     Representation #  1 modes #   1  2  3

     Self-consistent Calculation

      iter #   1 total cpu time :     6.9 secs   av.it.:   5.1
      thresh= 1.000E-02 alpha_mix =  0.700 |ddv_scf|^2 =  1.713E-08

      iter #   2 total cpu time :     7.8 secs   av.it.:  11.8
      thresh= 1.309E-05 alpha_mix =  0.700 |ddv_scf|^2 =  7.004E-10

      iter #   3 total cpu time :     8.7 secs   av.it.:  11.3
      thresh= 2.647E-06 alpha_mix =  0.700 |ddv_scf|^2 =  4.765E-11

      iter #   4 total cpu time :     9.4 secs   av.it.:  10.4
      thresh= 6.903E-07 alpha_mix =  0.700 |ddv_scf|^2 =  1.181E-13

     End of self-consistent calculation

     Convergence has been achieved 


     Representation #  2 modes #   4  5  6

     Self-consistent Calculation

      iter #   1 total cpu time :    10.3 secs   av.it.:   5.2
      thresh= 1.000E-02 alpha_mix =  0.700 |ddv_scf|^2 =  1.351E-08

      iter #   2 total cpu time :    11.3 secs   av.it.:  11.7
      thresh= 1.162E-05 alpha_mix =  0.700 |ddv_scf|^2 =  7.941E-10

      iter #   3 total cpu time :    12.2 secs   av.it.:  11.4
      thresh= 2.818E-06 alpha_mix =  0.700 |ddv_scf|^2 =  4.929E-11

      iter #   4 total cpu time :    12.9 secs   av.it.:  11.5
      thresh= 7.021E-07 alpha_mix =  0.700 |ddv_scf|^2 =  1.915E-13

     End of self-consistent calculation

     Convergence has been achieved 

     Number of q in the star =    1
     List of q in the star:
          1   0.000000000   0.000000000   0.000000000

          Dielectric constant in cartesian axis 

          (      13.987568028      -0.000000000       0.000000000 )
          (      -0.000000000      13.987568028      -0.000000000 )
          (       0.000000000      -0.000000000      13.987568028 )

          Effective charges (d Force / dE) in cartesian axis

           atom      1   Si 
      Ex  (       -0.03832        0.00000        0.00000 )
      Ey  (        0.00000       -0.03832        0.00000 )
      Ez  (        0.00000       -0.00000       -0.03832 )
           atom      2   Si 
      Ex  (       -0.03832       -0.00000       -0.00000 )
      Ey  (       -0.00000       -0.03832        0.00000 )
      Ez  (       -0.00000        0.00000       -0.03832 )

          Effective charges (d P / du) in cartesian axis 

           atom      1   Si 
      Px  (       -0.07262        0.00000       -0.00000 )
      Py  (        0.00000       -0.07262       -0.00000 )
      Pz  (       -0.00000       -0.00000       -0.07262 )
           atom      2   Si 
      Px  (       -0.07262        0.00000        0.00000 )
      Py  (        0.00000       -0.07262       -0.00000 )
      Pz  (        0.00000       -0.00000       -0.07262 )

     Diagonalizing the dynamical matrix

     q = (    0.000000000   0.000000000   0.000000000 ) 

 **************************************************************************
     freq (    1) =      -0.475855 [THz] =     -15.872821 [cm-1]
     freq (    2) =      -0.475855 [THz] =     -15.872821 [cm-1]
     freq (    3) =      -0.475855 [THz] =     -15.872821 [cm-1]
     freq (    4) =      15.022582 [THz] =     501.099399 [cm-1]
     freq (    5) =      15.022582 [THz] =     501.099399 [cm-1]
     freq (    6) =      15.022582 [THz] =     501.099399 [cm-1]
 **************************************************************************

     Mode symmetry, O_h (m-3m)  point group:

     freq (  1 -  3) =        -15.9  [cm-1]   --> T_1u G_15  G_4- I  
     freq (  4 -  6) =        501.1  [cm-1]   --> T_2g G_25' G_5+ R  

     Calculation of q =   -0.2500000   0.2500000  -0.2500000

   Info: using nr1, nr2, nr3 values from input

   Info: using nr1, nr2, nr3 values from input

     Parallelization info
     --------------------
     sticks:   dense  smooth     PW     G-vecs:    dense   smooth      PW
     Min         218     109     37                 4315     1545     309
     Max         220     110     38                 4316     1546     312
     Sum         877     439    151                17261     6183    1243



     bravais-lattice index     =            2
     lattice parameter (alat)  =      10.3440  a.u.
     unit-cell volume          =     276.6977 (a.u.)^3
     number of atoms/cell      =            2
     number of atomic types    =            1
     number of electrons       =         8.00
     number of Kohn-Sham states=            4
     kinetic-energy cutoff     =      30.0000  Ry
     charge density cutoff     =     240.0000  Ry
     Exchange-correlation      = SLA  PW   PBE  PBE ( 1  4  3  4 0 0)

     celldm(1)=  10.344000  celldm(2)=   0.000000  celldm(3)=   0.000000
     celldm(4)=   0.000000  celldm(5)=   0.000000  celldm(6)=   0.000000

     crystal axes: (cart. coord. in units of alat)
               a(1) = (  -0.500000   0.000000   0.500000 )  
               a(2) = (   0.000000   0.500000   0.500000 )  
               a(3) = (  -0.500000   0.500000   0.000000 )  

     reciprocal axes: (cart. coord. in units 2 pi/alat)
               b(1) = ( -1.000000 -1.000000  1.000000 )  
               b(2) = (  1.000000  1.000000  1.000000 )  
               b(3) = ( -1.000000  1.000000 -1.000000 )  


     PseudoPot. # 1 for Si read from file:
     /home/s1333534/quantum_espresso/qe-6.1/pseudo/si_pbe_v1.uspp.F.UPF.txt
     MD5 check sum: a056efeee980c13900f22a371efd63c1
     Pseudo is Ultrasoft + core correction, Zval =  4.0
     Generated by new atomic code, or converted to UPF format
     Using radial grid of  899 points,  6 beta functions with: 
                l(1) =   0
                l(2) =   0
                l(3) =   1
                l(4) =   1
                l(5) =   2
                l(6) =   2
     Q(r) pseudized with  8 coefficients,  rinner =    0.900   0.900   0.900
                                                       0.900   0.900

     atomic species   valence    mass     pseudopotential
        Si             4.00    28.08600     Si( 1.00)

     48 Sym. Ops., with inversion, found



   Cartesian axes

     site n.     atom                  positions (alat units)
         1           Si  tau(   1) = (   0.0000000   0.0000000   0.0000000  )
         2           Si  tau(   2) = (   0.2500000   0.2500000   0.2500000  )

     number of k points=   120

     Number of k-points >= 100: set verbosity='high' to print them.

     Dense  grid:    17261 G-vectors     FFT dimensions: (  40,  40,  40)

     Smooth grid:     6183 G-vectors     FFT dimensions: (  25,  25,  25)

     Estimated max dynamical RAM per process >       1.79MB

     Estimated total allocated dynamical RAM >       7.14MB

     The potential is recalculated from file :
     ./_ph0/silicon.10.344.save/charge-density.dat

     Starting wfc are    8 atomic wfcs

     Band Structure Calculation
     Davidson diagonalization with overlap

     ethr =  1.25E-10,  avg # of iterations = 12.2

     total cpu time spent up to now is        1.4 secs

     End of band structure calculation

     Number of k-points >= 100: set verbosity='high' to print the bands.

     highest occupied level (ev):     5.6661

     Writing output data file silicon.10.344.save

                                                                                

     bravais-lattice index     =            2
     lattice parameter (alat)  =      10.3440  a.u.
     unit-cell volume          =     276.6977 (a.u.)^3
     number of atoms/cell      =            2
     number of atomic types    =            1
     kinetic-energy cut-off    =      30.0000  Ry
     charge density cut-off    =     240.0000  Ry
     convergence threshold     =      1.0E-12
     beta                      =       0.7000
     number of iterations used =            4
     Exchange-correlation      = SLA  PW   PBE  PBE ( 1  4  3  4 0 0)


     celldm(1)=   10.34400  celldm(2)=    0.00000  celldm(3)=    0.00000
     celldm(4)=    0.00000  celldm(5)=    0.00000  celldm(6)=    0.00000

     crystal axes: (cart. coord. in units of alat)
               a(1) = ( -0.5000  0.0000  0.5000 )  
               a(2) = (  0.0000  0.5000  0.5000 )  
               a(3) = ( -0.5000  0.5000  0.0000 )  

     reciprocal axes: (cart. coord. in units 2 pi/alat)
               b(1) = ( -1.0000 -1.0000  1.0000 )  
               b(2) = (  1.0000  1.0000  1.0000 )  
               b(3) = ( -1.0000  1.0000 -1.0000 )  


     Atoms inside the unit cell: 

     Cartesian axes

     site n.  atom      mass           positions (alat units)
        1     Si  28.0860   tau(    1) = (    0.00000    0.00000    0.00000  )
        2     Si  28.0860   tau(    2) = (    0.25000    0.25000    0.25000  )

     Computing dynamical matrix for 
                    q = (  -0.2500000   0.2500000  -0.2500000 )

      6 Sym.Ops. (no q -> -q+G )


     G cutoff =  650.4719  (   4315 G-vectors)     FFT grid: ( 40, 40, 40)
     G cutoff =  325.2359  (   1546 G-vectors)  smooth grid: ( 25, 25, 25)
     number of k points=   120

     PseudoPot. # 1 for Si read from file:
     /home/s1333534/quantum_espresso/qe-6.1/pseudo/si_pbe_v1.uspp.F.UPF.txt
     MD5 check sum: a056efeee980c13900f22a371efd63c1
     Pseudo is Ultrasoft + core correction, Zval =  4.0
     Generated by new atomic code, or converted to UPF format
     Using radial grid of  899 points,  6 beta functions with: 
                l(1) =   0
                l(2) =   0
                l(3) =   1
                l(4) =   1
                l(5) =   2
                l(6) =   2
     Q(r) pseudized with  8 coefficients,  rinner =    0.900   0.900   0.900
                                                       0.900   0.900

     Mode symmetry, C_3v (3m)   point group:


     Atomic displacements:
     There are   4 irreducible representations

     Representation     1      1 modes -A_1  L_1  To be done

     Representation     2      1 modes -A_1  L_1  To be done

     Representation     3      2 modes -E    L_3  To be done

     Representation     4      2 modes -E    L_3  To be done



     Alpha used in Ewald sum =   2.5000
     PHONON       :    12.27s CPU        16.26s WALL



     Representation #  1 mode #   1

     Self-consistent Calculation

      iter #   1 total cpu time :    16.7 secs   av.it.:   5.9
      thresh= 1.000E-02 alpha_mix =  0.700 |ddv_scf|^2 =  3.098E-04

      iter #   2 total cpu time :    17.4 secs   av.it.:   9.2
      thresh= 1.760E-03 alpha_mix =  0.700 |ddv_scf|^2 =  4.727E-03

      iter #   3 total cpu time :    17.9 secs   av.it.:   7.1
      thresh= 6.875E-03 alpha_mix =  0.700 |ddv_scf|^2 =  1.955E-07

      iter #   4 total cpu time :    18.6 secs   av.it.:   9.7
      thresh= 4.421E-05 alpha_mix =  0.700 |ddv_scf|^2 =  1.294E-08

      iter #   5 total cpu time :    19.2 secs   av.it.:   9.7
      thresh= 1.138E-05 alpha_mix =  0.700 |ddv_scf|^2 =  2.433E-10

      iter #   6 total cpu time :    19.9 secs   av.it.:   9.9
      thresh= 1.560E-06 alpha_mix =  0.700 |ddv_scf|^2 =  6.406E-10

      iter #   7 total cpu time :    20.5 secs   av.it.:   7.8
      thresh= 2.531E-06 alpha_mix =  0.700 |ddv_scf|^2 =  3.596E-11

      iter #   8 total cpu time :    21.1 secs   av.it.:   9.4
      thresh= 5.996E-07 alpha_mix =  0.700 |ddv_scf|^2 =  4.080E-13

     End of self-consistent calculation

     Convergence has been achieved 


     Representation #  2 mode #   2

     Self-consistent Calculation

      iter #   1 total cpu time :    21.7 secs   av.it.:   5.9
      thresh= 1.000E-02 alpha_mix =  0.700 |ddv_scf|^2 =  3.098E-04

      iter #   2 total cpu time :    22.4 secs   av.it.:   9.2
      thresh= 1.760E-03 alpha_mix =  0.700 |ddv_scf|^2 =  4.727E-03

      iter #   3 total cpu time :    22.9 secs   av.it.:   7.1
      thresh= 6.875E-03 alpha_mix =  0.700 |ddv_scf|^2 =  1.955E-07

      iter #   4 total cpu time :    23.6 secs   av.it.:   9.7
      thresh= 4.421E-05 alpha_mix =  0.700 |ddv_scf|^2 =  1.294E-08

      iter #   5 total cpu time :    24.3 secs   av.it.:   9.7
      thresh= 1.138E-05 alpha_mix =  0.700 |ddv_scf|^2 =  2.433E-10

      iter #   6 total cpu time :    25.0 secs   av.it.:   9.9
      thresh= 1.560E-06 alpha_mix =  0.700 |ddv_scf|^2 =  6.406E-10

      iter #   7 total cpu time :    25.5 secs   av.it.:   7.8
      thresh= 2.531E-06 alpha_mix =  0.700 |ddv_scf|^2 =  3.596E-11

      iter #   8 total cpu time :    26.1 secs   av.it.:   9.4
      thresh= 5.996E-07 alpha_mix =  0.700 |ddv_scf|^2 =  4.080E-13

     End of self-consistent calculation

     Convergence has been achieved 


     Representation #  3 modes #   3  4

     Self-consistent Calculation

      iter #   1 total cpu time :    27.2 secs   av.it.:   5.2
      thresh= 1.000E-02 alpha_mix =  0.700 |ddv_scf|^2 =  4.817E-08

      iter #   2 total cpu time :    28.5 secs   av.it.:  11.7
      thresh= 2.195E-05 alpha_mix =  0.700 |ddv_scf|^2 =  3.095E-09

      iter #   3 total cpu time :    29.9 secs   av.it.:  11.2
      thresh= 5.563E-06 alpha_mix =  0.700 |ddv_scf|^2 =  1.636E-10

      iter #   4 total cpu time :    31.1 secs   av.it.:  11.1
      thresh= 1.279E-06 alpha_mix =  0.700 |ddv_scf|^2 =  6.278E-13

     End of self-consistent calculation

     Convergence has been achieved 


     Representation #  4 modes #   5  6

     Self-consistent Calculation

      iter #   1 total cpu time :    32.2 secs   av.it.:   5.2
      thresh= 1.000E-02 alpha_mix =  0.700 |ddv_scf|^2 =  4.818E-08

      iter #   2 total cpu time :    33.5 secs   av.it.:  11.7
      thresh= 2.195E-05 alpha_mix =  0.700 |ddv_scf|^2 =  3.095E-09

      iter #   3 total cpu time :    34.8 secs   av.it.:  11.4
      thresh= 5.564E-06 alpha_mix =  0.700 |ddv_scf|^2 =  1.635E-10

      iter #   4 total cpu time :    36.0 secs   av.it.:  11.2
      thresh= 1.279E-06 alpha_mix =  0.700 |ddv_scf|^2 =  6.316E-13

     End of self-consistent calculation

     Convergence has been achieved 

     Number of q in the star =    8
     List of q in the star:
          1  -0.250000000   0.250000000  -0.250000000
          2   0.250000000  -0.250000000  -0.250000000
          3   0.250000000  -0.250000000   0.250000000
          4   0.250000000   0.250000000   0.250000000
          5  -0.250000000  -0.250000000  -0.250000000
          6  -0.250000000  -0.250000000   0.250000000
          7  -0.250000000   0.250000000   0.250000000
          8   0.250000000   0.250000000  -0.250000000

     Diagonalizing the dynamical matrix

     q = (   -0.250000000   0.250000000  -0.250000000 ) 

 **************************************************************************
     freq (    1) =       2.791224 [THz] =      93.105204 [cm-1]
     freq (    2) =       2.791224 [THz] =      93.105204 [cm-1]
     freq (    3) =       6.709066 [THz] =     223.790355 [cm-1]
     freq (    4) =      14.175581 [THz] =     472.846476 [cm-1]
     freq (    5) =      14.442592 [THz] =     481.753014 [cm-1]
     freq (    6) =      14.442592 [THz] =     481.753014 [cm-1]
 **************************************************************************

     Mode symmetry, C_3v (3m)   point group:

     freq (  1 -  2) =         93.1  [cm-1]   --> E    L_3           
     freq (  3 -  3) =        223.8  [cm-1]   --> A_1  L_1           
     freq (  4 -  4) =        472.8  [cm-1]   --> A_1  L_1           
     freq (  5 -  6) =        481.8  [cm-1]   --> E    L_3           

     Calculation of q =    0.5000000  -0.5000000   0.5000000

   Info: using nr1, nr2, nr3 values from input

   Info: using nr1, nr2, nr3 values from input

     Parallelization info
     --------------------
     sticks:   dense  smooth     PW     G-vecs:    dense   smooth      PW
     Min         219     109     40                 4315     1545     351
     Max         220     110     41                 4316     1546     354
     Sum         877     439    163                17261     6183    1411



     bravais-lattice index     =            2
     lattice parameter (alat)  =      10.3440  a.u.
     unit-cell volume          =     276.6977 (a.u.)^3
     number of atoms/cell      =            2
     number of atomic types    =            1
     number of electrons       =         8.00
     number of Kohn-Sham states=            4
     kinetic-energy cutoff     =      30.0000  Ry
     charge density cutoff     =     240.0000  Ry
     Exchange-correlation      = SLA  PW   PBE  PBE ( 1  4  3  4 0 0)

     celldm(1)=  10.344000  celldm(2)=   0.000000  celldm(3)=   0.000000
     celldm(4)=   0.000000  celldm(5)=   0.000000  celldm(6)=   0.000000

     crystal axes: (cart. coord. in units of alat)
               a(1) = (  -0.500000   0.000000   0.500000 )  
               a(2) = (   0.000000   0.500000   0.500000 )  
               a(3) = (  -0.500000   0.500000   0.000000 )  

     reciprocal axes: (cart. coord. in units 2 pi/alat)
               b(1) = ( -1.000000 -1.000000  1.000000 )  
               b(2) = (  1.000000  1.000000  1.000000 )  
               b(3) = ( -1.000000  1.000000 -1.000000 )  


     PseudoPot. # 1 for Si read from file:
     /home/s1333534/quantum_espresso/qe-6.1/pseudo/si_pbe_v1.uspp.F.UPF.txt
     MD5 check sum: a056efeee980c13900f22a371efd63c1
     Pseudo is Ultrasoft + core correction, Zval =  4.0
     Generated by new atomic code, or converted to UPF format
     Using radial grid of  899 points,  6 beta functions with: 
                l(1) =   0
                l(2) =   0
                l(3) =   1
                l(4) =   1
                l(5) =   2
                l(6) =   2
     Q(r) pseudized with  8 coefficients,  rinner =    0.900   0.900   0.900
                                                       0.900   0.900

     atomic species   valence    mass     pseudopotential
        Si             4.00    28.08600     Si( 1.00)

     48 Sym. Ops., with inversion, found



   Cartesian axes

     site n.     atom                  positions (alat units)
         1           Si  tau(   1) = (   0.0000000   0.0000000   0.0000000  )
         2           Si  tau(   2) = (   0.2500000   0.2500000   0.2500000  )

     number of k points=    60
                       cart. coord. in units 2pi/alat
        k(    1) = (  -0.1250000   0.1250000   0.1250000), wk =   0.0468750
        k(    2) = (   0.3750000  -0.3750000   0.6250000), wk =   0.0000000
        k(    3) = (  -0.3750000   0.3750000  -0.1250000), wk =   0.0468750
        k(    4) = (   0.1250000  -0.1250000   0.3750000), wk =   0.0000000
        k(    5) = (   0.3750000  -0.3750000   0.6250000), wk =   0.0468750
        k(    6) = (   0.8750000  -0.8750000   1.1250000), wk =   0.0000000
        k(    7) = (   0.1250000  -0.1250000   0.3750000), wk =   0.0468750
        k(    8) = (   0.6250000  -0.6250000   0.8750000), wk =   0.0000000
        k(    9) = (  -0.1250000   0.6250000   0.1250000), wk =   0.0937500
        k(   10) = (   0.3750000   0.1250000   0.6250000), wk =   0.0000000
        k(   11) = (   0.6250000  -0.1250000   0.8750000), wk =   0.0937500
        k(   12) = (   1.1250000  -0.6250000   1.3750000), wk =   0.0000000
        k(   13) = (   0.3750000   0.1250000   0.6250000), wk =   0.0937500
        k(   14) = (   0.8750000  -0.3750000   1.1250000), wk =   0.0000000
        k(   15) = (  -0.1250000  -0.8750000   0.1250000), wk =   0.0937500
        k(   16) = (   0.3750000  -1.3750000   0.6250000), wk =   0.0000000
        k(   17) = (  -0.3750000   0.3750000   0.3750000), wk =   0.0468750
        k(   18) = (   0.1250000  -0.1250000   0.8750000), wk =   0.0000000
        k(   19) = (   0.3750000  -0.3750000   1.1250000), wk =   0.0468750
        k(   20) = (   0.8750000  -0.8750000   1.6250000), wk =   0.0000000
        k(   21) = (   0.1250000  -0.1250000   0.1250000), wk =   0.0156250
        k(   22) = (   0.6250000  -0.6250000   0.6250000), wk =   0.0000000
        k(   23) = (  -0.3750000  -0.3750000  -0.1250000), wk =   0.0937500
        k(   24) = (   0.1250000  -0.8750000   0.3750000), wk =   0.0000000
        k(   25) = (  -0.1250000  -0.3750000   0.3750000), wk =   0.0468750
        k(   26) = (   0.3750000  -0.8750000   0.8750000), wk =   0.0000000
        k(   27) = (   0.3750000   0.3750000   0.6250000), wk =   0.0937500
        k(   28) = (   0.8750000  -0.1250000   1.1250000), wk =   0.0000000
        k(   29) = (   0.6250000   0.3750000  -0.3750000), wk =   0.0468750
        k(   30) = (   1.1250000  -0.1250000   0.1250000), wk =   0.0000000
        k(   31) = (   0.1250000   0.1250000   0.3750000), wk =   0.0937500
        k(   32) = (   0.6250000  -0.3750000   0.8750000), wk =   0.0000000
        k(   33) = (   0.3750000   0.1250000  -0.1250000), wk =   0.0468750
        k(   34) = (   0.8750000  -0.3750000   0.3750000), wk =   0.0000000
        k(   35) = (  -0.1250000  -0.6250000  -0.1250000), wk =   0.0468750
        k(   36) = (   0.3750000  -1.1250000   0.3750000), wk =   0.0000000
        k(   37) = (   0.1250000  -0.6250000   0.1250000), wk =   0.0468750
        k(   38) = (   0.6250000  -1.1250000   0.6250000), wk =   0.0000000
        k(   39) = (   0.6250000   0.1250000   0.8750000), wk =   0.0937500
        k(   40) = (   1.1250000  -0.3750000   1.3750000), wk =   0.0000000
        k(   41) = (  -0.8750000   0.1250000   0.6250000), wk =   0.0937500
        k(   42) = (  -0.3750000  -0.3750000   1.1250000), wk =   0.0000000
        k(   43) = (   0.8750000   0.1250000  -0.6250000), wk =   0.0937500
        k(   44) = (   1.3750000  -0.3750000  -0.1250000), wk =   0.0000000
        k(   45) = (   0.3750000  -0.1250000   0.6250000), wk =   0.0937500
        k(   46) = (   0.8750000  -0.6250000   1.1250000), wk =   0.0000000
        k(   47) = (  -0.6250000  -0.1250000   0.3750000), wk =   0.0937500
        k(   48) = (  -0.1250000  -0.6250000   0.8750000), wk =   0.0000000
        k(   49) = (   0.6250000  -0.1250000  -0.3750000), wk =   0.0937500
        k(   50) = (   1.1250000  -0.6250000   0.1250000), wk =   0.0000000
        k(   51) = (  -0.1250000   0.8750000  -0.1250000), wk =   0.0468750
        k(   52) = (   0.3750000   0.3750000   0.3750000), wk =   0.0000000
        k(   53) = (   0.1250000   0.8750000   0.1250000), wk =   0.0468750
        k(   54) = (   0.6250000   0.3750000   0.6250000), wk =   0.0000000
        k(   55) = (   0.3750000  -0.3750000   0.3750000), wk =   0.0156250
        k(   56) = (   0.8750000  -0.8750000   0.8750000), wk =   0.0000000
        k(   57) = (   0.3750000   0.3750000   1.1250000), wk =   0.0937500
        k(   58) = (   0.8750000  -0.1250000   1.6250000), wk =   0.0000000
        k(   59) = (   1.1250000   0.3750000  -0.3750000), wk =   0.0468750
        k(   60) = (   1.6250000  -0.1250000   0.1250000), wk =   0.0000000

     Dense  grid:    17261 G-vectors     FFT dimensions: (  40,  40,  40)

     Smooth grid:     6183 G-vectors     FFT dimensions: (  25,  25,  25)

     Estimated max dynamical RAM per process >       1.79MB

     Estimated total allocated dynamical RAM >       7.14MB

     The potential is recalculated from file :
     ./_ph0/silicon.10.344.save/charge-density.dat

     Starting wfc are    8 atomic wfcs

     Band Structure Calculation
     Davidson diagonalization with overlap

     ethr =  1.25E-10,  avg # of iterations = 12.2

     total cpu time spent up to now is        2.4 secs

     End of band structure calculation

          k =-0.1250 0.1250 0.1250 (   773 PWs)   bands (ev):

    -5.6490   4.3568   5.6661   5.6661

          k = 0.3750-0.3750 0.6250 (   767 PWs)   bands (ev):

    -3.4910  -0.7002   3.7054   4.4184

          k =-0.3750 0.3750-0.1250 (   776 PWs)   bands (ev):

    -4.6257   1.3702   3.6862   5.1869

          k = 0.1250-0.1250 0.3750 (   774 PWs)   bands (ev):

    -5.1228   2.7424   4.6620   4.7240

          k = 0.3750-0.3750 0.6250 (   767 PWs)   bands (ev):

    -3.4910  -0.7002   3.7054   4.4184

          k = 0.8750-0.8750 1.1250 (   773 PWs)   bands (ev):

    -5.6490   4.3568   5.6661   5.6661

          k = 0.1250-0.1250 0.3750 (   774 PWs)   bands (ev):

    -5.1228   2.7424   4.6620   4.7240

          k = 0.6250-0.6250 0.8750 (   776 PWs)   bands (ev):

    -4.6257   1.3702   3.6862   5.1869

          k =-0.1250 0.6250 0.1250 (   768 PWs)   bands (ev):

    -4.0948   1.0332   3.3396   3.7907

          k = 0.3750 0.1250 0.6250 (   770 PWs)   bands (ev):

    -3.6810   0.1647   2.6993   4.0645

          k = 0.6250-0.1250 0.8750 (   757 PWs)   bands (ev):

    -2.4613  -0.9233   1.9913   3.0638

          k = 1.1250-0.6250 1.3750 (   776 PWs)   bands (ev):

    -4.6257   1.3702   3.6862   5.1869

          k = 0.3750 0.1250 0.6250 (   770 PWs)   bands (ev):

    -3.6810   0.1647   2.6993   4.0645

          k = 0.8750-0.3750 1.1250 (   768 PWs)   bands (ev):

    -4.0948   1.0332   3.3396   3.7907

          k =-0.1250-0.8750 0.1250 (   763 PWs)   bands (ev):

    -2.6276  -0.8267   2.5987   3.3252

          k = 0.3750-1.3750 0.6250 (   767 PWs)   bands (ev):

    -3.4910  -0.7002   3.7054   4.4184

          k =-0.3750 0.3750 0.3750 (   763 PWs)   bands (ev):

    -4.1946   0.0855   4.8810   4.8810

          k = 0.1250-0.1250 0.8750 (   763 PWs)   bands (ev):

    -2.6276  -0.8267   2.5987   3.3252

          k = 0.3750-0.3750 1.1250 (   769 PWs)   bands (ev):

    -2.9968  -0.6191   2.0481   4.1027

          k = 0.8750-0.8750 1.6250 (   768 PWs)   bands (ev):

    -4.0948   1.0332   3.3396   3.7907

          k = 0.1250-0.1250 0.1250 (   773 PWs)   bands (ev):

    -5.6490   4.3568   5.6661   5.6661

          k = 0.6250-0.6250 0.6250 (   763 PWs)   bands (ev):

    -4.1946   0.0855   4.8810   4.8810

          k =-0.3750-0.3750-0.1250 (   776 PWs)   bands (ev):

    -4.6257   1.3702   3.6862   5.1869

          k = 0.1250-0.8750 0.3750 (   757 PWs)   bands (ev):

    -2.4613  -0.9233   1.9913   3.0638

          k =-0.1250-0.3750 0.3750 (   776 PWs)   bands (ev):

    -4.6257   1.3702   3.6862   5.1869

          k = 0.3750-0.8750 0.8750 (   768 PWs)   bands (ev):

    -4.0948   1.0332   3.3396   3.7907

          k = 0.3750 0.3750 0.6250 (   767 PWs)   bands (ev):

    -3.4910  -0.7002   3.7054   4.4184

          k = 0.8750-0.1250 1.1250 (   763 PWs)   bands (ev):

    -2.6276  -0.8267   2.5987   3.3252

          k = 0.6250 0.3750-0.3750 (   767 PWs)   bands (ev):

    -3.4910  -0.7002   3.7054   4.4184

          k = 1.1250-0.1250 0.1250 (   763 PWs)   bands (ev):

    -2.6276  -0.8267   2.5987   3.3252

          k = 0.1250 0.1250 0.3750 (   774 PWs)   bands (ev):

    -5.1228   2.7424   4.6620   4.7240

          k = 0.6250-0.3750 0.8750 (   770 PWs)   bands (ev):

    -3.6810   0.1647   2.6993   4.0645

          k = 0.3750 0.1250-0.1250 (   774 PWs)   bands (ev):

    -5.1228   2.7424   4.6620   4.7240

          k = 0.8750-0.3750 0.3750 (   769 PWs)   bands (ev):

    -2.9968  -0.6191   2.0481   4.1027

          k =-0.1250-0.6250-0.1250 (   768 PWs)   bands (ev):

    -4.0948   1.0332   3.3396   3.7907

          k = 0.3750-1.1250 0.3750 (   769 PWs)   bands (ev):

    -2.9968  -0.6191   2.0481   4.1027

          k = 0.1250-0.6250 0.1250 (   768 PWs)   bands (ev):

    -4.0948   1.0332   3.3396   3.7907

          k = 0.6250-1.1250 0.6250 (   776 PWs)   bands (ev):

    -4.6257   1.3702   3.6862   5.1869

          k = 0.6250 0.1250 0.8750 (   757 PWs)   bands (ev):

    -2.4613  -0.9233   1.9913   3.0638

          k = 1.1250-0.3750 1.3750 (   770 PWs)   bands (ev):

    -3.6810   0.1647   2.6993   4.0645

          k =-0.8750 0.1250 0.6250 (   757 PWs)   bands (ev):

    -2.4613  -0.9233   1.9913   3.0638

          k =-0.3750-0.3750 1.1250 (   769 PWs)   bands (ev):

    -2.9968  -0.6191   2.0481   4.1027

          k = 0.8750 0.1250-0.6250 (   757 PWs)   bands (ev):

    -2.4613  -0.9233   1.9913   3.0638

          k = 1.3750-0.3750-0.1250 (   770 PWs)   bands (ev):

    -3.6810   0.1647   2.6993   4.0645

          k = 0.3750-0.1250 0.6250 (   770 PWs)   bands (ev):

    -3.6810   0.1647   2.6993   4.0645

          k = 0.8750-0.6250 1.1250 (   774 PWs)   bands (ev):

    -5.1228   2.7424   4.6620   4.7240

          k =-0.6250-0.1250 0.3750 (   770 PWs)   bands (ev):

    -3.6810   0.1647   2.6993   4.0645

          k =-0.1250-0.6250 0.8750 (   757 PWs)   bands (ev):

    -2.4613  -0.9233   1.9913   3.0638

          k = 0.6250-0.1250-0.3750 (   770 PWs)   bands (ev):

    -3.6810   0.1647   2.6993   4.0645

          k = 1.1250-0.6250 0.1250 (   757 PWs)   bands (ev):

    -2.4613  -0.9233   1.9913   3.0638

          k =-0.1250 0.8750-0.1250 (   763 PWs)   bands (ev):

    -2.6276  -0.8267   2.5987   3.3252

          k = 0.3750 0.3750 0.3750 (   763 PWs)   bands (ev):

    -4.1946   0.0855   4.8810   4.8810

          k = 0.1250 0.8750 0.1250 (   763 PWs)   bands (ev):

    -2.6276  -0.8267   2.5987   3.3252

          k = 0.6250 0.3750 0.6250 (   767 PWs)   bands (ev):

    -3.4910  -0.7002   3.7054   4.4184

          k = 0.3750-0.3750 0.3750 (   763 PWs)   bands (ev):

    -4.1946   0.0855   4.8810   4.8810

          k = 0.8750-0.8750 0.8750 (   773 PWs)   bands (ev):

    -5.6490   4.3568   5.6661   5.6661

          k = 0.3750 0.3750 1.1250 (   769 PWs)   bands (ev):

    -2.9968  -0.6191   2.0481   4.1027

          k = 0.8750-0.1250 1.6250 (   757 PWs)   bands (ev):

    -2.4613  -0.9233   1.9913   3.0638

          k = 1.1250 0.3750-0.3750 (   769 PWs)   bands (ev):

    -2.9968  -0.6191   2.0481   4.1027

          k = 1.6250-0.1250 0.1250 (   774 PWs)   bands (ev):

    -5.1228   2.7424   4.6620   4.7240

     highest occupied level (ev):     5.6661

     Writing output data file silicon.10.344.save

                                                                                

     bravais-lattice index     =            2
     lattice parameter (alat)  =      10.3440  a.u.
     unit-cell volume          =     276.6977 (a.u.)^3
     number of atoms/cell      =            2
     number of atomic types    =            1
     kinetic-energy cut-off    =      30.0000  Ry
     charge density cut-off    =     240.0000  Ry
     convergence threshold     =      1.0E-12
     beta                      =       0.7000
     number of iterations used =            4
     Exchange-correlation      = SLA  PW   PBE  PBE ( 1  4  3  4 0 0)


     celldm(1)=   10.34400  celldm(2)=    0.00000  celldm(3)=    0.00000
     celldm(4)=    0.00000  celldm(5)=    0.00000  celldm(6)=    0.00000

     crystal axes: (cart. coord. in units of alat)
               a(1) = ( -0.5000  0.0000  0.5000 )  
               a(2) = (  0.0000  0.5000  0.5000 )  
               a(3) = ( -0.5000  0.5000  0.0000 )  

     reciprocal axes: (cart. coord. in units 2 pi/alat)
               b(1) = ( -1.0000 -1.0000  1.0000 )  
               b(2) = (  1.0000  1.0000  1.0000 )  
               b(3) = ( -1.0000  1.0000 -1.0000 )  


     Atoms inside the unit cell: 

     Cartesian axes

     site n.  atom      mass           positions (alat units)
        1     Si  28.0860   tau(    1) = (    0.00000    0.00000    0.00000  )
        2     Si  28.0860   tau(    2) = (    0.25000    0.25000    0.25000  )

     Computing dynamical matrix for 
                    q = (   0.5000000  -0.5000000   0.5000000 )

     13 Sym.Ops. (with q -> -q+G )


     G cutoff =  650.4719  (   4316 G-vectors)     FFT grid: ( 40, 40, 40)
     G cutoff =  325.2359  (   1546 G-vectors)  smooth grid: ( 25, 25, 25)
     number of k points=    60

     PseudoPot. # 1 for Si read from file:
     /home/s1333534/quantum_espresso/qe-6.1/pseudo/si_pbe_v1.uspp.F.UPF.txt
     MD5 check sum: a056efeee980c13900f22a371efd63c1
     Pseudo is Ultrasoft + core correction, Zval =  4.0
     Generated by new atomic code, or converted to UPF format
     Using radial grid of  899 points,  6 beta functions with: 
                l(1) =   0
                l(2) =   0
                l(3) =   1
                l(4) =   1
                l(5) =   2
                l(6) =   2
     Q(r) pseudized with  8 coefficients,  rinner =    0.900   0.900   0.900
                                                       0.900   0.900


     Atomic displacements:
     There are   4 irreducible representations

     Representation     1      1 modes -  To be done

     Representation     2      1 modes -  To be done

     Representation     3      2 modes -  To be done

     Representation     4      2 modes -  To be done



     Alpha used in Ewald sum =   2.5000
     PHONON       :    29.85s CPU        38.55s WALL



     Representation #  1 mode #   1

     Self-consistent Calculation

      iter #   1 total cpu time :    38.9 secs   av.it.:   5.1
      thresh= 1.000E-02 alpha_mix =  0.700 |ddv_scf|^2 =  3.038E-06

      iter #   2 total cpu time :    39.3 secs   av.it.:  10.1
      thresh= 1.743E-04 alpha_mix =  0.700 |ddv_scf|^2 =  2.796E-06

      iter #   3 total cpu time :    39.7 secs   av.it.:   9.4
      thresh= 1.672E-04 alpha_mix =  0.700 |ddv_scf|^2 =  1.666E-09

      iter #   4 total cpu time :    40.1 secs   av.it.:   9.6
      thresh= 4.082E-06 alpha_mix =  0.700 |ddv_scf|^2 =  1.585E-11

      iter #   5 total cpu time :    40.5 secs   av.it.:   9.5
      thresh= 3.981E-07 alpha_mix =  0.700 |ddv_scf|^2 =  2.264E-13

     End of self-consistent calculation

     Convergence has been achieved 


     Representation #  2 mode #   2

     Self-consistent Calculation

      iter #   1 total cpu time :    41.0 secs   av.it.:   6.0
      thresh= 1.000E-02 alpha_mix =  0.700 |ddv_scf|^2 =  4.320E-05

      iter #   2 total cpu time :    41.4 secs   av.it.:  10.0
      thresh= 6.573E-04 alpha_mix =  0.700 |ddv_scf|^2 =  1.345E-04

      iter #   3 total cpu time :    41.8 secs   av.it.:   8.9
      thresh= 1.160E-03 alpha_mix =  0.700 |ddv_scf|^2 =  9.958E-09

      iter #   4 total cpu time :    42.3 secs   av.it.:  10.1
      thresh= 9.979E-06 alpha_mix =  0.700 |ddv_scf|^2 =  5.038E-10

      iter #   5 total cpu time :    43.0 secs   av.it.:  10.4
      thresh= 2.245E-06 alpha_mix =  0.700 |ddv_scf|^2 =  1.499E-11

      iter #   6 total cpu time :    43.4 secs   av.it.:   9.9
      thresh= 3.872E-07 alpha_mix =  0.700 |ddv_scf|^2 =  1.113E-13

     End of self-consistent calculation

     Convergence has been achieved 


     Representation #  3 modes #   3  4

     Self-consistent Calculation

      iter #   1 total cpu time :    44.1 secs   av.it.:   5.1
      thresh= 1.000E-02 alpha_mix =  0.700 |ddv_scf|^2 =  1.957E-08

      iter #   2 total cpu time :    45.0 secs   av.it.:  11.1
      thresh= 1.399E-05 alpha_mix =  0.700 |ddv_scf|^2 =  1.152E-09

      iter #   3 total cpu time :    45.8 secs   av.it.:  10.9
      thresh= 3.394E-06 alpha_mix =  0.700 |ddv_scf|^2 =  3.876E-11

      iter #   4 total cpu time :    46.6 secs   av.it.:  10.8
      thresh= 6.226E-07 alpha_mix =  0.700 |ddv_scf|^2 =  3.164E-13

     End of self-consistent calculation

     Convergence has been achieved 


     Representation #  4 modes #   5  6

     Self-consistent Calculation

      iter #   1 total cpu time :    47.3 secs   av.it.:   5.1
      thresh= 1.000E-02 alpha_mix =  0.700 |ddv_scf|^2 =  1.003E-07

      iter #   2 total cpu time :    48.2 secs   av.it.:  11.2
      thresh= 3.168E-05 alpha_mix =  0.700 |ddv_scf|^2 =  8.054E-09

      iter #   3 total cpu time :    49.0 secs   av.it.:  11.1
      thresh= 8.974E-06 alpha_mix =  0.700 |ddv_scf|^2 =  2.117E-10

      iter #   4 total cpu time :    49.7 secs   av.it.:  10.1
      thresh= 1.455E-06 alpha_mix =  0.700 |ddv_scf|^2 =  3.856E-13

     End of self-consistent calculation

     Convergence has been achieved 

     Number of q in the star =    4
     List of q in the star:
          1   0.500000000  -0.500000000   0.500000000
          2   0.500000000   0.500000000   0.500000000
          3  -0.500000000   0.500000000   0.500000000
          4   0.500000000   0.500000000  -0.500000000

     Diagonalizing the dynamical matrix

     q = (    0.500000000  -0.500000000   0.500000000 ) 

 **************************************************************************
     freq (    1) =       3.317645 [THz] =     110.664734 [cm-1]
     freq (    2) =       3.317645 [THz] =     110.664734 [cm-1]
     freq (    3) =      11.084588 [THz] =     369.742072 [cm-1]
     freq (    4) =      11.906972 [THz] =     397.173818 [cm-1]
     freq (    5) =      14.227824 [THz] =     474.589127 [cm-1]
     freq (    6) =      14.227824 [THz] =     474.589127 [cm-1]
 **************************************************************************

     Calculation of q =    0.0000000   0.5000000   0.0000000

   Info: using nr1, nr2, nr3 values from input

   Info: using nr1, nr2, nr3 values from input

     Parallelization info
     --------------------
     sticks:   dense  smooth     PW     G-vecs:    dense   smooth      PW
     Min         219     109     40                 4315     1545     322
     Max         220     110     42                 4316     1547     323
     Sum         877     439    163                17261     6183    1291



     bravais-lattice index     =            2
     lattice parameter (alat)  =      10.3440  a.u.
     unit-cell volume          =     276.6977 (a.u.)^3
     number of atoms/cell      =            2
     number of atomic types    =            1
     number of electrons       =         8.00
     number of Kohn-Sham states=            4
     kinetic-energy cutoff     =      30.0000  Ry
     charge density cutoff     =     240.0000  Ry
     Exchange-correlation      = SLA  PW   PBE  PBE ( 1  4  3  4 0 0)

     celldm(1)=  10.344000  celldm(2)=   0.000000  celldm(3)=   0.000000
     celldm(4)=   0.000000  celldm(5)=   0.000000  celldm(6)=   0.000000

     crystal axes: (cart. coord. in units of alat)
               a(1) = (  -0.500000   0.000000   0.500000 )  
               a(2) = (   0.000000   0.500000   0.500000 )  
               a(3) = (  -0.500000   0.500000   0.000000 )  

     reciprocal axes: (cart. coord. in units 2 pi/alat)
               b(1) = ( -1.000000 -1.000000  1.000000 )  
               b(2) = (  1.000000  1.000000  1.000000 )  
               b(3) = ( -1.000000  1.000000 -1.000000 )  


     PseudoPot. # 1 for Si read from file:
     /home/s1333534/quantum_espresso/qe-6.1/pseudo/si_pbe_v1.uspp.F.UPF.txt
     MD5 check sum: a056efeee980c13900f22a371efd63c1
     Pseudo is Ultrasoft + core correction, Zval =  4.0
     Generated by new atomic code, or converted to UPF format
     Using radial grid of  899 points,  6 beta functions with: 
                l(1) =   0
                l(2) =   0
                l(3) =   1
                l(4) =   1
                l(5) =   2
                l(6) =   2
     Q(r) pseudized with  8 coefficients,  rinner =    0.900   0.900   0.900
                                                       0.900   0.900

     atomic species   valence    mass     pseudopotential
        Si             4.00    28.08600     Si( 1.00)

     48 Sym. Ops., with inversion, found



   Cartesian axes

     site n.     atom                  positions (alat units)
         1           Si  tau(   1) = (   0.0000000   0.0000000   0.0000000  )
         2           Si  tau(   2) = (   0.2500000   0.2500000   0.2500000  )

     number of k points=    80
                       cart. coord. in units 2pi/alat
        k(    1) = (  -0.1250000   0.1250000   0.1250000), wk =   0.0312500
        k(    2) = (  -0.1250000   0.6250000   0.1250000), wk =   0.0000000
        k(    3) = (  -0.3750000   0.3750000  -0.1250000), wk =   0.0625000
        k(    4) = (  -0.3750000   0.8750000  -0.1250000), wk =   0.0000000
        k(    5) = (   0.3750000  -0.3750000   0.6250000), wk =   0.0625000
        k(    6) = (   0.3750000   0.1250000   0.6250000), wk =   0.0000000
        k(    7) = (   0.1250000  -0.1250000   0.3750000), wk =   0.0625000
        k(    8) = (   0.1250000   0.3750000   0.3750000), wk =   0.0000000
        k(    9) = (  -0.1250000   0.6250000   0.1250000), wk =   0.0312500
        k(   10) = (  -0.1250000   1.1250000   0.1250000), wk =   0.0000000
        k(   11) = (   0.6250000  -0.1250000   0.8750000), wk =   0.0625000
        k(   12) = (   0.6250000   0.3750000   0.8750000), wk =   0.0000000
        k(   13) = (   0.3750000   0.1250000   0.6250000), wk =   0.0625000
        k(   14) = (   0.3750000   0.6250000   0.6250000), wk =   0.0000000
        k(   15) = (  -0.1250000  -0.8750000   0.1250000), wk =   0.0312500
        k(   16) = (  -0.1250000  -0.3750000   0.1250000), wk =   0.0000000
        k(   17) = (  -0.3750000   0.3750000   0.3750000), wk =   0.0312500
        k(   18) = (  -0.3750000   0.8750000   0.3750000), wk =   0.0000000
        k(   19) = (   0.3750000  -0.3750000   1.1250000), wk =   0.0625000
        k(   20) = (   0.3750000   0.1250000   1.1250000), wk =   0.0000000
        k(   21) = (  -0.1250000  -0.1250000   0.1250000), wk =   0.0312500
        k(   22) = (  -0.1250000   0.3750000   0.1250000), wk =   0.0000000
        k(   23) = (   0.1250000  -0.3750000   0.3750000), wk =   0.0625000
        k(   24) = (   0.1250000   0.1250000   0.3750000), wk =   0.0000000
        k(   25) = (   0.3750000  -0.1250000   0.3750000), wk =   0.0312500
        k(   26) = (   0.3750000   0.3750000   0.3750000), wk =   0.0000000
        k(   27) = (   0.3750000   0.1250000   0.3750000), wk =   0.0312500
        k(   28) = (   0.3750000   0.6250000   0.3750000), wk =   0.0000000
        k(   29) = (  -0.6250000   0.3750000  -0.3750000), wk =   0.0625000
        k(   30) = (  -0.6250000   0.8750000  -0.3750000), wk =   0.0000000
        k(   31) = (  -0.3750000   0.6250000  -0.3750000), wk =   0.0312500
        k(   32) = (  -0.3750000   1.1250000  -0.3750000), wk =   0.0000000
        k(   33) = (  -0.3750000  -0.6250000  -0.3750000), wk =   0.0312500
        k(   34) = (  -0.3750000  -0.1250000  -0.3750000), wk =   0.0000000
        k(   35) = (  -0.3750000   0.1250000  -0.1250000), wk =   0.0625000
        k(   36) = (  -0.3750000   0.6250000  -0.1250000), wk =   0.0000000
        k(   37) = (  -0.1250000   0.3750000  -0.1250000), wk =   0.0312500
        k(   38) = (  -0.1250000   0.8750000  -0.1250000), wk =   0.0000000
        k(   39) = (  -0.1250000  -0.3750000  -0.1250000), wk =   0.0312500
        k(   40) = (  -0.1250000   0.1250000  -0.1250000), wk =   0.0000000
        k(   41) = (  -0.1250000  -0.6250000   0.1250000), wk =   0.0312500
        k(   42) = (  -0.1250000  -0.1250000   0.1250000), wk =   0.0000000
        k(   43) = (   0.6250000  -0.1250000  -0.1250000), wk =   0.0625000
        k(   44) = (   0.6250000   0.3750000  -0.1250000), wk =   0.0000000
        k(   45) = (   0.6250000   0.1250000   0.1250000), wk =   0.0625000
        k(   46) = (   0.6250000   0.6250000   0.1250000), wk =   0.0000000
        k(   47) = (  -0.8750000   0.1250000  -0.6250000), wk =   0.0625000
        k(   48) = (  -0.8750000   0.6250000  -0.6250000), wk =   0.0000000
        k(   49) = (  -0.1250000   0.6250000  -0.8750000), wk =   0.0625000
        k(   50) = (  -0.1250000   1.1250000  -0.8750000), wk =   0.0000000
        k(   51) = (  -0.1250000   0.8750000  -0.6250000), wk =   0.0625000
        k(   52) = (  -0.1250000   1.3750000  -0.6250000), wk =   0.0000000
        k(   53) = (  -0.1250000  -0.8750000  -0.6250000), wk =   0.0625000
        k(   54) = (  -0.1250000  -0.3750000  -0.6250000), wk =   0.0000000
        k(   55) = (   0.8750000  -0.6250000   0.1250000), wk =   0.0625000
        k(   56) = (   0.8750000  -0.1250000   0.1250000), wk =   0.0000000
        k(   57) = (  -0.6250000  -0.1250000  -0.3750000), wk =   0.0625000
        k(   58) = (  -0.6250000   0.3750000  -0.3750000), wk =   0.0000000
        k(   59) = (   0.1250000   0.3750000  -0.6250000), wk =   0.0625000
        k(   60) = (   0.1250000   0.8750000  -0.6250000), wk =   0.0000000
        k(   61) = (   0.1250000   0.6250000  -0.3750000), wk =   0.0625000
        k(   62) = (   0.1250000   1.1250000  -0.3750000), wk =   0.0000000
        k(   63) = (   0.1250000  -0.6250000  -0.3750000), wk =   0.0625000
        k(   64) = (   0.1250000  -0.1250000  -0.3750000), wk =   0.0000000
        k(   65) = (   0.6250000  -0.3750000  -0.1250000), wk =   0.0625000
        k(   66) = (   0.6250000   0.1250000  -0.1250000), wk =   0.0000000
        k(   67) = (  -0.1250000   0.8750000   0.1250000), wk =   0.0312500
        k(   68) = (  -0.1250000   1.3750000   0.1250000), wk =   0.0000000
        k(   69) = (  -0.8750000  -0.1250000  -0.1250000), wk =   0.0625000
        k(   70) = (  -0.8750000   0.3750000  -0.1250000), wk =   0.0000000
        k(   71) = (  -0.8750000   0.1250000   0.1250000), wk =   0.0625000
        k(   72) = (  -0.8750000   0.6250000   0.1250000), wk =   0.0000000
        k(   73) = (  -0.3750000  -0.3750000   0.3750000), wk =   0.0312500
        k(   74) = (  -0.3750000   0.1250000   0.3750000), wk =   0.0000000
        k(   75) = (  -1.1250000   0.3750000  -0.3750000), wk =   0.0625000
        k(   76) = (  -1.1250000   0.8750000  -0.3750000), wk =   0.0000000
        k(   77) = (  -0.3750000   1.1250000  -0.3750000), wk =   0.0312500
        k(   78) = (  -0.3750000   1.6250000  -0.3750000), wk =   0.0000000
        k(   79) = (  -0.3750000  -1.1250000  -0.3750000), wk =   0.0312500
        k(   80) = (  -0.3750000  -0.6250000  -0.3750000), wk =   0.0000000

     Dense  grid:    17261 G-vectors     FFT dimensions: (  40,  40,  40)

     Smooth grid:     6183 G-vectors     FFT dimensions: (  25,  25,  25)

     Estimated max dynamical RAM per process >       1.79MB

     Estimated total allocated dynamical RAM >       7.14MB

     The potential is recalculated from file :
     ./_ph0/silicon.10.344.save/charge-density.dat

     Starting wfc are    8 atomic wfcs

     Band Structure Calculation
     Davidson diagonalization with overlap

     ethr =  1.25E-10,  avg # of iterations = 12.2

     total cpu time spent up to now is        3.6 secs

     End of band structure calculation

          k =-0.1250 0.1250 0.1250 (   773 PWs)   bands (ev):

    -5.6490   4.3568   5.6661   5.6661

          k =-0.1250 0.6250 0.1250 (   768 PWs)   bands (ev):

    -4.0948   1.0332   3.3396   3.7907

          k =-0.3750 0.3750-0.1250 (   776 PWs)   bands (ev):

    -4.6257   1.3702   3.6862   5.1869

          k =-0.3750 0.8750-0.1250 (   757 PWs)   bands (ev):

    -2.4613  -0.9233   1.9913   3.0638

          k = 0.3750-0.3750 0.6250 (   767 PWs)   bands (ev):

    -3.4910  -0.7002   3.7054   4.4184

          k = 0.3750 0.1250 0.6250 (   770 PWs)   bands (ev):

    -3.6810   0.1647   2.6993   4.0645

          k = 0.1250-0.1250 0.3750 (   774 PWs)   bands (ev):

    -5.1228   2.7424   4.6620   4.7240

          k = 0.1250 0.3750 0.3750 (   776 PWs)   bands (ev):

    -4.6257   1.3702   3.6862   5.1869

          k =-0.1250 0.6250 0.1250 (   768 PWs)   bands (ev):

    -4.0948   1.0332   3.3396   3.7907

          k =-0.1250 1.1250 0.1250 (   763 PWs)   bands (ev):

    -2.6276  -0.8267   2.5987   3.3252

          k = 0.6250-0.1250 0.8750 (   757 PWs)   bands (ev):

    -2.4613  -0.9233   1.9913   3.0638

          k = 0.6250 0.3750 0.8750 (   770 PWs)   bands (ev):

    -3.6810   0.1647   2.6993   4.0645

          k = 0.3750 0.1250 0.6250 (   770 PWs)   bands (ev):

    -3.6810   0.1647   2.6993   4.0645

          k = 0.3750 0.6250 0.6250 (   767 PWs)   bands (ev):

    -3.4910  -0.7002   3.7054   4.4184

          k =-0.1250-0.8750 0.1250 (   763 PWs)   bands (ev):

    -2.6276  -0.8267   2.5987   3.3252

          k =-0.1250-0.3750 0.1250 (   774 PWs)   bands (ev):

    -5.1228   2.7424   4.6620   4.7240

          k =-0.3750 0.3750 0.3750 (   763 PWs)   bands (ev):

    -4.1946   0.0855   4.8810   4.8810

          k =-0.3750 0.8750 0.3750 (   769 PWs)   bands (ev):

    -2.9968  -0.6191   2.0481   4.1027

          k = 0.3750-0.3750 1.1250 (   769 PWs)   bands (ev):

    -2.9968  -0.6191   2.0481   4.1027

          k = 0.3750 0.1250 1.1250 (   757 PWs)   bands (ev):

    -2.4613  -0.9233   1.9913   3.0638

          k =-0.1250-0.1250 0.1250 (   773 PWs)   bands (ev):

    -5.6490   4.3568   5.6661   5.6661

          k =-0.1250 0.3750 0.1250 (   774 PWs)   bands (ev):

    -5.1228   2.7424   4.6620   4.7240

          k = 0.1250-0.3750 0.3750 (   776 PWs)   bands (ev):

    -4.6257   1.3702   3.6862   5.1869

          k = 0.1250 0.1250 0.3750 (   774 PWs)   bands (ev):

    -5.1228   2.7424   4.6620   4.7240

          k = 0.3750-0.1250 0.3750 (   776 PWs)   bands (ev):

    -4.6257   1.3702   3.6862   5.1869

          k = 0.3750 0.3750 0.3750 (   763 PWs)   bands (ev):

    -4.1946   0.0855   4.8810   4.8810

          k = 0.3750 0.1250 0.3750 (   776 PWs)   bands (ev):

    -4.6257   1.3702   3.6862   5.1869

          k = 0.3750 0.6250 0.3750 (   767 PWs)   bands (ev):

    -3.4910  -0.7002   3.7054   4.4184

          k =-0.6250 0.3750-0.3750 (   767 PWs)   bands (ev):

    -3.4910  -0.7002   3.7054   4.4184

          k =-0.6250 0.8750-0.3750 (   770 PWs)   bands (ev):

    -3.6810   0.1647   2.6993   4.0645

          k =-0.3750 0.6250-0.3750 (   767 PWs)   bands (ev):

    -3.4910  -0.7002   3.7054   4.4184

          k =-0.3750 1.1250-0.3750 (   769 PWs)   bands (ev):

    -2.9968  -0.6191   2.0481   4.1027

          k =-0.3750-0.6250-0.3750 (   767 PWs)   bands (ev):

    -3.4910  -0.7002   3.7054   4.4184

          k =-0.3750-0.1250-0.3750 (   776 PWs)   bands (ev):

    -4.6257   1.3702   3.6862   5.1869

          k =-0.3750 0.1250-0.1250 (   774 PWs)   bands (ev):

    -5.1228   2.7424   4.6620   4.7240

          k =-0.3750 0.6250-0.1250 (   770 PWs)   bands (ev):

    -3.6810   0.1647   2.6993   4.0645

          k =-0.1250 0.3750-0.1250 (   774 PWs)   bands (ev):

    -5.1228   2.7424   4.6620   4.7240

          k =-0.1250 0.8750-0.1250 (   763 PWs)   bands (ev):

    -2.6276  -0.8267   2.5987   3.3252

          k =-0.1250-0.3750-0.1250 (   774 PWs)   bands (ev):

    -5.1228   2.7424   4.6620   4.7240

          k =-0.1250 0.1250-0.1250 (   773 PWs)   bands (ev):

    -5.6490   4.3568   5.6661   5.6661

          k =-0.1250-0.6250 0.1250 (   768 PWs)   bands (ev):

    -4.0948   1.0332   3.3396   3.7907

          k =-0.1250-0.1250 0.1250 (   773 PWs)   bands (ev):

    -5.6490   4.3568   5.6661   5.6661

          k = 0.6250-0.1250-0.1250 (   768 PWs)   bands (ev):

    -4.0948   1.0332   3.3396   3.7907

          k = 0.6250 0.3750-0.1250 (   770 PWs)   bands (ev):

    -3.6810   0.1647   2.6993   4.0645

          k = 0.6250 0.1250 0.1250 (   768 PWs)   bands (ev):

    -4.0948   1.0332   3.3396   3.7907

          k = 0.6250 0.6250 0.1250 (   769 PWs)   bands (ev):

    -2.9968  -0.6191   2.0481   4.1027

          k =-0.8750 0.1250-0.6250 (   757 PWs)   bands (ev):

    -2.4613  -0.9233   1.9913   3.0638

          k =-0.8750 0.6250-0.6250 (   776 PWs)   bands (ev):

    -4.6257   1.3702   3.6862   5.1869

          k =-0.1250 0.6250-0.8750 (   757 PWs)   bands (ev):

    -2.4613  -0.9233   1.9913   3.0638

          k =-0.1250 1.1250-0.8750 (   763 PWs)   bands (ev):

    -2.6276  -0.8267   2.5987   3.3252

          k =-0.1250 0.8750-0.6250 (   757 PWs)   bands (ev):

    -2.4613  -0.9233   1.9913   3.0638

          k =-0.1250 1.3750-0.6250 (   769 PWs)   bands (ev):

    -2.9968  -0.6191   2.0481   4.1027

          k =-0.1250-0.8750-0.6250 (   757 PWs)   bands (ev):

    -2.4613  -0.9233   1.9913   3.0638

          k =-0.1250-0.3750-0.6250 (   770 PWs)   bands (ev):

    -3.6810   0.1647   2.6993   4.0645

          k = 0.8750-0.6250 0.1250 (   757 PWs)   bands (ev):

    -2.4613  -0.9233   1.9913   3.0638

          k = 0.8750-0.1250 0.1250 (   763 PWs)   bands (ev):

    -2.6276  -0.8267   2.5987   3.3252

          k =-0.6250-0.1250-0.3750 (   770 PWs)   bands (ev):

    -3.6810   0.1647   2.6993   4.0645

          k =-0.6250 0.3750-0.3750 (   767 PWs)   bands (ev):

    -3.4910  -0.7002   3.7054   4.4184

          k = 0.1250 0.3750-0.6250 (   770 PWs)   bands (ev):

    -3.6810   0.1647   2.6993   4.0645

          k = 0.1250 0.8750-0.6250 (   757 PWs)   bands (ev):

    -2.4613  -0.9233   1.9913   3.0638

          k = 0.1250 0.6250-0.3750 (   770 PWs)   bands (ev):

    -3.6810   0.1647   2.6993   4.0645

          k = 0.1250 1.1250-0.3750 (   757 PWs)   bands (ev):

    -2.4613  -0.9233   1.9913   3.0638

          k = 0.1250-0.6250-0.3750 (   770 PWs)   bands (ev):

    -3.6810   0.1647   2.6993   4.0645

          k = 0.1250-0.1250-0.3750 (   774 PWs)   bands (ev):

    -5.1228   2.7424   4.6620   4.7240

          k = 0.6250-0.3750-0.1250 (   770 PWs)   bands (ev):

    -3.6810   0.1647   2.6993   4.0645

          k = 0.6250 0.1250-0.1250 (   768 PWs)   bands (ev):

    -4.0948   1.0332   3.3396   3.7907

          k =-0.1250 0.8750 0.1250 (   763 PWs)   bands (ev):

    -2.6276  -0.8267   2.5987   3.3252

          k =-0.1250 1.3750 0.1250 (   768 PWs)   bands (ev):

    -4.0948   1.0332   3.3396   3.7907

          k =-0.8750-0.1250-0.1250 (   763 PWs)   bands (ev):

    -2.6276  -0.8267   2.5987   3.3252

          k =-0.8750 0.3750-0.1250 (   757 PWs)   bands (ev):

    -2.4613  -0.9233   1.9913   3.0638

          k =-0.8750 0.1250 0.1250 (   763 PWs)   bands (ev):

    -2.6276  -0.8267   2.5987   3.3252

          k =-0.8750 0.6250 0.1250 (   757 PWs)   bands (ev):

    -2.4613  -0.9233   1.9913   3.0638

          k =-0.3750-0.3750 0.3750 (   763 PWs)   bands (ev):

    -4.1946   0.0855   4.8810   4.8810

          k =-0.3750 0.1250 0.3750 (   776 PWs)   bands (ev):

    -4.6257   1.3702   3.6862   5.1869

          k =-1.1250 0.3750-0.3750 (   769 PWs)   bands (ev):

    -2.9968  -0.6191   2.0481   4.1027

          k =-1.1250 0.8750-0.3750 (   768 PWs)   bands (ev):

    -4.0948   1.0332   3.3396   3.7907

          k =-0.3750 1.1250-0.3750 (   769 PWs)   bands (ev):

    -2.9968  -0.6191   2.0481   4.1027

          k =-0.3750 1.6250-0.3750 (   763 PWs)   bands (ev):

    -4.1946   0.0855   4.8810   4.8810

          k =-0.3750-1.1250-0.3750 (   769 PWs)   bands (ev):

    -2.9968  -0.6191   2.0481   4.1027

          k =-0.3750-0.6250-0.3750 (   767 PWs)   bands (ev):

    -3.4910  -0.7002   3.7054   4.4184

     highest occupied level (ev):     5.6661

     Writing output data file silicon.10.344.save

                                                                                

     bravais-lattice index     =            2
     lattice parameter (alat)  =      10.3440  a.u.
     unit-cell volume          =     276.6977 (a.u.)^3
     number of atoms/cell      =            2
     number of atomic types    =            1
     kinetic-energy cut-off    =      30.0000  Ry
     charge density cut-off    =     240.0000  Ry
     convergence threshold     =      1.0E-12
     beta                      =       0.7000
     number of iterations used =            4
     Exchange-correlation      = SLA  PW   PBE  PBE ( 1  4  3  4 0 0)


     celldm(1)=   10.34400  celldm(2)=    0.00000  celldm(3)=    0.00000
     celldm(4)=    0.00000  celldm(5)=    0.00000  celldm(6)=    0.00000

     crystal axes: (cart. coord. in units of alat)
               a(1) = ( -0.5000  0.0000  0.5000 )  
               a(2) = (  0.0000  0.5000  0.5000 )  
               a(3) = ( -0.5000  0.5000  0.0000 )  

     reciprocal axes: (cart. coord. in units 2 pi/alat)
               b(1) = ( -1.0000 -1.0000  1.0000 )  
               b(2) = (  1.0000  1.0000  1.0000 )  
               b(3) = ( -1.0000  1.0000 -1.0000 )  


     Atoms inside the unit cell: 

     Cartesian axes

     site n.  atom      mass           positions (alat units)
        1     Si  28.0860   tau(    1) = (    0.00000    0.00000    0.00000  )
        2     Si  28.0860   tau(    2) = (    0.25000    0.25000    0.25000  )

     Computing dynamical matrix for 
                    q = (   0.0000000   0.5000000   0.0000000 )

      8 Sym.Ops. (no q -> -q+G )


     G cutoff =  650.4719  (   4315 G-vectors)     FFT grid: ( 40, 40, 40)
     G cutoff =  325.2359  (   1545 G-vectors)  smooth grid: ( 25, 25, 25)
     number of k points=    80

     PseudoPot. # 1 for Si read from file:
     /home/s1333534/quantum_espresso/qe-6.1/pseudo/si_pbe_v1.uspp.F.UPF.txt
     MD5 check sum: a056efeee980c13900f22a371efd63c1
     Pseudo is Ultrasoft + core correction, Zval =  4.0
     Generated by new atomic code, or converted to UPF format
     Using radial grid of  899 points,  6 beta functions with: 
                l(1) =   0
                l(2) =   0
                l(3) =   1
                l(4) =   1
                l(5) =   2
                l(6) =   2
     Q(r) pseudized with  8 coefficients,  rinner =    0.900   0.900   0.900
                                                       0.900   0.900

     Mode symmetry, C_4v (4mm)  point group:


     Atomic displacements:
     There are   4 irreducible representations

     Representation     1      1 modes -A_1  G_1 D_1  To be done

     Representation     2      1 modes -B_2  G_4 D_2'  To be done

     Representation     3      2 modes -E    G_5 D_5  To be done

     Representation     4      2 modes -E    G_5 D_5  To be done



     Alpha used in Ewald sum =   2.5000
     PHONON       :    40.17s CPU        52.31s WALL



     Representation #  1 mode #   1

     Self-consistent Calculation

      iter #   1 total cpu time :    52.7 secs   av.it.:   6.2
      thresh= 1.000E-02 alpha_mix =  0.700 |ddv_scf|^2 =  3.727E-04

      iter #   2 total cpu time :    53.2 secs   av.it.:   9.5
      thresh= 1.931E-03 alpha_mix =  0.700 |ddv_scf|^2 =  4.955E-03

      iter #   3 total cpu time :    53.6 secs   av.it.:   7.5
      thresh= 7.039E-03 alpha_mix =  0.700 |ddv_scf|^2 =  7.388E-09

      iter #   4 total cpu time :    54.2 secs   av.it.:  10.2
      thresh= 8.595E-06 alpha_mix =  0.700 |ddv_scf|^2 =  7.285E-10

      iter #   5 total cpu time :    54.7 secs   av.it.:   9.9
      thresh= 2.699E-06 alpha_mix =  0.700 |ddv_scf|^2 =  8.073E-11

      iter #   6 total cpu time :    55.2 secs   av.it.:   9.5
      thresh= 8.985E-07 alpha_mix =  0.700 |ddv_scf|^2 =  2.405E-13

     End of self-consistent calculation

     Convergence has been achieved 


     Representation #  2 mode #   2

     Self-consistent Calculation

      iter #   1 total cpu time :    55.6 secs   av.it.:   5.1
      thresh= 1.000E-02 alpha_mix =  0.700 |ddv_scf|^2 =  5.902E-07

      iter #   2 total cpu time :    56.2 secs   av.it.:  10.6
      thresh= 7.682E-05 alpha_mix =  0.700 |ddv_scf|^2 =  1.627E-07

      iter #   3 total cpu time :    56.8 secs   av.it.:  10.2
      thresh= 4.034E-05 alpha_mix =  0.700 |ddv_scf|^2 =  1.663E-09

      iter #   4 total cpu time :    57.3 secs   av.it.:  10.3
      thresh= 4.078E-06 alpha_mix =  0.700 |ddv_scf|^2 =  6.591E-11

      iter #   5 total cpu time :    57.7 secs   av.it.:  10.5
      thresh= 8.118E-07 alpha_mix =  0.700 |ddv_scf|^2 =  3.864E-13

     End of self-consistent calculation

     Convergence has been achieved 


     Representation #  3 modes #   3  4

     Self-consistent Calculation

      iter #   1 total cpu time :    58.5 secs   av.it.:   5.2
      thresh= 1.000E-02 alpha_mix =  0.700 |ddv_scf|^2 =  1.045E-07

      iter #   2 total cpu time :    59.5 secs   av.it.:  11.7
      thresh= 3.233E-05 alpha_mix =  0.700 |ddv_scf|^2 =  1.442E-08

      iter #   3 total cpu time :    60.6 secs   av.it.:  11.3
      thresh= 1.201E-05 alpha_mix =  0.700 |ddv_scf|^2 =  2.428E-10

      iter #   4 total cpu time :    61.5 secs   av.it.:  10.8
      thresh= 1.558E-06 alpha_mix =  0.700 |ddv_scf|^2 =  5.754E-13

     End of self-consistent calculation

     Convergence has been achieved 


     Representation #  4 modes #   5  6

     Self-consistent Calculation

      iter #   1 total cpu time :    62.3 secs   av.it.:   5.3
      thresh= 1.000E-02 alpha_mix =  0.700 |ddv_scf|^2 =  9.582E-08

      iter #   2 total cpu time :    63.3 secs   av.it.:  11.6
      thresh= 3.096E-05 alpha_mix =  0.700 |ddv_scf|^2 =  1.287E-08

      iter #   3 total cpu time :    64.3 secs   av.it.:  11.4
      thresh= 1.134E-05 alpha_mix =  0.700 |ddv_scf|^2 =  2.482E-10

      iter #   4 total cpu time :    65.3 secs   av.it.:  11.1
      thresh= 1.575E-06 alpha_mix =  0.700 |ddv_scf|^2 =  6.123E-13

     End of self-consistent calculation

     Convergence has been achieved 

     Number of q in the star =    6
     List of q in the star:
          1   0.000000000   0.500000000   0.000000000
          2   0.000000000  -0.500000000   0.000000000
          3   0.500000000   0.000000000   0.000000000
          4   0.000000000   0.000000000   0.500000000
          5   0.000000000   0.000000000  -0.500000000
          6  -0.500000000   0.000000000   0.000000000

     Diagonalizing the dynamical matrix

     q = (    0.000000000   0.500000000   0.000000000 ) 

 **************************************************************************
     freq (    1) =       3.775785 [THz] =     125.946644 [cm-1]
     freq (    2) =       3.775785 [THz] =     125.946644 [cm-1]
     freq (    3) =       7.036071 [THz] =     234.698065 [cm-1]
     freq (    4) =      13.767176 [THz] =     459.223545 [cm-1]
     freq (    5) =      13.767176 [THz] =     459.223545 [cm-1]
     freq (    6) =      14.412596 [THz] =     480.752452 [cm-1]
 **************************************************************************

     Mode symmetry, C_4v (4mm)  point group:

     freq (  1 -  2) =        125.9  [cm-1]   --> E    G_5 D_5       
     freq (  3 -  3) =        234.7  [cm-1]   --> A_1  G_1 D_1       
     freq (  4 -  5) =        459.2  [cm-1]   --> E    G_5 D_5       
     freq (  6 -  6) =        480.8  [cm-1]   --> B_2  G_4 D_2'      

     Calculation of q =    0.7500000  -0.2500000   0.7500000

   Info: using nr1, nr2, nr3 values from input

   Info: using nr1, nr2, nr3 values from input

     Parallelization info
     --------------------
     sticks:   dense  smooth     PW     G-vecs:    dense   smooth      PW
     Min         219     109     40                 4315     1545     362
     Max         220     110     41                 4316     1546     366
     Sum         877     439    163                17261     6183    1459



     bravais-lattice index     =            2
     lattice parameter (alat)  =      10.3440  a.u.
     unit-cell volume          =     276.6977 (a.u.)^3
     number of atoms/cell      =            2
     number of atomic types    =            1
     number of electrons       =         8.00
     number of Kohn-Sham states=            4
     kinetic-energy cutoff     =      30.0000  Ry
     charge density cutoff     =     240.0000  Ry
     Exchange-correlation      = SLA  PW   PBE  PBE ( 1  4  3  4 0 0)

     celldm(1)=  10.344000  celldm(2)=   0.000000  celldm(3)=   0.000000
     celldm(4)=   0.000000  celldm(5)=   0.000000  celldm(6)=   0.000000

     crystal axes: (cart. coord. in units of alat)
               a(1) = (  -0.500000   0.000000   0.500000 )  
               a(2) = (   0.000000   0.500000   0.500000 )  
               a(3) = (  -0.500000   0.500000   0.000000 )  

     reciprocal axes: (cart. coord. in units 2 pi/alat)
               b(1) = ( -1.000000 -1.000000  1.000000 )  
               b(2) = (  1.000000  1.000000  1.000000 )  
               b(3) = ( -1.000000  1.000000 -1.000000 )  


     PseudoPot. # 1 for Si read from file:
     /home/s1333534/quantum_espresso/qe-6.1/pseudo/si_pbe_v1.uspp.F.UPF.txt
     MD5 check sum: a056efeee980c13900f22a371efd63c1
     Pseudo is Ultrasoft + core correction, Zval =  4.0
     Generated by new atomic code, or converted to UPF format
     Using radial grid of  899 points,  6 beta functions with: 
                l(1) =   0
                l(2) =   0
                l(3) =   1
                l(4) =   1
                l(5) =   2
                l(6) =   2
     Q(r) pseudized with  8 coefficients,  rinner =    0.900   0.900   0.900
                                                       0.900   0.900

     atomic species   valence    mass     pseudopotential
        Si             4.00    28.08600     Si( 1.00)

     48 Sym. Ops., with inversion, found



   Cartesian axes

     site n.     atom                  positions (alat units)
         1           Si  tau(   1) = (   0.0000000   0.0000000   0.0000000  )
         2           Si  tau(   2) = (   0.2500000   0.2500000   0.2500000  )

     number of k points=   288

     Number of k-points >= 100: set verbosity='high' to print them.

     Dense  grid:    17261 G-vectors     FFT dimensions: (  40,  40,  40)

     Smooth grid:     6183 G-vectors     FFT dimensions: (  25,  25,  25)

     Estimated max dynamical RAM per process >       1.79MB

     Estimated total allocated dynamical RAM >       7.14MB

     The potential is recalculated from file :
     ./_ph0/silicon.10.344.save/charge-density.dat

     Starting wfc are    8 atomic wfcs

     Band Structure Calculation
     Davidson diagonalization with overlap

     ethr =  1.25E-10,  avg # of iterations = 12.1

     total cpu time spent up to now is        6.8 secs

     End of band structure calculation

     Number of k-points >= 100: set verbosity='high' to print the bands.

     highest occupied level (ev):     5.6661

     Writing output data file silicon.10.344.save

                                                                                

     bravais-lattice index     =            2
     lattice parameter (alat)  =      10.3440  a.u.
     unit-cell volume          =     276.6977 (a.u.)^3
     number of atoms/cell      =            2
     number of atomic types    =            1
     kinetic-energy cut-off    =      30.0000  Ry
     charge density cut-off    =     240.0000  Ry
     convergence threshold     =      1.0E-12
     beta                      =       0.7000
     number of iterations used =            4
     Exchange-correlation      = SLA  PW   PBE  PBE ( 1  4  3  4 0 0)


     celldm(1)=   10.34400  celldm(2)=    0.00000  celldm(3)=    0.00000
     celldm(4)=    0.00000  celldm(5)=    0.00000  celldm(6)=    0.00000

     crystal axes: (cart. coord. in units of alat)
               a(1) = ( -0.5000  0.0000  0.5000 )  
               a(2) = (  0.0000  0.5000  0.5000 )  
               a(3) = ( -0.5000  0.5000  0.0000 )  

     reciprocal axes: (cart. coord. in units 2 pi/alat)
               b(1) = ( -1.0000 -1.0000  1.0000 )  
               b(2) = (  1.0000  1.0000  1.0000 )  
               b(3) = ( -1.0000  1.0000 -1.0000 )  


     Atoms inside the unit cell: 

     Cartesian axes

     site n.  atom      mass           positions (alat units)
        1     Si  28.0860   tau(    1) = (    0.00000    0.00000    0.00000  )
        2     Si  28.0860   tau(    2) = (    0.25000    0.25000    0.25000  )

     Computing dynamical matrix for 
                    q = (   0.7500000  -0.2500000   0.7500000 )

      2 Sym.Ops. (no q -> -q+G )


     G cutoff =  650.4719  (   4315 G-vectors)     FFT grid: ( 40, 40, 40)
     G cutoff =  325.2359  (   1546 G-vectors)  smooth grid: ( 25, 25, 25)
     number of k points=   288

     PseudoPot. # 1 for Si read from file:
     /home/s1333534/quantum_espresso/qe-6.1/pseudo/si_pbe_v1.uspp.F.UPF.txt
     MD5 check sum: a056efeee980c13900f22a371efd63c1
     Pseudo is Ultrasoft + core correction, Zval =  4.0
     Generated by new atomic code, or converted to UPF format
     Using radial grid of  899 points,  6 beta functions with: 
                l(1) =   0
                l(2) =   0
                l(3) =   1
                l(4) =   1
                l(5) =   2
                l(6) =   2
     Q(r) pseudized with  8 coefficients,  rinner =    0.900   0.900   0.900
                                                       0.900   0.900

     Mode symmetry, C_s (m)     point group:


     Atomic displacements:
     There are   6 irreducible representations

     Representation     1      1 modes -A'  To be done

     Representation     2      1 modes -A'  To be done

     Representation     3      1 modes -A'  To be done

     Representation     4      1 modes -A'  To be done

     Representation     5      1 modes -A''  To be done

     Representation     6      1 modes -A''  To be done



     Alpha used in Ewald sum =   2.5000
     PHONON       :  0m54.75s CPU     1m10.63s WALL



     Representation #  1 mode #   1

     Self-consistent Calculation

      iter #   1 total cpu time :    71.5 secs   av.it.:   5.6
      thresh= 1.000E-02 alpha_mix =  0.700 |ddv_scf|^2 =  7.605E-06

      iter #   2 total cpu time :    73.0 secs   av.it.:  10.7
      thresh= 2.758E-04 alpha_mix =  0.700 |ddv_scf|^2 =  2.036E-05

      iter #   3 total cpu time :    74.3 secs   av.it.:   9.4
      thresh= 4.512E-04 alpha_mix =  0.700 |ddv_scf|^2 =  1.364E-07

      iter #   4 total cpu time :    75.7 secs   av.it.:  10.1
      thresh= 3.693E-05 alpha_mix =  0.700 |ddv_scf|^2 =  2.727E-09

      iter #   5 total cpu time :    77.1 secs   av.it.:  10.6
      thresh= 5.222E-06 alpha_mix =  0.700 |ddv_scf|^2 =  4.657E-10

      iter #   6 total cpu time :    78.4 secs   av.it.:  10.6
      thresh= 2.158E-06 alpha_mix =  0.700 |ddv_scf|^2 =  7.250E-12

      iter #   7 total cpu time :    79.8 secs   av.it.:  10.8
      thresh= 2.693E-07 alpha_mix =  0.700 |ddv_scf|^2 =  2.764E-13

     End of self-consistent calculation

     Convergence has been achieved 


     Representation #  2 mode #   2

     Self-consistent Calculation

      iter #   1 total cpu time :    81.0 secs   av.it.:   5.8
      thresh= 1.000E-02 alpha_mix =  0.700 |ddv_scf|^2 =  1.361E-05

      iter #   2 total cpu time :    82.4 secs   av.it.:  10.6
      thresh= 3.689E-04 alpha_mix =  0.700 |ddv_scf|^2 =  3.951E-05

      iter #   3 total cpu time :    83.7 secs   av.it.:   9.2
      thresh= 6.286E-04 alpha_mix =  0.700 |ddv_scf|^2 =  9.261E-08

      iter #   4 total cpu time :    85.0 secs   av.it.:  10.4
      thresh= 3.043E-05 alpha_mix =  0.700 |ddv_scf|^2 =  3.082E-09

      iter #   5 total cpu time :    86.4 secs   av.it.:  10.6
      thresh= 5.552E-06 alpha_mix =  0.700 |ddv_scf|^2 =  6.277E-10

      iter #   6 total cpu time :    87.8 secs   av.it.:  10.5
      thresh= 2.505E-06 alpha_mix =  0.700 |ddv_scf|^2 =  6.554E-12

      iter #   7 total cpu time :    89.1 secs   av.it.:  10.8
      thresh= 2.560E-07 alpha_mix =  0.700 |ddv_scf|^2 =  2.337E-13

     End of self-consistent calculation

     Convergence has been achieved 


     Representation #  3 mode #   3

     Self-consistent Calculation

      iter #   1 total cpu time :    90.2 secs   av.it.:   5.7
      thresh= 1.000E-02 alpha_mix =  0.700 |ddv_scf|^2 =  1.066E-05

      iter #   2 total cpu time :    91.6 secs   av.it.:  10.7
      thresh= 3.265E-04 alpha_mix =  0.700 |ddv_scf|^2 =  2.906E-05

      iter #   3 total cpu time :    92.9 secs   av.it.:   9.2
      thresh= 5.391E-04 alpha_mix =  0.700 |ddv_scf|^2 =  1.614E-07

      iter #   4 total cpu time :    94.2 secs   av.it.:  10.0
      thresh= 4.018E-05 alpha_mix =  0.700 |ddv_scf|^2 =  3.140E-09

      iter #   5 total cpu time :    95.6 secs   av.it.:  10.7
      thresh= 5.603E-06 alpha_mix =  0.700 |ddv_scf|^2 =  6.148E-10

      iter #   6 total cpu time :    96.9 secs   av.it.:  10.5
      thresh= 2.480E-06 alpha_mix =  0.700 |ddv_scf|^2 =  4.560E-12

      iter #   7 total cpu time :    98.2 secs   av.it.:  10.7
      thresh= 2.135E-07 alpha_mix =  0.700 |ddv_scf|^2 =  1.339E-13

     End of self-consistent calculation

     Convergence has been achieved 


     Representation #  4 mode #   4

     Self-consistent Calculation

      iter #   1 total cpu time :    99.3 secs   av.it.:   5.5
      thresh= 1.000E-02 alpha_mix =  0.700 |ddv_scf|^2 =  4.654E-06

      iter #   2 total cpu time :   100.7 secs   av.it.:  10.9
      thresh= 2.157E-04 alpha_mix =  0.700 |ddv_scf|^2 =  9.891E-06

      iter #   3 total cpu time :   102.3 secs   av.it.:   9.7
      thresh= 3.145E-04 alpha_mix =  0.700 |ddv_scf|^2 =  2.140E-07

      iter #   4 total cpu time :   103.6 secs   av.it.:  10.0
      thresh= 4.626E-05 alpha_mix =  0.700 |ddv_scf|^2 =  2.691E-09

      iter #   5 total cpu time :   105.0 secs   av.it.:  10.7
      thresh= 5.188E-06 alpha_mix =  0.700 |ddv_scf|^2 =  5.035E-10

      iter #   6 total cpu time :   106.4 secs   av.it.:  10.5
      thresh= 2.244E-06 alpha_mix =  0.700 |ddv_scf|^2 =  3.047E-12

      iter #   7 total cpu time :   107.8 secs   av.it.:  10.8
      thresh= 1.746E-07 alpha_mix =  0.700 |ddv_scf|^2 =  1.411E-13

     End of self-consistent calculation

     Convergence has been achieved 


     Representation #  5 mode #   5

     Self-consistent Calculation

      iter #   1 total cpu time :   109.1 secs   av.it.:   5.2
      thresh= 1.000E-02 alpha_mix =  0.700 |ddv_scf|^2 =  4.831E-07

      iter #   2 total cpu time :   110.6 secs   av.it.:  10.4
      thresh= 6.950E-05 alpha_mix =  0.700 |ddv_scf|^2 =  7.884E-08

      iter #   3 total cpu time :   112.0 secs   av.it.:  10.2
      thresh= 2.808E-05 alpha_mix =  0.700 |ddv_scf|^2 =  1.051E-09

      iter #   4 total cpu time :   113.3 secs   av.it.:   9.8
      thresh= 3.242E-06 alpha_mix =  0.700 |ddv_scf|^2 =  2.470E-12

      iter #   5 total cpu time :   114.6 secs   av.it.:  10.2
      thresh= 1.572E-07 alpha_mix =  0.700 |ddv_scf|^2 =  6.991E-14

     End of self-consistent calculation

     Convergence has been achieved 


     Representation #  6 mode #   6

     Self-consistent Calculation

      iter #   1 total cpu time :   115.7 secs   av.it.:   5.2
      thresh= 1.000E-02 alpha_mix =  0.700 |ddv_scf|^2 =  4.831E-07

      iter #   2 total cpu time :   117.0 secs   av.it.:  10.4
[...]
        k(   59) = (  -0.8750000   0.1250000  -0.1250000), wk =   0.0625000
        k(   60) = (  -1.3750000  -0.8750000  -0.1250000), wk =   0.0000000
        k(   61) = (  -1.1250000   0.3750000  -0.3750000), wk =   0.0625000
        k(   62) = (  -1.6250000  -0.6250000  -0.3750000), wk =   0.0000000
        k(   63) = (  -0.3750000   0.3750000   1.1250000), wk =   0.0625000
        k(   64) = (  -0.8750000  -0.6250000   1.1250000), wk =   0.0000000

     Dense  grid:    17261 G-vectors     FFT dimensions: (  40,  40,  40)

     Smooth grid:     6183 G-vectors     FFT dimensions: (  25,  25,  25)

     Estimated max dynamical RAM per process >       1.79MB

     Estimated total allocated dynamical RAM >       7.14MB

     The potential is recalculated from file :
     ./_ph0/silicon.10.344.save/charge-density.dat

     Starting wfc are    8 atomic wfcs

     Band Structure Calculation
     Davidson diagonalization with overlap

     ethr =  1.25E-10,  avg # of iterations = 12.1

     total cpu time spent up to now is       10.8 secs

     End of band structure calculation

          k =-0.1250 0.1250 0.1250 (   773 PWs)   bands (ev):

    -5.6490   4.3568   5.6661   5.6661

          k =-0.6250-0.8750 0.1250 (   757 PWs)   bands (ev):

    -2.4613  -0.9233   1.9913   3.0638

          k =-0.3750 0.3750-0.1250 (   776 PWs)   bands (ev):

    -4.6257   1.3702   3.6862   5.1869

          k =-0.8750-0.6250-0.1250 (   757 PWs)   bands (ev):

    -2.4613  -0.9233   1.9913   3.0638

          k = 0.3750-0.3750 0.6250 (   767 PWs)   bands (ev):

    -3.4910  -0.7002   3.7054   4.4184

          k =-0.1250-1.3750 0.6250 (   769 PWs)   bands (ev):

    -2.9968  -0.6191   2.0481   4.1027

          k = 0.1250-0.1250 0.3750 (   774 PWs)   bands (ev):

    -5.1228   2.7424   4.6620   4.7240

          k =-0.3750-1.1250 0.3750 (   769 PWs)   bands (ev):

    -2.9968  -0.6191   2.0481   4.1027

          k =-0.1250 0.6250 0.1250 (   768 PWs)   bands (ev):

    -4.0948   1.0332   3.3396   3.7907

          k =-0.6250-0.3750 0.1250 (   770 PWs)   bands (ev):

    -3.6810   0.1647   2.6993   4.0645

          k = 0.6250-0.1250 0.8750 (   757 PWs)   bands (ev):

    -2.4613  -0.9233   1.9913   3.0638

          k = 0.1250-1.1250 0.8750 (   763 PWs)   bands (ev):

    -2.6276  -0.8267   2.5987   3.3252

          k = 0.3750 0.1250 0.6250 (   770 PWs)   bands (ev):

    -3.6810   0.1647   2.6993   4.0645

          k =-0.1250-0.8750 0.6250 (   757 PWs)   bands (ev):

    -2.4613  -0.9233   1.9913   3.0638

          k =-0.1250-0.8750 0.1250 (   763 PWs)   bands (ev):

    -2.6276  -0.8267   2.5987   3.3252

          k =-0.6250-1.8750 0.1250 (   768 PWs)   bands (ev):

    -4.0948   1.0332   3.3396   3.7907

          k =-0.3750 0.3750 0.3750 (   763 PWs)   bands (ev):

    -4.1946   0.0855   4.8810   4.8810

          k =-0.8750-0.6250 0.3750 (   770 PWs)   bands (ev):

    -3.6810   0.1647   2.6993   4.0645

          k = 0.3750-0.3750 1.1250 (   769 PWs)   bands (ev):

    -2.9968  -0.6191   2.0481   4.1027

          k =-0.1250-1.3750 1.1250 (   757 PWs)   bands (ev):

    -2.4613  -0.9233   1.9913   3.0638

          k = 0.1250-0.3750 0.3750 (   776 PWs)   bands (ev):

    -4.6257   1.3702   3.6862   5.1869

          k =-0.3750-1.3750 0.3750 (   767 PWs)   bands (ev):

    -3.4910  -0.7002   3.7054   4.4184

          k = 0.3750-0.3750-0.1250 (   776 PWs)   bands (ev):

    -4.6257   1.3702   3.6862   5.1869

          k =-0.1250-1.3750-0.1250 (   768 PWs)   bands (ev):

    -4.0948   1.0332   3.3396   3.7907

          k =-0.6250 0.3750-0.3750 (   767 PWs)   bands (ev):

    -3.4910  -0.7002   3.7054   4.4184

          k =-1.1250-0.6250-0.3750 (   770 PWs)   bands (ev):

    -3.6810   0.1647   2.6993   4.0645

          k =-0.3750 0.3750 0.6250 (   767 PWs)   bands (ev):

    -3.4910  -0.7002   3.7054   4.4184

          k =-0.8750-0.6250 0.6250 (   776 PWs)   bands (ev):

    -4.6257   1.3702   3.6862   5.1869

          k =-0.3750 0.1250-0.1250 (   774 PWs)   bands (ev):

    -5.1228   2.7424   4.6620   4.7240

          k =-0.8750-0.8750-0.1250 (   763 PWs)   bands (ev):

    -2.6276  -0.8267   2.5987   3.3252

          k =-0.1250 0.1250 0.3750 (   774 PWs)   bands (ev):

    -5.1228   2.7424   4.6620   4.7240

          k =-0.6250-0.8750 0.3750 (   770 PWs)   bands (ev):

    -3.6810   0.1647   2.6993   4.0645

          k = 0.1250 0.6250-0.1250 (   768 PWs)   bands (ev):

    -4.0948   1.0332   3.3396   3.7907

          k =-0.3750-0.3750-0.1250 (   776 PWs)   bands (ev):

    -4.6257   1.3702   3.6862   5.1869

          k = 0.6250 0.1250-0.1250 (   768 PWs)   bands (ev):

    -4.0948   1.0332   3.3396   3.7907

          k = 0.1250-0.8750-0.1250 (   763 PWs)   bands (ev):

    -2.6276  -0.8267   2.5987   3.3252

          k =-0.8750 0.1250-0.6250 (   757 PWs)   bands (ev):

    -2.4613  -0.9233   1.9913   3.0638

          k =-1.3750-0.8750-0.6250 (   776 PWs)   bands (ev):

    -4.6257   1.3702   3.6862   5.1869

          k = 0.8750-0.1250 0.6250 (   757 PWs)   bands (ev):

    -2.4613  -0.9233   1.9913   3.0638

          k = 0.3750-1.1250 0.6250 (   770 PWs)   bands (ev):

    -3.6810   0.1647   2.6993   4.0645

          k =-0.6250 0.1250 0.8750 (   757 PWs)   bands (ev):

    -2.4613  -0.9233   1.9913   3.0638

          k =-1.1250-0.8750 0.8750 (   773 PWs)   bands (ev):

    -5.6490   4.3568   5.6661   5.6661

          k =-0.1250 0.8750 0.6250 (   757 PWs)   bands (ev):

    -2.4613  -0.9233   1.9913   3.0638

          k =-0.6250-0.1250 0.6250 (   769 PWs)   bands (ev):

    -2.9968  -0.6191   2.0481   4.1027

          k = 0.1250 0.8750-0.6250 (   757 PWs)   bands (ev):

    -2.4613  -0.9233   1.9913   3.0638

          k =-0.3750-0.1250-0.6250 (   770 PWs)   bands (ev):

    -3.6810   0.1647   2.6993   4.0645

          k =-0.6250-0.1250-0.3750 (   770 PWs)   bands (ev):

    -3.6810   0.1647   2.6993   4.0645

          k =-1.1250-1.1250-0.3750 (   768 PWs)   bands (ev):

    -4.0948   1.0332   3.3396   3.7907

          k = 0.6250 0.1250 0.3750 (   770 PWs)   bands (ev):

    -3.6810   0.1647   2.6993   4.0645

          k = 0.1250-0.8750 0.3750 (   757 PWs)   bands (ev):

    -2.4613  -0.9233   1.9913   3.0638

          k =-0.3750-0.1250 0.6250 (   770 PWs)   bands (ev):

    -3.6810   0.1647   2.6993   4.0645

          k =-0.8750-1.1250 0.6250 (   774 PWs)   bands (ev):

    -5.1228   2.7424   4.6620   4.7240

          k = 0.1250 0.6250 0.3750 (   770 PWs)   bands (ev):

    -3.6810   0.1647   2.6993   4.0645

          k =-0.3750-0.3750 0.3750 (   763 PWs)   bands (ev):

    -4.1946   0.0855   4.8810   4.8810

          k =-0.1250 0.6250-0.3750 (   770 PWs)   bands (ev):

    -3.6810   0.1647   2.6993   4.0645

          k =-0.6250-0.3750-0.3750 (   767 PWs)   bands (ev):

    -3.4910  -0.7002   3.7054   4.4184

          k = 0.1250-0.8750-0.1250 (   763 PWs)   bands (ev):

    -2.6276  -0.8267   2.5987   3.3252

          k =-0.3750-1.8750-0.1250 (   774 PWs)   bands (ev):

    -5.1228   2.7424   4.6620   4.7240

          k =-0.8750 0.1250-0.1250 (   763 PWs)   bands (ev):

    -2.6276  -0.8267   2.5987   3.3252

          k =-1.3750-0.8750-0.1250 (   757 PWs)   bands (ev):

    -2.4613  -0.9233   1.9913   3.0638

          k =-1.1250 0.3750-0.3750 (   769 PWs)   bands (ev):

    -2.9968  -0.6191   2.0481   4.1027

          k =-1.6250-0.6250-0.3750 (   767 PWs)   bands (ev):

    -3.4910  -0.7002   3.7054   4.4184

          k =-0.3750 0.3750 1.1250 (   769 PWs)   bands (ev):

    -2.9968  -0.6191   2.0481   4.1027

          k =-0.8750-0.6250 1.1250 (   774 PWs)   bands (ev):

    -5.1228   2.7424   4.6620   4.7240

     highest occupied level (ev):     5.6661

     Writing output data file silicon.10.344.save

                                                                                

     bravais-lattice index     =            2
     lattice parameter (alat)  =      10.3440  a.u.
     unit-cell volume          =     276.6977 (a.u.)^3
     number of atoms/cell      =            2
     number of atomic types    =            1
     kinetic-energy cut-off    =      30.0000  Ry
     charge density cut-off    =     240.0000  Ry
     convergence threshold     =      1.0E-12
     beta                      =       0.7000
     number of iterations used =            4
     Exchange-correlation      = SLA  PW   PBE  PBE ( 1  4  3  4 0 0)


     celldm(1)=   10.34400  celldm(2)=    0.00000  celldm(3)=    0.00000
     celldm(4)=    0.00000  celldm(5)=    0.00000  celldm(6)=    0.00000

     crystal axes: (cart. coord. in units of alat)
               a(1) = ( -0.5000  0.0000  0.5000 )  
               a(2) = (  0.0000  0.5000  0.5000 )  
               a(3) = ( -0.5000  0.5000  0.0000 )  

     reciprocal axes: (cart. coord. in units 2 pi/alat)
               b(1) = ( -1.0000 -1.0000  1.0000 )  
               b(2) = (  1.0000  1.0000  1.0000 )  
               b(3) = ( -1.0000  1.0000 -1.0000 )  


     Atoms inside the unit cell: 

     Cartesian axes

     site n.  atom      mass           positions (alat units)
        1     Si  28.0860   tau(    1) = (    0.00000    0.00000    0.00000  )
        2     Si  28.0860   tau(    2) = (    0.25000    0.25000    0.25000  )

     Computing dynamical matrix for 
                    q = (  -0.5000000  -1.0000000   0.0000000 )

      8 Sym.Ops. (no q -> -q+G )


     G cutoff =  650.4719  (   4316 G-vectors)     FFT grid: ( 40, 40, 40)
     G cutoff =  325.2359  (   1546 G-vectors)  smooth grid: ( 25, 25, 25)
     number of k points=    64

     PseudoPot. # 1 for Si read from file:
     /home/s1333534/quantum_espresso/qe-6.1/pseudo/si_pbe_v1.uspp.F.UPF.txt
     MD5 check sum: a056efeee980c13900f22a371efd63c1
     Pseudo is Ultrasoft + core correction, Zval =  4.0
     Generated by new atomic code, or converted to UPF format
     Using radial grid of  899 points,  6 beta functions with: 
                l(1) =   0
                l(2) =   0
                l(3) =   1
                l(4) =   1
                l(5) =   2
                l(6) =   2
     Q(r) pseudized with  8 coefficients,  rinner =    0.900   0.900   0.900
                                                       0.900   0.900


     Atomic displacements:
     There are   3 irreducible representations

     Representation     1      2 modes -  To be done

     Representation     2      2 modes -  To be done

     Representation     3      2 modes -  To be done



     Alpha used in Ewald sum =   2.5000
     PHONON       :  2m 8.76s CPU     2m41.33s WALL



     Representation #  1 modes #   1  2

     Self-consistent Calculation

      iter #   1 total cpu time :   162.1 secs   av.it.:   5.7
      thresh= 1.000E-02 alpha_mix =  0.700 |ddv_scf|^2 =  7.858E-07

      iter #   2 total cpu time :   163.0 secs   av.it.:  11.8
      thresh= 8.865E-05 alpha_mix =  0.700 |ddv_scf|^2 =  4.445E-07

      iter #   3 total cpu time :   163.9 secs   av.it.:  11.2
      thresh= 6.667E-05 alpha_mix =  0.700 |ddv_scf|^2 =  4.286E-10

      iter #   4 total cpu time :   164.7 secs   av.it.:  11.1
      thresh= 2.070E-06 alpha_mix =  0.700 |ddv_scf|^2 =  1.923E-12

      iter #   5 total cpu time :   165.5 secs   av.it.:  11.3
      thresh= 1.387E-07 alpha_mix =  0.700 |ddv_scf|^2 =  5.072E-14

     End of self-consistent calculation

     Convergence has been achieved 


     Representation #  2 modes #   3  4

     Self-consistent Calculation

      iter #   1 total cpu time :   166.3 secs   av.it.:   5.6
      thresh= 1.000E-02 alpha_mix =  0.700 |ddv_scf|^2 =  1.221E-06

      iter #   2 total cpu time :   167.5 secs   av.it.:  11.8
      thresh= 1.105E-04 alpha_mix =  0.700 |ddv_scf|^2 =  1.661E-06

      iter #   3 total cpu time :   168.9 secs   av.it.:  11.0
      thresh= 1.289E-04 alpha_mix =  0.700 |ddv_scf|^2 =  5.098E-10

      iter #   4 total cpu time :   170.0 secs   av.it.:  11.0
      thresh= 2.258E-06 alpha_mix =  0.700 |ddv_scf|^2 =  8.086E-12

      iter #   5 total cpu time :   170.8 secs   av.it.:  11.3
      thresh= 2.844E-07 alpha_mix =  0.700 |ddv_scf|^2 =  1.322E-13

     End of self-consistent calculation

     Convergence has been achieved 


     Representation #  3 modes #   5  6

     Self-consistent Calculation

      iter #   1 total cpu time :   171.6 secs   av.it.:   5.3
      thresh= 1.000E-02 alpha_mix =  0.700 |ddv_scf|^2 =  3.194E-07

      iter #   2 total cpu time :   172.5 secs   av.it.:  11.8
      thresh= 5.652E-05 alpha_mix =  0.700 |ddv_scf|^2 =  1.866E-07

      iter #   3 total cpu time :   173.4 secs   av.it.:  11.2
      thresh= 4.320E-05 alpha_mix =  0.700 |ddv_scf|^2 =  3.718E-10

      iter #   4 total cpu time :   174.2 secs   av.it.:  11.1
      thresh= 1.928E-06 alpha_mix =  0.700 |ddv_scf|^2 =  4.469E-12

      iter #   5 total cpu time :   175.0 secs   av.it.:  11.2
      thresh= 2.114E-07 alpha_mix =  0.700 |ddv_scf|^2 =  6.083E-14

     End of self-consistent calculation

     Convergence has been achieved 

     Number of q in the star =    6
     List of q in the star:
          1  -0.500000000  -1.000000000   0.000000000
          2   0.000000000   1.000000000   0.500000000
          3   0.000000000  -1.000000000  -0.500000000
          4   0.500000000   1.000000000   0.000000000
          5  -1.000000000  -0.500000000   0.000000000
          6   0.000000000  -0.500000000  -1.000000000

     Diagonalizing the dynamical matrix

     q = (   -0.500000000  -1.000000000   0.000000000 ) 

 **************************************************************************
     freq (    1) =       6.027447 [THz] =     201.053974 [cm-1]
     freq (    2) =       6.027447 [THz] =     201.053974 [cm-1]
     freq (    3) =      10.287351 [THz] =     343.149087 [cm-1]
     freq (    4) =      10.287351 [THz] =     343.149087 [cm-1]
     freq (    5) =      13.494575 [THz] =     450.130562 [cm-1]
     freq (    6) =      13.494575 [THz] =     450.130562 [cm-1]
 **************************************************************************

     init_run     :      1.29s CPU      1.33s WALL (       7 calls)
     electrons    :      7.33s CPU      7.94s WALL (       7 calls)

     Called by init_run:
     wfcinit      :      0.00s CPU      0.02s WALL (       7 calls)
     potinit      :      0.10s CPU      0.11s WALL (       7 calls)

     Called by electrons:
     c_bands      :      7.33s CPU      7.93s WALL (       7 calls)
     v_of_rho     :      0.09s CPU      0.09s WALL (       8 calls)
     newd         :      0.12s CPU      0.12s WALL (       8 calls)

     Called by c_bands:
     init_us_2    :      1.63s CPU      1.58s WALL (   15896 calls)
     cegterg      :      6.15s CPU      6.64s WALL (     796 calls)

     Called by sum_band:

     Called by *egterg:
     h_psi        :     71.17s CPU     76.33s WALL (  154681 calls)
     s_psi        :      5.92s CPU      7.10s WALL (  311620 calls)
     g_psi        :      0.05s CPU      0.07s WALL (    9666 calls)
     cdiaghg      :      0.56s CPU      0.56s WALL (   10462 calls)

     Called by h_psi:
     h_psi:pot    :     70.74s CPU     75.81s WALL (  154681 calls)
     h_psi:calbec :      3.55s CPU      4.05s WALL (  154681 calls)
     vloc_psi     :     62.52s CPU     67.53s WALL (  154681 calls)
     add_vuspsi   :      4.33s CPU      3.75s WALL (  154681 calls)

     General routines
     calbec       :      8.42s CPU      8.83s WALL (  345928 calls)
     fft          :      2.06s CPU      2.13s WALL (    5233 calls)
     ffts         :      0.22s CPU      0.24s WALL (    3316 calls)
     fftw         :     64.20s CPU     68.21s WALL ( 1384808 calls)
     interpolate  :      0.28s CPU      0.30s WALL (     568 calls)
     davcio       :      0.34s CPU      1.12s WALL (   69130 calls)

     Parallel routines
     fft_scatter  :     15.42s CPU     20.04s WALL ( 1393357 calls)

     PHONON       :  2m18.52s CPU     2m55.41s WALL

     INITIALIZATION: 
     phq_setup    :      0.30s CPU      0.48s WALL (       8 calls)
     phq_init     :      7.04s CPU      7.27s WALL (       8 calls)

     phq_init     :      7.04s CPU      7.27s WALL (       8 calls)
     set_drhoc    :      1.83s CPU      1.83s WALL (      24 calls)
     init_vloc    :      0.03s CPU      0.03s WALL (       8 calls)
     init_us_1    :      1.00s CPU      1.01s WALL (       8 calls)
     newd         :      0.12s CPU      0.12s WALL (       8 calls)
     dvanqq       :      1.17s CPU      1.18s WALL (       8 calls)
     drho         :      2.62s CPU      2.70s WALL (       8 calls)

     DYNAMICAL MATRIX:
     dynmat0      :      1.74s CPU      1.87s WALL (       8 calls)
     phqscf       :    117.12s CPU    148.26s WALL (       8 calls)
     dynmatrix    :      0.01s CPU      0.30s WALL (       8 calls)

     phqscf       :    117.12s CPU    148.26s WALL (       8 calls)
     solve_linter :    116.26s CPU    145.72s WALL (      32 calls)
     drhodv       :      0.57s CPU      0.60s WALL (      32 calls)

     dynmat0      :      1.74s CPU      1.87s WALL (       8 calls)
     dynmat_us    :      0.39s CPU      0.40s WALL (       8 calls)
     d2ionq       :      0.04s CPU      0.04s WALL (       8 calls)
     dynmatcc     :      1.30s CPU      1.31s WALL (       8 calls)

     dynmat_us    :      0.39s CPU      0.40s WALL (       8 calls)
     addusdynmat  :      0.00s CPU      0.00s WALL (       8 calls)

     phqscf       :    117.12s CPU    148.26s WALL (       8 calls)
     solve_linter :    116.26s CPU    145.72s WALL (      32 calls)

     solve_linter :    116.26s CPU    145.72s WALL (      32 calls)
     dvqpsi_us    :      2.15s CPU      2.30s WALL (    2508 calls)
     ortho        :      0.99s CPU      1.19s WALL (   13486 calls)
     cgsolve      :     78.87s CPU     85.73s WALL (   13486 calls)
     incdrhoscf   :      6.20s CPU      6.80s WALL (   13486 calls)
     addusddens   :      7.07s CPU      7.12s WALL (     200 calls)
     vpsifft      :      4.56s CPU      4.97s WALL (   10858 calls)
     dv_of_drho   :      1.87s CPU      1.91s WALL (     254 calls)
     mix_pot      :      0.32s CPU     11.55s WALL (     173 calls)
     psymdvscf    :      5.87s CPU      5.94s WALL (     168 calls)
     newdq        :      7.71s CPU      7.73s WALL (     173 calls)
     adddvscf     :      0.46s CPU      0.44s WALL (   10978 calls)
     drhodvus     :      0.02s CPU      0.02s WALL (      32 calls)

     dvqpsi_us    :      2.15s CPU      2.30s WALL (    2508 calls)
     dvqpsi_us_on :      0.93s CPU      0.97s WALL (    2508 calls)

     cgsolve      :     78.87s CPU     85.73s WALL (   13486 calls)
     ch_psi       :     77.71s CPU     83.93s WALL (  143423 calls)

     ch_psi       :     77.71s CPU     83.93s WALL (  143423 calls)
     h_psi        :     71.17s CPU     76.33s WALL (  154681 calls)
     last         :      9.13s CPU      9.30s WALL (  143423 calls)

     h_psi        :     71.17s CPU     76.33s WALL (  154681 calls)
     add_vuspsi   :      4.33s CPU      3.75s WALL (  154681 calls)

     incdrhoscf   :      6.20s CPU      6.80s WALL (   13486 calls)
     addusdbec    :      0.48s CPU      0.52s WALL (   15934 calls)

     drhodvus     :      0.02s CPU      0.02s WALL (      32 calls)

      General routines
     calbec       :      8.42s CPU      8.83s WALL (  345928 calls)
     fft          :      2.06s CPU      2.13s WALL (    5233 calls)
     ffts         :      0.22s CPU      0.24s WALL (    3316 calls)
     fftw         :     64.20s CPU     68.21s WALL ( 1384808 calls)
     davcio       :      0.34s CPU      1.12s WALL (   69130 calls)
     write_rec    :      0.22s CPU     11.58s WALL (     205 calls)


     PHONON       :  2m18.52s CPU     2m55.41s WALL


   This run was terminated on:  15:32:57  10Nov2017            

=------------------------------------------------------------------------------=
   JOB DONE.
=------------------------------------------------------------------------------=
