
     Program PWSCF v.6.1 (svn rev. 13369) starts on 10Nov2017 at 15:28:50 

     This program is part of the open-source Quantum ESPRESSO suite
     for quantum simulation of materials; please cite
         "P. Giannozzi et al., J. Phys.:Condens. Matter 21 395502 (2009);
          URL http://www.quantum-espresso.org", 
     in publications or presentations arising from this work. More details at
     http://www.quantum-espresso.org/quote

     Parallel version (MPI), running on     4 processors
     R & G space division:  proc/nbgrp/npool/nimage =       4
     Waiting for input...
     Reading input from standard input
     Message from routine read_cards :
     DEPRECATED: no units specified in ATOMIC_POSITIONS card
     Message from routine read_cards :
     ATOMIC_POSITIONS: units set to alat

     Current dimensions of program PWSCF are:
     Max number of different atomic species (ntypx) = 10
     Max number of k-points (npk) =  40000
     Max angular momentum in pseudopotentials (lmaxx) =  3

     Subspace diagonalization in iterative solution of the eigenvalue problem:
     a serial algorithm will be used


     Parallelization info
     --------------------
     sticks:   dense  smooth     PW     G-vecs:    dense   smooth      PW
     Min         217     109     37                 4288     1520     284
     Max         219     111     38                 4289     1521     285
     Sum         871     439    151                17153     6081    1139



     bravais-lattice index     =            2
     lattice parameter (alat)  =      10.3120  a.u.
     unit-cell volume          =     274.1377 (a.u.)^3
     number of atoms/cell      =            2
     number of atomic types    =            1
     number of electrons       =         8.00
     number of Kohn-Sham states=            4
     kinetic-energy cutoff     =      30.0000  Ry
     charge density cutoff     =     240.0000  Ry
     convergence threshold     =      1.0E-08
     mixing beta               =       0.7000
     number of iterations used =            8  plain     mixing
     Exchange-correlation      = SLA  PW   PBE  PBE ( 1  4  3  4 0 0)

     celldm(1)=  10.312000  celldm(2)=   0.000000  celldm(3)=   0.000000
     celldm(4)=   0.000000  celldm(5)=   0.000000  celldm(6)=   0.000000

     crystal axes: (cart. coord. in units of alat)
               a(1) = (  -0.500000   0.000000   0.500000 )  
               a(2) = (   0.000000   0.500000   0.500000 )  
               a(3) = (  -0.500000   0.500000   0.000000 )  

     reciprocal axes: (cart. coord. in units 2 pi/alat)
               b(1) = ( -1.000000 -1.000000  1.000000 )  
               b(2) = (  1.000000  1.000000  1.000000 )  
               b(3) = ( -1.000000  1.000000 -1.000000 )  


     PseudoPot. # 1 for Si read from file:
     /home/s1333534/quantum_espresso/qe-6.1/pseudo/si_pbe_v1.uspp.F.UPF.txt
     MD5 check sum: a056efeee980c13900f22a371efd63c1
     Pseudo is Ultrasoft + core correction, Zval =  4.0
     Generated by new atomic code, or converted to UPF format
     Using radial grid of  899 points,  6 beta functions with: 
                l(1) =   0
                l(2) =   0
                l(3) =   1
                l(4) =   1
                l(5) =   2
                l(6) =   2
     Q(r) pseudized with  8 coefficients,  rinner =    0.900   0.900   0.900
                                                       0.900   0.900

     atomic species   valence    mass     pseudopotential
        Si             4.00    28.08600     Si( 1.00)

     48 Sym. Ops., with inversion, found (24 have fractional translation)



   Cartesian axes

     site n.     atom                  positions (alat units)
         1           Si  tau(   1) = (   0.0000000   0.0000000   0.0000000  )
         2           Si  tau(   2) = (   0.2500000   0.2500000   0.2500000  )

     number of k points=    10
                       cart. coord. in units 2pi/alat
        k(    1) = (  -0.1250000   0.1250000   0.1250000), wk =   0.0625000
        k(    2) = (  -0.3750000   0.3750000  -0.1250000), wk =   0.1875000
        k(    3) = (   0.3750000  -0.3750000   0.6250000), wk =   0.1875000
        k(    4) = (   0.1250000  -0.1250000   0.3750000), wk =   0.1875000
        k(    5) = (  -0.1250000   0.6250000   0.1250000), wk =   0.1875000
        k(    6) = (   0.6250000  -0.1250000   0.8750000), wk =   0.3750000
        k(    7) = (   0.3750000   0.1250000   0.6250000), wk =   0.3750000
        k(    8) = (  -0.1250000  -0.8750000   0.1250000), wk =   0.1875000
        k(    9) = (  -0.3750000   0.3750000   0.3750000), wk =   0.0625000
        k(   10) = (   0.3750000  -0.3750000   1.1250000), wk =   0.1875000

     Dense  grid:    17153 G-vectors     FFT dimensions: (  36,  36,  36)

     Smooth grid:     6081 G-vectors     FFT dimensions: (  25,  25,  25)

     Estimated max dynamical RAM per process >       2.83MB

     Estimated total allocated dynamical RAM >      11.33MB

     Initial potential from superposition of free atoms

     starting charge    7.99866, renormalised to    8.00000
     Starting wfc are    8 randomized atomic wfcs

     total cpu time spent up to now is        0.4 secs

     per-process dynamical memory:     9.4 Mb

     Self-consistent Calculation

     iteration #  1     ecut=    30.00 Ry     beta=0.70
     Davidson diagonalization with overlap
     ethr =  1.00E-02,  avg # of iterations =  2.0

     Threshold (ethr) on eigenvalues was too large:
     Diagonalizing with lowered threshold

     Davidson diagonalization with overlap
     ethr =  6.83E-04,  avg # of iterations =  1.1

     total cpu time spent up to now is        0.5 secs

     total energy              =     -19.19099363 Ry
     Harris-Foulkes estimate   =     -19.20371403 Ry
     estimated scf accuracy    <       0.05429745 Ry

     iteration #  2     ecut=    30.00 Ry     beta=0.70
     Davidson diagonalization with overlap
     ethr =  6.79E-04,  avg # of iterations =  1.0

     total cpu time spent up to now is        0.6 secs

     total energy              =     -19.19278085 Ry
     Harris-Foulkes estimate   =     -19.19295147 Ry
     estimated scf accuracy    <       0.00245458 Ry

     iteration #  3     ecut=    30.00 Ry     beta=0.70
     Davidson diagonalization with overlap
     ethr =  3.07E-05,  avg # of iterations =  2.1

     total cpu time spent up to now is        0.6 secs

     total energy              =     -19.19310850 Ry
     Harris-Foulkes estimate   =     -19.19312073 Ry
     estimated scf accuracy    <       0.00004237 Ry

     iteration #  4     ecut=    30.00 Ry     beta=0.70
     Davidson diagonalization with overlap
     ethr =  5.30E-07,  avg # of iterations =  3.4

     total cpu time spent up to now is        0.7 secs

     total energy              =     -19.19314910 Ry
     Harris-Foulkes estimate   =     -19.19314983 Ry
     estimated scf accuracy    <       0.00000278 Ry

     iteration #  5     ecut=    30.00 Ry     beta=0.70
     Davidson diagonalization with overlap
     ethr =  3.47E-08,  avg # of iterations =  2.1

     total cpu time spent up to now is        0.8 secs

     End of self-consistent calculation

          k =-0.1250 0.1250 0.1250 (   764 PWs)   bands (ev):

    -5.6148   4.4500   5.7591   5.7591

          k =-0.3750 0.3750-0.1250 (   767 PWs)   bands (ev):

    -4.5827   1.4479   3.7633   5.2775

          k = 0.3750-0.3750 0.6250 (   760 PWs)   bands (ev):

    -3.4353  -0.6425   3.7869   4.5015

          k = 0.1250-0.1250 0.3750 (   766 PWs)   bands (ev):

    -5.0842   2.8314   4.7452   4.8126

          k =-0.1250 0.6250 0.1250 (   762 PWs)   bands (ev):

    -4.0476   1.1191   3.4116   3.8669

          k = 0.6250-0.1250 0.8750 (   754 PWs)   bands (ev):

    -2.3979  -0.8509   2.0476   3.1307

          k = 0.3750 0.1250 0.6250 (   766 PWs)   bands (ev):

    -3.6293   0.2384   2.7675   4.1428

          k =-0.1250-0.8750 0.1250 (   762 PWs)   bands (ev):

    -2.5679  -0.7523   2.6615   3.3979

          k =-0.3750 0.3750 0.3750 (   763 PWs)   bands (ev):

    -4.1469   0.1490   4.9689   4.9689

          k = 0.3750-0.3750 1.1250 (   763 PWs)   bands (ev):

    -2.9373  -0.5515   2.1085   4.1825

     highest occupied level (ev):     5.7591

!    total energy              =     -19.19314948 Ry
     Harris-Foulkes estimate   =     -19.19314947 Ry
     estimated scf accuracy    <          8.1E-09 Ry

     The total energy is the sum of the following terms:

     one-electron contribution =       4.99840145 Ry
     hartree contribution      =       1.12894427 Ry
     xc contribution           =      -8.60428714 Ry
     ewald contribution        =     -16.71620805 Ry

     convergence has been achieved in   5 iterations

     Writing output data file silicon.10.312.save

     init_run     :      0.19s CPU      0.24s WALL (       1 calls)
     electrons    :      0.44s CPU      0.48s WALL (       1 calls)

     Called by init_run:
     wfcinit      :      0.02s CPU      0.03s WALL (       1 calls)
     potinit      :      0.01s CPU      0.01s WALL (       1 calls)

     Called by electrons:
     c_bands      :      0.12s CPU      0.12s WALL (       6 calls)
     sum_band     :      0.17s CPU      0.18s WALL (       6 calls)
     v_of_rho     :      0.05s CPU      0.05s WALL (       6 calls)
     newd         :      0.11s CPU      0.12s WALL (       6 calls)
     mix_rho      :      0.00s CPU      0.01s WALL (       6 calls)

     Called by c_bands:
     init_us_2    :      0.01s CPU      0.01s WALL (     130 calls)
     cegterg      :      0.09s CPU      0.10s WALL (      60 calls)

     Called by sum_band:
     sum_band:bec :      0.00s CPU      0.00s WALL (      60 calls)
     addusdens    :      0.13s CPU      0.13s WALL (       6 calls)

     Called by *egterg:
     h_psi        :      0.09s CPU      0.10s WALL (     187 calls)
     s_psi        :      0.00s CPU      0.00s WALL (     187 calls)
     g_psi        :      0.00s CPU      0.00s WALL (     117 calls)
     cdiaghg      :      0.01s CPU      0.02s WALL (     167 calls)

     Called by h_psi:
     h_psi:pot    :      0.09s CPU      0.10s WALL (     187 calls)
     h_psi:calbec :      0.00s CPU      0.01s WALL (     187 calls)
     vloc_psi     :      0.08s CPU      0.08s WALL (     187 calls)
     add_vuspsi   :      0.00s CPU      0.01s WALL (     187 calls)

     General routines
     calbec       :      0.01s CPU      0.01s WALL (     247 calls)
     fft          :      0.03s CPU      0.04s WALL (      96 calls)
     ffts         :      0.00s CPU      0.00s WALL (      12 calls)
     fftw         :      0.08s CPU      0.08s WALL (    1652 calls)
     interpolate  :      0.00s CPU      0.00s WALL (      12 calls)
     davcio       :      0.00s CPU      0.00s WALL (      10 calls)

     Parallel routines
     fft_scatter  :      0.03s CPU      0.04s WALL (    1760 calls)

     PWSCF        :     0.72s CPU         1.10s WALL


   This run was terminated on:  15:28:51  10Nov2017            

=------------------------------------------------------------------------------=
   JOB DONE.
=------------------------------------------------------------------------------=
