
     Program PWSCF v.6.1 (svn rev. 13369) starts on 10Nov2017 at 12: 8:14 

     This program is part of the open-source Quantum ESPRESSO suite
     for quantum simulation of materials; please cite
         "P. Giannozzi et al., J. Phys.:Condens. Matter 21 395502 (2009);
          URL http://www.quantum-espresso.org", 
     in publications or presentations arising from this work. More details at
     http://www.quantum-espresso.org/quote

     Parallel version (MPI), running on     4 processors
     R & G space division:  proc/nbgrp/npool/nimage =       4
     Waiting for input...
     Reading input from standard input
     Message from routine read_cards :
     DEPRECATED: no units specified in ATOMIC_POSITIONS card
     Message from routine read_cards :
     ATOMIC_POSITIONS: units set to alat

     Current dimensions of program PWSCF are:
     Max number of different atomic species (ntypx) = 10
     Max number of k-points (npk) =  40000
     Max angular momentum in pseudopotentials (lmaxx) =  3

     Subspace diagonalization in iterative solution of the eigenvalue problem:
     a serial algorithm will be used


     Parallelization info
     --------------------
     sticks:   dense  smooth     PW     G-vecs:    dense   smooth      PW
     Min         238     124     40                 4969     1779     340
     Max         239     126     41                 4974     1781     342
     Sum         955     499    163                19891     7119    1363



     bravais-lattice index     =            2
     lattice parameter (alat)  =      10.3330  a.u.
     unit-cell volume          =     275.8159 (a.u.)^3
     number of atoms/cell      =            2
     number of atomic types    =            1
     number of electrons       =         8.00
     number of Kohn-Sham states=            4
     kinetic-energy cutoff     =      33.0000  Ry
     charge density cutoff     =     264.0000  Ry
     convergence threshold     =      1.0E-08
     mixing beta               =       0.7000
     number of iterations used =            8  plain     mixing
     Exchange-correlation      = SLA  PW   PBE  PBE ( 1  4  3  4 0 0)

     celldm(1)=  10.333000  celldm(2)=   0.000000  celldm(3)=   0.000000
     celldm(4)=   0.000000  celldm(5)=   0.000000  celldm(6)=   0.000000

     crystal axes: (cart. coord. in units of alat)
               a(1) = (  -0.500000   0.000000   0.500000 )  
               a(2) = (   0.000000   0.500000   0.500000 )  
               a(3) = (  -0.500000   0.500000   0.000000 )  

     reciprocal axes: (cart. coord. in units 2 pi/alat)
               b(1) = ( -1.000000 -1.000000  1.000000 )  
               b(2) = (  1.000000  1.000000  1.000000 )  
               b(3) = ( -1.000000  1.000000 -1.000000 )  


     PseudoPot. # 1 for Si read from file:
     /home/max/quantum_espresso/qe-6.1/pseudo/si_pbe_v1.uspp.F.UPF.txt
     MD5 check sum: a056efeee980c13900f22a371efd63c1
     Pseudo is Ultrasoft + core correction, Zval =  4.0
     Generated by new atomic code, or converted to UPF format
     Using radial grid of  899 points,  6 beta functions with: 
                l(1) =   0
                l(2) =   0
                l(3) =   1
                l(4) =   1
                l(5) =   2
                l(6) =   2
     Q(r) pseudized with  8 coefficients,  rinner =    0.900   0.900   0.900
                                                       0.900   0.900

     atomic species   valence    mass     pseudopotential
        Si             4.00    28.08600     Si( 1.00)

     48 Sym. Ops., with inversion, found (24 have fractional translation)



   Cartesian axes

     site n.     atom                  positions (alat units)
         1           Si  tau(   1) = (   0.0000000   0.0000000   0.0000000  )
         2           Si  tau(   2) = (   0.2500000   0.2500000   0.2500000  )

     number of k points=    28
                       cart. coord. in units 2pi/alat
        k(    1) = (  -0.0833333   0.0833333   0.0833333), wk =   0.0185185
        k(    2) = (  -0.2500000   0.2500000  -0.0833333), wk =   0.0555556
        k(    3) = (  -0.4166667   0.4166667  -0.2500000), wk =   0.0555556
        k(    4) = (   0.4166667  -0.4166667   0.5833333), wk =   0.0555556
        k(    5) = (   0.2500000  -0.2500000   0.4166667), wk =   0.0555556
        k(    6) = (   0.0833333  -0.0833333   0.2500000), wk =   0.0555556
        k(    7) = (  -0.0833333   0.4166667   0.0833333), wk =   0.0555556
        k(    8) = (  -0.2500000   0.5833333  -0.0833333), wk =   0.1111111
        k(    9) = (   0.5833333  -0.2500000   0.7500000), wk =   0.1111111
        k(   10) = (   0.4166667  -0.0833333   0.5833333), wk =   0.1111111
        k(   11) = (   0.2500000   0.0833333   0.4166667), wk =   0.1111111
        k(   12) = (  -0.0833333   0.7500000   0.0833333), wk =   0.0555556
        k(   13) = (   0.7500000  -0.0833333   0.9166667), wk =   0.1111111
        k(   14) = (   0.5833333   0.0833333   0.7500000), wk =   0.1111111
        k(   15) = (   0.4166667   0.2500000   0.5833333), wk =   0.1111111
        k(   16) = (  -0.0833333  -0.9166667   0.0833333), wk =   0.0555556
        k(   17) = (  -0.2500000  -0.7500000  -0.0833333), wk =   0.1111111
        k(   18) = (  -0.0833333  -0.5833333   0.0833333), wk =   0.0555556
        k(   19) = (  -0.2500000   0.2500000   0.2500000), wk =   0.0185185
        k(   20) = (  -0.4166667   0.4166667   0.0833333), wk =   0.0555556
        k(   21) = (   0.4166667  -0.4166667   0.9166667), wk =   0.0555556
        k(   22) = (   0.2500000  -0.2500000   0.7500000), wk =   0.0555556
        k(   23) = (  -0.2500000   0.5833333   0.2500000), wk =   0.0555556
        k(   24) = (   0.5833333  -0.2500000   1.0833333), wk =   0.1111111
        k(   25) = (   0.4166667  -0.0833333   0.9166667), wk =   0.1111111
        k(   26) = (  -0.2500000  -1.0833333   0.2500000), wk =   0.0555556
        k(   27) = (  -0.4166667   0.4166667   0.4166667), wk =   0.0185185
        k(   28) = (   0.4166667  -0.4166667   1.2500000), wk =   0.0555556

     Dense  grid:    19891 G-vectors     FFT dimensions: (  40,  40,  40)

     Smooth grid:     7119 G-vectors     FFT dimensions: (  27,  27,  27)

     Estimated max dynamical RAM per process >       3.69MB

     Estimated total allocated dynamical RAM >      14.77MB

     Initial potential from superposition of free atoms

     starting charge    7.99866, renormalised to    8.00000
     Starting wfc are    8 randomized atomic wfcs

     total cpu time spent up to now is        0.5 secs

     per-process dynamical memory:    10.1 Mb

     Self-consistent Calculation

     iteration #  1     ecut=    33.00 Ry     beta=0.70
     Davidson diagonalization with overlap
     ethr =  1.00E-02,  avg # of iterations =  2.0

     Threshold (ethr) on eigenvalues was too large:
     Diagonalizing with lowered threshold

     Davidson diagonalization with overlap
     ethr =  6.77E-04,  avg # of iterations =  1.0

     total cpu time spent up to now is        1.1 secs

     total energy              =     -19.19125361 Ry
     Harris-Foulkes estimate   =     -19.20372149 Ry
     estimated scf accuracy    <       0.05366892 Ry

     iteration #  2     ecut=    33.00 Ry     beta=0.70
     Davidson diagonalization with overlap
     ethr =  6.71E-04,  avg # of iterations =  1.0

     total cpu time spent up to now is        1.3 secs

     total energy              =     -19.19302734 Ry
     Harris-Foulkes estimate   =     -19.19319654 Ry
     estimated scf accuracy    <       0.00245116 Ry

     iteration #  3     ecut=    33.00 Ry     beta=0.70
     Davidson diagonalization with overlap
     ethr =  3.06E-05,  avg # of iterations =  2.1

     total cpu time spent up to now is        1.6 secs

     total energy              =     -19.19337231 Ry
     Harris-Foulkes estimate   =     -19.19338503 Ry
     estimated scf accuracy    <       0.00004154 Ry

     iteration #  4     ecut=    33.00 Ry     beta=0.70
     Davidson diagonalization with overlap
     ethr =  5.19E-07,  avg # of iterations =  3.4

     total cpu time spent up to now is        2.2 secs

     total energy              =     -19.19341002 Ry
     Harris-Foulkes estimate   =     -19.19341080 Ry
     estimated scf accuracy    <       0.00000301 Ry

     iteration #  5     ecut=    33.00 Ry     beta=0.70
     Davidson diagonalization with overlap
     ethr =  3.76E-08,  avg # of iterations =  2.0

     total cpu time spent up to now is        2.5 secs

     End of self-consistent calculation

          k =-0.0833 0.0833 0.0833 (   899 PWs)   bands (ev):

    -5.7492   5.1213   5.8393   5.8393

          k =-0.2500 0.2500-0.0833 (   897 PWs)   bands (ev):

    -5.2797   3.0550   4.6224   5.6301

          k =-0.4167 0.4167-0.2500 (   886 PWs)   bands (ev):

    -4.2054   0.3302   4.1596   5.0016

          k = 0.4167-0.4167 0.5833 (   886 PWs)   bands (ev):

    -3.5222  -0.7935   4.2224   4.6272

          k = 0.2500-0.2500 0.4167 (   886 PWs)   bands (ev):

    -4.6099   1.1645   4.6883   4.7148

          k = 0.0833-0.0833 0.2500 (   896 PWs)   bands (ev):

    -5.5121   4.0552   5.2044   5.3826

          k =-0.0833 0.4167 0.0833 (   880 PWs)   bands (ev):

    -5.0420   2.8582   4.4662   4.4851

          k =-0.2500 0.5833-0.0833 (   880 PWs)   bands (ev):

    -4.1457   1.0388   3.1703   4.1028

          k = 0.5833-0.2500 0.7500 (   878 PWs)   bands (ev):

    -3.0513  -0.6792   2.5726   3.8804

          k = 0.4167-0.0833 0.5833 (   882 PWs)   bands (ev):

    -3.7584   0.3579   2.5370   4.3578

          k = 0.2500 0.0833 0.4167 (   882 PWs)   bands (ev):

    -4.8201   2.0371   3.8565   5.0134

          k =-0.0833 0.7500 0.0833 (   881 PWs)   bands (ev):

    -3.4442   0.2137   3.1374   3.4700

          k = 0.7500-0.0833 0.9167 (   886 PWs)   bands (ev):

    -2.2680  -1.1089   2.3121   3.0721

          k = 0.5833 0.0833 0.7500 (   884 PWs)   bands (ev):

    -2.6373  -0.7708   1.8352   3.6088

          k = 0.4167 0.2500 0.5833 (   885 PWs)   bands (ev):

    -3.6499  -0.3055   3.4567   4.4533

          k =-0.0833-0.9167 0.0833 (   888 PWs)   bands (ev):

    -2.3566  -1.1159   2.8721   3.2574

          k =-0.2500-0.7500-0.0833 (   880 PWs)   bands (ev):

    -3.2792  -0.0052   2.6258   3.4076

          k =-0.0833-0.5833 0.0833 (   877 PWs)   bands (ev):

    -4.3476   1.5647   3.6726   3.8868

          k =-0.2500 0.2500 0.2500 (   896 PWs)   bands (ev):

    -5.0537   2.0913   5.2335   5.2335

          k =-0.4167 0.4167 0.0833 (   886 PWs)   bands (ev):

    -4.3852   1.1595   3.1344   5.0654

          k = 0.4167-0.4167 0.9167 (   881 PWs)   bands (ev):

    -3.2268  -0.2683   2.0467   4.2919

          k = 0.2500-0.2500 0.7500 (   888 PWs)   bands (ev):

    -3.1745  -0.3469   2.5154   3.8178

          k =-0.2500 0.5833 0.2500 (   883 PWs)   bands (ev):

    -3.9683   0.3649   3.5849   4.1856

          k = 0.5833-0.2500 1.0833 (   885 PWs)   bands (ev):

    -2.9829  -0.3858   2.1462   3.4069

          k = 0.4167-0.0833 0.9167 (   886 PWs)   bands (ev):

    -2.1656  -1.1166   1.9890   2.7516

          k =-0.2500-1.0833 0.2500 (   880 PWs)   bands (ev):

    -2.3735  -1.0195   1.8646   3.6260

          k =-0.4167 0.4167 0.4167 (   878 PWs)   bands (ev):

    -3.8833  -0.3996   4.8487   4.8487

          k = 0.4167-0.4167 1.2500 (   876 PWs)   bands (ev):

    -3.2897  -0.7021   3.0383   4.4165

     highest occupied level (ev):     5.8393

!    total energy              =     -19.19341041 Ry
     Harris-Foulkes estimate   =     -19.19341040 Ry
     estimated scf accuracy    <          8.8E-09 Ry

     The total energy is the sum of the following terms:

     one-electron contribution =       4.95181671 Ry
     hartree contribution      =       1.13374919 Ry
     xc contribution           =      -8.59674100 Ry
     ewald contribution        =     -16.68223531 Ry

     convergence has been achieved in   5 iterations


     Computing stress (Cartesian axis) and pressure

          total   stress  (Ry/bohr**3)                   (kbar)     P=   -0.31
  -0.00000212   0.00000000   0.00000000         -0.31      0.00      0.00
   0.00000000  -0.00000212   0.00000000          0.00     -0.31      0.00
   0.00000000   0.00000000  -0.00000212          0.00      0.00     -0.31


     Writing output data file silicon.33.save

     init_run     :      0.41s CPU      0.45s WALL (       1 calls)
     electrons    :      1.66s CPU      1.95s WALL (       1 calls)
     stress       :      0.36s CPU      0.36s WALL (       1 calls)

     Called by init_run:
     wfcinit      :      0.12s CPU      0.13s WALL (       1 calls)
     potinit      :      0.03s CPU      0.03s WALL (       1 calls)

     Called by electrons:
     c_bands      :      1.04s CPU      1.29s WALL (       6 calls)
     sum_band     :      0.38s CPU      0.41s WALL (       6 calls)
     v_of_rho     :      0.11s CPU      0.12s WALL (       6 calls)
     newd         :      0.15s CPU      0.16s WALL (       6 calls)
     mix_rho      :      0.01s CPU      0.01s WALL (       6 calls)

     Called by c_bands:
     init_us_2    :      0.06s CPU      0.07s WALL (     392 calls)
     cegterg      :      0.92s CPU      1.15s WALL (     168 calls)

     Called by sum_band:
     sum_band:bec :      0.00s CPU      0.00s WALL (     168 calls)
     addusdens    :      0.16s CPU      0.16s WALL (       6 calls)

     Called by *egterg:
     h_psi        :      0.86s CPU      1.04s WALL (     521 calls)
     s_psi        :      0.05s CPU      0.05s WALL (     521 calls)
     g_psi        :      0.00s CPU      0.00s WALL (     325 calls)
     cdiaghg      :      0.04s CPU      0.05s WALL (     465 calls)

     Called by h_psi:
     h_psi:pot    :      0.86s CPU      1.04s WALL (     521 calls)
     h_psi:calbec :      0.06s CPU      0.08s WALL (     521 calls)
     vloc_psi     :      0.74s CPU      0.91s WALL (     521 calls)
     add_vuspsi   :      0.05s CPU      0.05s WALL (     521 calls)

     General routines
     calbec       :      0.09s CPU      0.11s WALL (     717 calls)
     fft          :      0.08s CPU      0.09s WALL (     110 calls)
     ffts         :      0.01s CPU      0.01s WALL (      12 calls)
     fftw         :      0.77s CPU      0.95s WALL (    4616 calls)
     interpolate  :      0.02s CPU      0.02s WALL (      12 calls)
     davcio       :      0.00s CPU      0.00s WALL (      28 calls)

     Parallel routines
     fft_scatter  :      0.22s CPU      0.34s WALL (    4738 calls)

     PWSCF        :     2.64s CPU         2.98s WALL


   This run was terminated on:  12: 8:17  10Nov2017            

=------------------------------------------------------------------------------=
   JOB DONE.
=------------------------------------------------------------------------------=
