
     Program PWSCF v.6.1 (svn rev. 13369) starts on 10Nov2017 at 10:15: 4 

     This program is part of the open-source Quantum ESPRESSO suite
     for quantum simulation of materials; please cite
         "P. Giannozzi et al., J. Phys.:Condens. Matter 21 395502 (2009);
          URL http://www.quantum-espresso.org", 
     in publications or presentations arising from this work. More details at
     http://www.quantum-espresso.org/quote

     Parallel version (MPI), running on     4 processors
     R & G space division:  proc/nbgrp/npool/nimage =       4
     Waiting for input...
     Reading input from standard input
     Message from routine read_cards :
     DEPRECATED: no units specified in ATOMIC_POSITIONS card
     Message from routine read_cards :
     ATOMIC_POSITIONS: units set to alat

     Current dimensions of program PWSCF are:
     Max number of different atomic species (ntypx) = 10
     Max number of k-points (npk) =  40000
     Max angular momentum in pseudopotentials (lmaxx) =  3

     Subspace diagonalization in iterative solution of the eigenvalue problem:
     a serial algorithm will be used


     Parallelization info
     --------------------
     sticks:   dense  smooth     PW     G-vecs:    dense   smooth      PW
     Min         222     109     37                 4393     1557     309
     Max         223     110     38                 4394     1558     312
     Sum         889     439    151                17573     6231    1243



     bravais-lattice index     =            2
     lattice parameter (alat)  =      10.4100  a.u.
     unit-cell volume          =     282.0280 (a.u.)^3
     number of atoms/cell      =            2
     number of atomic types    =            1
     number of electrons       =         8.00
     number of Kohn-Sham states=            4
     kinetic-energy cutoff     =      30.0000  Ry
     charge density cutoff     =     240.0000  Ry
     convergence threshold     =      1.0E-08
     mixing beta               =       0.7000
     number of iterations used =            8  plain     mixing
     Exchange-correlation      = SLA  PW   PBE  PBE ( 1  4  3  4 0 0)

     celldm(1)=  10.410000  celldm(2)=   0.000000  celldm(3)=   0.000000
     celldm(4)=   0.000000  celldm(5)=   0.000000  celldm(6)=   0.000000

     crystal axes: (cart. coord. in units of alat)
               a(1) = (  -0.500000   0.000000   0.500000 )  
               a(2) = (   0.000000   0.500000   0.500000 )  
               a(3) = (  -0.500000   0.500000   0.000000 )  

     reciprocal axes: (cart. coord. in units 2 pi/alat)
               b(1) = ( -1.000000 -1.000000  1.000000 )  
               b(2) = (  1.000000  1.000000  1.000000 )  
               b(3) = ( -1.000000  1.000000 -1.000000 )  


     PseudoPot. # 1 for Si read from file:
     /home/max/quantum_espresso/qe-6.1/pseudo/si_pbe_v1.uspp.F.UPF.txt
     MD5 check sum: a056efeee980c13900f22a371efd63c1
     Pseudo is Ultrasoft + core correction, Zval =  4.0
     Generated by new atomic code, or converted to UPF format
     Using radial grid of  899 points,  6 beta functions with: 
                l(1) =   0
                l(2) =   0
                l(3) =   1
                l(4) =   1
                l(5) =   2
                l(6) =   2
     Q(r) pseudized with  8 coefficients,  rinner =    0.900   0.900   0.900
                                                       0.900   0.900

     atomic species   valence    mass     pseudopotential
        Si             4.00    28.08600     Si( 1.00)

     48 Sym. Ops., with inversion, found (24 have fractional translation)



   Cartesian axes

     site n.     atom                  positions (alat units)
         1           Si  tau(   1) = (   0.0000000   0.0000000   0.0000000  )
         2           Si  tau(   2) = (   0.2500000   0.2500000   0.2500000  )

     number of k points=    28
                       cart. coord. in units 2pi/alat
        k(    1) = (  -0.0833333   0.0833333   0.0833333), wk =   0.0185185
        k(    2) = (  -0.2500000   0.2500000  -0.0833333), wk =   0.0555556
        k(    3) = (  -0.4166667   0.4166667  -0.2500000), wk =   0.0555556
        k(    4) = (   0.4166667  -0.4166667   0.5833333), wk =   0.0555556
        k(    5) = (   0.2500000  -0.2500000   0.4166667), wk =   0.0555556
        k(    6) = (   0.0833333  -0.0833333   0.2500000), wk =   0.0555556
        k(    7) = (  -0.0833333   0.4166667   0.0833333), wk =   0.0555556
        k(    8) = (  -0.2500000   0.5833333  -0.0833333), wk =   0.1111111
        k(    9) = (   0.5833333  -0.2500000   0.7500000), wk =   0.1111111
        k(   10) = (   0.4166667  -0.0833333   0.5833333), wk =   0.1111111
        k(   11) = (   0.2500000   0.0833333   0.4166667), wk =   0.1111111
        k(   12) = (  -0.0833333   0.7500000   0.0833333), wk =   0.0555556
        k(   13) = (   0.7500000  -0.0833333   0.9166667), wk =   0.1111111
        k(   14) = (   0.5833333   0.0833333   0.7500000), wk =   0.1111111
        k(   15) = (   0.4166667   0.2500000   0.5833333), wk =   0.1111111
        k(   16) = (  -0.0833333  -0.9166667   0.0833333), wk =   0.0555556
        k(   17) = (  -0.2500000  -0.7500000  -0.0833333), wk =   0.1111111
        k(   18) = (  -0.0833333  -0.5833333   0.0833333), wk =   0.0555556
        k(   19) = (  -0.2500000   0.2500000   0.2500000), wk =   0.0185185
        k(   20) = (  -0.4166667   0.4166667   0.0833333), wk =   0.0555556
        k(   21) = (   0.4166667  -0.4166667   0.9166667), wk =   0.0555556
        k(   22) = (   0.2500000  -0.2500000   0.7500000), wk =   0.0555556
        k(   23) = (  -0.2500000   0.5833333   0.2500000), wk =   0.0555556
        k(   24) = (   0.5833333  -0.2500000   1.0833333), wk =   0.1111111
        k(   25) = (   0.4166667  -0.0833333   0.9166667), wk =   0.1111111
        k(   26) = (  -0.2500000  -1.0833333   0.2500000), wk =   0.0555556
        k(   27) = (  -0.4166667   0.4166667   0.4166667), wk =   0.0185185
        k(   28) = (   0.4166667  -0.4166667   1.2500000), wk =   0.0555556

     Dense  grid:    17573 G-vectors     FFT dimensions: (  40,  40,  40)

     Smooth grid:     6231 G-vectors     FFT dimensions: (  25,  25,  25)

     Estimated max dynamical RAM per process >       3.39MB

     Estimated total allocated dynamical RAM >      13.58MB

     Initial potential from superposition of free atoms

     starting charge    7.99866, renormalised to    8.00000
     Starting wfc are    8 randomized atomic wfcs

     total cpu time spent up to now is        0.5 secs

     per-process dynamical memory:     9.9 Mb

     Self-consistent Calculation

     iteration #  1     ecut=    30.00 Ry     beta=0.70
     Davidson diagonalization with overlap
     ethr =  1.00E-02,  avg # of iterations =  2.0

     Threshold (ethr) on eigenvalues was too large:
     Diagonalizing with lowered threshold

     Davidson diagonalization with overlap
     ethr =  6.51E-04,  avg # of iterations =  1.0

     total cpu time spent up to now is        1.3 secs

     total energy              =     -19.19101619 Ry
     Harris-Foulkes estimate   =     -19.20257361 Ry
     estimated scf accuracy    <       0.05173512 Ry

     iteration #  2     ecut=    30.00 Ry     beta=0.70
     Davidson diagonalization with overlap
     ethr =  6.47E-04,  avg # of iterations =  1.0

     total cpu time spent up to now is        1.5 secs

     total energy              =     -19.19261593 Ry
     Harris-Foulkes estimate   =     -19.19278604 Ry
     estimated scf accuracy    <       0.00244976 Ry

     iteration #  3     ecut=    30.00 Ry     beta=0.70
     Davidson diagonalization with overlap
     ethr =  3.06E-05,  avg # of iterations =  2.1

     total cpu time spent up to now is        1.9 secs

     total energy              =     -19.19292387 Ry
     Harris-Foulkes estimate   =     -19.19293509 Ry
     estimated scf accuracy    <       0.00003875 Ry

     iteration #  4     ecut=    30.00 Ry     beta=0.70
     Davidson diagonalization with overlap
     ethr =  4.84E-07,  avg # of iterations =  3.4

     total cpu time spent up to now is        2.4 secs

     total energy              =     -19.19296227 Ry
     Harris-Foulkes estimate   =     -19.19296287 Ry
     estimated scf accuracy    <       0.00000231 Ry

     iteration #  5     ecut=    30.00 Ry     beta=0.70
     Davidson diagonalization with overlap
     ethr =  2.89E-08,  avg # of iterations =  2.1

     total cpu time spent up to now is        3.2 secs

     End of self-consistent calculation

          k =-0.0833 0.0833 0.0833 (   785 PWs)   bands (ev):

    -5.8275   4.8937   5.6170   5.6170

          k =-0.2500 0.2500-0.0833 (   792 PWs)   bands (ev):

    -5.3671   2.8455   4.4258   5.4087

          k =-0.4167 0.4167-0.2500 (   785 PWs)   bands (ev):

    -4.3164   0.1722   3.9643   4.7921

          k = 0.4167-0.4167 0.5833 (   785 PWs)   bands (ev):

    -3.6533  -0.9239   4.0218   4.4264

          k = 0.2500-0.2500 0.4167 (   786 PWs)   bands (ev):

    -4.7114   0.9897   4.4894   4.5046

          k = 0.0833-0.0833 0.2500 (   791 PWs)   bands (ev):

    -5.5950   3.8298   4.9977   5.1633

          k =-0.0833 0.4167 0.0833 (   791 PWs)   bands (ev):

    -5.1339   2.6343   4.2682   4.2932

          k =-0.2500 0.5833-0.0833 (   783 PWs)   bands (ev):

    -4.2561   0.8425   3.0038   3.9169

          k = 0.5833-0.2500 0.7500 (   784 PWs)   bands (ev):

    -3.1907  -0.8302   2.4111   3.7012

          k = 0.4167-0.0833 0.5833 (   781 PWs)   bands (ev):

    -3.8782   0.1783   2.3844   4.1659

          k = 0.2500 0.0833 0.4167 (   788 PWs)   bands (ev):

    -4.9168   1.8359   3.6750   4.8034

          k =-0.0833 0.7500 0.0833 (   781 PWs)   bands (ev):

    -3.5676   0.0195   2.9748   3.2968

          k = 0.7500-0.0833 0.9167 (   775 PWs)   bands (ev):

    -2.4176  -1.2797   2.1731   2.9113

          k = 0.5833 0.0833 0.7500 (   779 PWs)   bands (ev):

    -2.7845  -0.9378   1.7049   3.4357

          k = 0.4167 0.2500 0.5833 (   787 PWs)   bands (ev):

    -3.7746  -0.4545   3.2721   4.2580

          k =-0.0833-0.9167 0.0833 (   774 PWs)   bands (ev):

    -2.5017  -1.2854   2.7154   3.0879

          k =-0.2500-0.7500-0.0833 (   778 PWs)   bands (ev):

    -3.4075  -0.1932   2.4755   3.2400

          k =-0.0833-0.5833 0.0833 (   788 PWs)   bands (ev):

    -4.4531   1.3505   3.4967   3.7061

          k =-0.2500 0.2500 0.2500 (   790 PWs)   bands (ev):

    -5.1459   1.9036   5.0221   5.0221

          k =-0.4167 0.4167 0.0833 (   789 PWs)   bands (ev):

    -4.4913   0.9724   2.9680   4.8553

          k = 0.4167-0.4167 0.9167 (   783 PWs)   bands (ev):

    -3.3599  -0.4378   1.9072   4.0999

          k = 0.2500-0.2500 0.7500 (   781 PWs)   bands (ev):

    -3.3076  -0.5155   2.3618   3.6368

          k =-0.2500 0.5833 0.2500 (   783 PWs)   bands (ev):

    -4.0836   0.1961   3.3978   3.9972

          k = 0.5833-0.2500 1.0833 (   778 PWs)   bands (ev):

    -3.1202  -0.5621   2.0060   3.2418

          k = 0.4167-0.0833 0.9167 (   769 PWs)   bands (ev):

    -2.3209  -1.2873   1.8588   2.6034

          k =-0.2500-1.0833 0.2500 (   775 PWs)   bands (ev):

    -2.5253  -1.1860   1.7369   3.4487

          k =-0.4167 0.4167 0.4167 (   772 PWs)   bands (ev):

    -4.0037  -0.5385   4.6422   4.6422

          k = 0.4167-0.4167 1.2500 (   778 PWs)   bands (ev):

    -3.4249  -0.8427   2.8636   4.2212

     highest occupied level (ev):     5.6170

!    total energy              =     -19.19296260 Ry
     Harris-Foulkes estimate   =     -19.19296259 Ry
     estimated scf accuracy    <          6.8E-09 Ry

     The total energy is the sum of the following terms:

     one-electron contribution =       4.78328104 Ry
     hartree contribution      =       1.15346259 Ry
     xc contribution           =      -8.57086498 Ry
     ewald contribution        =     -16.55884125 Ry

     convergence has been achieved in   5 iterations

     Writing output data file silicon.10.41.save

     init_run     :      0.38s CPU      0.41s WALL (       1 calls)
     electrons    :      1.41s CPU      2.75s WALL (       1 calls)

     Called by init_run:
     wfcinit      :      0.08s CPU      0.10s WALL (       1 calls)
     potinit      :      0.03s CPU      0.03s WALL (       1 calls)

     Called by electrons:
     c_bands      :      0.81s CPU      1.55s WALL (       6 calls)
     sum_band     :      0.34s CPU      0.76s WALL (       6 calls)
     v_of_rho     :      0.13s CPU      0.20s WALL (       6 calls)
     newd         :      0.15s CPU      0.21s WALL (       6 calls)
     mix_rho      :      0.01s CPU      0.02s WALL (       6 calls)

     Called by c_bands:
     init_us_2    :      0.05s CPU      0.06s WALL (     364 calls)
     cegterg      :      0.69s CPU      1.36s WALL (     168 calls)

     Called by sum_band:
     sum_band:bec :      0.00s CPU      0.00s WALL (     168 calls)
     addusdens    :      0.14s CPU      0.24s WALL (       6 calls)

     Called by *egterg:
     h_psi        :      0.58s CPU      1.06s WALL (     523 calls)
     s_psi        :      0.04s CPU      0.06s WALL (     523 calls)
     g_psi        :      0.00s CPU      0.00s WALL (     327 calls)
     cdiaghg      :      0.04s CPU      0.08s WALL (     467 calls)

     Called by h_psi:
     h_psi:pot    :      0.58s CPU      1.06s WALL (     523 calls)
     h_psi:calbec :      0.07s CPU      0.12s WALL (     523 calls)
     vloc_psi     :      0.47s CPU      0.88s WALL (     523 calls)
     add_vuspsi   :      0.04s CPU      0.05s WALL (     523 calls)

     General routines
     calbec       :      0.10s CPU      0.22s WALL (     691 calls)
     fft          :      0.09s CPU      0.22s WALL (      96 calls)
     ffts         :      0.00s CPU      0.01s WALL (      12 calls)
     fftw         :      0.50s CPU      1.11s WALL (    4628 calls)
     interpolate  :      0.01s CPU      0.03s WALL (      12 calls)
     davcio       :      0.00s CPU      0.00s WALL (      28 calls)

     Parallel routines
     fft_scatter  :      0.32s CPU      1.02s WALL (    4736 calls)

     PWSCF        :     2.01s CPU         3.43s WALL


   This run was terminated on:  10:15: 8  10Nov2017            

=------------------------------------------------------------------------------=
   JOB DONE.
=------------------------------------------------------------------------------=
