
     Program PWSCF v.6.1 (svn rev. 13369) starts on 10Nov2017 at 13:43:53 

     This program is part of the open-source Quantum ESPRESSO suite
     for quantum simulation of materials; please cite
         "P. Giannozzi et al., J. Phys.:Condens. Matter 21 395502 (2009);
          URL http://www.quantum-espresso.org", 
     in publications or presentations arising from this work. More details at
     http://www.quantum-espresso.org/quote

     Parallel version (MPI), running on     4 processors
     R & G space division:  proc/nbgrp/npool/nimage =       4
     Waiting for input...
     Reading input from standard input
     Message from routine read_cards :
     DEPRECATED: no units specified in ATOMIC_POSITIONS card
     Message from routine read_cards :
     ATOMIC_POSITIONS: units set to alat

     Current dimensions of program PWSCF are:
     Max number of different atomic species (ntypx) = 10
     Max number of k-points (npk) =  40000
     Max angular momentum in pseudopotentials (lmaxx) =  3

     Subspace diagonalization in iterative solution of the eigenvalue problem:
     a serial algorithm will be used


     Parallelization info
     --------------------
     sticks:   dense  smooth     PW     G-vecs:    dense   smooth      PW
     Min         118      60     21                 1683      605     132
     Max         119      61     22                 1684      606     135
     Sum         475     241     85                 6735     2421     531



     bravais-lattice index     =            2
     lattice parameter (alat)  =      10.3330  a.u.
     unit-cell volume          =     275.8159 (a.u.)^3
     number of atoms/cell      =            2
     number of atomic types    =            1
     number of electrons       =         8.00
     number of Kohn-Sham states=            4
     kinetic-energy cutoff     =      16.0000  Ry
     charge density cutoff     =     128.0000  Ry
     convergence threshold     =      1.0E-08
     mixing beta               =       0.7000
     number of iterations used =            8  plain     mixing
     Exchange-correlation      = SLA  PW   PBE  PBE ( 1  4  3  4 0 0)

     celldm(1)=  10.333000  celldm(2)=   0.000000  celldm(3)=   0.000000
     celldm(4)=   0.000000  celldm(5)=   0.000000  celldm(6)=   0.000000

     crystal axes: (cart. coord. in units of alat)
               a(1) = (  -0.500000   0.000000   0.500000 )  
               a(2) = (   0.000000   0.500000   0.500000 )  
               a(3) = (  -0.500000   0.500000   0.000000 )  

     reciprocal axes: (cart. coord. in units 2 pi/alat)
               b(1) = ( -1.000000 -1.000000  1.000000 )  
               b(2) = (  1.000000  1.000000  1.000000 )  
               b(3) = ( -1.000000  1.000000 -1.000000 )  


     PseudoPot. # 1 for Si read from file:
     /home/s1333534/quantum_espresso/qe-6.1/pseudo/si_pbe_v1.uspp.F.UPF.txt
     MD5 check sum: a056efeee980c13900f22a371efd63c1
     Pseudo is Ultrasoft + core correction, Zval =  4.0
     Generated by new atomic code, or converted to UPF format
     Using radial grid of  899 points,  6 beta functions with: 
                l(1) =   0
                l(2) =   0
                l(3) =   1
                l(4) =   1
                l(5) =   2
                l(6) =   2
     Q(r) pseudized with  8 coefficients,  rinner =    0.900   0.900   0.900
                                                       0.900   0.900

     atomic species   valence    mass     pseudopotential
        Si             4.00    28.08600     Si( 1.00)

     24 Sym. Ops. (no inversion) found
          (note: 24 additional sym.ops. were found but ignored
           their fractional translations are incommensurate with FFT grid)


   Cartesian axes

     site n.     atom                  positions (alat units)
         1           Si  tau(   1) = (   0.0000000   0.0000000   0.0000000  )
         2           Si  tau(   2) = (   0.2500000   0.2500000   0.2500000  )

     number of k points=    10
                       cart. coord. in units 2pi/alat
        k(    1) = (  -0.1250000   0.1250000   0.1250000), wk =   0.0625000
        k(    2) = (  -0.3750000   0.3750000  -0.1250000), wk =   0.1875000
        k(    3) = (   0.3750000  -0.3750000   0.6250000), wk =   0.1875000
        k(    4) = (   0.1250000  -0.1250000   0.3750000), wk =   0.1875000
        k(    5) = (  -0.1250000   0.6250000   0.1250000), wk =   0.1875000
        k(    6) = (   0.6250000  -0.1250000   0.8750000), wk =   0.3750000
        k(    7) = (   0.3750000   0.1250000   0.6250000), wk =   0.3750000
        k(    8) = (  -0.1250000  -0.8750000   0.1250000), wk =   0.1875000
        k(    9) = (  -0.3750000   0.3750000   0.3750000), wk =   0.0625000
        k(   10) = (   0.3750000  -0.3750000   1.1250000), wk =   0.1875000

     Dense  grid:     6735 G-vectors     FFT dimensions: (  27,  27,  27)

     Smooth grid:     2421 G-vectors     FFT dimensions: (  20,  20,  20)

     Estimated max dynamical RAM per process >       1.15MB

     Estimated total allocated dynamical RAM >       4.61MB

     Initial potential from superposition of free atoms

     starting charge    7.99866, renormalised to    8.00000
     Starting wfc are    8 randomized atomic wfcs

     total cpu time spent up to now is        0.2 secs

     per-process dynamical memory:     7.6 Mb

     Self-consistent Calculation

     iteration #  1     ecut=    16.00 Ry     beta=0.70
     Davidson diagonalization with overlap
     ethr =  1.00E-02,  avg # of iterations =  2.0

     Threshold (ethr) on eigenvalues was too large:
     Diagonalizing with lowered threshold

     Davidson diagonalization with overlap
     ethr =  6.77E-04,  avg # of iterations =  1.0

     total cpu time spent up to now is        0.2 secs

     total energy              =     -19.18643201 Ry
     Harris-Foulkes estimate   =     -19.19879167 Ry
     estimated scf accuracy    <       0.05386719 Ry

     iteration #  2     ecut=    16.00 Ry     beta=0.70
     Davidson diagonalization with overlap
     ethr =  6.73E-04,  avg # of iterations =  1.0

     total cpu time spent up to now is        0.3 secs

     total energy              =     -19.18814389 Ry
     Harris-Foulkes estimate   =     -19.18831608 Ry
     estimated scf accuracy    <       0.00246403 Ry

     iteration #  3     ecut=    16.00 Ry     beta=0.70
     Davidson diagonalization with overlap
     ethr =  3.08E-05,  avg # of iterations =  1.9

     total cpu time spent up to now is        0.3 secs

     total energy              =     -19.18840863 Ry
     Harris-Foulkes estimate   =     -19.18842023 Ry
     estimated scf accuracy    <       0.00003973 Ry

     iteration #  4     ecut=    16.00 Ry     beta=0.70
     Davidson diagonalization with overlap
     ethr =  4.97E-07,  avg # of iterations =  2.6

     total cpu time spent up to now is        0.3 secs

     total energy              =     -19.18842740 Ry
     Harris-Foulkes estimate   =     -19.18842765 Ry
     estimated scf accuracy    <       0.00000153 Ry

     iteration #  5     ecut=    16.00 Ry     beta=0.70
     Davidson diagonalization with overlap
     ethr =  1.92E-08,  avg # of iterations =  2.3

     total cpu time spent up to now is        0.4 secs

     total energy              =     -19.18842774 Ry
     Harris-Foulkes estimate   =     -19.18842775 Ry
     estimated scf accuracy    <       0.00000004 Ry

     iteration #  6     ecut=    16.00 Ry     beta=0.70
     Davidson diagonalization with overlap
     ethr =  4.51E-10,  avg # of iterations =  2.5

     total cpu time spent up to now is        0.4 secs

     End of self-consistent calculation

          k =-0.1250 0.1250 0.1250 (   304 PWs)   bands (ev):

    -5.6330   4.3937   5.7009   5.7009

          k =-0.3750 0.3750-0.1250 (   298 PWs)   bands (ev):

    -4.6028   1.4043   3.7159   5.2201

          k = 0.3750-0.3750 0.6250 (   298 PWs)   bands (ev):

    -3.4632  -0.6755   3.7373   4.4485

          k = 0.1250-0.1250 0.3750 (   300 PWs)   bands (ev):

    -5.1039   2.7808   4.6923   4.7585

          k =-0.1250 0.6250 0.1250 (   303 PWs)   bands (ev):

    -4.0728   1.0726   3.3668   3.8180

          k = 0.6250-0.1250 0.8750 (   295 PWs)   bands (ev):

    -2.4317  -0.8892   2.0137   3.0888

          k = 0.3750 0.1250 0.6250 (   296 PWs)   bands (ev):

    -3.6552   0.1976   2.7264   4.0934

          k =-0.1250-0.8750 0.1250 (   297 PWs)   bands (ev):

    -2.6003  -0.7915   2.6228   3.3517

          k =-0.3750 0.3750 0.3750 (   296 PWs)   bands (ev):

    -4.1691   0.1137   4.9130   4.9130

          k = 0.3750-0.3750 1.1250 (   293 PWs)   bands (ev):

    -2.9683  -0.5880   2.0727   4.1322

     highest occupied level (ev):     5.7009

!    total energy              =     -19.18842776 Ry
     Harris-Foulkes estimate   =     -19.18842776 Ry
     estimated scf accuracy    <          2.3E-09 Ry

     The total energy is the sum of the following terms:

     one-electron contribution =       4.95623547 Ry
     hartree contribution      =       1.13280020 Ry
     xc contribution           =      -8.59522809 Ry
     ewald contribution        =     -16.68223534 Ry

     convergence has been achieved in   6 iterations


     Computing stress (Cartesian axis) and pressure

          total   stress  (Ry/bohr**3)                   (kbar)     P=  -11.13
  -0.00007563  -0.00000000   0.00000000        -11.13     -0.00      0.00
  -0.00000000  -0.00007563  -0.00000000         -0.00    -11.13     -0.00
   0.00000000  -0.00000000  -0.00007563          0.00     -0.00    -11.13


     Writing output data file silicon.16.save

     init_run     :      0.12s CPU      0.12s WALL (       1 calls)
     electrons    :      0.19s CPU      0.21s WALL (       1 calls)
     stress       :      0.07s CPU      0.07s WALL (       1 calls)

     Called by init_run:
     wfcinit      :      0.01s CPU      0.01s WALL (       1 calls)
     potinit      :      0.00s CPU      0.01s WALL (       1 calls)

     Called by electrons:
     c_bands      :      0.06s CPU      0.06s WALL (       7 calls)
     sum_band     :      0.07s CPU      0.07s WALL (       7 calls)
     v_of_rho     :      0.02s CPU      0.02s WALL (       7 calls)
     newd         :      0.04s CPU      0.05s WALL (       7 calls)
     mix_rho      :      0.00s CPU      0.00s WALL (       7 calls)

     Called by c_bands:
     init_us_2    :      0.01s CPU      0.01s WALL (     160 calls)
     cegterg      :      0.04s CPU      0.05s WALL (      70 calls)

     Called by sum_band:
     sum_band:bec :      0.00s CPU      0.00s WALL (      70 calls)
     addusdens    :      0.06s CPU      0.06s WALL (       7 calls)

     Called by *egterg:
     h_psi        :      0.03s CPU      0.04s WALL (     213 calls)
     s_psi        :      0.00s CPU      0.00s WALL (     213 calls)
     g_psi        :      0.00s CPU      0.00s WALL (     133 calls)
     cdiaghg      :      0.01s CPU      0.01s WALL (     193 calls)

     Called by h_psi:
     h_psi:pot    :      0.03s CPU      0.04s WALL (     213 calls)
     h_psi:calbec :      0.00s CPU      0.00s WALL (     213 calls)
     vloc_psi     :      0.03s CPU      0.03s WALL (     213 calls)
     add_vuspsi   :      0.00s CPU      0.00s WALL (     213 calls)

     General routines
     calbec       :      0.00s CPU      0.00s WALL (     293 calls)
     fft          :      0.02s CPU      0.02s WALL (     126 calls)
     ffts         :      0.00s CPU      0.00s WALL (      14 calls)
     fftw         :      0.03s CPU      0.03s WALL (    1936 calls)
     interpolate  :      0.00s CPU      0.00s WALL (      14 calls)
     davcio       :      0.00s CPU      0.00s WALL (      10 calls)

     Parallel routines
     fft_scatter  :      0.01s CPU      0.02s WALL (    2076 calls)

     PWSCF        :     0.46s CPU         0.68s WALL


   This run was terminated on:  13:43:54  10Nov2017            

=------------------------------------------------------------------------------=
   JOB DONE.
=------------------------------------------------------------------------------=
