
     Program PWSCF v.6.1 (svn rev. 13369) starts on 10Nov2017 at 10: 3:10 

     This program is part of the open-source Quantum ESPRESSO suite
     for quantum simulation of materials; please cite
         "P. Giannozzi et al., J. Phys.:Condens. Matter 21 395502 (2009);
          URL http://www.quantum-espresso.org", 
     in publications or presentations arising from this work. More details at
     http://www.quantum-espresso.org/quote

     Parallel version (MPI), running on     4 processors
     R & G space division:  proc/nbgrp/npool/nimage =       4
     Waiting for input...
     Reading input from standard input
     Message from routine read_cards :
     DEPRECATED: no units specified in ATOMIC_POSITIONS card
     Message from routine read_cards :
     ATOMIC_POSITIONS: units set to alat

     Current dimensions of program PWSCF are:
     Max number of different atomic species (ntypx) = 10
     Max number of k-points (npk) =  40000
     Max angular momentum in pseudopotentials (lmaxx) =  3

     Subspace diagonalization in iterative solution of the eigenvalue problem:
     a serial algorithm will be used


     Parallelization info
     --------------------
     sticks:   dense  smooth     PW     G-vecs:    dense   smooth      PW
     Min         133      66     22                 2024      722     152
     Max         134      67     23                 2025      724     153
     Sum         535     265     91                 8099     2891     609



     bravais-lattice index     =            2
     lattice parameter (alat)  =      10.3910  a.u.
     unit-cell volume          =     280.4866 (a.u.)^3
     number of atoms/cell      =            2
     number of atomic types    =            1
     number of electrons       =         8.00
     number of Kohn-Sham states=            4
     kinetic-energy cutoff     =      18.0000  Ry
     charge density cutoff     =     144.0000  Ry
     convergence threshold     =      1.0E-08
     mixing beta               =       0.7000
     number of iterations used =            8  plain     mixing
     Exchange-correlation      = SLA  PW   PBE  PBE ( 1  4  3  4 0 0)

     celldm(1)=  10.391000  celldm(2)=   0.000000  celldm(3)=   0.000000
     celldm(4)=   0.000000  celldm(5)=   0.000000  celldm(6)=   0.000000

     crystal axes: (cart. coord. in units of alat)
               a(1) = (  -0.500000   0.000000   0.500000 )  
               a(2) = (   0.000000   0.500000   0.500000 )  
               a(3) = (  -0.500000   0.500000   0.000000 )  

     reciprocal axes: (cart. coord. in units 2 pi/alat)
               b(1) = ( -1.000000 -1.000000  1.000000 )  
               b(2) = (  1.000000  1.000000  1.000000 )  
               b(3) = ( -1.000000  1.000000 -1.000000 )  


     PseudoPot. # 1 for Si read from file:
     /home/max/quantum_espresso/qe-6.1/pseudo/si_pbe_v1.uspp.F.UPF.txt
     MD5 check sum: a056efeee980c13900f22a371efd63c1
     Pseudo is Ultrasoft + core correction, Zval =  4.0
     Generated by new atomic code, or converted to UPF format
     Using radial grid of  899 points,  6 beta functions with: 
                l(1) =   0
                l(2) =   0
                l(3) =   1
                l(4) =   1
                l(5) =   2
                l(6) =   2
     Q(r) pseudized with  8 coefficients,  rinner =    0.900   0.900   0.900
                                                       0.900   0.900

     atomic species   valence    mass     pseudopotential
        Si             4.00    28.08600     Si( 1.00)

     24 Sym. Ops. (no inversion) found
          (note: 24 additional sym.ops. were found but ignored
           their fractional translations are incommensurate with FFT grid)


   Cartesian axes

     site n.     atom                  positions (alat units)
         1           Si  tau(   1) = (   0.0000000   0.0000000   0.0000000  )
         2           Si  tau(   2) = (   0.2500000   0.2500000   0.2500000  )

     number of k points=    60
                       cart. coord. in units 2pi/alat
        k(    1) = (  -0.0625000   0.0625000   0.0625000), wk =   0.0078125
        k(    2) = (  -0.1875000   0.1875000  -0.0625000), wk =   0.0234375
        k(    3) = (  -0.3125000   0.3125000  -0.1875000), wk =   0.0234375
        k(    4) = (  -0.4375000   0.4375000  -0.3125000), wk =   0.0234375
        k(    5) = (   0.4375000  -0.4375000   0.5625000), wk =   0.0234375
        k(    6) = (   0.3125000  -0.3125000   0.4375000), wk =   0.0234375
        k(    7) = (   0.1875000  -0.1875000   0.3125000), wk =   0.0234375
        k(    8) = (   0.0625000  -0.0625000   0.1875000), wk =   0.0234375
        k(    9) = (  -0.0625000   0.3125000   0.0625000), wk =   0.0234375
        k(   10) = (  -0.1875000   0.4375000  -0.0625000), wk =   0.0468750
        k(   11) = (  -0.3125000   0.5625000  -0.1875000), wk =   0.0468750
        k(   12) = (   0.5625000  -0.3125000   0.6875000), wk =   0.0468750
        k(   13) = (   0.4375000  -0.1875000   0.5625000), wk =   0.0468750
        k(   14) = (   0.3125000  -0.0625000   0.4375000), wk =   0.0468750
        k(   15) = (   0.1875000   0.0625000   0.3125000), wk =   0.0468750
        k(   16) = (  -0.0625000   0.5625000   0.0625000), wk =   0.0234375
        k(   17) = (  -0.1875000   0.6875000  -0.0625000), wk =   0.0468750
        k(   18) = (   0.6875000  -0.1875000   0.8125000), wk =   0.0468750
        k(   19) = (   0.5625000  -0.0625000   0.6875000), wk =   0.0468750
        k(   20) = (   0.4375000   0.0625000   0.5625000), wk =   0.0468750
        k(   21) = (   0.3125000   0.1875000   0.4375000), wk =   0.0468750
        k(   22) = (  -0.0625000   0.8125000   0.0625000), wk =   0.0234375
        k(   23) = (   0.8125000  -0.0625000   0.9375000), wk =   0.0468750
        k(   24) = (   0.6875000   0.0625000   0.8125000), wk =   0.0468750
        k(   25) = (   0.5625000   0.1875000   0.6875000), wk =   0.0468750
        k(   26) = (   0.4375000   0.3125000   0.5625000), wk =   0.0468750
        k(   27) = (  -0.0625000  -0.9375000   0.0625000), wk =   0.0234375
        k(   28) = (  -0.1875000  -0.8125000  -0.0625000), wk =   0.0468750
        k(   29) = (  -0.3125000  -0.6875000  -0.1875000), wk =   0.0468750
        k(   30) = (  -0.0625000  -0.6875000   0.0625000), wk =   0.0234375
        k(   31) = (  -0.1875000  -0.5625000  -0.0625000), wk =   0.0468750
        k(   32) = (  -0.0625000  -0.4375000   0.0625000), wk =   0.0234375
        k(   33) = (  -0.1875000   0.1875000   0.1875000), wk =   0.0078125
        k(   34) = (  -0.3125000   0.3125000   0.0625000), wk =   0.0234375
        k(   35) = (  -0.4375000   0.4375000  -0.0625000), wk =   0.0234375
        k(   36) = (   0.4375000  -0.4375000   0.8125000), wk =   0.0234375
        k(   37) = (   0.3125000  -0.3125000   0.6875000), wk =   0.0234375
        k(   38) = (   0.1875000  -0.1875000   0.5625000), wk =   0.0234375
        k(   39) = (  -0.1875000   0.4375000   0.1875000), wk =   0.0234375
        k(   40) = (  -0.3125000   0.5625000   0.0625000), wk =   0.0468750
        k(   41) = (   0.5625000  -0.3125000   0.9375000), wk =   0.0468750
        k(   42) = (   0.4375000  -0.1875000   0.8125000), wk =   0.0468750
        k(   43) = (   0.3125000  -0.0625000   0.6875000), wk =   0.0468750
        k(   44) = (  -0.1875000   0.6875000   0.1875000), wk =   0.0234375
        k(   45) = (   0.6875000  -0.1875000   1.0625000), wk =   0.0468750
        k(   46) = (   0.5625000  -0.0625000   0.9375000), wk =   0.0468750
        k(   47) = (   0.4375000   0.0625000   0.8125000), wk =   0.0468750
        k(   48) = (  -0.1875000  -1.0625000   0.1875000), wk =   0.0234375
        k(   49) = (  -0.3125000  -0.9375000   0.0625000), wk =   0.0468750
        k(   50) = (  -0.1875000  -0.8125000   0.1875000), wk =   0.0234375
        k(   51) = (  -0.3125000   0.3125000   0.3125000), wk =   0.0078125
        k(   52) = (  -0.4375000   0.4375000   0.1875000), wk =   0.0234375
        k(   53) = (   0.4375000  -0.4375000   1.0625000), wk =   0.0234375
        k(   54) = (   0.3125000  -0.3125000   0.9375000), wk =   0.0234375
        k(   55) = (  -0.3125000   0.5625000   0.3125000), wk =   0.0234375
        k(   56) = (   0.5625000  -0.3125000   1.1875000), wk =   0.0468750
        k(   57) = (   0.4375000  -0.1875000   1.0625000), wk =   0.0468750
        k(   58) = (  -0.3125000  -1.1875000   0.3125000), wk =   0.0234375
        k(   59) = (  -0.4375000   0.4375000   0.4375000), wk =   0.0078125
        k(   60) = (   0.4375000  -0.4375000   1.3125000), wk =   0.0234375

     Dense  grid:     8099 G-vectors     FFT dimensions: (  30,  30,  30)

     Smooth grid:     2891 G-vectors     FFT dimensions: (  20,  20,  20)

     Estimated max dynamical RAM per process >       1.73MB

     Estimated total allocated dynamical RAM >       6.94MB

     Initial potential from superposition of free atoms

     starting charge    7.99866, renormalised to    8.00000
     Starting wfc are    8 randomized atomic wfcs

     total cpu time spent up to now is        0.4 secs

     per-process dynamical memory:     8.6 Mb

     Self-consistent Calculation

     iteration #  1     ecut=    18.00 Ry     beta=0.70
     Davidson diagonalization with overlap
     ethr =  1.00E-02,  avg # of iterations =  2.0

     Threshold (ethr) on eigenvalues was too large:
     Diagonalizing with lowered threshold

     Davidson diagonalization with overlap
     ethr =  6.56E-04,  avg # of iterations =  1.1

     total cpu time spent up to now is        0.7 secs

     total energy              =     -19.18916962 Ry
     Harris-Foulkes estimate   =     -19.20090716 Ry
     estimated scf accuracy    <       0.05229020 Ry

     iteration #  2     ecut=    18.00 Ry     beta=0.70
     Davidson diagonalization with overlap
     ethr =  6.54E-04,  avg # of iterations =  1.0

     total cpu time spent up to now is        0.9 secs

     total energy              =     -19.19078864 Ry
     Harris-Foulkes estimate   =     -19.19095805 Ry
     estimated scf accuracy    <       0.00245493 Ry

     iteration #  3     ecut=    18.00 Ry     beta=0.70
     Davidson diagonalization with overlap
     ethr =  3.07E-05,  avg # of iterations =  1.9

     total cpu time spent up to now is        1.1 secs

     total energy              =     -19.19105636 Ry
     Harris-Foulkes estimate   =     -19.19106876 Ry
     estimated scf accuracy    <       0.00003903 Ry

     iteration #  4     ecut=    18.00 Ry     beta=0.70
     Davidson diagonalization with overlap
     ethr =  4.88E-07,  avg # of iterations =  2.8

     total cpu time spent up to now is        1.7 secs

     total energy              =     -19.19108062 Ry
     Harris-Foulkes estimate   =     -19.19108111 Ry
     estimated scf accuracy    <       0.00000212 Ry

     iteration #  5     ecut=    18.00 Ry     beta=0.70
     Davidson diagonalization with overlap
     ethr =  2.65E-08,  avg # of iterations =  2.2

     total cpu time spent up to now is        1.9 secs

     total energy              =     -19.19108106 Ry
     Harris-Foulkes estimate   =     -19.19108108 Ry
     estimated scf accuracy    <       0.00000005 Ry

     iteration #  6     ecut=    18.00 Ry     beta=0.70
     Davidson diagonalization with overlap
     ethr =  6.12E-10,  avg # of iterations =  2.7

     total cpu time spent up to now is        2.2 secs

     End of self-consistent calculation

          k =-0.0625 0.0625 0.0625 (   338 PWs)   bands (ev):

    -5.8440   5.2790   5.7304   5.7304

          k =-0.1875 0.1875-0.0625 (   353 PWs)   bands (ev):

    -5.5823   3.7838   4.9422   5.6127

          k =-0.3125 0.3125-0.1875 (   354 PWs)   bands (ev):

    -4.9492   1.5975   4.4602   5.1590

          k =-0.4375 0.4375-0.3125 (   358 PWs)   bands (ev):

    -4.0698  -0.2489   4.2449   4.7599

          k = 0.4375-0.4375 0.5625 (   360 PWs)   bands (ev):

    -3.6355  -0.9310   4.2918   4.5466

          k = 0.3125-0.3125 0.4375 (   357 PWs)   bands (ev):

    -4.3704   0.2963   4.5685   4.5725

          k = 0.1875-0.1875 0.3125 (   357 PWs)   bands (ev):

    -5.1975   2.3135   4.8414   5.0289

          k = 0.0625-0.0625 0.1875 (   344 PWs)   bands (ev):

    -5.7123   4.5280   5.3148   5.4652

          k =-0.0625 0.3125 0.0625 (   353 PWs)   bands (ev):

    -5.4498   3.6330   4.7690   4.8449

          k =-0.1875 0.4375-0.0625 (   356 PWs)   bands (ev):

    -4.9367   2.1542   3.8188   4.5915

          k =-0.3125 0.5625-0.1875 (   361 PWs)   bands (ev):

    -4.1118   0.3384   3.3258   4.1921

          k = 0.5625-0.3125 0.6875 (   365 PWs)   bands (ev):

    -3.3720  -0.8398   3.0399   4.1017

          k = 0.4375-0.1875 0.5625 (   363 PWs)   bands (ev):

    -3.8163  -0.1684   2.9720   4.3790

          k = 0.3125-0.0625 0.4375 (   359 PWs)   bands (ev):

    -4.6946   1.5182   3.2754   4.8745

          k = 0.1875 0.0625 0.3125 (   355 PWs)   bands (ev):

    -5.3225   2.9741   4.3774   5.2393

          k =-0.0625 0.5625 0.0625 (   355 PWs)   bands (ev):

    -4.5443   1.6457   3.6798   3.7985

          k =-0.1875 0.6875-0.0625 (   357 PWs)   bands (ev):

    -3.8090   0.4316   2.9121   3.4603

          k = 0.6875-0.1875 0.8125 (   365 PWs)   bands (ev):

    -2.9341  -0.7373   2.0911   3.4291

          k = 0.5625-0.0625 0.6875 (   367 PWs)   bands (ev):

    -3.0050  -0.6449   1.7485   3.7649

          k = 0.4375 0.0625 0.5625 (   362 PWs)   bands (ev):

    -3.8794   0.2945   2.3358   4.3364

          k = 0.3125 0.1875 0.4375 (   358 PWs)   bands (ev):

    -4.5843   0.9345   3.9260   4.7767

          k =-0.0625 0.8125 0.0625 (   362 PWs)   bands (ev):

    -3.1684  -0.4170   3.0064   3.2164

          k = 0.8125-0.0625 0.9375 (   363 PWs)   bands (ev):

    -2.2793  -1.3872   2.4650   2.9804

          k = 0.6875 0.0625 0.8125 (   368 PWs)   bands (ev):

    -2.3794  -1.2219   1.7559   3.2885

          k = 0.5625 0.1875 0.6875 (   365 PWs)   bands (ev):

    -3.1210  -0.8041   2.2829   3.8759

          k = 0.4375 0.3125 0.5625 (   363 PWs)   bands (ev):

    -3.7161  -0.6447   3.7506   4.4492

          k =-0.0625-0.9375 0.0625 (   358 PWs)   bands (ev):

    -2.3279  -1.4028   2.8715   3.0974

          k =-0.1875-0.8125-0.0625 (   359 PWs)   bands (ev):

    -3.0856  -0.4795   2.6181   3.1370

          k =-0.3125-0.6875-0.1875 (   364 PWs)   bands (ev):

    -3.5494  -0.2083   2.6698   3.7225

          k =-0.0625-0.6875 0.0625 (   358 PWs)   bands (ev):

    -3.9115   0.6094   3.2762   3.4520

          k =-0.1875-0.5625-0.0625 (   356 PWs)   bands (ev):

    -4.4298   1.3121   3.3214   3.9570

          k =-0.0625-0.4375 0.0625 (   351 PWs)   bands (ev):

    -5.0591   2.6638   4.2119   4.2454

          k =-0.1875 0.1875 0.1875 (   356 PWs)   bands (ev):

    -5.4532   3.0733   5.2977   5.2977

          k =-0.3125 0.3125 0.0625 (   360 PWs)   bands (ev):

    -5.0696   2.2378   3.8168   5.3124

          k =-0.4375 0.4375-0.0625 (   361 PWs)   bands (ev):

    -4.3387   0.8883   2.7585   4.8180

          k = 0.4375-0.4375 0.8125 (   367 PWs)   bands (ev):

    -3.4668  -0.5648   2.6019   4.2985

          k = 0.3125-0.3125 0.6875 (   365 PWs)   bands (ev):

    -3.4515  -0.5926   2.8931   3.9881

          k = 0.1875-0.1875 0.5625 (   358 PWs)   bands (ev):

    -4.3216   0.8850   3.4952   3.9658

          k =-0.1875 0.4375 0.1875 (   362 PWs)   bands (ev):

    -4.8183   1.5857   4.3026   4.3761

          k =-0.3125 0.5625 0.0625 (   360 PWs)   bands (ev):

    -4.2049   0.8184   2.8141   4.1836

          k = 0.5625-0.3125 0.9375 (   364 PWs)   bands (ev):

    -3.3342  -0.2670   2.0432   3.6302

          k = 0.4375-0.1875 0.8125 (   368 PWs)   bands (ev):

    -2.8595  -0.8652   2.0432   3.3254

          k = 0.3125-0.0625 0.6875 (   362 PWs)   bands (ev):

    -3.6116   0.1151   2.4593   3.4999

          k =-0.1875 0.6875 0.1875 (   360 PWs)   bands (ev):

    -3.7182   0.1739   2.7842   3.6414

          k = 0.6875-0.1875 1.0625 (   360 PWs)   bands (ev):

    -2.9315  -0.6168   2.2231   2.9763

          k = 0.5625-0.0625 0.9375 (   370 PWs)   bands (ev):

    -2.1435  -1.3601   1.9147   2.4876

          k = 0.4375 0.0625 0.8125 (   367 PWs)   bands (ev):

    -2.7330  -0.8192   1.9046   2.9519

          k =-0.1875-1.0625 0.1875 (   364 PWs)   bands (ev):

    -2.3016  -1.3367   2.0162   3.3053

          k =-0.3125-0.9375 0.0625 (   364 PWs)   bands (ev):

    -2.2032  -1.3682   2.1080   2.6959

          k =-0.1875-0.8125 0.1875 (   360 PWs)   bands (ev):

    -3.0266  -0.5781   2.2747   3.4185

          k =-0.3125 0.3125 0.3125 (   359 PWs)   bands (ev):

    -4.7135   0.9086   4.8902   4.8902

          k =-0.4375 0.4375 0.1875 (   360 PWs)   bands (ev):

    -4.2444   0.3373   3.4513   4.8034

          k = 0.4375-0.4375 1.0625 (   367 PWs)   bands (ev):

    -3.4700  -0.2002   1.9645   4.2360

          k = 0.3125-0.3125 0.9375 (   364 PWs)   bands (ev):

    -2.6677  -0.9716   1.6375   3.7012

          k =-0.3125 0.5625 0.3125 (   366 PWs)   bands (ev):

    -3.9384  -0.2091   3.7760   4.2533

          k = 0.5625-0.3125 1.1875 (   367 PWs)   bands (ev):

    -3.3324  -0.5703   2.4986   3.7908

          k = 0.4375-0.1875 1.0625 (   369 PWs)   bands (ev):

    -2.5322  -1.0392   1.7276   3.0946

          k =-0.3125-1.1875 0.3125 (   363 PWs)   bands (ev):

    -2.9820  -0.8474   2.1185   3.7991

          k =-0.4375 0.4375 0.4375 (   356 PWs)   bands (ev):

    -3.8466  -0.7007   4.6723   4.6723

          k = 0.4375-0.4375 1.3125 (   365 PWs)   bands (ev):

    -3.5045  -0.8761   3.4665   4.4106

     highest occupied level (ev):     5.7304

!    total energy              =     -19.19108108 Ry
     Harris-Foulkes estimate   =     -19.19108109 Ry
     estimated scf accuracy    <          7.0E-09 Ry

     The total energy is the sum of the following terms:

     one-electron contribution =       4.82605563 Ry
     hartree contribution      =       1.14800747 Ry
     xc contribution           =      -8.57602496 Ry
     ewald contribution        =     -16.58911922 Ry

     convergence has been achieved in   6 iterations

     Writing output data file silicon.10.391.save

     init_run     :      0.26s CPU      0.32s WALL (       1 calls)
     electrons    :      1.22s CPU      1.75s WALL (       1 calls)

     Called by init_run:
     wfcinit      :      0.08s CPU      0.11s WALL (       1 calls)
     potinit      :      0.01s CPU      0.02s WALL (       1 calls)

     Called by electrons:
     c_bands      :      0.87s CPU      1.32s WALL (       7 calls)
     sum_band     :      0.21s CPU      0.27s WALL (       7 calls)
     v_of_rho     :      0.07s CPU      0.07s WALL (       7 calls)
     newd         :      0.08s CPU      0.09s WALL (       7 calls)
     mix_rho      :      0.00s CPU      0.01s WALL (       7 calls)

     Called by c_bands:
     init_us_2    :      0.06s CPU      0.06s WALL (     900 calls)
     cegterg      :      0.74s CPU      1.14s WALL (     420 calls)

     Called by sum_band:
     sum_band:bec :      0.00s CPU      0.01s WALL (     420 calls)
     addusdens    :      0.08s CPU      0.10s WALL (       7 calls)

     Called by *egterg:
     h_psi        :      0.53s CPU      0.79s WALL (    1300 calls)
     s_psi        :      0.06s CPU      0.06s WALL (    1300 calls)
     g_psi        :      0.00s CPU      0.00s WALL (     820 calls)
     cdiaghg      :      0.09s CPU      0.14s WALL (    1180 calls)

     Called by h_psi:
     h_psi:pot    :      0.52s CPU      0.77s WALL (    1300 calls)
     h_psi:calbec :      0.09s CPU      0.16s WALL (    1300 calls)
     vloc_psi     :      0.37s CPU      0.54s WALL (    1300 calls)
     add_vuspsi   :      0.06s CPU      0.06s WALL (    1300 calls)

     General routines
     calbec       :      0.12s CPU      0.19s WALL (    1720 calls)
     fft          :      0.06s CPU      0.08s WALL (     112 calls)
     ffts         :      0.00s CPU      0.00s WALL (      14 calls)
     fftw         :      0.35s CPU      0.53s WALL (   11606 calls)
     interpolate  :      0.01s CPU      0.01s WALL (      14 calls)
     davcio       :      0.00s CPU      0.00s WALL (      60 calls)

     Parallel routines
     fft_scatter  :      0.21s CPU      0.38s WALL (   11732 calls)

     PWSCF        :     1.74s CPU         2.35s WALL


   This run was terminated on:  10: 3:13  10Nov2017            

=------------------------------------------------------------------------------=
   JOB DONE.
=------------------------------------------------------------------------------=
