
     Program PHONON v.6.1 (svn rev. 13369) starts on 10Nov2017 at 15:39:42 

     This program is part of the open-source Quantum ESPRESSO suite
     for quantum simulation of materials; please cite
         "P. Giannozzi et al., J. Phys.:Condens. Matter 21 395502 (2009);
          URL http://www.quantum-espresso.org", 
     in publications or presentations arising from this work. More details at
     http://www.quantum-espresso.org/quote

     Parallel version (MPI), running on     4 processors
     R & G space division:  proc/nbgrp/npool/nimage =       4

     Reading data from directory:
     ./silicon.10.318.save

   Info: using nr1, nr2, nr3 values from input

   Info: using nr1, nr2, nr3 values from input

     IMPORTANT: XC functional enforced from input :
     Exchange-correlation      = SLA  PW   PBE  PBE ( 1  4  3  4 0 0)
     Any further DFT definition will be discarded
     Please, verify this is what you really want


     Parallelization info
     --------------------
     sticks:   dense  smooth     PW     G-vecs:    dense   smooth      PW
     Min         217     109     37                 4288     1520     284
     Max         219     111     38                 4289     1521     285
     Sum         871     439    151                17153     6081    1139



     Dynamical matrices for ( 4, 4, 4)  uniform grid of q-points
     (   8q-points):
       N         xq(1)         xq(2)         xq(3) 
       1   0.000000000   0.000000000   0.000000000
       2  -0.250000000   0.250000000  -0.250000000
       3   0.500000000  -0.500000000   0.500000000
       4   0.000000000   0.500000000   0.000000000
       5   0.750000000  -0.250000000   0.750000000
       6   0.500000000   0.000000000   0.500000000
       7   0.000000000  -1.000000000   0.000000000
       8  -0.500000000  -1.000000000   0.000000000

     Calculation of q =    0.0000000   0.0000000   0.0000000

                                                                                

     bravais-lattice index     =            2
     lattice parameter (alat)  =      10.3180  a.u.
     unit-cell volume          =     274.6165 (a.u.)^3
     number of atoms/cell      =            2
     number of atomic types    =            1
     kinetic-energy cut-off    =      30.0000  Ry
     charge density cut-off    =     240.0000  Ry
     convergence threshold     =      1.0E-12
     beta                      =       0.7000
     number of iterations used =            4
     Exchange-correlation      = SLA  PW   PBE  PBE ( 1  4  3  4 0 0)


     celldm(1)=   10.31800  celldm(2)=    0.00000  celldm(3)=    0.00000
     celldm(4)=    0.00000  celldm(5)=    0.00000  celldm(6)=    0.00000

     crystal axes: (cart. coord. in units of alat)
               a(1) = ( -0.5000  0.0000  0.5000 )  
               a(2) = (  0.0000  0.5000  0.5000 )  
               a(3) = ( -0.5000  0.5000  0.0000 )  

     reciprocal axes: (cart. coord. in units 2 pi/alat)
               b(1) = ( -1.0000 -1.0000  1.0000 )  
               b(2) = (  1.0000  1.0000  1.0000 )  
               b(3) = ( -1.0000  1.0000 -1.0000 )  


     Atoms inside the unit cell: 

     Cartesian axes

     site n.  atom      mass           positions (alat units)
        1     Si  28.0860   tau(    1) = (    0.00000    0.00000    0.00000  )
        2     Si  28.0860   tau(    2) = (    0.25000    0.25000    0.25000  )

     Computing dynamical matrix for 
                    q = (   0.0000000   0.0000000   0.0000000 )

     49 Sym.Ops. (with q -> -q+G )


     G cutoff =  647.2060  (   4288 G-vectors)     FFT grid: ( 36, 36, 36)
     G cutoff =  323.6030  (   1520 G-vectors)  smooth grid: ( 25, 25, 25)
     number of k points=    10

     PseudoPot. # 1 for Si read from file:
     /home/s1333534/quantum_espresso/qe-6.1/pseudo/si_pbe_v1.uspp.F.UPF.txt
     MD5 check sum: a056efeee980c13900f22a371efd63c1
     Pseudo is Ultrasoft + core correction, Zval =  4.0
     Generated by new atomic code, or converted to UPF format
     Using radial grid of  899 points,  6 beta functions with: 
                l(1) =   0
                l(2) =   0
                l(3) =   1
                l(4) =   1
                l(5) =   2
                l(6) =   2
     Q(r) pseudized with  8 coefficients,  rinner =    0.900   0.900   0.900
                                                       0.900   0.900

     Mode symmetry, O_h (m-3m)  point group:


     Electric field:
     Dielectric constant
     Born effective charges in two ways 


     Atomic displacements:
     There are   2 irreducible representations

     Representation     1      3 modes -T_2g G_25' G_5+  To be done

     Representation     2      3 modes -T_1u G_15  G_4-  To be done



     Alpha used in Ewald sum =   2.5000
     PHONON       :     0.95s CPU         1.31s WALL


     Electric Fields Calculation

      iter #   1 total cpu time :     2.4 secs   av.it.:   5.7
      thresh= 1.000E-02 alpha_mix =  0.700 |ddv_scf|^2 =  1.333E-07

      iter #   2 total cpu time :     3.1 secs   av.it.:  11.8
      thresh= 3.651E-05 alpha_mix =  0.700 |ddv_scf|^2 =  7.804E-09

      iter #   3 total cpu time :     3.7 secs   av.it.:  11.4
      thresh= 8.834E-06 alpha_mix =  0.700 |ddv_scf|^2 =  5.180E-10

      iter #   4 total cpu time :     4.3 secs   av.it.:  10.2
      thresh= 2.276E-06 alpha_mix =  0.700 |ddv_scf|^2 =  3.379E-12

      iter #   5 total cpu time :     4.8 secs   av.it.:  11.1
      thresh= 1.838E-07 alpha_mix =  0.700 |ddv_scf|^2 =  3.355E-15

     End of electric fields calculation

          Dielectric constant in cartesian axis 

          (      13.935479853      -0.000000000      -0.000000000 )
          (      -0.000000000      13.935479853      -0.000000000 )
          (      -0.000000000      -0.000000000      13.935479853 )

          Effective charges (d Force / dE) in cartesian axis

           atom      1   Si 
      Ex  (       -0.03881        0.00000        0.00000 )
      Ey  (        0.00000       -0.03881       -0.00000 )
      Ez  (        0.00000        0.00000       -0.03881 )
           atom      2   Si 
      Ex  (       -0.03881        0.00000        0.00000 )
      Ey  (        0.00000       -0.03881       -0.00000 )
      Ez  (        0.00000       -0.00000       -0.03881 )


     Representation #  1 modes #   1  2  3

     Self-consistent Calculation

      iter #   1 total cpu time :     6.1 secs   av.it.:   5.1
      thresh= 1.000E-02 alpha_mix =  0.700 |ddv_scf|^2 =  2.353E-08

      iter #   2 total cpu time :     6.8 secs   av.it.:  11.6
      thresh= 1.534E-05 alpha_mix =  0.700 |ddv_scf|^2 =  9.640E-10

      iter #   3 total cpu time :     7.5 secs   av.it.:  11.1
      thresh= 3.105E-06 alpha_mix =  0.700 |ddv_scf|^2 =  6.557E-11

      iter #   4 total cpu time :     8.1 secs   av.it.:  10.1
      thresh= 8.097E-07 alpha_mix =  0.700 |ddv_scf|^2 =  1.607E-13

     End of self-consistent calculation

     Convergence has been achieved 


     Representation #  2 modes #   4  5  6

     Self-consistent Calculation

      iter #   1 total cpu time :     8.8 secs   av.it.:   5.2
      thresh= 1.000E-02 alpha_mix =  0.700 |ddv_scf|^2 =  1.856E-08

      iter #   2 total cpu time :     9.5 secs   av.it.:  11.6
      thresh= 1.363E-05 alpha_mix =  0.700 |ddv_scf|^2 =  1.093E-09

      iter #   3 total cpu time :    10.4 secs   av.it.:  11.2
      thresh= 3.307E-06 alpha_mix =  0.700 |ddv_scf|^2 =  6.778E-11

      iter #   4 total cpu time :    11.0 secs   av.it.:  11.3
      thresh= 8.233E-07 alpha_mix =  0.700 |ddv_scf|^2 =  2.634E-13

     End of self-consistent calculation

     Convergence has been achieved 

     Number of q in the star =    1
     List of q in the star:
          1   0.000000000   0.000000000   0.000000000

          Dielectric constant in cartesian axis 

          (      13.935479853      -0.000000000      -0.000000000 )
          (      -0.000000000      13.935479853      -0.000000000 )
          (      -0.000000000      -0.000000000      13.935479853 )

          Effective charges (d Force / dE) in cartesian axis

           atom      1   Si 
      Ex  (       -0.03881        0.00000        0.00000 )
      Ey  (        0.00000       -0.03881       -0.00000 )
      Ez  (        0.00000        0.00000       -0.03881 )
           atom      2   Si 
      Ex  (       -0.03881        0.00000        0.00000 )
      Ey  (        0.00000       -0.03881       -0.00000 )
      Ez  (        0.00000       -0.00000       -0.03881 )

          Effective charges (d P / du) in cartesian axis 

           atom      1   Si 
      Px  (       -0.07231        0.00000        0.00000 )
      Py  (        0.00000       -0.07231       -0.00000 )
      Pz  (        0.00000       -0.00000       -0.07231 )
           atom      2   Si 
      Px  (       -0.07231       -0.00000       -0.00000 )
      Py  (       -0.00000       -0.07231        0.00000 )
      Pz  (       -0.00000        0.00000       -0.07231 )

     Diagonalizing the dynamical matrix

     q = (    0.000000000   0.000000000   0.000000000 ) 

 **************************************************************************
     freq (    1) =      -0.472486 [THz] =     -15.760453 [cm-1]
     freq (    2) =      -0.472486 [THz] =     -15.760453 [cm-1]
     freq (    3) =      -0.472486 [THz] =     -15.760453 [cm-1]
     freq (    4) =      15.135092 [THz] =     504.852314 [cm-1]
     freq (    5) =      15.135092 [THz] =     504.852314 [cm-1]
     freq (    6) =      15.135092 [THz] =     504.852314 [cm-1]
 **************************************************************************

     Mode symmetry, O_h (m-3m)  point group:

     freq (  1 -  3) =        -15.8  [cm-1]   --> T_1u G_15  G_4- I  
     freq (  4 -  6) =        504.9  [cm-1]   --> T_2g G_25' G_5+ R  

     Calculation of q =   -0.2500000   0.2500000  -0.2500000

   Info: using nr1, nr2, nr3 values from input

   Info: using nr1, nr2, nr3 values from input

     Parallelization info
     --------------------
     sticks:   dense  smooth     PW     G-vecs:    dense   smooth      PW
     Min         217     109     37                 4288     1520     309
     Max         218     111     38                 4289     1521     312
     Sum         871     439    151                17153     6081    1243



     bravais-lattice index     =            2
     lattice parameter (alat)  =      10.3180  a.u.
     unit-cell volume          =     274.6165 (a.u.)^3
     number of atoms/cell      =            2
     number of atomic types    =            1
     number of electrons       =         8.00
     number of Kohn-Sham states=            4
     kinetic-energy cutoff     =      30.0000  Ry
     charge density cutoff     =     240.0000  Ry
     Exchange-correlation      = SLA  PW   PBE  PBE ( 1  4  3  4 0 0)

     celldm(1)=  10.318000  celldm(2)=   0.000000  celldm(3)=   0.000000
     celldm(4)=   0.000000  celldm(5)=   0.000000  celldm(6)=   0.000000

     crystal axes: (cart. coord. in units of alat)
               a(1) = (  -0.500000   0.000000   0.500000 )  
               a(2) = (   0.000000   0.500000   0.500000 )  
               a(3) = (  -0.500000   0.500000   0.000000 )  

     reciprocal axes: (cart. coord. in units 2 pi/alat)
               b(1) = ( -1.000000 -1.000000  1.000000 )  
               b(2) = (  1.000000  1.000000  1.000000 )  
               b(3) = ( -1.000000  1.000000 -1.000000 )  


     PseudoPot. # 1 for Si read from file:
     /home/s1333534/quantum_espresso/qe-6.1/pseudo/si_pbe_v1.uspp.F.UPF.txt
     MD5 check sum: a056efeee980c13900f22a371efd63c1
     Pseudo is Ultrasoft + core correction, Zval =  4.0
     Generated by new atomic code, or converted to UPF format
     Using radial grid of  899 points,  6 beta functions with: 
                l(1) =   0
                l(2) =   0
                l(3) =   1
                l(4) =   1
                l(5) =   2
                l(6) =   2
     Q(r) pseudized with  8 coefficients,  rinner =    0.900   0.900   0.900
                                                       0.900   0.900

     atomic species   valence    mass     pseudopotential
        Si             4.00    28.08600     Si( 1.00)

     48 Sym. Ops., with inversion, found



   Cartesian axes

     site n.     atom                  positions (alat units)
         1           Si  tau(   1) = (   0.0000000   0.0000000   0.0000000  )
         2           Si  tau(   2) = (   0.2500000   0.2500000   0.2500000  )

     number of k points=   120

     Number of k-points >= 100: set verbosity='high' to print them.

     Dense  grid:    17153 G-vectors     FFT dimensions: (  36,  36,  36)

     Smooth grid:     6081 G-vectors     FFT dimensions: (  25,  25,  25)

     Estimated max dynamical RAM per process >       1.51MB

     Estimated total allocated dynamical RAM >       6.06MB

     The potential is recalculated from file :
     ./_ph0/silicon.10.318.save/charge-density.dat

     Starting wfc are    8 atomic wfcs

     Band Structure Calculation
     Davidson diagonalization with overlap

     ethr =  1.25E-10,  avg # of iterations = 12.2

     total cpu time spent up to now is        1.4 secs

     End of band structure calculation

     Number of k-points >= 100: set verbosity='high' to print the bands.

     highest occupied level (ev):     5.7414

     Writing output data file silicon.10.318.save

                                                                                

     bravais-lattice index     =            2
     lattice parameter (alat)  =      10.3180  a.u.
     unit-cell volume          =     274.6165 (a.u.)^3
     number of atoms/cell      =            2
     number of atomic types    =            1
     kinetic-energy cut-off    =      30.0000  Ry
     charge density cut-off    =     240.0000  Ry
     convergence threshold     =      1.0E-12
     beta                      =       0.7000
     number of iterations used =            4
     Exchange-correlation      = SLA  PW   PBE  PBE ( 1  4  3  4 0 0)


     celldm(1)=   10.31800  celldm(2)=    0.00000  celldm(3)=    0.00000
     celldm(4)=    0.00000  celldm(5)=    0.00000  celldm(6)=    0.00000

     crystal axes: (cart. coord. in units of alat)
               a(1) = ( -0.5000  0.0000  0.5000 )  
               a(2) = (  0.0000  0.5000  0.5000 )  
               a(3) = ( -0.5000  0.5000  0.0000 )  

     reciprocal axes: (cart. coord. in units 2 pi/alat)
               b(1) = ( -1.0000 -1.0000  1.0000 )  
               b(2) = (  1.0000  1.0000  1.0000 )  
               b(3) = ( -1.0000  1.0000 -1.0000 )  


     Atoms inside the unit cell: 

     Cartesian axes

     site n.  atom      mass           positions (alat units)
        1     Si  28.0860   tau(    1) = (    0.00000    0.00000    0.00000  )
        2     Si  28.0860   tau(    2) = (    0.25000    0.25000    0.25000  )

     Computing dynamical matrix for 
                    q = (  -0.2500000   0.2500000  -0.2500000 )

      6 Sym.Ops. (no q -> -q+G )


     G cutoff =  647.2060  (   4288 G-vectors)     FFT grid: ( 36, 36, 36)
     G cutoff =  323.6030  (   1520 G-vectors)  smooth grid: ( 25, 25, 25)
     number of k points=   120

     PseudoPot. # 1 for Si read from file:
     /home/s1333534/quantum_espresso/qe-6.1/pseudo/si_pbe_v1.uspp.F.UPF.txt
     MD5 check sum: a056efeee980c13900f22a371efd63c1
     Pseudo is Ultrasoft + core correction, Zval =  4.0
     Generated by new atomic code, or converted to UPF format
     Using radial grid of  899 points,  6 beta functions with: 
                l(1) =   0
                l(2) =   0
                l(3) =   1
                l(4) =   1
                l(5) =   2
                l(6) =   2
     Q(r) pseudized with  8 coefficients,  rinner =    0.900   0.900   0.900
                                                       0.900   0.900

     Mode symmetry, C_3v (3m)   point group:


     Atomic displacements:
     There are   4 irreducible representations

     Representation     1      1 modes -A_1  L_1  To be done

     Representation     2      1 modes -A_1  L_1  To be done

     Representation     3      2 modes -E    L_3  To be done

     Representation     4      2 modes -E    L_3  To be done



     Alpha used in Ewald sum =   2.5000
     PHONON       :    10.75s CPU        14.33s WALL



     Representation #  1 mode #   1

     Self-consistent Calculation

      iter #   1 total cpu time :    14.8 secs   av.it.:   5.9
      thresh= 1.000E-02 alpha_mix =  0.700 |ddv_scf|^2 =  4.281E-04

      iter #   2 total cpu time :    15.4 secs   av.it.:   9.1
      thresh= 2.069E-03 alpha_mix =  0.700 |ddv_scf|^2 =  6.514E-03

      iter #   3 total cpu time :    15.9 secs   av.it.:   7.0
      thresh= 8.071E-03 alpha_mix =  0.700 |ddv_scf|^2 =  2.716E-07

      iter #   4 total cpu time :    16.5 secs   av.it.:   9.6
      thresh= 5.211E-05 alpha_mix =  0.700 |ddv_scf|^2 =  1.793E-08

      iter #   5 total cpu time :    17.2 secs   av.it.:   9.6
      thresh= 1.339E-05 alpha_mix =  0.700 |ddv_scf|^2 =  3.412E-10

      iter #   6 total cpu time :    17.8 secs   av.it.:   9.7
      thresh= 1.847E-06 alpha_mix =  0.700 |ddv_scf|^2 =  1.213E-09

      iter #   7 total cpu time :    18.4 secs   av.it.:   7.6
      thresh= 3.483E-06 alpha_mix =  0.700 |ddv_scf|^2 =  3.710E-11

      iter #   8 total cpu time :    18.9 secs   av.it.:   9.3
      thresh= 6.091E-07 alpha_mix =  0.700 |ddv_scf|^2 =  4.664E-13

     End of self-consistent calculation

     Convergence has been achieved 


     Representation #  2 mode #   2

     Self-consistent Calculation

      iter #   1 total cpu time :    19.5 secs   av.it.:   5.9
      thresh= 1.000E-02 alpha_mix =  0.700 |ddv_scf|^2 =  4.281E-04

      iter #   2 total cpu time :    20.1 secs   av.it.:   9.1
      thresh= 2.069E-03 alpha_mix =  0.700 |ddv_scf|^2 =  6.514E-03

      iter #   3 total cpu time :    20.6 secs   av.it.:   7.0
      thresh= 8.071E-03 alpha_mix =  0.700 |ddv_scf|^2 =  2.716E-07

      iter #   4 total cpu time :    21.2 secs   av.it.:   9.6
      thresh= 5.211E-05 alpha_mix =  0.700 |ddv_scf|^2 =  1.793E-08

      iter #   5 total cpu time :    21.9 secs   av.it.:   9.6
      thresh= 1.339E-05 alpha_mix =  0.700 |ddv_scf|^2 =  3.412E-10

      iter #   6 total cpu time :    22.5 secs   av.it.:   9.7
      thresh= 1.847E-06 alpha_mix =  0.700 |ddv_scf|^2 =  1.213E-09

      iter #   7 total cpu time :    23.0 secs   av.it.:   7.6
      thresh= 3.483E-06 alpha_mix =  0.700 |ddv_scf|^2 =  3.710E-11

      iter #   8 total cpu time :    23.6 secs   av.it.:   9.3
      thresh= 6.091E-07 alpha_mix =  0.700 |ddv_scf|^2 =  4.664E-13

     End of self-consistent calculation

     Convergence has been achieved 


     Representation #  3 modes #   3  4

     Self-consistent Calculation

      iter #   1 total cpu time :    24.6 secs   av.it.:   5.2
      thresh= 1.000E-02 alpha_mix =  0.700 |ddv_scf|^2 =  6.624E-08

      iter #   2 total cpu time :    25.9 secs   av.it.:  11.4
      thresh= 2.574E-05 alpha_mix =  0.700 |ddv_scf|^2 =  4.258E-09

      iter #   3 total cpu time :    27.1 secs   av.it.:  11.1
      thresh= 6.525E-06 alpha_mix =  0.700 |ddv_scf|^2 =  2.253E-10

      iter #   4 total cpu time :    28.3 secs   av.it.:  11.0
      thresh= 1.501E-06 alpha_mix =  0.700 |ddv_scf|^2 =  8.580E-13

     End of self-consistent calculation

     Convergence has been achieved 


     Representation #  4 modes #   5  6

     Self-consistent Calculation

      iter #   1 total cpu time :    29.3 secs   av.it.:   5.2
      thresh= 1.000E-02 alpha_mix =  0.700 |ddv_scf|^2 =  6.625E-08

      iter #   2 total cpu time :    30.5 secs   av.it.:  11.4
      thresh= 2.574E-05 alpha_mix =  0.700 |ddv_scf|^2 =  4.258E-09

      iter #   3 total cpu time :    31.8 secs   av.it.:  11.2
      thresh= 6.525E-06 alpha_mix =  0.700 |ddv_scf|^2 =  2.253E-10

      iter #   4 total cpu time :    33.0 secs   av.it.:  11.0
      thresh= 1.501E-06 alpha_mix =  0.700 |ddv_scf|^2 =  8.628E-13

     End of self-consistent calculation

     Convergence has been achieved 

     Number of q in the star =    8
     List of q in the star:
          1  -0.250000000   0.250000000  -0.250000000
          2   0.250000000  -0.250000000  -0.250000000
          3   0.250000000  -0.250000000   0.250000000
          4   0.250000000   0.250000000   0.250000000
          5  -0.250000000  -0.250000000  -0.250000000
          6  -0.250000000  -0.250000000   0.250000000
          7  -0.250000000   0.250000000   0.250000000
          8   0.250000000   0.250000000  -0.250000000

     Diagonalizing the dynamical matrix

     q = (   -0.250000000   0.250000000  -0.250000000 ) 

 **************************************************************************
     freq (    1) =       2.777200 [THz] =      92.637406 [cm-1]
     freq (    2) =       2.777200 [THz] =      92.637406 [cm-1]
     freq (    3) =       6.763220 [THz] =     225.596750 [cm-1]
     freq (    4) =      14.285170 [THz] =     476.501975 [cm-1]
     freq (    5) =      14.566018 [THz] =     485.870046 [cm-1]
     freq (    6) =      14.566018 [THz] =     485.870046 [cm-1]
 **************************************************************************

     Mode symmetry, C_3v (3m)   point group:

     freq (  1 -  2) =         92.6  [cm-1]   --> E    L_3           
     freq (  3 -  3) =        225.6  [cm-1]   --> A_1  L_1           
     freq (  4 -  4) =        476.5  [cm-1]   --> A_1  L_1           
     freq (  5 -  6) =        485.9  [cm-1]   --> E    L_3           

     Calculation of q =    0.5000000  -0.5000000   0.5000000

   Info: using nr1, nr2, nr3 values from input

   Info: using nr1, nr2, nr3 values from input

     Parallelization info
     --------------------
     sticks:   dense  smooth     PW     G-vecs:    dense   smooth      PW
     Min         217     109     40                 4288     1520     351
     Max         219     111     41                 4289     1521     354
     Sum         871     439    163                17153     6081    1411



     bravais-lattice index     =            2
     lattice parameter (alat)  =      10.3180  a.u.
     unit-cell volume          =     274.6165 (a.u.)^3
     number of atoms/cell      =            2
     number of atomic types    =            1
     number of electrons       =         8.00
     number of Kohn-Sham states=            4
     kinetic-energy cutoff     =      30.0000  Ry
     charge density cutoff     =     240.0000  Ry
     Exchange-correlation      = SLA  PW   PBE  PBE ( 1  4  3  4 0 0)

     celldm(1)=  10.318000  celldm(2)=   0.000000  celldm(3)=   0.000000
     celldm(4)=   0.000000  celldm(5)=   0.000000  celldm(6)=   0.000000

     crystal axes: (cart. coord. in units of alat)
               a(1) = (  -0.500000   0.000000   0.500000 )  
               a(2) = (   0.000000   0.500000   0.500000 )  
               a(3) = (  -0.500000   0.500000   0.000000 )  

     reciprocal axes: (cart. coord. in units 2 pi/alat)
               b(1) = ( -1.000000 -1.000000  1.000000 )  
               b(2) = (  1.000000  1.000000  1.000000 )  
               b(3) = ( -1.000000  1.000000 -1.000000 )  


     PseudoPot. # 1 for Si read from file:
     /home/s1333534/quantum_espresso/qe-6.1/pseudo/si_pbe_v1.uspp.F.UPF.txt
     MD5 check sum: a056efeee980c13900f22a371efd63c1
     Pseudo is Ultrasoft + core correction, Zval =  4.0
     Generated by new atomic code, or converted to UPF format
     Using radial grid of  899 points,  6 beta functions with: 
                l(1) =   0
                l(2) =   0
                l(3) =   1
                l(4) =   1
                l(5) =   2
                l(6) =   2
     Q(r) pseudized with  8 coefficients,  rinner =    0.900   0.900   0.900
                                                       0.900   0.900

     atomic species   valence    mass     pseudopotential
        Si             4.00    28.08600     Si( 1.00)

     48 Sym. Ops., with inversion, found



   Cartesian axes

     site n.     atom                  positions (alat units)
         1           Si  tau(   1) = (   0.0000000   0.0000000   0.0000000  )
         2           Si  tau(   2) = (   0.2500000   0.2500000   0.2500000  )

     number of k points=    60
                       cart. coord. in units 2pi/alat
        k(    1) = (  -0.1250000   0.1250000   0.1250000), wk =   0.0468750
        k(    2) = (   0.3750000  -0.3750000   0.6250000), wk =   0.0000000
        k(    3) = (  -0.3750000   0.3750000  -0.1250000), wk =   0.0468750
        k(    4) = (   0.1250000  -0.1250000   0.3750000), wk =   0.0000000
        k(    5) = (   0.3750000  -0.3750000   0.6250000), wk =   0.0468750
        k(    6) = (   0.8750000  -0.8750000   1.1250000), wk =   0.0000000
        k(    7) = (   0.1250000  -0.1250000   0.3750000), wk =   0.0468750
        k(    8) = (   0.6250000  -0.6250000   0.8750000), wk =   0.0000000
        k(    9) = (  -0.1250000   0.6250000   0.1250000), wk =   0.0937500
        k(   10) = (   0.3750000   0.1250000   0.6250000), wk =   0.0000000
        k(   11) = (   0.6250000  -0.1250000   0.8750000), wk =   0.0937500
        k(   12) = (   1.1250000  -0.6250000   1.3750000), wk =   0.0000000
        k(   13) = (   0.3750000   0.1250000   0.6250000), wk =   0.0937500
        k(   14) = (   0.8750000  -0.3750000   1.1250000), wk =   0.0000000
        k(   15) = (  -0.1250000  -0.8750000   0.1250000), wk =   0.0937500
        k(   16) = (   0.3750000  -1.3750000   0.6250000), wk =   0.0000000
        k(   17) = (  -0.3750000   0.3750000   0.3750000), wk =   0.0468750
        k(   18) = (   0.1250000  -0.1250000   0.8750000), wk =   0.0000000
        k(   19) = (   0.3750000  -0.3750000   1.1250000), wk =   0.0468750
        k(   20) = (   0.8750000  -0.8750000   1.6250000), wk =   0.0000000
        k(   21) = (   0.1250000  -0.1250000   0.1250000), wk =   0.0156250
        k(   22) = (   0.6250000  -0.6250000   0.6250000), wk =   0.0000000
        k(   23) = (  -0.3750000  -0.3750000  -0.1250000), wk =   0.0937500
        k(   24) = (   0.1250000  -0.8750000   0.3750000), wk =   0.0000000
        k(   25) = (  -0.1250000  -0.3750000   0.3750000), wk =   0.0468750
        k(   26) = (   0.3750000  -0.8750000   0.8750000), wk =   0.0000000
        k(   27) = (   0.3750000   0.3750000   0.6250000), wk =   0.0937500
        k(   28) = (   0.8750000  -0.1250000   1.1250000), wk =   0.0000000
        k(   29) = (   0.6250000   0.3750000  -0.3750000), wk =   0.0468750
        k(   30) = (   1.1250000  -0.1250000   0.1250000), wk =   0.0000000
        k(   31) = (   0.1250000   0.1250000   0.3750000), wk =   0.0937500
        k(   32) = (   0.6250000  -0.3750000   0.8750000), wk =   0.0000000
        k(   33) = (   0.3750000   0.1250000  -0.1250000), wk =   0.0468750
        k(   34) = (   0.8750000  -0.3750000   0.3750000), wk =   0.0000000
        k(   35) = (  -0.1250000  -0.6250000  -0.1250000), wk =   0.0468750
        k(   36) = (   0.3750000  -1.1250000   0.3750000), wk =   0.0000000
        k(   37) = (   0.1250000  -0.6250000   0.1250000), wk =   0.0468750
        k(   38) = (   0.6250000  -1.1250000   0.6250000), wk =   0.0000000
        k(   39) = (   0.6250000   0.1250000   0.8750000), wk =   0.0937500
        k(   40) = (   1.1250000  -0.3750000   1.3750000), wk =   0.0000000
        k(   41) = (  -0.8750000   0.1250000   0.6250000), wk =   0.0937500
        k(   42) = (  -0.3750000  -0.3750000   1.1250000), wk =   0.0000000
        k(   43) = (   0.8750000   0.1250000  -0.6250000), wk =   0.0937500
        k(   44) = (   1.3750000  -0.3750000  -0.1250000), wk =   0.0000000
        k(   45) = (   0.3750000  -0.1250000   0.6250000), wk =   0.0937500
        k(   46) = (   0.8750000  -0.6250000   1.1250000), wk =   0.0000000
        k(   47) = (  -0.6250000  -0.1250000   0.3750000), wk =   0.0937500
        k(   48) = (  -0.1250000  -0.6250000   0.8750000), wk =   0.0000000
        k(   49) = (   0.6250000  -0.1250000  -0.3750000), wk =   0.0937500
        k(   50) = (   1.1250000  -0.6250000   0.1250000), wk =   0.0000000
        k(   51) = (  -0.1250000   0.8750000  -0.1250000), wk =   0.0468750
        k(   52) = (   0.3750000   0.3750000   0.3750000), wk =   0.0000000
        k(   53) = (   0.1250000   0.8750000   0.1250000), wk =   0.0468750
        k(   54) = (   0.6250000   0.3750000   0.6250000), wk =   0.0000000
        k(   55) = (   0.3750000  -0.3750000   0.3750000), wk =   0.0156250
        k(   56) = (   0.8750000  -0.8750000   0.8750000), wk =   0.0000000
        k(   57) = (   0.3750000   0.3750000   1.1250000), wk =   0.0937500
        k(   58) = (   0.8750000  -0.1250000   1.6250000), wk =   0.0000000
        k(   59) = (   1.1250000   0.3750000  -0.3750000), wk =   0.0468750
        k(   60) = (   1.6250000  -0.1250000   0.1250000), wk =   0.0000000

     Dense  grid:    17153 G-vectors     FFT dimensions: (  36,  36,  36)

     Smooth grid:     6081 G-vectors     FFT dimensions: (  25,  25,  25)

     Estimated max dynamical RAM per process >       1.51MB

     Estimated total allocated dynamical RAM >       6.06MB

     The potential is recalculated from file :
     ./_ph0/silicon.10.318.save/charge-density.dat

     Starting wfc are    8 atomic wfcs

     Band Structure Calculation
     Davidson diagonalization with overlap

     ethr =  1.25E-10,  avg # of iterations = 12.2

     total cpu time spent up to now is        2.4 secs

     End of band structure calculation

          k =-0.1250 0.1250 0.1250 (   764 PWs)   bands (ev):

    -5.6214   4.4322   5.7414   5.7414

          k = 0.3750-0.3750 0.6250 (   760 PWs)   bands (ev):

    -3.4460  -0.6535   3.7714   4.4856

          k =-0.3750 0.3750-0.1250 (   767 PWs)   bands (ev):

    -4.5910   1.4331   3.7486   5.2602

          k = 0.1250-0.1250 0.3750 (   766 PWs)   bands (ev):

    -5.0917   2.8144   4.7293   4.7957

          k = 0.3750-0.3750 0.6250 (   760 PWs)   bands (ev):

    -3.4460  -0.6535   3.7714   4.4856

          k = 0.8750-0.8750 1.1250 (   764 PWs)   bands (ev):

    -5.6214   4.4322   5.7414   5.7414

          k = 0.1250-0.1250 0.3750 (   766 PWs)   bands (ev):

    -5.0917   2.8144   4.7293   4.7957

          k = 0.6250-0.6250 0.8750 (   767 PWs)   bands (ev):

    -4.5910   1.4331   3.7486   5.2602

          k =-0.1250 0.6250 0.1250 (   762 PWs)   bands (ev):

    -4.0567   1.1028   3.3979   3.8524

          k = 0.3750 0.1250 0.6250 (   766 PWs)   bands (ev):

    -3.6392   0.2243   2.7545   4.1279

          k = 0.6250-0.1250 0.8750 (   754 PWs)   bands (ev):

    -2.4100  -0.8647   2.0369   3.1180

          k = 1.1250-0.6250 1.3750 (   767 PWs)   bands (ev):

    -4.5910   1.4331   3.7486   5.2602

          k = 0.3750 0.1250 0.6250 (   766 PWs)   bands (ev):

    -3.6392   0.2243   2.7545   4.1279

          k = 0.8750-0.3750 1.1250 (   762 PWs)   bands (ev):

    -4.0567   1.1028   3.3979   3.8524

          k =-0.1250-0.8750 0.1250 (   762 PWs)   bands (ev):

    -2.5794  -0.7665   2.6496   3.3840

          k = 0.3750-1.3750 0.6250 (   760 PWs)   bands (ev):

    -3.4460  -0.6535   3.7714   4.4856

          k =-0.3750 0.3750 0.3750 (   763 PWs)   bands (ev):

    -4.1561   0.1369   4.9522   4.9522

          k = 0.1250-0.1250 0.8750 (   762 PWs)   bands (ev):

    -2.5794  -0.7665   2.6496   3.3840

          k = 0.3750-0.3750 1.1250 (   763 PWs)   bands (ev):

    -2.9487  -0.5644   2.0970   4.1673

          k = 0.8750-0.8750 1.6250 (   762 PWs)   bands (ev):

    -4.0567   1.1028   3.3979   3.8524

          k = 0.1250-0.1250 0.1250 (   764 PWs)   bands (ev):

    -5.6214   4.4322   5.7414   5.7414

          k = 0.6250-0.6250 0.6250 (   763 PWs)   bands (ev):

    -4.1561   0.1369   4.9522   4.9522

          k =-0.3750-0.3750-0.1250 (   767 PWs)   bands (ev):

    -4.5910   1.4331   3.7486   5.2602

          k = 0.1250-0.8750 0.3750 (   754 PWs)   bands (ev):

    -2.4100  -0.8647   2.0369   3.1180

          k =-0.1250-0.3750 0.3750 (   767 PWs)   bands (ev):

    -4.5910   1.4331   3.7486   5.2602

          k = 0.3750-0.8750 0.8750 (   762 PWs)   bands (ev):

    -4.0567   1.1028   3.3979   3.8524

          k = 0.3750 0.3750 0.6250 (   760 PWs)   bands (ev):

    -3.4460  -0.6535   3.7714   4.4856

          k = 0.8750-0.1250 1.1250 (   762 PWs)   bands (ev):

    -2.5794  -0.7665   2.6496   3.3840

          k = 0.6250 0.3750-0.3750 (   760 PWs)   bands (ev):

    -3.4460  -0.6535   3.7714   4.4856

          k = 1.1250-0.1250 0.1250 (   762 PWs)   bands (ev):

    -2.5794  -0.7665   2.6496   3.3840

          k = 0.1250 0.1250 0.3750 (   766 PWs)   bands (ev):

    -5.0917   2.8144   4.7293   4.7957

          k = 0.6250-0.3750 0.8750 (   766 PWs)   bands (ev):

    -3.6392   0.2243   2.7545   4.1279

          k = 0.3750 0.1250-0.1250 (   766 PWs)   bands (ev):

    -5.0917   2.8144   4.7293   4.7957

          k = 0.8750-0.3750 0.3750 (   763 PWs)   bands (ev):

    -2.9487  -0.5644   2.0970   4.1673

          k =-0.1250-0.6250-0.1250 (   762 PWs)   bands (ev):

    -4.0567   1.1028   3.3979   3.8524

          k = 0.3750-1.1250 0.3750 (   763 PWs)   bands (ev):

    -2.9487  -0.5644   2.0970   4.1673

          k = 0.1250-0.6250 0.1250 (   762 PWs)   bands (ev):

    -4.0567   1.1028   3.3979   3.8524

          k = 0.6250-1.1250 0.6250 (   767 PWs)   bands (ev):

    -4.5910   1.4331   3.7486   5.2602

          k = 0.6250 0.1250 0.8750 (   754 PWs)   bands (ev):

    -2.4100  -0.8647   2.0369   3.1180

          k = 1.1250-0.3750 1.3750 (   766 PWs)   bands (ev):

    -3.6392   0.2243   2.7545   4.1279

          k =-0.8750 0.1250 0.6250 (   754 PWs)   bands (ev):

    -2.4100  -0.8647   2.0369   3.1180

          k =-0.3750-0.3750 1.1250 (   763 PWs)   bands (ev):

    -2.9487  -0.5644   2.0970   4.1673

          k = 0.8750 0.1250-0.6250 (   754 PWs)   bands (ev):

    -2.4100  -0.8647   2.0369   3.1180

          k = 1.3750-0.3750-0.1250 (   766 PWs)   bands (ev):

    -3.6392   0.2243   2.7545   4.1279

          k = 0.3750-0.1250 0.6250 (   766 PWs)   bands (ev):

    -3.6392   0.2243   2.7545   4.1279

          k = 0.8750-0.6250 1.1250 (   766 PWs)   bands (ev):

    -5.0917   2.8144   4.7293   4.7957

          k =-0.6250-0.1250 0.3750 (   766 PWs)   bands (ev):

    -3.6392   0.2243   2.7545   4.1279

          k =-0.1250-0.6250 0.8750 (   754 PWs)   bands (ev):

    -2.4100  -0.8647   2.0369   3.1180

          k = 0.6250-0.1250-0.3750 (   766 PWs)   bands (ev):

    -3.6392   0.2243   2.7545   4.1279

          k = 1.1250-0.6250 0.1250 (   754 PWs)   bands (ev):

    -2.4100  -0.8647   2.0369   3.1180

          k =-0.1250 0.8750-0.1250 (   762 PWs)   bands (ev):

    -2.5794  -0.7665   2.6496   3.3840

          k = 0.3750 0.3750 0.3750 (   763 PWs)   bands (ev):

    -4.1561   0.1369   4.9522   4.9522

          k = 0.1250 0.8750 0.1250 (   762 PWs)   bands (ev):

    -2.5794  -0.7665   2.6496   3.3840

          k = 0.6250 0.3750 0.6250 (   760 PWs)   bands (ev):

    -3.4460  -0.6535   3.7714   4.4856

          k = 0.3750-0.3750 0.3750 (   763 PWs)   bands (ev):

    -4.1561   0.1369   4.9522   4.9522

          k = 0.8750-0.8750 0.8750 (   764 PWs)   bands (ev):

    -5.6214   4.4322   5.7414   5.7414

          k = 0.3750 0.3750 1.1250 (   763 PWs)   bands (ev):

    -2.9487  -0.5644   2.0970   4.1673

          k = 0.8750-0.1250 1.6250 (   754 PWs)   bands (ev):

    -2.4100  -0.8647   2.0369   3.1180

          k = 1.1250 0.3750-0.3750 (   763 PWs)   bands (ev):

    -2.9487  -0.5644   2.0970   4.1673

          k = 1.6250-0.1250 0.1250 (   766 PWs)   bands (ev):

    -5.0917   2.8144   4.7293   4.7957

     highest occupied level (ev):     5.7414

     Writing output data file silicon.10.318.save

                                                                                

     bravais-lattice index     =            2
     lattice parameter (alat)  =      10.3180  a.u.
     unit-cell volume          =     274.6165 (a.u.)^3
     number of atoms/cell      =            2
     number of atomic types    =            1
     kinetic-energy cut-off    =      30.0000  Ry
     charge density cut-off    =     240.0000  Ry
     convergence threshold     =      1.0E-12
     beta                      =       0.7000
     number of iterations used =            4
     Exchange-correlation      = SLA  PW   PBE  PBE ( 1  4  3  4 0 0)


     celldm(1)=   10.31800  celldm(2)=    0.00000  celldm(3)=    0.00000
     celldm(4)=    0.00000  celldm(5)=    0.00000  celldm(6)=    0.00000

     crystal axes: (cart. coord. in units of alat)
               a(1) = ( -0.5000  0.0000  0.5000 )  
               a(2) = (  0.0000  0.5000  0.5000 )  
               a(3) = ( -0.5000  0.5000  0.0000 )  

     reciprocal axes: (cart. coord. in units 2 pi/alat)
               b(1) = ( -1.0000 -1.0000  1.0000 )  
               b(2) = (  1.0000  1.0000  1.0000 )  
               b(3) = ( -1.0000  1.0000 -1.0000 )  


     Atoms inside the unit cell: 

     Cartesian axes

     site n.  atom      mass           positions (alat units)
        1     Si  28.0860   tau(    1) = (    0.00000    0.00000    0.00000  )
        2     Si  28.0860   tau(    2) = (    0.25000    0.25000    0.25000  )

     Computing dynamical matrix for 
                    q = (   0.5000000  -0.5000000   0.5000000 )

     13 Sym.Ops. (with q -> -q+G )


     G cutoff =  647.2060  (   4288 G-vectors)     FFT grid: ( 36, 36, 36)
     G cutoff =  323.6030  (   1520 G-vectors)  smooth grid: ( 25, 25, 25)
     number of k points=    60

     PseudoPot. # 1 for Si read from file:
     /home/s1333534/quantum_espresso/qe-6.1/pseudo/si_pbe_v1.uspp.F.UPF.txt
     MD5 check sum: a056efeee980c13900f22a371efd63c1
     Pseudo is Ultrasoft + core correction, Zval =  4.0
     Generated by new atomic code, or converted to UPF format
     Using radial grid of  899 points,  6 beta functions with: 
                l(1) =   0
                l(2) =   0
                l(3) =   1
                l(4) =   1
                l(5) =   2
                l(6) =   2
     Q(r) pseudized with  8 coefficients,  rinner =    0.900   0.900   0.900
                                                       0.900   0.900


     Atomic displacements:
     There are   4 irreducible representations

     Representation     1      1 modes -  To be done

     Representation     2      1 modes -  To be done

     Representation     3      2 modes -  To be done

     Representation     4      2 modes -  To be done



     Alpha used in Ewald sum =   2.5000
     PHONON       :    27.61s CPU        35.14s WALL



     Representation #  1 mode #   1

     Self-consistent Calculation

      iter #   1 total cpu time :    35.4 secs   av.it.:   5.1
      thresh= 1.000E-02 alpha_mix =  0.700 |ddv_scf|^2 =  4.200E-06

      iter #   2 total cpu time :    35.8 secs   av.it.:   9.9
      thresh= 2.049E-04 alpha_mix =  0.700 |ddv_scf|^2 =  3.842E-06

      iter #   3 total cpu time :    36.2 secs   av.it.:   9.2
      thresh= 1.960E-04 alpha_mix =  0.700 |ddv_scf|^2 =  2.317E-09

      iter #   4 total cpu time :    36.6 secs   av.it.:   9.4
      thresh= 4.813E-06 alpha_mix =  0.700 |ddv_scf|^2 =  2.268E-11

      iter #   5 total cpu time :    37.0 secs   av.it.:   9.3
      thresh= 4.763E-07 alpha_mix =  0.700 |ddv_scf|^2 =  3.061E-13

     End of self-consistent calculation

     Convergence has been achieved 


     Representation #  2 mode #   2

     Self-consistent Calculation

      iter #   1 total cpu time :    37.4 secs   av.it.:   6.0
      thresh= 1.000E-02 alpha_mix =  0.700 |ddv_scf|^2 =  5.973E-05

      iter #   2 total cpu time :    37.8 secs   av.it.:   9.8
      thresh= 7.728E-04 alpha_mix =  0.700 |ddv_scf|^2 =  1.857E-04

      iter #   3 total cpu time :    38.3 secs   av.it.:   8.6
      thresh= 1.363E-03 alpha_mix =  0.700 |ddv_scf|^2 =  1.317E-08

      iter #   4 total cpu time :    38.7 secs   av.it.:   9.8
      thresh= 1.148E-05 alpha_mix =  0.700 |ddv_scf|^2 =  6.704E-10

      iter #   5 total cpu time :    39.1 secs   av.it.:  10.2
      thresh= 2.589E-06 alpha_mix =  0.700 |ddv_scf|^2 =  2.038E-11

      iter #   6 total cpu time :    39.5 secs   av.it.:   9.7
      thresh= 4.514E-07 alpha_mix =  0.700 |ddv_scf|^2 =  1.533E-13

     End of self-consistent calculation

     Convergence has been achieved 


     Representation #  3 modes #   3  4

     Self-consistent Calculation

      iter #   1 total cpu time :    40.1 secs   av.it.:   5.1
      thresh= 1.000E-02 alpha_mix =  0.700 |ddv_scf|^2 =  2.697E-08

      iter #   2 total cpu time :    40.9 secs   av.it.:  10.9
      thresh= 1.642E-05 alpha_mix =  0.700 |ddv_scf|^2 =  1.591E-09

      iter #   3 total cpu time :    41.6 secs   av.it.:  10.7
      thresh= 3.989E-06 alpha_mix =  0.700 |ddv_scf|^2 =  5.307E-11

      iter #   4 total cpu time :    42.3 secs   av.it.:  10.7
      thresh= 7.285E-07 alpha_mix =  0.700 |ddv_scf|^2 =  4.343E-13

     End of self-consistent calculation

     Convergence has been achieved 


     Representation #  4 modes #   5  6

     Self-consistent Calculation

      iter #   1 total cpu time :    43.0 secs   av.it.:   5.2
      thresh= 1.000E-02 alpha_mix =  0.700 |ddv_scf|^2 =  1.380E-07

      iter #   2 total cpu time :    43.9 secs   av.it.:  11.1
      thresh= 3.714E-05 alpha_mix =  0.700 |ddv_scf|^2 =  1.106E-08

      iter #   3 total cpu time :    44.6 secs   av.it.:  10.9
      thresh= 1.052E-05 alpha_mix =  0.700 |ddv_scf|^2 =  2.911E-10

      iter #   4 total cpu time :    45.3 secs   av.it.:   9.9
      thresh= 1.706E-06 alpha_mix =  0.700 |ddv_scf|^2 =  5.256E-13

     End of self-consistent calculation

     Convergence has been achieved 

     Number of q in the star =    4
     List of q in the star:
          1   0.500000000  -0.500000000   0.500000000
          2   0.500000000   0.500000000   0.500000000
          3  -0.500000000   0.500000000   0.500000000
          4   0.500000000   0.500000000  -0.500000000

     Diagonalizing the dynamical matrix

     q = (    0.500000000  -0.500000000   0.500000000 ) 

 **************************************************************************
     freq (    1) =       3.279148 [THz] =     109.380618 [cm-1]
     freq (    2) =       3.279148 [THz] =     109.380618 [cm-1]
     freq (    3) =      11.115462 [THz] =     370.771901 [cm-1]
     freq (    4) =      12.054117 [THz] =     402.082070 [cm-1]
     freq (    5) =      14.360931 [THz] =     479.029081 [cm-1]
     freq (    6) =      14.360931 [THz] =     479.029081 [cm-1]
 **************************************************************************

     Calculation of q =    0.0000000   0.5000000   0.0000000

   Info: using nr1, nr2, nr3 values from input

   Info: using nr1, nr2, nr3 values from input

     Parallelization info
     --------------------
     sticks:   dense  smooth     PW     G-vecs:    dense   smooth      PW
     Min         217     109     37                 4288     1520     309
     Max         218     111     38                 4289     1521     312
     Sum         871     439    151                17153     6081    1243



     bravais-lattice index     =            2
     lattice parameter (alat)  =      10.3180  a.u.
     unit-cell volume          =     274.6165 (a.u.)^3
     number of atoms/cell      =            2
     number of atomic types    =            1
     number of electrons       =         8.00
     number of Kohn-Sham states=            4
     kinetic-energy cutoff     =      30.0000  Ry
     charge density cutoff     =     240.0000  Ry
     Exchange-correlation      = SLA  PW   PBE  PBE ( 1  4  3  4 0 0)

     celldm(1)=  10.318000  celldm(2)=   0.000000  celldm(3)=   0.000000
     celldm(4)=   0.000000  celldm(5)=   0.000000  celldm(6)=   0.000000

     crystal axes: (cart. coord. in units of alat)
               a(1) = (  -0.500000   0.000000   0.500000 )  
               a(2) = (   0.000000   0.500000   0.500000 )  
               a(3) = (  -0.500000   0.500000   0.000000 )  

     reciprocal axes: (cart. coord. in units 2 pi/alat)
               b(1) = ( -1.000000 -1.000000  1.000000 )  
               b(2) = (  1.000000  1.000000  1.000000 )  
               b(3) = ( -1.000000  1.000000 -1.000000 )  


     PseudoPot. # 1 for Si read from file:
     /home/s1333534/quantum_espresso/qe-6.1/pseudo/si_pbe_v1.uspp.F.UPF.txt
     MD5 check sum: a056efeee980c13900f22a371efd63c1
     Pseudo is Ultrasoft + core correction, Zval =  4.0
     Generated by new atomic code, or converted to UPF format
     Using radial grid of  899 points,  6 beta functions with: 
                l(1) =   0
                l(2) =   0
                l(3) =   1
                l(4) =   1
                l(5) =   2
                l(6) =   2
     Q(r) pseudized with  8 coefficients,  rinner =    0.900   0.900   0.900
                                                       0.900   0.900

     atomic species   valence    mass     pseudopotential
        Si             4.00    28.08600     Si( 1.00)

     48 Sym. Ops., with inversion, found



   Cartesian axes

     site n.     atom                  positions (alat units)
         1           Si  tau(   1) = (   0.0000000   0.0000000   0.0000000  )
         2           Si  tau(   2) = (   0.2500000   0.2500000   0.2500000  )

     number of k points=    80
                       cart. coord. in units 2pi/alat
        k(    1) = (  -0.1250000   0.1250000   0.1250000), wk =   0.0312500
        k(    2) = (  -0.1250000   0.6250000   0.1250000), wk =   0.0000000
        k(    3) = (  -0.3750000   0.3750000  -0.1250000), wk =   0.0625000
        k(    4) = (  -0.3750000   0.8750000  -0.1250000), wk =   0.0000000
        k(    5) = (   0.3750000  -0.3750000   0.6250000), wk =   0.0625000
        k(    6) = (   0.3750000   0.1250000   0.6250000), wk =   0.0000000
        k(    7) = (   0.1250000  -0.1250000   0.3750000), wk =   0.0625000
        k(    8) = (   0.1250000   0.3750000   0.3750000), wk =   0.0000000
        k(    9) = (  -0.1250000   0.6250000   0.1250000), wk =   0.0312500
        k(   10) = (  -0.1250000   1.1250000   0.1250000), wk =   0.0000000
        k(   11) = (   0.6250000  -0.1250000   0.8750000), wk =   0.0625000
        k(   12) = (   0.6250000   0.3750000   0.8750000), wk =   0.0000000
        k(   13) = (   0.3750000   0.1250000   0.6250000), wk =   0.0625000
        k(   14) = (   0.3750000   0.6250000   0.6250000), wk =   0.0000000
        k(   15) = (  -0.1250000  -0.8750000   0.1250000), wk =   0.0312500
        k(   16) = (  -0.1250000  -0.3750000   0.1250000), wk =   0.0000000
        k(   17) = (  -0.3750000   0.3750000   0.3750000), wk =   0.0312500
        k(   18) = (  -0.3750000   0.8750000   0.3750000), wk =   0.0000000
        k(   19) = (   0.3750000  -0.3750000   1.1250000), wk =   0.0625000
        k(   20) = (   0.3750000   0.1250000   1.1250000), wk =   0.0000000
        k(   21) = (  -0.1250000  -0.1250000   0.1250000), wk =   0.0312500
        k(   22) = (  -0.1250000   0.3750000   0.1250000), wk =   0.0000000
        k(   23) = (   0.1250000  -0.3750000   0.3750000), wk =   0.0625000
        k(   24) = (   0.1250000   0.1250000   0.3750000), wk =   0.0000000
        k(   25) = (   0.3750000  -0.1250000   0.3750000), wk =   0.0312500
        k(   26) = (   0.3750000   0.3750000   0.3750000), wk =   0.0000000
        k(   27) = (   0.3750000   0.1250000   0.3750000), wk =   0.0312500
        k(   28) = (   0.3750000   0.6250000   0.3750000), wk =   0.0000000
        k(   29) = (  -0.6250000   0.3750000  -0.3750000), wk =   0.0625000
        k(   30) = (  -0.6250000   0.8750000  -0.3750000), wk =   0.0000000
        k(   31) = (  -0.3750000   0.6250000  -0.3750000), wk =   0.0312500
        k(   32) = (  -0.3750000   1.1250000  -0.3750000), wk =   0.0000000
        k(   33) = (  -0.3750000  -0.6250000  -0.3750000), wk =   0.0312500
        k(   34) = (  -0.3750000  -0.1250000  -0.3750000), wk =   0.0000000
        k(   35) = (  -0.3750000   0.1250000  -0.1250000), wk =   0.0625000
        k(   36) = (  -0.3750000   0.6250000  -0.1250000), wk =   0.0000000
        k(   37) = (  -0.1250000   0.3750000  -0.1250000), wk =   0.0312500
        k(   38) = (  -0.1250000   0.8750000  -0.1250000), wk =   0.0000000
        k(   39) = (  -0.1250000  -0.3750000  -0.1250000), wk =   0.0312500
        k(   40) = (  -0.1250000   0.1250000  -0.1250000), wk =   0.0000000
        k(   41) = (  -0.1250000  -0.6250000   0.1250000), wk =   0.0312500
        k(   42) = (  -0.1250000  -0.1250000   0.1250000), wk =   0.0000000
        k(   43) = (   0.6250000  -0.1250000  -0.1250000), wk =   0.0625000
        k(   44) = (   0.6250000   0.3750000  -0.1250000), wk =   0.0000000
        k(   45) = (   0.6250000   0.1250000   0.1250000), wk =   0.0625000
        k(   46) = (   0.6250000   0.6250000   0.1250000), wk =   0.0000000
        k(   47) = (  -0.8750000   0.1250000  -0.6250000), wk =   0.0625000
        k(   48) = (  -0.8750000   0.6250000  -0.6250000), wk =   0.0000000
        k(   49) = (  -0.1250000   0.6250000  -0.8750000), wk =   0.0625000
        k(   50) = (  -0.1250000   1.1250000  -0.8750000), wk =   0.0000000
        k(   51) = (  -0.1250000   0.8750000  -0.6250000), wk =   0.0625000
        k(   52) = (  -0.1250000   1.3750000  -0.6250000), wk =   0.0000000
        k(   53) = (  -0.1250000  -0.8750000  -0.6250000), wk =   0.0625000
        k(   54) = (  -0.1250000  -0.3750000  -0.6250000), wk =   0.0000000
        k(   55) = (   0.8750000  -0.6250000   0.1250000), wk =   0.0625000
        k(   56) = (   0.8750000  -0.1250000   0.1250000), wk =   0.0000000
        k(   57) = (  -0.6250000  -0.1250000  -0.3750000), wk =   0.0625000
        k(   58) = (  -0.6250000   0.3750000  -0.3750000), wk =   0.0000000
        k(   59) = (   0.1250000   0.3750000  -0.6250000), wk =   0.0625000
        k(   60) = (   0.1250000   0.8750000  -0.6250000), wk =   0.0000000
        k(   61) = (   0.1250000   0.6250000  -0.3750000), wk =   0.0625000
        k(   62) = (   0.1250000   1.1250000  -0.3750000), wk =   0.0000000
        k(   63) = (   0.1250000  -0.6250000  -0.3750000), wk =   0.0625000
        k(   64) = (   0.1250000  -0.1250000  -0.3750000), wk =   0.0000000
        k(   65) = (   0.6250000  -0.3750000  -0.1250000), wk =   0.0625000
        k(   66) = (   0.6250000   0.1250000  -0.1250000), wk =   0.0000000
        k(   67) = (  -0.1250000   0.8750000   0.1250000), wk =   0.0312500
        k(   68) = (  -0.1250000   1.3750000   0.1250000), wk =   0.0000000
        k(   69) = (  -0.8750000  -0.1250000  -0.1250000), wk =   0.0625000
        k(   70) = (  -0.8750000   0.3750000  -0.1250000), wk =   0.0000000
        k(   71) = (  -0.8750000   0.1250000   0.1250000), wk =   0.0625000
        k(   72) = (  -0.8750000   0.6250000   0.1250000), wk =   0.0000000
        k(   73) = (  -0.3750000  -0.3750000   0.3750000), wk =   0.0312500
        k(   74) = (  -0.3750000   0.1250000   0.3750000), wk =   0.0000000
        k(   75) = (  -1.1250000   0.3750000  -0.3750000), wk =   0.0625000
        k(   76) = (  -1.1250000   0.8750000  -0.3750000), wk =   0.0000000
        k(   77) = (  -0.3750000   1.1250000  -0.3750000), wk =   0.0312500
        k(   78) = (  -0.3750000   1.6250000  -0.3750000), wk =   0.0000000
        k(   79) = (  -0.3750000  -1.1250000  -0.3750000), wk =   0.0312500
        k(   80) = (  -0.3750000  -0.6250000  -0.3750000), wk =   0.0000000

     Dense  grid:    17153 G-vectors     FFT dimensions: (  36,  36,  36)

     Smooth grid:     6081 G-vectors     FFT dimensions: (  25,  25,  25)

     Estimated max dynamical RAM per process >       1.51MB

     Estimated total allocated dynamical RAM >       6.06MB

     The potential is recalculated from file :
     ./_ph0/silicon.10.318.save/charge-density.dat

     Starting wfc are    8 atomic wfcs

     Band Structure Calculation
     Davidson diagonalization with overlap

     ethr =  1.25E-10,  avg # of iterations = 12.2

     total cpu time spent up to now is        3.5 secs

     End of band structure calculation

          k =-0.1250 0.1250 0.1250 (   764 PWs)   bands (ev):

    -5.6214   4.4322   5.7414   5.7414

          k =-0.1250 0.6250 0.1250 (   762 PWs)   bands (ev):

    -4.0567   1.1028   3.3979   3.8524

          k =-0.3750 0.3750-0.1250 (   767 PWs)   bands (ev):

    -4.5910   1.4331   3.7486   5.2602

          k =-0.3750 0.8750-0.1250 (   754 PWs)   bands (ev):

    -2.4100  -0.8647   2.0369   3.1180

          k = 0.3750-0.3750 0.6250 (   760 PWs)   bands (ev):

    -3.4460  -0.6535   3.7714   4.4856

          k = 0.3750 0.1250 0.6250 (   766 PWs)   bands (ev):

    -3.6392   0.2243   2.7545   4.1279

          k = 0.1250-0.1250 0.3750 (   766 PWs)   bands (ev):

    -5.0917   2.8144   4.7293   4.7957

          k = 0.1250 0.3750 0.3750 (   767 PWs)   bands (ev):

    -4.5910   1.4331   3.7486   5.2602

          k =-0.1250 0.6250 0.1250 (   762 PWs)   bands (ev):

    -4.0567   1.1028   3.3979   3.8524

          k =-0.1250 1.1250 0.1250 (   762 PWs)   bands (ev):

    -2.5794  -0.7665   2.6496   3.3840

          k = 0.6250-0.1250 0.8750 (   754 PWs)   bands (ev):

    -2.4100  -0.8647   2.0369   3.1180

          k = 0.6250 0.3750 0.8750 (   766 PWs)   bands (ev):

    -3.6392   0.2243   2.7545   4.1279

          k = 0.3750 0.1250 0.6250 (   766 PWs)   bands (ev):

    -3.6392   0.2243   2.7545   4.1279

          k = 0.3750 0.6250 0.6250 (   760 PWs)   bands (ev):

    -3.4460  -0.6535   3.7714   4.4856

          k =-0.1250-0.8750 0.1250 (   762 PWs)   bands (ev):

    -2.5794  -0.7665   2.6496   3.3840

          k =-0.1250-0.3750 0.1250 (   766 PWs)   bands (ev):

    -5.0917   2.8144   4.7293   4.7957

          k =-0.3750 0.3750 0.3750 (   763 PWs)   bands (ev):

    -4.1561   0.1369   4.9522   4.9522

          k =-0.3750 0.8750 0.3750 (   763 PWs)   bands (ev):

    -2.9487  -0.5644   2.0970   4.1673

          k = 0.3750-0.3750 1.1250 (   763 PWs)   bands (ev):

    -2.9487  -0.5644   2.0970   4.1673

          k = 0.3750 0.1250 1.1250 (   754 PWs)   bands (ev):

    -2.4100  -0.8647   2.0369   3.1180

          k =-0.1250-0.1250 0.1250 (   764 PWs)   bands (ev):

    -5.6214   4.4322   5.7414   5.7414

          k =-0.1250 0.3750 0.1250 (   766 PWs)   bands (ev):

    -5.0917   2.8144   4.7293   4.7957

          k = 0.1250-0.3750 0.3750 (   767 PWs)   bands (ev):

    -4.5910   1.4331   3.7486   5.2602

          k = 0.1250 0.1250 0.3750 (   766 PWs)   bands (ev):

    -5.0917   2.8144   4.7293   4.7957

          k = 0.3750-0.1250 0.3750 (   767 PWs)   bands (ev):

    -4.5910   1.4331   3.7486   5.2602

          k = 0.3750 0.3750 0.3750 (   763 PWs)   bands (ev):

    -4.1561   0.1369   4.9522   4.9522

          k = 0.3750 0.1250 0.3750 (   767 PWs)   bands (ev):

    -4.5910   1.4331   3.7486   5.2602

          k = 0.3750 0.6250 0.3750 (   760 PWs)   bands (ev):

    -3.4460  -0.6535   3.7714   4.4856

          k =-0.6250 0.3750-0.3750 (   760 PWs)   bands (ev):

    -3.4460  -0.6535   3.7714   4.4856

          k =-0.6250 0.8750-0.3750 (   766 PWs)   bands (ev):

    -3.6392   0.2243   2.7545   4.1279

          k =-0.3750 0.6250-0.3750 (   760 PWs)   bands (ev):

    -3.4460  -0.6535   3.7714   4.4856

          k =-0.3750 1.1250-0.3750 (   763 PWs)   bands (ev):

    -2.9487  -0.5644   2.0970   4.1673

          k =-0.3750-0.6250-0.3750 (   760 PWs)   bands (ev):

    -3.4460  -0.6535   3.7714   4.4856

          k =-0.3750-0.1250-0.3750 (   767 PWs)   bands (ev):

    -4.5910   1.4331   3.7486   5.2602

          k =-0.3750 0.1250-0.1250 (   766 PWs)   bands (ev):

    -5.0917   2.8144   4.7293   4.7957

          k =-0.3750 0.6250-0.1250 (   766 PWs)   bands (ev):

    -3.6392   0.2243   2.7545   4.1279

          k =-0.1250 0.3750-0.1250 (   766 PWs)   bands (ev):

    -5.0917   2.8144   4.7293   4.7957

          k =-0.1250 0.8750-0.1250 (   762 PWs)   bands (ev):

    -2.5794  -0.7665   2.6496   3.3840

          k =-0.1250-0.3750-0.1250 (   766 PWs)   bands (ev):

    -5.0917   2.8144   4.7293   4.7957

          k =-0.1250 0.1250-0.1250 (   764 PWs)   bands (ev):

    -5.6214   4.4322   5.7414   5.7414

          k =-0.1250-0.6250 0.1250 (   762 PWs)   bands (ev):

    -4.0567   1.1028   3.3979   3.8524

          k =-0.1250-0.1250 0.1250 (   764 PWs)   bands (ev):

    -5.6214   4.4322   5.7414   5.7414

          k = 0.6250-0.1250-0.1250 (   762 PWs)   bands (ev):

    -4.0567   1.1028   3.3979   3.8524

          k = 0.6250 0.3750-0.1250 (   766 PWs)   bands (ev):

    -3.6392   0.2243   2.7545   4.1279

          k = 0.6250 0.1250 0.1250 (   762 PWs)   bands (ev):

    -4.0567   1.1028   3.3979   3.8524

          k = 0.6250 0.6250 0.1250 (   763 PWs)   bands (ev):

    -2.9487  -0.5644   2.0970   4.1673

          k =-0.8750 0.1250-0.6250 (   754 PWs)   bands (ev):

    -2.4100  -0.8647   2.0369   3.1180

          k =-0.8750 0.6250-0.6250 (   767 PWs)   bands (ev):

    -4.5910   1.4331   3.7486   5.2602

          k =-0.1250 0.6250-0.8750 (   754 PWs)   bands (ev):

    -2.4100  -0.8647   2.0369   3.1180

          k =-0.1250 1.1250-0.8750 (   762 PWs)   bands (ev):

    -2.5794  -0.7665   2.6496   3.3840

          k =-0.1250 0.8750-0.6250 (   754 PWs)   bands (ev):

    -2.4100  -0.8647   2.0369   3.1180

          k =-0.1250 1.3750-0.6250 (   763 PWs)   bands (ev):

    -2.9487  -0.5644   2.0970   4.1673

          k =-0.1250-0.8750-0.6250 (   754 PWs)   bands (ev):

    -2.4100  -0.8647   2.0369   3.1180

          k =-0.1250-0.3750-0.6250 (   766 PWs)   bands (ev):

    -3.6392   0.2243   2.7545   4.1279

          k = 0.8750-0.6250 0.1250 (   754 PWs)   bands (ev):

    -2.4100  -0.8647   2.0369   3.1180

          k = 0.8750-0.1250 0.1250 (   762 PWs)   bands (ev):

    -2.5794  -0.7665   2.6496   3.3840

          k =-0.6250-0.1250-0.3750 (   766 PWs)   bands (ev):

    -3.6392   0.2243   2.7545   4.1279

          k =-0.6250 0.3750-0.3750 (   760 PWs)   bands (ev):

    -3.4460  -0.6535   3.7714   4.4856

          k = 0.1250 0.3750-0.6250 (   766 PWs)   bands (ev):

    -3.6392   0.2243   2.7545   4.1279

          k = 0.1250 0.8750-0.6250 (   754 PWs)   bands (ev):

    -2.4100  -0.8647   2.0369   3.1180

          k = 0.1250 0.6250-0.3750 (   766 PWs)   bands (ev):

    -3.6392   0.2243   2.7545   4.1279

          k = 0.1250 1.1250-0.3750 (   754 PWs)   bands (ev):

    -2.4100  -0.8647   2.0369   3.1180

          k = 0.1250-0.6250-0.3750 (   766 PWs)   bands (ev):

    -3.6392   0.2243   2.7545   4.1279

          k = 0.1250-0.1250-0.3750 (   766 PWs)   bands (ev):

    -5.0917   2.8144   4.7293   4.7957

          k = 0.6250-0.3750-0.1250 (   766 PWs)   bands (ev):

    -3.6392   0.2243   2.7545   4.1279

          k = 0.6250 0.1250-0.1250 (   762 PWs)   bands (ev):

    -4.0567   1.1028   3.3979   3.8524

          k =-0.1250 0.8750 0.1250 (   762 PWs)   bands (ev):

    -2.5794  -0.7665   2.6496   3.3840

          k =-0.1250 1.3750 0.1250 (   762 PWs)   bands (ev):

    -4.0567   1.1028   3.3979   3.8524

          k =-0.8750-0.1250-0.1250 (   762 PWs)   bands (ev):

    -2.5794  -0.7665   2.6496   3.3840

          k =-0.8750 0.3750-0.1250 (   754 PWs)   bands (ev):

    -2.4100  -0.8647   2.0369   3.1180

          k =-0.8750 0.1250 0.1250 (   762 PWs)   bands (ev):

    -2.5794  -0.7665   2.6496   3.3840

          k =-0.8750 0.6250 0.1250 (   754 PWs)   bands (ev):

    -2.4100  -0.8647   2.0369   3.1180

          k =-0.3750-0.3750 0.3750 (   763 PWs)   bands (ev):

    -4.1561   0.1369   4.9522   4.9522

          k =-0.3750 0.1250 0.3750 (   767 PWs)   bands (ev):

    -4.5910   1.4331   3.7486   5.2602

          k =-1.1250 0.3750-0.3750 (   763 PWs)   bands (ev):

    -2.9487  -0.5644   2.0970   4.1673

          k =-1.1250 0.8750-0.3750 (   762 PWs)   bands (ev):

    -4.0567   1.1028   3.3979   3.8524

          k =-0.3750 1.1250-0.3750 (   763 PWs)   bands (ev):

    -2.9487  -0.5644   2.0970   4.1673

          k =-0.3750 1.6250-0.3750 (   763 PWs)   bands (ev):

    -4.1561   0.1369   4.9522   4.9522

          k =-0.3750-1.1250-0.3750 (   763 PWs)   bands (ev):

    -2.9487  -0.5644   2.0970   4.1673

          k =-0.3750-0.6250-0.3750 (   760 PWs)   bands (ev):

    -3.4460  -0.6535   3.7714   4.4856

     highest occupied level (ev):     5.7414

     Writing output data file silicon.10.318.save

                                                                                

     bravais-lattice index     =            2
     lattice parameter (alat)  =      10.3180  a.u.
     unit-cell volume          =     274.6165 (a.u.)^3
     number of atoms/cell      =            2
     number of atomic types    =            1
     kinetic-energy cut-off    =      30.0000  Ry
     charge density cut-off    =     240.0000  Ry
     convergence threshold     =      1.0E-12
     beta                      =       0.7000
     number of iterations used =            4
     Exchange-correlation      = SLA  PW   PBE  PBE ( 1  4  3  4 0 0)


     celldm(1)=   10.31800  celldm(2)=    0.00000  celldm(3)=    0.00000
     celldm(4)=    0.00000  celldm(5)=    0.00000  celldm(6)=    0.00000

     crystal axes: (cart. coord. in units of alat)
               a(1) = ( -0.5000  0.0000  0.5000 )  
               a(2) = (  0.0000  0.5000  0.5000 )  
               a(3) = ( -0.5000  0.5000  0.0000 )  

     reciprocal axes: (cart. coord. in units 2 pi/alat)
               b(1) = ( -1.0000 -1.0000  1.0000 )  
               b(2) = (  1.0000  1.0000  1.0000 )  
               b(3) = ( -1.0000  1.0000 -1.0000 )  


     Atoms inside the unit cell: 

     Cartesian axes

     site n.  atom      mass           positions (alat units)
        1     Si  28.0860   tau(    1) = (    0.00000    0.00000    0.00000  )
        2     Si  28.0860   tau(    2) = (    0.25000    0.25000    0.25000  )

     Computing dynamical matrix for 
                    q = (   0.0000000   0.5000000   0.0000000 )

      8 Sym.Ops. (no q -> -q+G )


     G cutoff =  647.2060  (   4288 G-vectors)     FFT grid: ( 36, 36, 36)
     G cutoff =  323.6030  (   1520 G-vectors)  smooth grid: ( 25, 25, 25)
     number of k points=    80

     PseudoPot. # 1 for Si read from file:
     /home/s1333534/quantum_espresso/qe-6.1/pseudo/si_pbe_v1.uspp.F.UPF.txt
     MD5 check sum: a056efeee980c13900f22a371efd63c1
     Pseudo is Ultrasoft + core correction, Zval =  4.0
     Generated by new atomic code, or converted to UPF format
     Using radial grid of  899 points,  6 beta functions with: 
                l(1) =   0
                l(2) =   0
                l(3) =   1
                l(4) =   1
                l(5) =   2
                l(6) =   2
     Q(r) pseudized with  8 coefficients,  rinner =    0.900   0.900   0.900
                                                       0.900   0.900

     Mode symmetry, C_4v (4mm)  point group:


     Atomic displacements:
     There are   4 irreducible representations

     Representation     1      1 modes -A_1  G_1 D_1  To be done

     Representation     2      1 modes -B_2  G_4 D_2'  To be done

     Representation     3      2 modes -E    G_5 D_5  To be done

     Representation     4      2 modes -E    G_5 D_5  To be done



     Alpha used in Ewald sum =   2.5000
     PHONON       :    37.33s CPU        47.66s WALL



     Representation #  1 mode #   1

     Self-consistent Calculation

      iter #   1 total cpu time :    48.0 secs   av.it.:   6.2
      thresh= 1.000E-02 alpha_mix =  0.700 |ddv_scf|^2 =  5.148E-04

      iter #   2 total cpu time :    48.5 secs   av.it.:   9.2
      thresh= 2.269E-03 alpha_mix =  0.700 |ddv_scf|^2 =  6.820E-03

      iter #   3 total cpu time :    48.9 secs   av.it.:   7.3
      thresh= 8.258E-03 alpha_mix =  0.700 |ddv_scf|^2 =  1.026E-08

      iter #   4 total cpu time :    49.3 secs   av.it.:  10.2
      thresh= 1.013E-05 alpha_mix =  0.700 |ddv_scf|^2 =  1.026E-09

      iter #   5 total cpu time :    49.8 secs   av.it.:   9.6
      thresh= 3.204E-06 alpha_mix =  0.700 |ddv_scf|^2 =  1.150E-10

      iter #   6 total cpu time :    50.2 secs   av.it.:   9.3
      thresh= 1.073E-06 alpha_mix =  0.700 |ddv_scf|^2 =  2.989E-13

     End of self-consistent calculation

     Convergence has been achieved 


     Representation #  2 mode #   2

     Self-consistent Calculation

      iter #   1 total cpu time :    50.6 secs   av.it.:   5.1
      thresh= 1.000E-02 alpha_mix =  0.700 |ddv_scf|^2 =  8.120E-07

      iter #   2 total cpu time :    51.1 secs   av.it.:  10.4
      thresh= 9.011E-05 alpha_mix =  0.700 |ddv_scf|^2 =  2.211E-07

      iter #   3 total cpu time :    51.6 secs   av.it.:   9.9
      thresh= 4.702E-05 alpha_mix =  0.700 |ddv_scf|^2 =  2.249E-09

      iter #   4 total cpu time :    52.1 secs   av.it.:  10.1
      thresh= 4.743E-06 alpha_mix =  0.700 |ddv_scf|^2 =  8.750E-11

      iter #   5 total cpu time :    52.5 secs   av.it.:  10.3
      thresh= 9.354E-07 alpha_mix =  0.700 |ddv_scf|^2 =  5.217E-13

     End of self-consistent calculation

     Convergence has been achieved 


     Representation #  3 modes #   3  4

     Self-consistent Calculation

      iter #   1 total cpu time :    53.2 secs   av.it.:   5.2
      thresh= 1.000E-02 alpha_mix =  0.700 |ddv_scf|^2 =  1.440E-07

      iter #   2 total cpu time :    54.1 secs   av.it.:  11.5
      thresh= 3.794E-05 alpha_mix =  0.700 |ddv_scf|^2 =  1.985E-08

      iter #   3 total cpu time :    55.1 secs   av.it.:  11.1
      thresh= 1.409E-05 alpha_mix =  0.700 |ddv_scf|^2 =  3.342E-10

      iter #   4 total cpu time :    55.9 secs   av.it.:  10.7
      thresh= 1.828E-06 alpha_mix =  0.700 |ddv_scf|^2 =  7.829E-13

     End of self-consistent calculation

     Convergence has been achieved 


     Representation #  4 modes #   5  6

     Self-consistent Calculation

      iter #   1 total cpu time :    56.7 secs   av.it.:   5.3
      thresh= 1.000E-02 alpha_mix =  0.700 |ddv_scf|^2 =  1.320E-07

      iter #   2 total cpu time :    57.6 secs   av.it.:  11.4
      thresh= 3.633E-05 alpha_mix =  0.700 |ddv_scf|^2 =  1.771E-08

      iter #   3 total cpu time :    58.7 secs   av.it.:  11.2
      thresh= 1.331E-05 alpha_mix =  0.700 |ddv_scf|^2 =  3.423E-10

      iter #   4 total cpu time :    59.6 secs   av.it.:  11.0
      thresh= 1.850E-06 alpha_mix =  0.700 |ddv_scf|^2 =  8.435E-13

     End of self-consistent calculation

     Convergence has been achieved 

     Number of q in the star =    6
     List of q in the star:
          1   0.000000000   0.500000000   0.000000000
          2   0.000000000  -0.500000000   0.000000000
          3   0.500000000   0.000000000   0.000000000
          4   0.000000000   0.000000000   0.500000000
          5   0.000000000   0.000000000  -0.500000000
          6  -0.500000000   0.000000000   0.000000000

     Diagonalizing the dynamical matrix

     q = (    0.000000000   0.500000000   0.000000000 ) 

 **************************************************************************
     freq (    1) =       3.759766 [THz] =     125.412289 [cm-1]
     freq (    2) =       3.759766 [THz] =     125.412289 [cm-1]
     freq (    3) =       7.092522 [THz] =     236.581061 [cm-1]
     freq (    4) =      13.900599 [THz] =     463.674076 [cm-1]
     freq (    5) =      13.900599 [THz] =     463.674076 [cm-1]
     freq (    6) =      14.520083 [THz] =     484.337834 [cm-1]
 **************************************************************************

     Mode symmetry, C_4v (4mm)  point group:

     freq (  1 -  2) =        125.4  [cm-1]   --> E    G_5 D_5       
     freq (  3 -  3) =        236.6  [cm-1]   --> A_1  G_1 D_1       
     freq (  4 -  5) =        463.7  [cm-1]   --> E    G_5 D_5       
     freq (  6 -  6) =        484.3  [cm-1]   --> B_2  G_4 D_2'      

     Calculation of q =    0.7500000  -0.2500000   0.7500000

   Info: using nr1, nr2, nr3 values from input

   Info: using nr1, nr2, nr3 values from input

     Parallelization info
     --------------------
     sticks:   dense  smooth     PW     G-vecs:    dense   smooth      PW
     Min         217     109     40                 4288     1520     362
     Max         219     111     41                 4289     1521     366
     Sum         871     439    163                17153     6081    1459



     bravais-lattice index     =            2
     lattice parameter (alat)  =      10.3180  a.u.
     unit-cell volume          =     274.6165 (a.u.)^3
     number of atoms/cell      =            2
     number of atomic types    =            1
     number of electrons       =         8.00
     number of Kohn-Sham states=            4
     kinetic-energy cutoff     =      30.0000  Ry
     charge density cutoff     =     240.0000  Ry
     Exchange-correlation      = SLA  PW   PBE  PBE ( 1  4  3  4 0 0)

     celldm(1)=  10.318000  celldm(2)=   0.000000  celldm(3)=   0.000000
     celldm(4)=   0.000000  celldm(5)=   0.000000  celldm(6)=   0.000000

     crystal axes: (cart. coord. in units of alat)
               a(1) = (  -0.500000   0.000000   0.500000 )  
               a(2) = (   0.000000   0.500000   0.500000 )  
               a(3) = (  -0.500000   0.500000   0.000000 )  

     reciprocal axes: (cart. coord. in units 2 pi/alat)
               b(1) = ( -1.000000 -1.000000  1.000000 )  
               b(2) = (  1.000000  1.000000  1.000000 )  
               b(3) = ( -1.000000  1.000000 -1.000000 )  


     PseudoPot. # 1 for Si read from file:
     /home/s1333534/quantum_espresso/qe-6.1/pseudo/si_pbe_v1.uspp.F.UPF.txt
     MD5 check sum: a056efeee980c13900f22a371efd63c1
     Pseudo is Ultrasoft + core correction, Zval =  4.0
     Generated by new atomic code, or converted to UPF format
     Using radial grid of  899 points,  6 beta functions with: 
                l(1) =   0
                l(2) =   0
                l(3) =   1
                l(4) =   1
                l(5) =   2
                l(6) =   2
     Q(r) pseudized with  8 coefficients,  rinner =    0.900   0.900   0.900
                                                       0.900   0.900

     atomic species   valence    mass     pseudopotential
        Si             4.00    28.08600     Si( 1.00)

     48 Sym. Ops., with inversion, found



   Cartesian axes

     site n.     atom                  positions (alat units)
         1           Si  tau(   1) = (   0.0000000   0.0000000   0.0000000  )
         2           Si  tau(   2) = (   0.2500000   0.2500000   0.2500000  )

     number of k points=   288

     Number of k-points >= 100: set verbosity='high' to print them.

     Dense  grid:    17153 G-vectors     FFT dimensions: (  36,  36,  36)

     Smooth grid:     6081 G-vectors     FFT dimensions: (  25,  25,  25)

     Estimated max dynamical RAM per process >       1.51MB

     Estimated total allocated dynamical RAM >       6.06MB

     The potential is recalculated from file :
     ./_ph0/silicon.10.318.save/charge-density.dat

     Starting wfc are    8 atomic wfcs

     Band Structure Calculation
     Davidson diagonalization with overlap

     ethr =  1.25E-10,  avg # of iterations = 12.1

     total cpu time spent up to now is        6.7 secs

     End of band structure calculation

     Number of k-points >= 100: set verbosity='high' to print the bands.

     highest occupied level (ev):     5.7414

     Writing output data file silicon.10.318.save

                                                                                

     bravais-lattice index     =            2
     lattice parameter (alat)  =      10.3180  a.u.
     unit-cell volume          =     274.6165 (a.u.)^3
     number of atoms/cell      =            2
     number of atomic types    =            1
     kinetic-energy cut-off    =      30.0000  Ry
     charge density cut-off    =     240.0000  Ry
     convergence threshold     =      1.0E-12
     beta                      =       0.7000
     number of iterations used =            4
     Exchange-correlation      = SLA  PW   PBE  PBE ( 1  4  3  4 0 0)


     celldm(1)=   10.31800  celldm(2)=    0.00000  celldm(3)=    0.00000
     celldm(4)=    0.00000  celldm(5)=    0.00000  celldm(6)=    0.00000

     crystal axes: (cart. coord. in units of alat)
               a(1) = ( -0.5000  0.0000  0.5000 )  
               a(2) = (  0.0000  0.5000  0.5000 )  
               a(3) = ( -0.5000  0.5000  0.0000 )  

     reciprocal axes: (cart. coord. in units 2 pi/alat)
               b(1) = ( -1.0000 -1.0000  1.0000 )  
               b(2) = (  1.0000  1.0000  1.0000 )  
               b(3) = ( -1.0000  1.0000 -1.0000 )  


     Atoms inside the unit cell: 

     Cartesian axes

     site n.  atom      mass           positions (alat units)
        1     Si  28.0860   tau(    1) = (    0.00000    0.00000    0.00000  )
        2     Si  28.0860   tau(    2) = (    0.25000    0.25000    0.25000  )

     Computing dynamical matrix for 
                    q = (   0.7500000  -0.2500000   0.7500000 )

      2 Sym.Ops. (no q -> -q+G )


     G cutoff =  647.2060  (   4288 G-vectors)     FFT grid: ( 36, 36, 36)
     G cutoff =  323.6030  (   1520 G-vectors)  smooth grid: ( 25, 25, 25)
     number of k points=   288

     PseudoPot. # 1 for Si read from file:
     /home/s1333534/quantum_espresso/qe-6.1/pseudo/si_pbe_v1.uspp.F.UPF.txt
     MD5 check sum: a056efeee980c13900f22a371efd63c1
     Pseudo is Ultrasoft + core correction, Zval =  4.0
     Generated by new atomic code, or converted to UPF format
     Using radial grid of  899 points,  6 beta functions with: 
                l(1) =   0
                l(2) =   0
                l(3) =   1
                l(4) =   1
                l(5) =   2
                l(6) =   2
     Q(r) pseudized with  8 coefficients,  rinner =    0.900   0.900   0.900
                                                       0.900   0.900

     Mode symmetry, C_s (m)     point group:


     Atomic displacements:
     There are   6 irreducible representations

     Representation     1      1 modes -A'  To be done

     Representation     2      1 modes -A'  To be done

     Representation     3      1 modes -A'  To be done

     Representation     4      1 modes -A'  To be done

     Representation     5      1 modes -A''  To be done

     Representation     6      1 modes -A''  To be done



     Alpha used in Ewald sum =   2.5000
     PHONON       :  0m51.21s CPU     1m 4.82s WALL



     Representation #  1 mode #   1

     Self-consistent Calculation

      iter #   1 total cpu time :    65.7 secs   av.it.:   5.6
      thresh= 1.000E-02 alpha_mix =  0.700 |ddv_scf|^2 =  1.050E-05

      iter #   2 total cpu time :    67.4 secs   av.it.:  10.6
      thresh= 3.240E-04 alpha_mix =  0.700 |ddv_scf|^2 =  2.798E-05

      iter #   3 total cpu time :    68.6 secs   av.it.:   9.2
      thresh= 5.289E-04 alpha_mix =  0.700 |ddv_scf|^2 =  1.878E-07

      iter #   4 total cpu time :    70.0 secs   av.it.:  10.0
      thresh= 4.333E-05 alpha_mix =  0.700 |ddv_scf|^2 =  3.712E-09

      iter #   5 total cpu time :    71.3 secs   av.it.:  10.5
      thresh= 6.093E-06 alpha_mix =  0.700 |ddv_scf|^2 =  6.394E-10

      iter #   6 total cpu time :    72.7 secs   av.it.:  10.4
      thresh= 2.529E-06 alpha_mix =  0.700 |ddv_scf|^2 =  9.620E-12

      iter #   7 total cpu time :    74.0 secs   av.it.:  10.6
      thresh= 3.102E-07 alpha_mix =  0.700 |ddv_scf|^2 =  3.612E-13

     End of self-consistent calculation

     Convergence has been achieved 


     Representation #  2 mode #   2

     Self-consistent Calculation

      iter #   1 total cpu time :    75.0 secs   av.it.:   5.8
      thresh= 1.000E-02 alpha_mix =  0.700 |ddv_scf|^2 =  1.881E-05

      iter #   2 total cpu time :    76.3 secs   av.it.:  10.4
      thresh= 4.337E-04 alpha_mix =  0.700 |ddv_scf|^2 =  5.445E-05

      iter #   3 total cpu time :    77.5 secs   av.it.:   9.0
      thresh= 7.379E-04 alpha_mix =  0.700 |ddv_scf|^2 =  1.262E-07

      iter #   4 total cpu time :    78.8 secs   av.it.:  10.2
      thresh= 3.552E-05 alpha_mix =  0.700 |ddv_scf|^2 =  4.194E-09

      iter #   5 total cpu time :    80.1 secs   av.it.:  10.4
      thresh= 6.476E-06 alpha_mix =  0.700 |ddv_scf|^2 =  8.549E-10

      iter #   6 total cpu time :    81.3 secs   av.it.:  10.3
      thresh= 2.924E-06 alpha_mix =  0.700 |ddv_scf|^2 =  8.832E-12

      iter #   7 total cpu time :    82.6 secs   av.it.:  10.6
      thresh= 2.972E-07 alpha_mix =  0.700 |ddv_scf|^2 =  3.105E-13

     End of self-consistent calculation

     Convergence has been achieved 


     Representation #  3 mode #   3

     Self-consistent Calculation

      iter #   1 total cpu time :    83.6 secs   av.it.:   5.7
      thresh= 1.000E-02 alpha_mix =  0.700 |ddv_scf|^2 =  1.474E-05

      iter #   2 total cpu time :    85.0 secs   av.it.:  10.4
      thresh= 3.839E-04 alpha_mix =  0.700 |ddv_scf|^2 =  4.008E-05

      iter #   3 total cpu time :    86.2 secs   av.it.:   9.0
      thresh= 6.331E-04 alpha_mix =  0.700 |ddv_scf|^2 =  2.204E-07

      iter #   4 total cpu time :    87.5 secs   av.it.:  10.0
      thresh= 4.694E-05 alpha_mix =  0.700 |ddv_scf|^2 =  4.276E-09

      iter #   5 total cpu time :    88.8 secs   av.it.:  10.4
      thresh= 6.539E-06 alpha_mix =  0.700 |ddv_scf|^2 =  8.341E-10

      iter #   6 total cpu time :    90.1 secs   av.it.:  10.3
      thresh= 2.888E-06 alpha_mix =  0.700 |ddv_scf|^2 =  6.181E-12

      iter #   7 total cpu time :    91.4 secs   av.it.:  10.5
      thresh= 2.486E-07 alpha_mix =  0.700 |ddv_scf|^2 =  1.799E-13

     End of self-consistent calculation

     Convergence has been achieved 


     Representation #  4 mode #   4

     Self-consistent Calculation

      iter #   1 total cpu time :    92.5 secs   av.it.:   5.5
      thresh= 1.000E-02 alpha_mix =  0.700 |ddv_scf|^2 =  6.423E-06

      iter #   2 total cpu time :    93.8 secs   av.it.:  10.7
      thresh= 2.534E-04 alpha_mix =  0.700 |ddv_scf|^2 =  1.359E-05

      iter #   3 total cpu time :    95.0 secs   av.it.:   9.4
      thresh= 3.687E-04 alpha_mix =  0.700 |ddv_scf|^2 =  2.943E-07

      iter #   4 total cpu time :    96.3 secs   av.it.:   9.8
      thresh= 5.425E-05 alpha_mix =  0.700 |ddv_scf|^2 =  3.662E-09

      iter #   5 total cpu time :    97.6 secs   av.it.:  10.5
      thresh= 6.052E-06 alpha_mix =  0.700 |ddv_scf|^2 =  6.851E-10

      iter #   6 total cpu time :    99.0 secs   av.it.:  10.4
      thresh= 2.617E-06 alpha_mix =  0.700 |ddv_scf|^2 =  4.061E-12

      iter #   7 total cpu time :   101.1 secs   av.it.:  10.7
      thresh= 2.015E-07 alpha_mix =  0.700 |ddv_scf|^2 =  1.832E-13

     End of self-consistent calculation

     Convergence has been achieved 


     Representation #  5 mode #   5

     Self-consistent Calculation

      iter #   1 total cpu time :   102.1 secs   av.it.:   5.2
      thresh= 1.000E-02 alpha_mix =  0.700 |ddv_scf|^2 =  6.656E-07

      iter #   2 total cpu time :   103.5 secs   av.it.:  10.4
      thresh= 8.158E-05 alpha_mix =  0.700 |ddv_scf|^2 =  1.085E-07

      iter #   3 total cpu time :   104.8 secs   av.it.:  10.1
      thresh= 3.294E-05 alpha_mix =  0.700 |ddv_scf|^2 =  1.448E-09

      iter #   4 total cpu time :   106.1 secs   av.it.:   9.6
      thresh= 3.805E-06 alpha_mix =  0.700 |ddv_scf|^2 =  3.380E-12

      iter #   5 total cpu time :   107.3 secs   av.it.:  10.0
      thresh= 1.838E-07 alpha_mix =  0.700 |ddv_scf|^2 =  9.457E-14

     End of self-consistent calculation

     Convergence has been achieved 


     Representation #  6 mode #   6

     Self-consistent Calculation

      iter #   1 total cpu time :   108.3 secs   av.it.:   5.2
      thresh= 1.000E-02 alpha_mix =  0.700 |ddv_scf|^2 =  6.656E-07

      iter #   2 total cpu time :   109.6 secs   av.it.:  10.4
[...]
        k(   59) = (  -0.8750000   0.1250000  -0.1250000), wk =   0.0625000
        k(   60) = (  -1.3750000  -0.8750000  -0.1250000), wk =   0.0000000
        k(   61) = (  -1.1250000   0.3750000  -0.3750000), wk =   0.0625000
        k(   62) = (  -1.6250000  -0.6250000  -0.3750000), wk =   0.0000000
        k(   63) = (  -0.3750000   0.3750000   1.1250000), wk =   0.0625000
        k(   64) = (  -0.8750000  -0.6250000   1.1250000), wk =   0.0000000

     Dense  grid:    17153 G-vectors     FFT dimensions: (  36,  36,  36)

     Smooth grid:     6081 G-vectors     FFT dimensions: (  25,  25,  25)

     Estimated max dynamical RAM per process >       1.51MB

     Estimated total allocated dynamical RAM >       6.06MB

     The potential is recalculated from file :
     ./_ph0/silicon.10.318.save/charge-density.dat

     Starting wfc are    8 atomic wfcs

     Band Structure Calculation
     Davidson diagonalization with overlap

     ethr =  1.25E-10,  avg # of iterations = 12.1

     total cpu time spent up to now is       10.6 secs

     End of band structure calculation

          k =-0.1250 0.1250 0.1250 (   764 PWs)   bands (ev):

    -5.6214   4.4322   5.7414   5.7414

          k =-0.6250-0.8750 0.1250 (   754 PWs)   bands (ev):

    -2.4100  -0.8647   2.0369   3.1180

          k =-0.3750 0.3750-0.1250 (   767 PWs)   bands (ev):

    -4.5910   1.4331   3.7486   5.2602

          k =-0.8750-0.6250-0.1250 (   754 PWs)   bands (ev):

    -2.4100  -0.8647   2.0369   3.1180

          k = 0.3750-0.3750 0.6250 (   760 PWs)   bands (ev):

    -3.4460  -0.6535   3.7714   4.4856

          k =-0.1250-1.3750 0.6250 (   763 PWs)   bands (ev):

    -2.9487  -0.5644   2.0970   4.1673

          k = 0.1250-0.1250 0.3750 (   766 PWs)   bands (ev):

    -5.0917   2.8144   4.7293   4.7957

          k =-0.3750-1.1250 0.3750 (   763 PWs)   bands (ev):

    -2.9487  -0.5644   2.0970   4.1673

          k =-0.1250 0.6250 0.1250 (   762 PWs)   bands (ev):

    -4.0567   1.1028   3.3979   3.8524

          k =-0.6250-0.3750 0.1250 (   766 PWs)   bands (ev):

    -3.6392   0.2243   2.7545   4.1279

          k = 0.6250-0.1250 0.8750 (   754 PWs)   bands (ev):

    -2.4100  -0.8647   2.0369   3.1180

          k = 0.1250-1.1250 0.8750 (   762 PWs)   bands (ev):

    -2.5794  -0.7665   2.6496   3.3840

          k = 0.3750 0.1250 0.6250 (   766 PWs)   bands (ev):

    -3.6392   0.2243   2.7545   4.1279

          k =-0.1250-0.8750 0.6250 (   754 PWs)   bands (ev):

    -2.4100  -0.8647   2.0369   3.1180

          k =-0.1250-0.8750 0.1250 (   762 PWs)   bands (ev):

    -2.5794  -0.7665   2.6496   3.3840

          k =-0.6250-1.8750 0.1250 (   762 PWs)   bands (ev):

    -4.0567   1.1028   3.3979   3.8524

          k =-0.3750 0.3750 0.3750 (   763 PWs)   bands (ev):

    -4.1561   0.1369   4.9522   4.9522

          k =-0.8750-0.6250 0.3750 (   766 PWs)   bands (ev):

    -3.6392   0.2243   2.7545   4.1279

          k = 0.3750-0.3750 1.1250 (   763 PWs)   bands (ev):

    -2.9487  -0.5644   2.0970   4.1673

          k =-0.1250-1.3750 1.1250 (   754 PWs)   bands (ev):

    -2.4100  -0.8647   2.0369   3.1180

          k = 0.1250-0.3750 0.3750 (   767 PWs)   bands (ev):

    -4.5910   1.4331   3.7486   5.2602

          k =-0.3750-1.3750 0.3750 (   760 PWs)   bands (ev):

    -3.4460  -0.6535   3.7714   4.4856

          k = 0.3750-0.3750-0.1250 (   767 PWs)   bands (ev):

    -4.5910   1.4331   3.7486   5.2602

          k =-0.1250-1.3750-0.1250 (   762 PWs)   bands (ev):

    -4.0567   1.1028   3.3979   3.8524

          k =-0.6250 0.3750-0.3750 (   760 PWs)   bands (ev):

    -3.4460  -0.6535   3.7714   4.4856

          k =-1.1250-0.6250-0.3750 (   766 PWs)   bands (ev):

    -3.6392   0.2243   2.7545   4.1279

          k =-0.3750 0.3750 0.6250 (   760 PWs)   bands (ev):

    -3.4460  -0.6535   3.7714   4.4856

          k =-0.8750-0.6250 0.6250 (   767 PWs)   bands (ev):

    -4.5910   1.4331   3.7486   5.2602

          k =-0.3750 0.1250-0.1250 (   766 PWs)   bands (ev):

    -5.0917   2.8144   4.7293   4.7957

          k =-0.8750-0.8750-0.1250 (   762 PWs)   bands (ev):

    -2.5794  -0.7665   2.6496   3.3840

          k =-0.1250 0.1250 0.3750 (   766 PWs)   bands (ev):

    -5.0917   2.8144   4.7293   4.7957

          k =-0.6250-0.8750 0.3750 (   766 PWs)   bands (ev):

    -3.6392   0.2243   2.7545   4.1279

          k = 0.1250 0.6250-0.1250 (   762 PWs)   bands (ev):

    -4.0567   1.1028   3.3979   3.8524

          k =-0.3750-0.3750-0.1250 (   767 PWs)   bands (ev):

    -4.5910   1.4331   3.7486   5.2602

          k = 0.6250 0.1250-0.1250 (   762 PWs)   bands (ev):

    -4.0567   1.1028   3.3979   3.8524

          k = 0.1250-0.8750-0.1250 (   762 PWs)   bands (ev):

    -2.5794  -0.7665   2.6496   3.3840

          k =-0.8750 0.1250-0.6250 (   754 PWs)   bands (ev):

    -2.4100  -0.8647   2.0369   3.1180

          k =-1.3750-0.8750-0.6250 (   767 PWs)   bands (ev):

    -4.5910   1.4331   3.7486   5.2602

          k = 0.8750-0.1250 0.6250 (   754 PWs)   bands (ev):

    -2.4100  -0.8647   2.0369   3.1180

          k = 0.3750-1.1250 0.6250 (   766 PWs)   bands (ev):

    -3.6392   0.2243   2.7545   4.1279

          k =-0.6250 0.1250 0.8750 (   754 PWs)   bands (ev):

    -2.4100  -0.8647   2.0369   3.1180

          k =-1.1250-0.8750 0.8750 (   764 PWs)   bands (ev):

    -5.6214   4.4322   5.7414   5.7414

          k =-0.1250 0.8750 0.6250 (   754 PWs)   bands (ev):

    -2.4100  -0.8647   2.0369   3.1180

          k =-0.6250-0.1250 0.6250 (   763 PWs)   bands (ev):

    -2.9487  -0.5644   2.0970   4.1673

          k = 0.1250 0.8750-0.6250 (   754 PWs)   bands (ev):

    -2.4100  -0.8647   2.0369   3.1180

          k =-0.3750-0.1250-0.6250 (   766 PWs)   bands (ev):

    -3.6392   0.2243   2.7545   4.1279

          k =-0.6250-0.1250-0.3750 (   766 PWs)   bands (ev):

    -3.6392   0.2243   2.7545   4.1279

          k =-1.1250-1.1250-0.3750 (   762 PWs)   bands (ev):

    -4.0567   1.1028   3.3979   3.8524

          k = 0.6250 0.1250 0.3750 (   766 PWs)   bands (ev):

    -3.6392   0.2243   2.7545   4.1279

          k = 0.1250-0.8750 0.3750 (   754 PWs)   bands (ev):

    -2.4100  -0.8647   2.0369   3.1180

          k =-0.3750-0.1250 0.6250 (   766 PWs)   bands (ev):

    -3.6392   0.2243   2.7545   4.1279

          k =-0.8750-1.1250 0.6250 (   766 PWs)   bands (ev):

    -5.0917   2.8144   4.7293   4.7957

          k = 0.1250 0.6250 0.3750 (   766 PWs)   bands (ev):

    -3.6392   0.2243   2.7545   4.1279

          k =-0.3750-0.3750 0.3750 (   763 PWs)   bands (ev):

    -4.1561   0.1369   4.9522   4.9522

          k =-0.1250 0.6250-0.3750 (   766 PWs)   bands (ev):

    -3.6392   0.2243   2.7545   4.1279

          k =-0.6250-0.3750-0.3750 (   760 PWs)   bands (ev):

    -3.4460  -0.6535   3.7714   4.4856

          k = 0.1250-0.8750-0.1250 (   762 PWs)   bands (ev):

    -2.5794  -0.7665   2.6496   3.3840

          k =-0.3750-1.8750-0.1250 (   766 PWs)   bands (ev):

    -5.0917   2.8144   4.7293   4.7957

          k =-0.8750 0.1250-0.1250 (   762 PWs)   bands (ev):

    -2.5794  -0.7665   2.6496   3.3840

          k =-1.3750-0.8750-0.1250 (   754 PWs)   bands (ev):

    -2.4100  -0.8647   2.0369   3.1180

          k =-1.1250 0.3750-0.3750 (   763 PWs)   bands (ev):

    -2.9487  -0.5644   2.0970   4.1673

          k =-1.6250-0.6250-0.3750 (   760 PWs)   bands (ev):

    -3.4460  -0.6535   3.7714   4.4856

          k =-0.3750 0.3750 1.1250 (   763 PWs)   bands (ev):

    -2.9487  -0.5644   2.0970   4.1673

          k =-0.8750-0.6250 1.1250 (   766 PWs)   bands (ev):

    -5.0917   2.8144   4.7293   4.7957

     highest occupied level (ev):     5.7414

     Writing output data file silicon.10.318.save

                                                                                

     bravais-lattice index     =            2
     lattice parameter (alat)  =      10.3180  a.u.
     unit-cell volume          =     274.6165 (a.u.)^3
     number of atoms/cell      =            2
     number of atomic types    =            1
     kinetic-energy cut-off    =      30.0000  Ry
     charge density cut-off    =     240.0000  Ry
     convergence threshold     =      1.0E-12
     beta                      =       0.7000
     number of iterations used =            4
     Exchange-correlation      = SLA  PW   PBE  PBE ( 1  4  3  4 0 0)


     celldm(1)=   10.31800  celldm(2)=    0.00000  celldm(3)=    0.00000
     celldm(4)=    0.00000  celldm(5)=    0.00000  celldm(6)=    0.00000

     crystal axes: (cart. coord. in units of alat)
               a(1) = ( -0.5000  0.0000  0.5000 )  
               a(2) = (  0.0000  0.5000  0.5000 )  
               a(3) = ( -0.5000  0.5000  0.0000 )  

     reciprocal axes: (cart. coord. in units 2 pi/alat)
               b(1) = ( -1.0000 -1.0000  1.0000 )  
               b(2) = (  1.0000  1.0000  1.0000 )  
               b(3) = ( -1.0000  1.0000 -1.0000 )  


     Atoms inside the unit cell: 

     Cartesian axes

     site n.  atom      mass           positions (alat units)
        1     Si  28.0860   tau(    1) = (    0.00000    0.00000    0.00000  )
        2     Si  28.0860   tau(    2) = (    0.25000    0.25000    0.25000  )

     Computing dynamical matrix for 
                    q = (  -0.5000000  -1.0000000   0.0000000 )

      8 Sym.Ops. (no q -> -q+G )


     G cutoff =  647.2060  (   4288 G-vectors)     FFT grid: ( 36, 36, 36)
     G cutoff =  323.6030  (   1520 G-vectors)  smooth grid: ( 25, 25, 25)
     number of k points=    64

     PseudoPot. # 1 for Si read from file:
     /home/s1333534/quantum_espresso/qe-6.1/pseudo/si_pbe_v1.uspp.F.UPF.txt
     MD5 check sum: a056efeee980c13900f22a371efd63c1
     Pseudo is Ultrasoft + core correction, Zval =  4.0
     Generated by new atomic code, or converted to UPF format
     Using radial grid of  899 points,  6 beta functions with: 
                l(1) =   0
                l(2) =   0
                l(3) =   1
                l(4) =   1
                l(5) =   2
                l(6) =   2
     Q(r) pseudized with  8 coefficients,  rinner =    0.900   0.900   0.900
                                                       0.900   0.900


     Atomic displacements:
     There are   3 irreducible representations

     Representation     1      2 modes -  To be done

     Representation     2      2 modes -  To be done

     Representation     3      2 modes -  To be done



     Alpha used in Ewald sum =   2.5000
     PHONON       :  2m 2.57s CPU     2m32.38s WALL



     Representation #  1 modes #   1  2

     Self-consistent Calculation

      iter #   1 total cpu time :   153.1 secs   av.it.:   5.7
      thresh= 1.000E-02 alpha_mix =  0.700 |ddv_scf|^2 =  1.086E-06

      iter #   2 total cpu time :   153.9 secs   av.it.:  11.6
      thresh= 1.042E-04 alpha_mix =  0.700 |ddv_scf|^2 =  6.152E-07

      iter #   3 total cpu time :   154.6 secs   av.it.:  11.1
      thresh= 7.844E-05 alpha_mix =  0.700 |ddv_scf|^2 =  5.903E-10

      iter #   4 total cpu time :   155.4 secs   av.it.:  11.0
      thresh= 2.430E-06 alpha_mix =  0.700 |ddv_scf|^2 =  2.620E-12

      iter #   5 total cpu time :   156.3 secs   av.it.:  11.1
      thresh= 1.619E-07 alpha_mix =  0.700 |ddv_scf|^2 =  6.938E-14

     End of self-consistent calculation

     Convergence has been achieved 


     Representation #  2 modes #   3  4

     Self-consistent Calculation

      iter #   1 total cpu time :   157.0 secs   av.it.:   5.7
      thresh= 1.000E-02 alpha_mix =  0.700 |ddv_scf|^2 =  1.683E-06

      iter #   2 total cpu time :   157.9 secs   av.it.:  11.6
      thresh= 1.297E-04 alpha_mix =  0.700 |ddv_scf|^2 =  2.272E-06

      iter #   3 total cpu time :   158.7 secs   av.it.:  10.9
      thresh= 1.507E-04 alpha_mix =  0.700 |ddv_scf|^2 =  6.984E-10

      iter #   4 total cpu time :   159.5 secs   av.it.:  11.0
      thresh= 2.643E-06 alpha_mix =  0.700 |ddv_scf|^2 =  1.062E-11

      iter #   5 total cpu time :   160.3 secs   av.it.:  11.1
      thresh= 3.259E-07 alpha_mix =  0.700 |ddv_scf|^2 =  1.771E-13

     End of self-consistent calculation

     Convergence has been achieved 


     Representation #  3 modes #   5  6

     Self-consistent Calculation

      iter #   1 total cpu time :   161.0 secs   av.it.:   5.3
      thresh= 1.000E-02 alpha_mix =  0.700 |ddv_scf|^2 =  4.412E-07

      iter #   2 total cpu time :   161.8 secs   av.it.:  11.6
      thresh= 6.643E-05 alpha_mix =  0.700 |ddv_scf|^2 =  2.578E-07

      iter #   3 total cpu time :   162.7 secs   av.it.:  11.1
      thresh= 5.078E-05 alpha_mix =  0.700 |ddv_scf|^2 =  5.130E-10

      iter #   4 total cpu time :   163.5 secs   av.it.:  11.1
      thresh= 2.265E-06 alpha_mix =  0.700 |ddv_scf|^2 =  5.990E-12

      iter #   5 total cpu time :   164.2 secs   av.it.:  11.1
      thresh= 2.447E-07 alpha_mix =  0.700 |ddv_scf|^2 =  8.331E-14

     End of self-consistent calculation

     Convergence has been achieved 

     Number of q in the star =    6
     List of q in the star:
          1  -0.500000000  -1.000000000   0.000000000
          2   0.000000000   1.000000000   0.500000000
          3   0.000000000  -1.000000000  -0.500000000
          4   0.500000000   1.000000000   0.000000000
          5  -1.000000000  -0.500000000   0.000000000
          6   0.000000000  -0.500000000  -1.000000000

     Diagonalizing the dynamical matrix

     q = (   -0.500000000  -1.000000000   0.000000000 ) 

 **************************************************************************
     freq (    1) =       6.007531 [THz] =     200.389655 [cm-1]
     freq (    2) =       6.007531 [THz] =     200.389655 [cm-1]
     freq (    3) =      10.379135 [THz] =     346.210675 [cm-1]
     freq (    4) =      10.379135 [THz] =     346.210675 [cm-1]
     freq (    5) =      13.647119 [THz] =     455.218905 [cm-1]
     freq (    6) =      13.647119 [THz] =     455.218905 [cm-1]
 **************************************************************************

     init_run     :      1.26s CPU      1.30s WALL (       7 calls)
     electrons    :      7.21s CPU      7.80s WALL (       7 calls)

     Called by init_run:
     wfcinit      :      0.00s CPU      0.02s WALL (       7 calls)
     potinit      :      0.08s CPU      0.09s WALL (       7 calls)

     Called by electrons:
     c_bands      :      7.21s CPU      7.79s WALL (       7 calls)
     v_of_rho     :      0.07s CPU      0.07s WALL (       8 calls)
     newd         :      0.13s CPU      0.13s WALL (       8 calls)

     Called by c_bands:
     init_us_2    :      1.62s CPU      1.56s WALL (   16040 calls)
     cegterg      :      6.03s CPU      6.50s WALL (     796 calls)

     Called by sum_band:

     Called by *egterg:
     h_psi        :     68.38s CPU     73.19s WALL (  154469 calls)
     s_psi        :      5.86s CPU      6.98s WALL (  311340 calls)
     g_psi        :      0.05s CPU      0.07s WALL (    9666 calls)
     cdiaghg      :      0.56s CPU      0.56s WALL (   10462 calls)

     Called by h_psi:
     h_psi:pot    :     67.97s CPU     72.67s WALL (  154469 calls)
     h_psi:calbec :      3.50s CPU      4.03s WALL (  154469 calls)
     vloc_psi     :     59.79s CPU     64.46s WALL (  154469 calls)
     add_vuspsi   :      4.32s CPU      3.69s WALL (  154469 calls)

     General routines
     calbec       :      8.01s CPU      8.56s WALL (  345792 calls)
     fft          :      1.31s CPU      1.39s WALL (    5265 calls)
     ffts         :      0.21s CPU      0.22s WALL (    3320 calls)
     fftw         :     63.03s CPU     67.07s WALL ( 1384110 calls)
     interpolate  :      0.20s CPU      0.21s WALL (     572 calls)
     davcio       :      0.32s CPU      0.86s WALL (   69876 calls)

     Parallel routines
     fft_scatter  :     15.92s CPU     19.14s WALL ( 1392695 calls)

     PHONON       :  2m11.80s CPU     2m44.64s WALL

     INITIALIZATION: 
     phq_setup    :      0.22s CPU      0.41s WALL (       8 calls)
     phq_init     :      6.72s CPU      7.12s WALL (       8 calls)

     phq_init     :      6.72s CPU      7.12s WALL (       8 calls)
     set_drhoc    :      1.81s CPU      1.82s WALL (      24 calls)
     init_vloc    :      0.03s CPU      0.03s WALL (       8 calls)
     init_us_1    :      0.98s CPU      0.98s WALL (       8 calls)
     newd         :      0.13s CPU      0.13s WALL (       8 calls)
     dvanqq       :      1.16s CPU      1.17s WALL (       8 calls)
     drho         :      2.59s CPU      2.68s WALL (       8 calls)

     DYNAMICAL MATRIX:
     dynmat0      :      1.70s CPU      1.85s WALL (       8 calls)
     phqscf       :    111.64s CPU    138.97s WALL (       8 calls)
     dynmatrix    :      0.01s CPU      0.21s WALL (       8 calls)

     phqscf       :    111.64s CPU    138.97s WALL (       8 calls)
     solve_linter :    110.78s CPU    136.49s WALL (      32 calls)
     drhodv       :      0.58s CPU      0.60s WALL (      32 calls)

     dynmat0      :      1.70s CPU      1.85s WALL (       8 calls)
     dynmat_us    :      0.38s CPU      0.39s WALL (       8 calls)
     d2ionq       :      0.04s CPU      0.04s WALL (       8 calls)
     dynmatcc     :      1.27s CPU      1.27s WALL (       8 calls)

     dynmat_us    :      0.38s CPU      0.39s WALL (       8 calls)
     addusdynmat  :      0.00s CPU      0.00s WALL (       8 calls)

     phqscf       :    111.64s CPU    138.97s WALL (       8 calls)
     solve_linter :    110.78s CPU    136.49s WALL (      32 calls)

     solve_linter :    110.78s CPU    136.49s WALL (      32 calls)
     dvqpsi_us    :      2.10s CPU      2.25s WALL (    2508 calls)
     ortho        :      1.00s CPU      1.12s WALL (   13630 calls)
     cgsolve      :     76.09s CPU     82.64s WALL (   13630 calls)
     incdrhoscf   :      6.29s CPU      6.84s WALL (   13630 calls)
     addusddens   :      7.05s CPU      7.11s WALL (     202 calls)
     vpsifft      :      4.46s CPU      4.89s WALL (   11002 calls)
     dv_of_drho   :      1.21s CPU      1.25s WALL (     256 calls)
     mix_pot      :      0.55s CPU      9.33s WALL (     175 calls)
     psymdvscf    :      4.08s CPU      4.12s WALL (     170 calls)
     newdq        :      7.66s CPU      7.69s WALL (     175 calls)
     adddvscf     :      0.43s CPU      0.42s WALL (   11122 calls)
     drhodvus     :      0.01s CPU      0.01s WALL (      32 calls)

     dvqpsi_us    :      2.10s CPU      2.25s WALL (    2508 calls)
     dvqpsi_us_on :      0.90s CPU      0.94s WALL (    2508 calls)

     cgsolve      :     76.09s CPU     82.64s WALL (   13630 calls)
     ch_psi       :     74.99s CPU     80.87s WALL (  143211 calls)

     ch_psi       :     74.99s CPU     80.87s WALL (  143211 calls)
     h_psi        :     68.38s CPU     73.19s WALL (  154469 calls)
     last         :      9.17s CPU      9.29s WALL (  143211 calls)

     h_psi        :     68.38s CPU     73.19s WALL (  154469 calls)
     add_vuspsi   :      4.32s CPU      3.69s WALL (  154469 calls)

     incdrhoscf   :      6.29s CPU      6.84s WALL (   13630 calls)
     addusdbec    :      0.47s CPU      0.52s WALL (   16078 calls)

     drhodvus     :      0.01s CPU      0.01s WALL (      32 calls)

      General routines
     calbec       :      8.01s CPU      8.56s WALL (  345792 calls)
     fft          :      1.31s CPU      1.39s WALL (    5265 calls)
     ffts         :      0.21s CPU      0.22s WALL (    3320 calls)
     fftw         :     63.03s CPU     67.07s WALL ( 1384110 calls)
     davcio       :      0.32s CPU      0.86s WALL (   69876 calls)
     write_rec    :      0.21s CPU     10.79s WALL (     207 calls)


     PHONON       :  2m11.80s CPU     2m44.64s WALL


   This run was terminated on:  15:42:26  10Nov2017            

=------------------------------------------------------------------------------=
   JOB DONE.
=------------------------------------------------------------------------------=
