
     Program PHONON v.6.1 (svn rev. 13369) starts on  9Nov2017 at  1:40: 4 

     This program is part of the open-source Quantum ESPRESSO suite
     for quantum simulation of materials; please cite
         "P. Giannozzi et al., J. Phys.:Condens. Matter 21 395502 (2009);
          URL http://www.quantum-espresso.org", 
     in publications or presentations arising from this work. More details at
     http://www.quantum-espresso.org/quote

     Parallel version (MPI), running on     4 processors
     R & G space division:  proc/nbgrp/npool/nimage =       4

     Reading data from directory:
     ./silicon.10.45.save

   Info: using nr1, nr2, nr3 values from input

   Info: using nr1, nr2, nr3 values from input

     IMPORTANT: XC functional enforced from input :
     Exchange-correlation      = SLA  PW   PBE  PBE ( 1  4  3  4 0 0)
     Any further DFT definition will be discarded
     Please, verify this is what you really want


     Parallelization info
     --------------------
     sticks:   dense  smooth     PW     G-vecs:    dense   smooth      PW
     Min          66      66     22                  722      722     152
     Max          67      67     23                  724      724     153
     Sum         265     265     91                 2891     2891     609


     Check: negative/imaginary core charge=   -0.000006    0.000000

     negative rho (up, down):  2.246E-06 0.000E+00


     Dynamical matrices for ( 4, 4, 4)  uniform grid of q-points
     (   8q-points):
       N         xq(1)         xq(2)         xq(3) 
       1   0.000000000   0.000000000   0.000000000
       2  -0.250000000   0.250000000  -0.250000000
       3   0.500000000  -0.500000000   0.500000000
       4   0.000000000   0.500000000   0.000000000
       5   0.750000000  -0.250000000   0.750000000
       6   0.500000000   0.000000000   0.500000000
       7   0.000000000  -1.000000000   0.000000000
       8  -0.500000000  -1.000000000   0.000000000

     Calculation of q =    0.0000000   0.0000000   0.0000000

                                                                                

     bravais-lattice index     =            2
     lattice parameter (alat)  =      10.4500  a.u.
     unit-cell volume          =     285.2915 (a.u.)^3
     number of atoms/cell      =            2
     number of atomic types    =            1
     kinetic-energy cut-off    =      18.0000  Ry
     charge density cut-off    =      72.0000  Ry
     convergence threshold     =      1.0E-12
     beta                      =       0.7000
     number of iterations used =            4
     Exchange-correlation      = SLA  PW   PBE  PBE ( 1  4  3  4 0 0)


     celldm(1)=   10.45000  celldm(2)=    0.00000  celldm(3)=    0.00000
     celldm(4)=    0.00000  celldm(5)=    0.00000  celldm(6)=    0.00000

     crystal axes: (cart. coord. in units of alat)
               a(1) = ( -0.5000  0.0000  0.5000 )  
               a(2) = (  0.0000  0.5000  0.5000 )  
               a(3) = ( -0.5000  0.5000  0.0000 )  

     reciprocal axes: (cart. coord. in units 2 pi/alat)
               b(1) = ( -1.0000 -1.0000  1.0000 )  
               b(2) = (  1.0000  1.0000  1.0000 )  
               b(3) = ( -1.0000  1.0000 -1.0000 )  


     Atoms inside the unit cell: 

     Cartesian axes

     site n.  atom      mass           positions (alat units)
        1     Si  28.0860   tau(    1) = (    0.00000    0.00000    0.00000  )
        2     Si  28.0860   tau(    2) = (    0.25000    0.25000    0.25000  )

     Computing dynamical matrix for 
                    q = (   0.0000000   0.0000000   0.0000000 )

     49 Sym.Ops. (with q -> -q+G )


     G cutoff =  199.1615  (    722 G-vectors)     FFT grid: ( 20, 20, 20)
     number of k points=    10

     PseudoPot. # 1 for Si read from file:
     /home/max/quantum_espresso/qe-6.1/pseudo/si_pbe_v1.uspp.F.UPF.txt
     MD5 check sum: a056efeee980c13900f22a371efd63c1
     Pseudo is Ultrasoft + core correction, Zval =  4.0
     Generated by new atomic code, or converted to UPF format
     Using radial grid of  899 points,  6 beta functions with: 
                l(1) =   0
                l(2) =   0
                l(3) =   1
                l(4) =   1
                l(5) =   2
                l(6) =   2
     Q(r) pseudized with  8 coefficients,  rinner =    0.900   0.900   0.900
                                                       0.900   0.900

     Mode symmetry, O_h (m-3m)  point group:


     Electric field:
     Dielectric constant
     Born effective charges in two ways 


     Atomic displacements:
     There are   2 irreducible representations

     Representation     1      3 modes -T_2g G_25' G_5+  To be done

     Representation     2      3 modes -T_1u G_15  G_4-  To be done



     Alpha used in Ewald sum =   0.7000

     negative rho (up, down):  2.246E-06 0.000E+00
     PHONON       :     0.40s CPU         0.41s WALL


     Electric Fields Calculation

      iter #   1 total cpu time :     0.8 secs   av.it.:   5.7
      thresh= 1.000E-02 alpha_mix =  0.700 |ddv_scf|^2 =  9.767E-07

      iter #   2 total cpu time :     1.0 secs   av.it.:   9.9
      thresh= 9.883E-05 alpha_mix =  0.700 |ddv_scf|^2 =  6.474E-08

      iter #   3 total cpu time :     1.1 secs   av.it.:   9.8
      thresh= 2.544E-05 alpha_mix =  0.700 |ddv_scf|^2 =  5.161E-09

      iter #   4 total cpu time :     1.3 secs   av.it.:   9.0
      thresh= 7.184E-06 alpha_mix =  0.700 |ddv_scf|^2 =  3.157E-11

      iter #   5 total cpu time :     1.5 secs   av.it.:   9.2
      thresh= 5.618E-07 alpha_mix =  0.700 |ddv_scf|^2 =  1.641E-14

     End of electric fields calculation

          Dielectric constant in cartesian axis 

          (      14.162291948       0.000000000       0.000000000 )
          (       0.000000000      14.162291948       0.000000000 )
          (      -0.000000000       0.000000000      14.162291948 )

          Effective charges (d Force / dE) in cartesian axis

           atom      1   Si 
      Ex  (       -0.03229       -0.00000        0.00000 )
      Ey  (        0.00000       -0.03229       -0.00000 )
      Ez  (        0.00000       -0.00000       -0.03229 )
           atom      2   Si 
      Ex  (       -0.03229        0.00000        0.00000 )
      Ey  (        0.00000       -0.03229       -0.00000 )
      Ez  (        0.00000       -0.00000       -0.03229 )


     Representation #  1 modes #   1  2  3

     Self-consistent Calculation

      iter #   1 total cpu time :     1.9 secs   av.it.:   4.9
      thresh= 1.000E-02 alpha_mix =  0.700 |ddv_scf|^2 =  1.878E-07

      iter #   2 total cpu time :     2.2 secs   av.it.:   9.9
      thresh= 4.333E-05 alpha_mix =  0.700 |ddv_scf|^2 =  1.049E-08

      iter #   3 total cpu time :     2.4 secs   av.it.:   9.5
      thresh= 1.024E-05 alpha_mix =  0.700 |ddv_scf|^2 =  7.243E-10

      iter #   4 total cpu time :     2.6 secs   av.it.:   9.1
      thresh= 2.691E-06 alpha_mix =  0.700 |ddv_scf|^2 =  1.878E-12

      iter #   5 total cpu time :     2.7 secs   av.it.:   9.4
      thresh= 1.370E-07 alpha_mix =  0.700 |ddv_scf|^2 =  1.586E-14

     End of self-consistent calculation

     Convergence has been achieved 


     Representation #  2 modes #   4  5  6

     Self-consistent Calculation

      iter #   1 total cpu time :     3.0 secs   av.it.:   5.0
      thresh= 1.000E-02 alpha_mix =  0.700 |ddv_scf|^2 =  1.977E-07

      iter #   2 total cpu time :     3.2 secs   av.it.:   9.6
      thresh= 4.447E-05 alpha_mix =  0.700 |ddv_scf|^2 =  1.652E-08

      iter #   3 total cpu time :     3.3 secs   av.it.:   9.3
      thresh= 1.285E-05 alpha_mix =  0.700 |ddv_scf|^2 =  9.841E-10

      iter #   4 total cpu time :     3.5 secs   av.it.:   9.5
      thresh= 3.137E-06 alpha_mix =  0.700 |ddv_scf|^2 =  5.737E-12

      iter #   5 total cpu time :     3.7 secs   av.it.:   9.1
      thresh= 2.395E-07 alpha_mix =  0.700 |ddv_scf|^2 =  5.344E-15

     End of self-consistent calculation

     Convergence has been achieved 

     Number of q in the star =    1
     List of q in the star:
          1   0.000000000   0.000000000   0.000000000

          Dielectric constant in cartesian axis 

          (      14.162291948       0.000000000       0.000000000 )
          (       0.000000000      14.162291948       0.000000000 )
          (      -0.000000000       0.000000000      14.162291948 )

          Effective charges (d Force / dE) in cartesian axis

           atom      1   Si 
      Ex  (       -0.03229       -0.00000        0.00000 )
      Ey  (        0.00000       -0.03229       -0.00000 )
      Ez  (        0.00000       -0.00000       -0.03229 )
           atom      2   Si 
      Ex  (       -0.03229        0.00000        0.00000 )
      Ey  (        0.00000       -0.03229       -0.00000 )
      Ez  (        0.00000       -0.00000       -0.03229 )

          Effective charges (d P / du) in cartesian axis 

           atom      1   Si 
      Px  (       -0.07715       -0.00000       -0.00000 )
      Py  (       -0.00000       -0.07715        0.00000 )
      Pz  (       -0.00000        0.00000       -0.07715 )
           atom      2   Si 
      Px  (       -0.07715        0.00000       -0.00000 )
      Py  (        0.00000       -0.07715       -0.00000 )
      Pz  (        0.00000       -0.00000       -0.07715 )

     Diagonalizing the dynamical matrix

     q = (    0.000000000   0.000000000   0.000000000 ) 

 **************************************************************************
     freq (    1) =       1.674476 [THz] =      55.854493 [cm-1]
     freq (    2) =       1.674476 [THz] =      55.854493 [cm-1]
     freq (    3) =       1.674476 [THz] =      55.854493 [cm-1]
     freq (    4) =      15.392095 [THz] =     513.425020 [cm-1]
     freq (    5) =      15.392095 [THz] =     513.425020 [cm-1]
     freq (    6) =      15.392095 [THz] =     513.425020 [cm-1]
 **************************************************************************

     Mode symmetry, O_h (m-3m)  point group:

     freq (  1 -  3) =         55.9  [cm-1]   --> T_1u G_15  G_4- I  
     freq (  4 -  6) =        513.4  [cm-1]   --> T_2g G_25' G_5+ R  

     Calculation of q =   -0.2500000   0.2500000  -0.2500000

   Info: using nr1, nr2, nr3 values from input

   Info: using nr1, nr2, nr3 values from input

     Parallelization info
     --------------------
     sticks:   dense  smooth     PW     G-vecs:    dense   smooth      PW
     Min          66      66     27                  722      722     175
     Max          67      67     28                  724      724     176
     Sum         265     265    109                 2891     2891     701



     bravais-lattice index     =            2
     lattice parameter (alat)  =      10.4500  a.u.
     unit-cell volume          =     285.2915 (a.u.)^3
     number of atoms/cell      =            2
     number of atomic types    =            1
     number of electrons       =         8.00
     number of Kohn-Sham states=            4
     kinetic-energy cutoff     =      18.0000  Ry
     charge density cutoff     =      72.0000  Ry
     Exchange-correlation      = SLA  PW   PBE  PBE ( 1  4  3  4 0 0)

     celldm(1)=  10.450000  celldm(2)=   0.000000  celldm(3)=   0.000000
     celldm(4)=   0.000000  celldm(5)=   0.000000  celldm(6)=   0.000000

     crystal axes: (cart. coord. in units of alat)
               a(1) = (  -0.500000   0.000000   0.500000 )  
               a(2) = (   0.000000   0.500000   0.500000 )  
               a(3) = (  -0.500000   0.500000   0.000000 )  

     reciprocal axes: (cart. coord. in units 2 pi/alat)
               b(1) = ( -1.000000 -1.000000  1.000000 )  
               b(2) = (  1.000000  1.000000  1.000000 )  
               b(3) = ( -1.000000  1.000000 -1.000000 )  


     PseudoPot. # 1 for Si read from file:
     /home/max/quantum_espresso/qe-6.1/pseudo/si_pbe_v1.uspp.F.UPF.txt
     MD5 check sum: a056efeee980c13900f22a371efd63c1
     Pseudo is Ultrasoft + core correction, Zval =  4.0
     Generated by new atomic code, or converted to UPF format
     Using radial grid of  899 points,  6 beta functions with: 
                l(1) =   0
                l(2) =   0
                l(3) =   1
                l(4) =   1
                l(5) =   2
                l(6) =   2
     Q(r) pseudized with  8 coefficients,  rinner =    0.900   0.900   0.900
                                                       0.900   0.900

     atomic species   valence    mass     pseudopotential
        Si             4.00    28.08600     Si( 1.00)

     48 Sym. Ops., with inversion, found



   Cartesian axes

     site n.     atom                  positions (alat units)
         1           Si  tau(   1) = (   0.0000000   0.0000000   0.0000000  )
         2           Si  tau(   2) = (   0.2500000   0.2500000   0.2500000  )

     number of k points=   120

     Number of k-points >= 100: set verbosity='high' to print them.

     Dense  grid:     2891 G-vectors     FFT dimensions: (  20,  20,  20)

     Estimated max dynamical RAM per process >       0.34MB

     Estimated total allocated dynamical RAM >       1.34MB

     Check: negative/imaginary core charge=   -0.000006    0.000000

     The potential is recalculated from file :
     ./_ph0/silicon.10.45.save/charge-density.dat


     negative rho (up, down):  2.246E-06 0.000E+00
     Starting wfc are    8 atomic wfcs

     Band Structure Calculation
     Davidson diagonalization with overlap

     ethr =  1.25E-10,  avg # of iterations = 11.7

     total cpu time spent up to now is        0.9 secs

     End of band structure calculation

     Number of k-points >= 100: set verbosity='high' to print the bands.

     highest occupied level (ev):     5.3701

     Writing output data file silicon.10.45.save

                                                                                

     bravais-lattice index     =            2
     lattice parameter (alat)  =      10.4500  a.u.
     unit-cell volume          =     285.2915 (a.u.)^3
     number of atoms/cell      =            2
     number of atomic types    =            1
     kinetic-energy cut-off    =      18.0000  Ry
     charge density cut-off    =      72.0000  Ry
     convergence threshold     =      1.0E-12
     beta                      =       0.7000
     number of iterations used =            4
     Exchange-correlation      = SLA  PW   PBE  PBE ( 1  4  3  4 0 0)


     celldm(1)=   10.45000  celldm(2)=    0.00000  celldm(3)=    0.00000
     celldm(4)=    0.00000  celldm(5)=    0.00000  celldm(6)=    0.00000

     crystal axes: (cart. coord. in units of alat)
               a(1) = ( -0.5000  0.0000  0.5000 )  
               a(2) = (  0.0000  0.5000  0.5000 )  
               a(3) = ( -0.5000  0.5000  0.0000 )  

     reciprocal axes: (cart. coord. in units 2 pi/alat)
               b(1) = ( -1.0000 -1.0000  1.0000 )  
               b(2) = (  1.0000  1.0000  1.0000 )  
               b(3) = ( -1.0000  1.0000 -1.0000 )  


     Atoms inside the unit cell: 

     Cartesian axes

     site n.  atom      mass           positions (alat units)
        1     Si  28.0860   tau(    1) = (    0.00000    0.00000    0.00000  )
        2     Si  28.0860   tau(    2) = (    0.25000    0.25000    0.25000  )

     Computing dynamical matrix for 
                    q = (  -0.2500000   0.2500000  -0.2500000 )

      6 Sym.Ops. (no q -> -q+G )


     G cutoff =  199.1615  (    722 G-vectors)     FFT grid: ( 20, 20, 20)
     number of k points=   120

     PseudoPot. # 1 for Si read from file:
     /home/max/quantum_espresso/qe-6.1/pseudo/si_pbe_v1.uspp.F.UPF.txt
     MD5 check sum: a056efeee980c13900f22a371efd63c1
     Pseudo is Ultrasoft + core correction, Zval =  4.0
     Generated by new atomic code, or converted to UPF format
     Using radial grid of  899 points,  6 beta functions with: 
                l(1) =   0
                l(2) =   0
                l(3) =   1
                l(4) =   1
                l(5) =   2
                l(6) =   2
     Q(r) pseudized with  8 coefficients,  rinner =    0.900   0.900   0.900
                                                       0.900   0.900

     Mode symmetry, C_3v (3m)   point group:


     Atomic displacements:
     There are   4 irreducible representations

     Representation     1      1 modes -A_1  L_1  To be done

     Representation     2      1 modes -A_1  L_1  To be done

     Representation     3      2 modes -E    L_3  To be done

     Representation     4      2 modes -E    L_3  To be done



     Alpha used in Ewald sum =   0.7000

     negative rho (up, down):  2.246E-06 0.000E+00
     PHONON       :     4.88s CPU         5.09s WALL



     Representation #  1 mode #   1

     Self-consistent Calculation

      iter #   1 total cpu time :     5.3 secs   av.it.:   5.5
      thresh= 1.000E-02 alpha_mix =  0.700 |ddv_scf|^2 =  2.397E-03

      iter #   2 total cpu time :     5.6 secs   av.it.:   7.5
      thresh= 4.896E-03 alpha_mix =  0.700 |ddv_scf|^2 =  3.672E-02

      iter #   3 total cpu time :     5.8 secs   av.it.:   6.3
      thresh= 1.000E-02 alpha_mix =  0.700 |ddv_scf|^2 =  1.684E-06

      iter #   4 total cpu time :     6.2 secs   av.it.:   8.2
      thresh= 1.298E-04 alpha_mix =  0.700 |ddv_scf|^2 =  1.165E-07

      iter #   5 total cpu time :     6.5 secs   av.it.:   8.1
      thresh= 3.413E-05 alpha_mix =  0.700 |ddv_scf|^2 =  4.837E-09

      iter #   6 total cpu time :     6.7 secs   av.it.:   8.1
      thresh= 6.955E-06 alpha_mix =  0.700 |ddv_scf|^2 =  3.592E-09

      iter #   7 total cpu time :     6.9 secs   av.it.:   6.4
      thresh= 5.993E-06 alpha_mix =  0.700 |ddv_scf|^2 =  8.007E-10

      iter #   8 total cpu time :     7.2 secs   av.it.:   7.1
      thresh= 2.830E-06 alpha_mix =  0.700 |ddv_scf|^2 =  4.871E-12

      iter #   9 total cpu time :     7.4 secs   av.it.:   7.1
      thresh= 2.207E-07 alpha_mix =  0.700 |ddv_scf|^2 =  2.774E-13

     End of self-consistent calculation

     Convergence has been achieved 


     Representation #  2 mode #   2

     Self-consistent Calculation

      iter #   1 total cpu time :     7.7 secs   av.it.:   5.5
      thresh= 1.000E-02 alpha_mix =  0.700 |ddv_scf|^2 =  2.397E-03

      iter #   2 total cpu time :     8.1 secs   av.it.:   7.5
      thresh= 4.896E-03 alpha_mix =  0.700 |ddv_scf|^2 =  3.672E-02

      iter #   3 total cpu time :     8.3 secs   av.it.:   6.3
      thresh= 1.000E-02 alpha_mix =  0.700 |ddv_scf|^2 =  1.684E-06

      iter #   4 total cpu time :     8.6 secs   av.it.:   8.2
      thresh= 1.298E-04 alpha_mix =  0.700 |ddv_scf|^2 =  1.165E-07

      iter #   5 total cpu time :     8.8 secs   av.it.:   8.1
      thresh= 3.413E-05 alpha_mix =  0.700 |ddv_scf|^2 =  4.837E-09

      iter #   6 total cpu time :     9.1 secs   av.it.:   8.1
      thresh= 6.955E-06 alpha_mix =  0.700 |ddv_scf|^2 =  3.592E-09

      iter #   7 total cpu time :     9.3 secs   av.it.:   6.4
      thresh= 5.993E-06 alpha_mix =  0.700 |ddv_scf|^2 =  8.007E-10

      iter #   8 total cpu time :     9.6 secs   av.it.:   7.1
      thresh= 2.830E-06 alpha_mix =  0.700 |ddv_scf|^2 =  4.871E-12

      iter #   9 total cpu time :     9.8 secs   av.it.:   7.1
      thresh= 2.207E-07 alpha_mix =  0.700 |ddv_scf|^2 =  2.774E-13

     End of self-consistent calculation

     Convergence has been achieved 


     Representation #  3 modes #   3  4

     Self-consistent Calculation

      iter #   1 total cpu time :    10.4 secs   av.it.:   4.9
      thresh= 1.000E-02 alpha_mix =  0.700 |ddv_scf|^2 =  5.436E-07

      iter #   2 total cpu time :    11.0 secs   av.it.:   9.6
      thresh= 7.373E-05 alpha_mix =  0.700 |ddv_scf|^2 =  4.110E-08

      iter #   3 total cpu time :    11.6 secs   av.it.:   9.3
      thresh= 2.027E-05 alpha_mix =  0.700 |ddv_scf|^2 =  3.575E-09

      iter #   4 total cpu time :    12.3 secs   av.it.:   9.0
      thresh= 5.979E-06 alpha_mix =  0.700 |ddv_scf|^2 =  1.176E-11

      iter #   5 total cpu time :    12.9 secs   av.it.:   9.2
      thresh= 3.429E-07 alpha_mix =  0.700 |ddv_scf|^2 =  5.147E-13

     End of self-consistent calculation

     Convergence has been achieved 


     Representation #  4 modes #   5  6

     Self-consistent Calculation

      iter #   1 total cpu time :    13.3 secs   av.it.:   5.0
      thresh= 1.000E-02 alpha_mix =  0.700 |ddv_scf|^2 =  5.435E-07

      iter #   2 total cpu time :    14.0 secs   av.it.:   9.7
      thresh= 7.372E-05 alpha_mix =  0.700 |ddv_scf|^2 =  4.105E-08

      iter #   3 total cpu time :    14.6 secs   av.it.:   9.4
      thresh= 2.026E-05 alpha_mix =  0.700 |ddv_scf|^2 =  3.571E-09

      iter #   4 total cpu time :    15.2 secs   av.it.:   9.1
      thresh= 5.976E-06 alpha_mix =  0.700 |ddv_scf|^2 =  1.177E-11

      iter #   5 total cpu time :    15.8 secs   av.it.:   9.3
      thresh= 3.431E-07 alpha_mix =  0.700 |ddv_scf|^2 =  5.156E-13

     End of self-consistent calculation

     Convergence has been achieved 

     Number of q in the star =    8
     List of q in the star:
          1  -0.250000000   0.250000000  -0.250000000
          2   0.250000000  -0.250000000  -0.250000000
          3   0.250000000  -0.250000000   0.250000000
          4   0.250000000   0.250000000   0.250000000
          5  -0.250000000  -0.250000000  -0.250000000
          6  -0.250000000  -0.250000000   0.250000000
          7  -0.250000000   0.250000000   0.250000000
          8   0.250000000   0.250000000  -0.250000000

     Diagonalizing the dynamical matrix

     q = (   -0.250000000   0.250000000  -0.250000000 ) 

 **************************************************************************
     freq (    1) =       3.371633 [THz] =     112.465584 [cm-1]
     freq (    2) =       3.371633 [THz] =     112.465584 [cm-1]
     freq (    3) =       6.692494 [THz] =     223.237565 [cm-1]
     freq (    4) =      14.502695 [THz] =     483.757840 [cm-1]
     freq (    5) =      14.749844 [THz] =     492.001835 [cm-1]
     freq (    6) =      14.749844 [THz] =     492.001835 [cm-1]
 **************************************************************************

     Mode symmetry, C_3v (3m)   point group:

     freq (  1 -  2) =        112.5  [cm-1]   --> E    L_3           
     freq (  3 -  3) =        223.2  [cm-1]   --> A_1  L_1           
     freq (  4 -  4) =        483.8  [cm-1]   --> A_1  L_1           
     freq (  5 -  6) =        492.0  [cm-1]   --> E    L_3           

     Calculation of q =    0.5000000  -0.5000000   0.5000000

   Info: using nr1, nr2, nr3 values from input

   Info: using nr1, nr2, nr3 values from input

     Parallelization info
     --------------------
     sticks:   dense  smooth     PW     G-vecs:    dense   smooth      PW
     Min          66      66     27                  722      722     186
     Max          67      67     28                  724      724     189
     Sum         265     265    109                 2891     2891     749



     bravais-lattice index     =            2
     lattice parameter (alat)  =      10.4500  a.u.
     unit-cell volume          =     285.2915 (a.u.)^3
     number of atoms/cell      =            2
     number of atomic types    =            1
     number of electrons       =         8.00
     number of Kohn-Sham states=            4
     kinetic-energy cutoff     =      18.0000  Ry
     charge density cutoff     =      72.0000  Ry
     Exchange-correlation      = SLA  PW   PBE  PBE ( 1  4  3  4 0 0)

     celldm(1)=  10.450000  celldm(2)=   0.000000  celldm(3)=   0.000000
     celldm(4)=   0.000000  celldm(5)=   0.000000  celldm(6)=   0.000000

     crystal axes: (cart. coord. in units of alat)
               a(1) = (  -0.500000   0.000000   0.500000 )  
               a(2) = (   0.000000   0.500000   0.500000 )  
               a(3) = (  -0.500000   0.500000   0.000000 )  

     reciprocal axes: (cart. coord. in units 2 pi/alat)
               b(1) = ( -1.000000 -1.000000  1.000000 )  
               b(2) = (  1.000000  1.000000  1.000000 )  
               b(3) = ( -1.000000  1.000000 -1.000000 )  


     PseudoPot. # 1 for Si read from file:
     /home/max/quantum_espresso/qe-6.1/pseudo/si_pbe_v1.uspp.F.UPF.txt
     MD5 check sum: a056efeee980c13900f22a371efd63c1
     Pseudo is Ultrasoft + core correction, Zval =  4.0
     Generated by new atomic code, or converted to UPF format
     Using radial grid of  899 points,  6 beta functions with: 
                l(1) =   0
                l(2) =   0
                l(3) =   1
                l(4) =   1
                l(5) =   2
                l(6) =   2
     Q(r) pseudized with  8 coefficients,  rinner =    0.900   0.900   0.900
                                                       0.900   0.900

     atomic species   valence    mass     pseudopotential
        Si             4.00    28.08600     Si( 1.00)

     48 Sym. Ops., with inversion, found



   Cartesian axes

     site n.     atom                  positions (alat units)
         1           Si  tau(   1) = (   0.0000000   0.0000000   0.0000000  )
         2           Si  tau(   2) = (   0.2500000   0.2500000   0.2500000  )

     number of k points=    60
                       cart. coord. in units 2pi/alat
        k(    1) = (  -0.1250000   0.1250000   0.1250000), wk =   0.0468750
        k(    2) = (   0.3750000  -0.3750000   0.6250000), wk =   0.0000000
        k(    3) = (  -0.3750000   0.3750000  -0.1250000), wk =   0.0468750
        k(    4) = (   0.1250000  -0.1250000   0.3750000), wk =   0.0000000
        k(    5) = (   0.3750000  -0.3750000   0.6250000), wk =   0.0468750
        k(    6) = (   0.8750000  -0.8750000   1.1250000), wk =   0.0000000
        k(    7) = (   0.1250000  -0.1250000   0.3750000), wk =   0.0468750
        k(    8) = (   0.6250000  -0.6250000   0.8750000), wk =   0.0000000
        k(    9) = (  -0.1250000   0.6250000   0.1250000), wk =   0.0937500
        k(   10) = (   0.3750000   0.1250000   0.6250000), wk =   0.0000000
        k(   11) = (   0.6250000  -0.1250000   0.8750000), wk =   0.0937500
        k(   12) = (   1.1250000  -0.6250000   1.3750000), wk =   0.0000000
        k(   13) = (   0.3750000   0.1250000   0.6250000), wk =   0.0937500
        k(   14) = (   0.8750000  -0.3750000   1.1250000), wk =   0.0000000
        k(   15) = (  -0.1250000  -0.8750000   0.1250000), wk =   0.0937500
        k(   16) = (   0.3750000  -1.3750000   0.6250000), wk =   0.0000000
        k(   17) = (  -0.3750000   0.3750000   0.3750000), wk =   0.0468750
        k(   18) = (   0.1250000  -0.1250000   0.8750000), wk =   0.0000000
        k(   19) = (   0.3750000  -0.3750000   1.1250000), wk =   0.0468750
        k(   20) = (   0.8750000  -0.8750000   1.6250000), wk =   0.0000000
        k(   21) = (   0.1250000  -0.1250000   0.1250000), wk =   0.0156250
        k(   22) = (   0.6250000  -0.6250000   0.6250000), wk =   0.0000000
        k(   23) = (  -0.3750000  -0.3750000  -0.1250000), wk =   0.0937500
        k(   24) = (   0.1250000  -0.8750000   0.3750000), wk =   0.0000000
        k(   25) = (  -0.1250000  -0.3750000   0.3750000), wk =   0.0468750
        k(   26) = (   0.3750000  -0.8750000   0.8750000), wk =   0.0000000
        k(   27) = (   0.3750000   0.3750000   0.6250000), wk =   0.0937500
        k(   28) = (   0.8750000  -0.1250000   1.1250000), wk =   0.0000000
        k(   29) = (   0.6250000   0.3750000  -0.3750000), wk =   0.0468750
        k(   30) = (   1.1250000  -0.1250000   0.1250000), wk =   0.0000000
        k(   31) = (   0.1250000   0.1250000   0.3750000), wk =   0.0937500
        k(   32) = (   0.6250000  -0.3750000   0.8750000), wk =   0.0000000
        k(   33) = (   0.3750000   0.1250000  -0.1250000), wk =   0.0468750
        k(   34) = (   0.8750000  -0.3750000   0.3750000), wk =   0.0000000
        k(   35) = (  -0.1250000  -0.6250000  -0.1250000), wk =   0.0468750
        k(   36) = (   0.3750000  -1.1250000   0.3750000), wk =   0.0000000
        k(   37) = (   0.1250000  -0.6250000   0.1250000), wk =   0.0468750
        k(   38) = (   0.6250000  -1.1250000   0.6250000), wk =   0.0000000
        k(   39) = (   0.6250000   0.1250000   0.8750000), wk =   0.0937500
        k(   40) = (   1.1250000  -0.3750000   1.3750000), wk =   0.0000000
        k(   41) = (  -0.8750000   0.1250000   0.6250000), wk =   0.0937500
        k(   42) = (  -0.3750000  -0.3750000   1.1250000), wk =   0.0000000
        k(   43) = (   0.8750000   0.1250000  -0.6250000), wk =   0.0937500
        k(   44) = (   1.3750000  -0.3750000  -0.1250000), wk =   0.0000000
        k(   45) = (   0.3750000  -0.1250000   0.6250000), wk =   0.0937500
        k(   46) = (   0.8750000  -0.6250000   1.1250000), wk =   0.0000000
        k(   47) = (  -0.6250000  -0.1250000   0.3750000), wk =   0.0937500
        k(   48) = (  -0.1250000  -0.6250000   0.8750000), wk =   0.0000000
        k(   49) = (   0.6250000  -0.1250000  -0.3750000), wk =   0.0937500
        k(   50) = (   1.1250000  -0.6250000   0.1250000), wk =   0.0000000
        k(   51) = (  -0.1250000   0.8750000  -0.1250000), wk =   0.0468750
        k(   52) = (   0.3750000   0.3750000   0.3750000), wk =   0.0000000
        k(   53) = (   0.1250000   0.8750000   0.1250000), wk =   0.0468750
        k(   54) = (   0.6250000   0.3750000   0.6250000), wk =   0.0000000
        k(   55) = (   0.3750000  -0.3750000   0.3750000), wk =   0.0156250
        k(   56) = (   0.8750000  -0.8750000   0.8750000), wk =   0.0000000
        k(   57) = (   0.3750000   0.3750000   1.1250000), wk =   0.0937500
        k(   58) = (   0.8750000  -0.1250000   1.6250000), wk =   0.0000000
        k(   59) = (   1.1250000   0.3750000  -0.3750000), wk =   0.0468750
        k(   60) = (   1.6250000  -0.1250000   0.1250000), wk =   0.0000000

     Dense  grid:     2891 G-vectors     FFT dimensions: (  20,  20,  20)

     Estimated max dynamical RAM per process >       0.34MB

     Estimated total allocated dynamical RAM >       1.34MB

     Check: negative/imaginary core charge=   -0.000006    0.000000

     The potential is recalculated from file :
     ./_ph0/silicon.10.45.save/charge-density.dat


     negative rho (up, down):  2.246E-06 0.000E+00
     Starting wfc are    8 atomic wfcs

     Band Structure Calculation
     Davidson diagonalization with overlap

     ethr =  1.25E-10,  avg # of iterations = 11.7

     total cpu time spent up to now is        1.6 secs

     End of band structure calculation

          k =-0.1250 0.1250 0.1250 (   359 PWs)   bands (ev):

    -5.7522   4.0550   5.3701   5.3701

          k = 0.3750-0.3750 0.6250 (   369 PWs)   bands (ev):

    -3.6690  -0.8799   3.4490   4.1543

          k =-0.3750 0.3750-0.1250 (   366 PWs)   bands (ev):

    -4.7597   1.1202   3.4463   4.8970

          k = 0.1250-0.1250 0.3750 (   362 PWs)   bands (ev):

    -5.2408   2.4530   4.3985   4.4433

          k = 0.3750-0.3750 0.6250 (   369 PWs)   bands (ev):

    -3.6690  -0.8799   3.4490   4.1543

          k = 0.8750-0.8750 1.1250 (   359 PWs)   bands (ev):

    -5.7522   4.0550   5.3701   5.3701

          k = 0.1250-0.1250 0.3750 (   362 PWs)   bands (ev):

    -5.2408   2.4530   4.3985   4.4433

          k = 0.6250-0.6250 0.8750 (   366 PWs)   bands (ev):

    -4.7597   1.1202   3.4463   4.8970

          k =-0.1250 0.6250 0.1250 (   365 PWs)   bands (ev):

    -4.2427   0.7532   3.1170   3.5508

          k = 0.3750 0.1250 0.6250 (   369 PWs)   bands (ev):

    -3.8453  -0.0727   2.4914   3.8185

          k = 0.6250-0.1250 0.8750 (   373 PWs)   bands (ev):

    -2.6654  -1.1586   1.8248   2.8582

          k = 1.1250-0.6250 1.3750 (   366 PWs)   bands (ev):

    -4.7597   1.1202   3.4463   4.8970

          k = 0.3750 0.1250 0.6250 (   369 PWs)   bands (ev):

    -3.8453  -0.0727   2.4914   3.8185

          k = 0.8750-0.3750 1.1250 (   365 PWs)   bands (ev):

    -4.2427   0.7532   3.1170   3.5508

          k =-0.1250-0.8750 0.1250 (   366 PWs)   bands (ev):

    -2.8184  -1.0682   2.4079   3.0971

          k = 0.3750-1.3750 0.6250 (   369 PWs)   bands (ev):

    -3.6690  -0.8799   3.4490   4.1543

          k =-0.3750 0.3750 0.3750 (   362 PWs)   bands (ev):

    -4.3443  -0.1135   4.6004   4.6004

          k = 0.1250-0.1250 0.8750 (   366 PWs)   bands (ev):

    -2.8184  -1.0682   2.4079   3.0971

          k = 0.3750-0.3750 1.1250 (   369 PWs)   bands (ev):

    -3.1876  -0.8360   1.8680   3.8497

          k = 0.8750-0.8750 1.6250 (   365 PWs)   bands (ev):

    -4.2427   0.7532   3.1170   3.5508

          k = 0.1250-0.1250 0.1250 (   359 PWs)   bands (ev):

    -5.7522   4.0550   5.3701   5.3701

          k = 0.6250-0.6250 0.6250 (   362 PWs)   bands (ev):

    -4.3443  -0.1135   4.6004   4.6004

          k =-0.3750-0.3750-0.1250 (   366 PWs)   bands (ev):

    -4.7597   1.1202   3.4463   4.8970

          k = 0.1250-0.8750 0.3750 (   373 PWs)   bands (ev):

    -2.6654  -1.1586   1.8248   2.8582

          k =-0.1250-0.3750 0.3750 (   366 PWs)   bands (ev):

    -4.7597   1.1202   3.4463   4.8970

          k = 0.3750-0.8750 0.8750 (   365 PWs)   bands (ev):

    -4.2427   0.7532   3.1170   3.5508

          k = 0.3750 0.3750 0.6250 (   369 PWs)   bands (ev):

    -3.6690  -0.8799   3.4490   4.1543

          k = 0.8750-0.1250 1.1250 (   366 PWs)   bands (ev):

    -2.8184  -1.0682   2.4079   3.0971

          k = 0.6250 0.3750-0.3750 (   369 PWs)   bands (ev):

    -3.6690  -0.8799   3.4490   4.1543

          k = 1.1250-0.1250 0.1250 (   366 PWs)   bands (ev):

    -2.8184  -1.0682   2.4079   3.0971

          k = 0.1250 0.1250 0.3750 (   362 PWs)   bands (ev):

    -5.2408   2.4530   4.3985   4.4433

          k = 0.6250-0.3750 0.8750 (   369 PWs)   bands (ev):

    -3.8453  -0.0727   2.4914   3.8185

          k = 0.3750 0.1250-0.1250 (   362 PWs)   bands (ev):

    -5.2408   2.4530   4.3985   4.4433

          k = 0.8750-0.3750 0.3750 (   369 PWs)   bands (ev):

    -3.1876  -0.8360   1.8680   3.8497

          k =-0.1250-0.6250-0.1250 (   365 PWs)   bands (ev):

    -4.2427   0.7532   3.1170   3.5508

          k = 0.3750-1.1250 0.3750 (   369 PWs)   bands (ev):

    -3.1876  -0.8360   1.8680   3.8497

          k = 0.1250-0.6250 0.1250 (   365 PWs)   bands (ev):

    -4.2427   0.7532   3.1170   3.5508

          k = 0.6250-1.1250 0.6250 (   366 PWs)   bands (ev):

    -4.7597   1.1202   3.4463   4.8970

          k = 0.6250 0.1250 0.8750 (   373 PWs)   bands (ev):

    -2.6654  -1.1586   1.8248   2.8582

          k = 1.1250-0.3750 1.3750 (   369 PWs)   bands (ev):

    -3.8453  -0.0727   2.4914   3.8185

          k =-0.8750 0.1250 0.6250 (   373 PWs)   bands (ev):

    -2.6654  -1.1586   1.8248   2.8582

          k =-0.3750-0.3750 1.1250 (   369 PWs)   bands (ev):

    -3.1876  -0.8360   1.8680   3.8497

          k = 0.8750 0.1250-0.6250 (   373 PWs)   bands (ev):

    -2.6654  -1.1586   1.8248   2.8582

          k = 1.3750-0.3750-0.1250 (   369 PWs)   bands (ev):

    -3.8453  -0.0727   2.4914   3.8185

          k = 0.3750-0.1250 0.6250 (   369 PWs)   bands (ev):

    -3.8453  -0.0727   2.4914   3.8185

          k = 0.8750-0.6250 1.1250 (   362 PWs)   bands (ev):

    -5.2408   2.4530   4.3985   4.4433

          k =-0.6250-0.1250 0.3750 (   369 PWs)   bands (ev):

    -3.8453  -0.0727   2.4914   3.8185

          k =-0.1250-0.6250 0.8750 (   373 PWs)   bands (ev):

    -2.6654  -1.1586   1.8248   2.8582

          k = 0.6250-0.1250-0.3750 (   369 PWs)   bands (ev):

    -3.8453  -0.0727   2.4914   3.8185

          k = 1.1250-0.6250 0.1250 (   373 PWs)   bands (ev):

    -2.6654  -1.1586   1.8248   2.8582

          k =-0.1250 0.8750-0.1250 (   366 PWs)   bands (ev):

    -2.8184  -1.0682   2.4079   3.0971

          k = 0.3750 0.3750 0.3750 (   362 PWs)   bands (ev):

    -4.3443  -0.1135   4.6004   4.6004

          k = 0.1250 0.8750 0.1250 (   366 PWs)   bands (ev):

    -2.8184  -1.0682   2.4079   3.0971

          k = 0.6250 0.3750 0.6250 (   369 PWs)   bands (ev):

    -3.6690  -0.8799   3.4490   4.1543

          k = 0.3750-0.3750 0.3750 (   362 PWs)   bands (ev):

    -4.3443  -0.1135   4.6004   4.6004

          k = 0.8750-0.8750 0.8750 (   359 PWs)   bands (ev):

    -5.7522   4.0550   5.3701   5.3701

          k = 0.3750 0.3750 1.1250 (   369 PWs)   bands (ev):

    -3.1876  -0.8360   1.8680   3.8497

          k = 0.8750-0.1250 1.6250 (   373 PWs)   bands (ev):

    -2.6654  -1.1586   1.8248   2.8582

          k = 1.1250 0.3750-0.3750 (   369 PWs)   bands (ev):

    -3.1876  -0.8360   1.8680   3.8497

          k = 1.6250-0.1250 0.1250 (   362 PWs)   bands (ev):

    -5.2408   2.4530   4.3985   4.4433

     highest occupied level (ev):     5.3701

     Writing output data file silicon.10.45.save

                                                                                

     bravais-lattice index     =            2
     lattice parameter (alat)  =      10.4500  a.u.
     unit-cell volume          =     285.2915 (a.u.)^3
     number of atoms/cell      =            2
     number of atomic types    =            1
     kinetic-energy cut-off    =      18.0000  Ry
     charge density cut-off    =      72.0000  Ry
     convergence threshold     =      1.0E-12
     beta                      =       0.7000
     number of iterations used =            4
     Exchange-correlation      = SLA  PW   PBE  PBE ( 1  4  3  4 0 0)


     celldm(1)=   10.45000  celldm(2)=    0.00000  celldm(3)=    0.00000
     celldm(4)=    0.00000  celldm(5)=    0.00000  celldm(6)=    0.00000

     crystal axes: (cart. coord. in units of alat)
               a(1) = ( -0.5000  0.0000  0.5000 )  
               a(2) = (  0.0000  0.5000  0.5000 )  
               a(3) = ( -0.5000  0.5000  0.0000 )  

     reciprocal axes: (cart. coord. in units 2 pi/alat)
               b(1) = ( -1.0000 -1.0000  1.0000 )  
               b(2) = (  1.0000  1.0000  1.0000 )  
               b(3) = ( -1.0000  1.0000 -1.0000 )  


     Atoms inside the unit cell: 

     Cartesian axes

     site n.  atom      mass           positions (alat units)
        1     Si  28.0860   tau(    1) = (    0.00000    0.00000    0.00000  )
        2     Si  28.0860   tau(    2) = (    0.25000    0.25000    0.25000  )

     Computing dynamical matrix for 
                    q = (   0.5000000  -0.5000000   0.5000000 )

     13 Sym.Ops. (with q -> -q+G )


     G cutoff =  199.1615  (    722 G-vectors)     FFT grid: ( 20, 20, 20)
     number of k points=    60

     PseudoPot. # 1 for Si read from file:
     /home/max/quantum_espresso/qe-6.1/pseudo/si_pbe_v1.uspp.F.UPF.txt
     MD5 check sum: a056efeee980c13900f22a371efd63c1
     Pseudo is Ultrasoft + core correction, Zval =  4.0
     Generated by new atomic code, or converted to UPF format
     Using radial grid of  899 points,  6 beta functions with: 
                l(1) =   0
                l(2) =   0
                l(3) =   1
                l(4) =   1
                l(5) =   2
                l(6) =   2
     Q(r) pseudized with  8 coefficients,  rinner =    0.900   0.900   0.900
                                                       0.900   0.900


     Atomic displacements:
     There are   4 irreducible representations

     Representation     1      1 modes -  To be done

     Representation     2      1 modes -  To be done

     Representation     3      2 modes -  To be done

     Representation     4      2 modes -  To be done



     Alpha used in Ewald sum =   0.7000

     negative rho (up, down):  2.246E-06 0.000E+00
     PHONON       :    15.73s CPU        16.70s WALL



     Representation #  1 mode #   1

     Self-consistent Calculation

      iter #   1 total cpu time :    16.8 secs   av.it.:   4.8
      thresh= 1.000E-02 alpha_mix =  0.700 |ddv_scf|^2 =  2.404E-05

      iter #   2 total cpu time :    17.0 secs   av.it.:   8.4
      thresh= 4.904E-04 alpha_mix =  0.700 |ddv_scf|^2 =  2.229E-05

      iter #   3 total cpu time :    17.1 secs   av.it.:   7.5
      thresh= 4.721E-04 alpha_mix =  0.700 |ddv_scf|^2 =  3.946E-08

      iter #   4 total cpu time :    17.2 secs   av.it.:   7.5
      thresh= 1.986E-05 alpha_mix =  0.700 |ddv_scf|^2 =  1.363E-10

      iter #   5 total cpu time :    17.4 secs   av.it.:   7.8
      thresh= 1.168E-06 alpha_mix =  0.700 |ddv_scf|^2 =  3.851E-12

      iter #   6 total cpu time :    17.5 secs   av.it.:   7.8
      thresh= 1.962E-07 alpha_mix =  0.700 |ddv_scf|^2 =  7.290E-14

     End of self-consistent calculation

     Convergence has been achieved 


     Representation #  2 mode #   2

     Self-consistent Calculation

      iter #   1 total cpu time :    17.6 secs   av.it.:   5.7
      thresh= 1.000E-02 alpha_mix =  0.700 |ddv_scf|^2 =  3.351E-04

      iter #   2 total cpu time :    17.8 secs   av.it.:   8.3
      thresh= 1.831E-03 alpha_mix =  0.700 |ddv_scf|^2 =  1.041E-03

      iter #   3 total cpu time :    18.0 secs   av.it.:   7.1
      thresh= 3.226E-03 alpha_mix =  0.700 |ddv_scf|^2 =  1.491E-07

      iter #   4 total cpu time :    18.2 secs   av.it.:   8.2
      thresh= 3.861E-05 alpha_mix =  0.700 |ddv_scf|^2 =  1.074E-08

      iter #   5 total cpu time :    18.3 secs   av.it.:   8.4
      thresh= 1.036E-05 alpha_mix =  0.700 |ddv_scf|^2 =  1.399E-10

      iter #   6 total cpu time :    18.5 secs   av.it.:   8.2
      thresh= 1.183E-06 alpha_mix =  0.700 |ddv_scf|^2 =  3.297E-12

      iter #   7 total cpu time :    18.6 secs   av.it.:   7.8
      thresh= 1.816E-07 alpha_mix =  0.700 |ddv_scf|^2 =  8.937E-15

     End of self-consistent calculation

     Convergence has been achieved 


     Representation #  3 modes #   3  4

     Self-consistent Calculation

      iter #   1 total cpu time :    18.8 secs   av.it.:   4.7
      thresh= 1.000E-02 alpha_mix =  0.700 |ddv_scf|^2 =  3.498E-07

      iter #   2 total cpu time :    19.1 secs   av.it.:   9.0
      thresh= 5.914E-05 alpha_mix =  0.700 |ddv_scf|^2 =  3.042E-08

      iter #   3 total cpu time :    19.4 secs   av.it.:   8.3
      thresh= 1.744E-05 alpha_mix =  0.700 |ddv_scf|^2 =  5.190E-10

      iter #   4 total cpu time :    19.7 secs   av.it.:   8.9
      thresh= 2.278E-06 alpha_mix =  0.700 |ddv_scf|^2 =  6.550E-12

      iter #   5 total cpu time :    20.2 secs   av.it.:   8.7
      thresh= 2.559E-07 alpha_mix =  0.700 |ddv_scf|^2 =  3.732E-14

     End of self-consistent calculation

     Convergence has been achieved 


     Representation #  4 modes #   5  6

     Self-consistent Calculation

      iter #   1 total cpu time :    20.4 secs   av.it.:   4.9
      thresh= 1.000E-02 alpha_mix =  0.700 |ddv_scf|^2 =  9.461E-07

      iter #   2 total cpu time :    20.7 secs   av.it.:   9.6
      thresh= 9.727E-05 alpha_mix =  0.700 |ddv_scf|^2 =  7.539E-08

      iter #   3 total cpu time :    21.0 secs   av.it.:   9.3
      thresh= 2.746E-05 alpha_mix =  0.700 |ddv_scf|^2 =  4.620E-09

      iter #   4 total cpu time :    21.3 secs   av.it.:   8.5
      thresh= 6.797E-06 alpha_mix =  0.700 |ddv_scf|^2 =  6.773E-12

      iter #   5 total cpu time :    21.6 secs   av.it.:   8.8
      thresh= 2.603E-07 alpha_mix =  0.700 |ddv_scf|^2 =  2.656E-14

     End of self-consistent calculation

     Convergence has been achieved 

     Number of q in the star =    4
     List of q in the star:
          1   0.500000000  -0.500000000   0.500000000
          2   0.500000000   0.500000000   0.500000000
          3  -0.500000000   0.500000000   0.500000000
          4   0.500000000   0.500000000  -0.500000000

     Diagonalizing the dynamical matrix

     q = (    0.500000000  -0.500000000   0.500000000 ) 

 **************************************************************************
     freq (    1) =       5.190798 [THz] =     173.146397 [cm-1]
     freq (    2) =       5.190798 [THz] =     173.146397 [cm-1]
     freq (    3) =      11.675265 [THz] =     389.444927 [cm-1]
     freq (    4) =      12.175491 [THz] =     406.130661 [cm-1]
     freq (    5) =      14.505829 [THz] =     483.862369 [cm-1]
     freq (    6) =      14.505829 [THz] =     483.862369 [cm-1]
 **************************************************************************

     Calculation of q =    0.0000000   0.5000000   0.0000000

   Info: using nr1, nr2, nr3 values from input

   Info: using nr1, nr2, nr3 values from input

     Parallelization info
     --------------------
     sticks:   dense  smooth     PW     G-vecs:    dense   smooth      PW
     Min          66      66     27                  722      722     181
     Max          67      67     28                  724      724     182
     Sum         265     265    109                 2891     2891     725



     bravais-lattice index     =            2
     lattice parameter (alat)  =      10.4500  a.u.
     unit-cell volume          =     285.2915 (a.u.)^3
     number of atoms/cell      =            2
     number of atomic types    =            1
     number of electrons       =         8.00
     number of Kohn-Sham states=            4
     kinetic-energy cutoff     =      18.0000  Ry
     charge density cutoff     =      72.0000  Ry
     Exchange-correlation      = SLA  PW   PBE  PBE ( 1  4  3  4 0 0)

     celldm(1)=  10.450000  celldm(2)=   0.000000  celldm(3)=   0.000000
     celldm(4)=   0.000000  celldm(5)=   0.000000  celldm(6)=   0.000000

     crystal axes: (cart. coord. in units of alat)
               a(1) = (  -0.500000   0.000000   0.500000 )  
               a(2) = (   0.000000   0.500000   0.500000 )  
               a(3) = (  -0.500000   0.500000   0.000000 )  

     reciprocal axes: (cart. coord. in units 2 pi/alat)
               b(1) = ( -1.000000 -1.000000  1.000000 )  
               b(2) = (  1.000000  1.000000  1.000000 )  
               b(3) = ( -1.000000  1.000000 -1.000000 )  


     PseudoPot. # 1 for Si read from file:
     /home/max/quantum_espresso/qe-6.1/pseudo/si_pbe_v1.uspp.F.UPF.txt
     MD5 check sum: a056efeee980c13900f22a371efd63c1
     Pseudo is Ultrasoft + core correction, Zval =  4.0
     Generated by new atomic code, or converted to UPF format
     Using radial grid of  899 points,  6 beta functions with: 
                l(1) =   0
                l(2) =   0
                l(3) =   1
                l(4) =   1
                l(5) =   2
                l(6) =   2
     Q(r) pseudized with  8 coefficients,  rinner =    0.900   0.900   0.900
                                                       0.900   0.900

     atomic species   valence    mass     pseudopotential
        Si             4.00    28.08600     Si( 1.00)

     48 Sym. Ops., with inversion, found



   Cartesian axes

     site n.     atom                  positions (alat units)
         1           Si  tau(   1) = (   0.0000000   0.0000000   0.0000000  )
         2           Si  tau(   2) = (   0.2500000   0.2500000   0.2500000  )

     number of k points=    80
                       cart. coord. in units 2pi/alat
        k(    1) = (  -0.1250000   0.1250000   0.1250000), wk =   0.0312500
        k(    2) = (  -0.1250000   0.6250000   0.1250000), wk =   0.0000000
        k(    3) = (  -0.3750000   0.3750000  -0.1250000), wk =   0.0625000
        k(    4) = (  -0.3750000   0.8750000  -0.1250000), wk =   0.0000000
        k(    5) = (   0.3750000  -0.3750000   0.6250000), wk =   0.0625000
        k(    6) = (   0.3750000   0.1250000   0.6250000), wk =   0.0000000
        k(    7) = (   0.1250000  -0.1250000   0.3750000), wk =   0.0625000
        k(    8) = (   0.1250000   0.3750000   0.3750000), wk =   0.0000000
        k(    9) = (  -0.1250000   0.6250000   0.1250000), wk =   0.0312500
        k(   10) = (  -0.1250000   1.1250000   0.1250000), wk =   0.0000000
        k(   11) = (   0.6250000  -0.1250000   0.8750000), wk =   0.0625000
        k(   12) = (   0.6250000   0.3750000   0.8750000), wk =   0.0000000
        k(   13) = (   0.3750000   0.1250000   0.6250000), wk =   0.0625000
        k(   14) = (   0.3750000   0.6250000   0.6250000), wk =   0.0000000
        k(   15) = (  -0.1250000  -0.8750000   0.1250000), wk =   0.0312500
        k(   16) = (  -0.1250000  -0.3750000   0.1250000), wk =   0.0000000
        k(   17) = (  -0.3750000   0.3750000   0.3750000), wk =   0.0312500
        k(   18) = (  -0.3750000   0.8750000   0.3750000), wk =   0.0000000
        k(   19) = (   0.3750000  -0.3750000   1.1250000), wk =   0.0625000
        k(   20) = (   0.3750000   0.1250000   1.1250000), wk =   0.0000000
        k(   21) = (  -0.1250000  -0.1250000   0.1250000), wk =   0.0312500
        k(   22) = (  -0.1250000   0.3750000   0.1250000), wk =   0.0000000
        k(   23) = (   0.1250000  -0.3750000   0.3750000), wk =   0.0625000
        k(   24) = (   0.1250000   0.1250000   0.3750000), wk =   0.0000000
        k(   25) = (   0.3750000  -0.1250000   0.3750000), wk =   0.0312500
        k(   26) = (   0.3750000   0.3750000   0.3750000), wk =   0.0000000
        k(   27) = (   0.3750000   0.1250000   0.3750000), wk =   0.0312500
        k(   28) = (   0.3750000   0.6250000   0.3750000), wk =   0.0000000
        k(   29) = (  -0.6250000   0.3750000  -0.3750000), wk =   0.0625000
        k(   30) = (  -0.6250000   0.8750000  -0.3750000), wk =   0.0000000
        k(   31) = (  -0.3750000   0.6250000  -0.3750000), wk =   0.0312500
        k(   32) = (  -0.3750000   1.1250000  -0.3750000), wk =   0.0000000
        k(   33) = (  -0.3750000  -0.6250000  -0.3750000), wk =   0.0312500
        k(   34) = (  -0.3750000  -0.1250000  -0.3750000), wk =   0.0000000
        k(   35) = (  -0.3750000   0.1250000  -0.1250000), wk =   0.0625000
        k(   36) = (  -0.3750000   0.6250000  -0.1250000), wk =   0.0000000
        k(   37) = (  -0.1250000   0.3750000  -0.1250000), wk =   0.0312500
        k(   38) = (  -0.1250000   0.8750000  -0.1250000), wk =   0.0000000
        k(   39) = (  -0.1250000  -0.3750000  -0.1250000), wk =   0.0312500
        k(   40) = (  -0.1250000   0.1250000  -0.1250000), wk =   0.0000000
        k(   41) = (  -0.1250000  -0.6250000   0.1250000), wk =   0.0312500
        k(   42) = (  -0.1250000  -0.1250000   0.1250000), wk =   0.0000000
        k(   43) = (   0.6250000  -0.1250000  -0.1250000), wk =   0.0625000
        k(   44) = (   0.6250000   0.3750000  -0.1250000), wk =   0.0000000
        k(   45) = (   0.6250000   0.1250000   0.1250000), wk =   0.0625000
        k(   46) = (   0.6250000   0.6250000   0.1250000), wk =   0.0000000
        k(   47) = (  -0.8750000   0.1250000  -0.6250000), wk =   0.0625000
        k(   48) = (  -0.8750000   0.6250000  -0.6250000), wk =   0.0000000
        k(   49) = (  -0.1250000   0.6250000  -0.8750000), wk =   0.0625000
        k(   50) = (  -0.1250000   1.1250000  -0.8750000), wk =   0.0000000
        k(   51) = (  -0.1250000   0.8750000  -0.6250000), wk =   0.0625000
        k(   52) = (  -0.1250000   1.3750000  -0.6250000), wk =   0.0000000
        k(   53) = (  -0.1250000  -0.8750000  -0.6250000), wk =   0.0625000
        k(   54) = (  -0.1250000  -0.3750000  -0.6250000), wk =   0.0000000
        k(   55) = (   0.8750000  -0.6250000   0.1250000), wk =   0.0625000
        k(   56) = (   0.8750000  -0.1250000   0.1250000), wk =   0.0000000
        k(   57) = (  -0.6250000  -0.1250000  -0.3750000), wk =   0.0625000
        k(   58) = (  -0.6250000   0.3750000  -0.3750000), wk =   0.0000000
        k(   59) = (   0.1250000   0.3750000  -0.6250000), wk =   0.0625000
        k(   60) = (   0.1250000   0.8750000  -0.6250000), wk =   0.0000000
        k(   61) = (   0.1250000   0.6250000  -0.3750000), wk =   0.0625000
        k(   62) = (   0.1250000   1.1250000  -0.3750000), wk =   0.0000000
        k(   63) = (   0.1250000  -0.6250000  -0.3750000), wk =   0.0625000
        k(   64) = (   0.1250000  -0.1250000  -0.3750000), wk =   0.0000000
        k(   65) = (   0.6250000  -0.3750000  -0.1250000), wk =   0.0625000
        k(   66) = (   0.6250000   0.1250000  -0.1250000), wk =   0.0000000
        k(   67) = (  -0.1250000   0.8750000   0.1250000), wk =   0.0312500
        k(   68) = (  -0.1250000   1.3750000   0.1250000), wk =   0.0000000
        k(   69) = (  -0.8750000  -0.1250000  -0.1250000), wk =   0.0625000
        k(   70) = (  -0.8750000   0.3750000  -0.1250000), wk =   0.0000000
        k(   71) = (  -0.8750000   0.1250000   0.1250000), wk =   0.0625000
        k(   72) = (  -0.8750000   0.6250000   0.1250000), wk =   0.0000000
        k(   73) = (  -0.3750000  -0.3750000   0.3750000), wk =   0.0312500
        k(   74) = (  -0.3750000   0.1250000   0.3750000), wk =   0.0000000
        k(   75) = (  -1.1250000   0.3750000  -0.3750000), wk =   0.0625000
        k(   76) = (  -1.1250000   0.8750000  -0.3750000), wk =   0.0000000
        k(   77) = (  -0.3750000   1.1250000  -0.3750000), wk =   0.0312500
        k(   78) = (  -0.3750000   1.6250000  -0.3750000), wk =   0.0000000
        k(   79) = (  -0.3750000  -1.1250000  -0.3750000), wk =   0.0312500
        k(   80) = (  -0.3750000  -0.6250000  -0.3750000), wk =   0.0000000

     Dense  grid:     2891 G-vectors     FFT dimensions: (  20,  20,  20)

     Estimated max dynamical RAM per process >       0.34MB

     Estimated total allocated dynamical RAM >       1.34MB

     Check: negative/imaginary core charge=   -0.000006    0.000000

     The potential is recalculated from file :
     ./_ph0/silicon.10.45.save/charge-density.dat


     negative rho (up, down):  2.246E-06 0.000E+00
     Starting wfc are    8 atomic wfcs

     Band Structure Calculation
     Davidson diagonalization with overlap

     ethr =  1.25E-10,  avg # of iterations = 11.7

     total cpu time spent up to now is        2.4 secs

     End of band structure calculation

          k =-0.1250 0.1250 0.1250 (   359 PWs)   bands (ev):

    -5.7522   4.0550   5.3701   5.3701

          k =-0.1250 0.6250 0.1250 (   365 PWs)   bands (ev):

    -4.2427   0.7532   3.1170   3.5508

          k =-0.3750 0.3750-0.1250 (   366 PWs)   bands (ev):

    -4.7597   1.1202   3.4463   4.8970

          k =-0.3750 0.8750-0.1250 (   373 PWs)   bands (ev):

    -2.6654  -1.1586   1.8248   2.8582

          k = 0.3750-0.3750 0.6250 (   369 PWs)   bands (ev):

    -3.6690  -0.8799   3.4490   4.1543

          k = 0.3750 0.1250 0.6250 (   369 PWs)   bands (ev):

    -3.8453  -0.0727   2.4914   3.8185

          k = 0.1250-0.1250 0.3750 (   362 PWs)   bands (ev):

    -5.2408   2.4530   4.3985   4.4433

          k = 0.1250 0.3750 0.3750 (   366 PWs)   bands (ev):

    -4.7597   1.1202   3.4463   4.8970

          k =-0.1250 0.6250 0.1250 (   365 PWs)   bands (ev):

    -4.2427   0.7532   3.1170   3.5508

          k =-0.1250 1.1250 0.1250 (   366 PWs)   bands (ev):

    -2.8184  -1.0682   2.4079   3.0971

          k = 0.6250-0.1250 0.8750 (   373 PWs)   bands (ev):

    -2.6654  -1.1586   1.8248   2.8582

          k = 0.6250 0.3750 0.8750 (   369 PWs)   bands (ev):

    -3.8453  -0.0727   2.4914   3.8185

          k = 0.3750 0.1250 0.6250 (   369 PWs)   bands (ev):

    -3.8453  -0.0727   2.4914   3.8185

          k = 0.3750 0.6250 0.6250 (   369 PWs)   bands (ev):

    -3.6690  -0.8799   3.4490   4.1543

          k =-0.1250-0.8750 0.1250 (   366 PWs)   bands (ev):

    -2.8184  -1.0682   2.4079   3.0971

          k =-0.1250-0.3750 0.1250 (   362 PWs)   bands (ev):

    -5.2408   2.4530   4.3985   4.4433

          k =-0.3750 0.3750 0.3750 (   362 PWs)   bands (ev):

    -4.3443  -0.1135   4.6004   4.6004

          k =-0.3750 0.8750 0.3750 (   369 PWs)   bands (ev):

    -3.1876  -0.8360   1.8680   3.8497

          k = 0.3750-0.3750 1.1250 (   369 PWs)   bands (ev):

    -3.1876  -0.8360   1.8680   3.8497

          k = 0.3750 0.1250 1.1250 (   373 PWs)   bands (ev):

    -2.6654  -1.1586   1.8248   2.8582

          k =-0.1250-0.1250 0.1250 (   359 PWs)   bands (ev):

    -5.7522   4.0550   5.3701   5.3701

          k =-0.1250 0.3750 0.1250 (   362 PWs)   bands (ev):

    -5.2408   2.4530   4.3985   4.4433

          k = 0.1250-0.3750 0.3750 (   366 PWs)   bands (ev):

    -4.7597   1.1202   3.4463   4.8970

          k = 0.1250 0.1250 0.3750 (   362 PWs)   bands (ev):

    -5.2408   2.4530   4.3985   4.4433

          k = 0.3750-0.1250 0.3750 (   366 PWs)   bands (ev):

    -4.7597   1.1202   3.4463   4.8970

          k = 0.3750 0.3750 0.3750 (   362 PWs)   bands (ev):

    -4.3443  -0.1135   4.6004   4.6004

          k = 0.3750 0.1250 0.3750 (   366 PWs)   bands (ev):

    -4.7597   1.1202   3.4463   4.8970

          k = 0.3750 0.6250 0.3750 (   369 PWs)   bands (ev):

    -3.6690  -0.8799   3.4490   4.1543

          k =-0.6250 0.3750-0.3750 (   369 PWs)   bands (ev):

    -3.6690  -0.8799   3.4490   4.1543

          k =-0.6250 0.8750-0.3750 (   369 PWs)   bands (ev):

    -3.8453  -0.0727   2.4914   3.8185

          k =-0.3750 0.6250-0.3750 (   369 PWs)   bands (ev):

    -3.6690  -0.8799   3.4490   4.1543

          k =-0.3750 1.1250-0.3750 (   369 PWs)   bands (ev):

    -3.1876  -0.8360   1.8680   3.8497

          k =-0.3750-0.6250-0.3750 (   369 PWs)   bands (ev):

    -3.6690  -0.8799   3.4490   4.1543

          k =-0.3750-0.1250-0.3750 (   366 PWs)   bands (ev):

    -4.7597   1.1202   3.4463   4.8970

          k =-0.3750 0.1250-0.1250 (   362 PWs)   bands (ev):

    -5.2408   2.4530   4.3985   4.4433

          k =-0.3750 0.6250-0.1250 (   369 PWs)   bands (ev):

    -3.8453  -0.0727   2.4914   3.8185

          k =-0.1250 0.3750-0.1250 (   362 PWs)   bands (ev):

    -5.2408   2.4530   4.3985   4.4433

          k =-0.1250 0.8750-0.1250 (   366 PWs)   bands (ev):

    -2.8184  -1.0682   2.4079   3.0971

          k =-0.1250-0.3750-0.1250 (   362 PWs)   bands (ev):

    -5.2408   2.4530   4.3985   4.4433

          k =-0.1250 0.1250-0.1250 (   359 PWs)   bands (ev):

    -5.7522   4.0550   5.3701   5.3701

          k =-0.1250-0.6250 0.1250 (   365 PWs)   bands (ev):

    -4.2427   0.7532   3.1170   3.5508

          k =-0.1250-0.1250 0.1250 (   359 PWs)   bands (ev):

    -5.7522   4.0550   5.3701   5.3701

          k = 0.6250-0.1250-0.1250 (   365 PWs)   bands (ev):

    -4.2427   0.7532   3.1170   3.5508

          k = 0.6250 0.3750-0.1250 (   369 PWs)   bands (ev):

    -3.8453  -0.0727   2.4914   3.8185

          k = 0.6250 0.1250 0.1250 (   365 PWs)   bands (ev):

    -4.2427   0.7532   3.1170   3.5508

          k = 0.6250 0.6250 0.1250 (   369 PWs)   bands (ev):

    -3.1876  -0.8360   1.8680   3.8497

          k =-0.8750 0.1250-0.6250 (   373 PWs)   bands (ev):

    -2.6654  -1.1586   1.8248   2.8582

          k =-0.8750 0.6250-0.6250 (   366 PWs)   bands (ev):

    -4.7597   1.1202   3.4463   4.8970

          k =-0.1250 0.6250-0.8750 (   373 PWs)   bands (ev):

    -2.6654  -1.1586   1.8248   2.8582

          k =-0.1250 1.1250-0.8750 (   366 PWs)   bands (ev):

    -2.8184  -1.0682   2.4079   3.0971

          k =-0.1250 0.8750-0.6250 (   373 PWs)   bands (ev):

    -2.6654  -1.1586   1.8248   2.8582

          k =-0.1250 1.3750-0.6250 (   369 PWs)   bands (ev):

    -3.1876  -0.8360   1.8680   3.8497

          k =-0.1250-0.8750-0.6250 (   373 PWs)   bands (ev):

    -2.6654  -1.1586   1.8248   2.8582

          k =-0.1250-0.3750-0.6250 (   369 PWs)   bands (ev):

    -3.8453  -0.0727   2.4914   3.8185

          k = 0.8750-0.6250 0.1250 (   373 PWs)   bands (ev):

    -2.6654  -1.1586   1.8248   2.8582

          k = 0.8750-0.1250 0.1250 (   366 PWs)   bands (ev):

    -2.8184  -1.0682   2.4079   3.0971

          k =-0.6250-0.1250-0.3750 (   369 PWs)   bands (ev):

    -3.8453  -0.0727   2.4914   3.8185

          k =-0.6250 0.3750-0.3750 (   369 PWs)   bands (ev):

    -3.6690  -0.8799   3.4490   4.1543

          k = 0.1250 0.3750-0.6250 (   369 PWs)   bands (ev):

    -3.8453  -0.0727   2.4914   3.8185

          k = 0.1250 0.8750-0.6250 (   373 PWs)   bands (ev):

    -2.6654  -1.1586   1.8248   2.8582

          k = 0.1250 0.6250-0.3750 (   369 PWs)   bands (ev):

    -3.8453  -0.0727   2.4914   3.8185

          k = 0.1250 1.1250-0.3750 (   373 PWs)   bands (ev):

    -2.6654  -1.1586   1.8248   2.8582

          k = 0.1250-0.6250-0.3750 (   369 PWs)   bands (ev):

    -3.8453  -0.0727   2.4914   3.8185

          k = 0.1250-0.1250-0.3750 (   362 PWs)   bands (ev):

    -5.2408   2.4530   4.3985   4.4433

          k = 0.6250-0.3750-0.1250 (   369 PWs)   bands (ev):

    -3.8453  -0.0727   2.4914   3.8185

          k = 0.6250 0.1250-0.1250 (   365 PWs)   bands (ev):

    -4.2427   0.7532   3.1170   3.5508

          k =-0.1250 0.8750 0.1250 (   366 PWs)   bands (ev):

    -2.8184  -1.0682   2.4079   3.0971

          k =-0.1250 1.3750 0.1250 (   365 PWs)   bands (ev):

    -4.2427   0.7532   3.1170   3.5508

          k =-0.8750-0.1250-0.1250 (   366 PWs)   bands (ev):

    -2.8184  -1.0682   2.4079   3.0971

          k =-0.8750 0.3750-0.1250 (   373 PWs)   bands (ev):

    -2.6654  -1.1586   1.8248   2.8582

          k =-0.8750 0.1250 0.1250 (   366 PWs)   bands (ev):

    -2.8184  -1.0682   2.4079   3.0971

          k =-0.8750 0.6250 0.1250 (   373 PWs)   bands (ev):

    -2.6654  -1.1586   1.8248   2.8582

          k =-0.3750-0.3750 0.3750 (   362 PWs)   bands (ev):

    -4.3443  -0.1135   4.6004   4.6004

          k =-0.3750 0.1250 0.3750 (   366 PWs)   bands (ev):

    -4.7597   1.1202   3.4463   4.8970

          k =-1.1250 0.3750-0.3750 (   369 PWs)   bands (ev):

    -3.1876  -0.8360   1.8680   3.8497

          k =-1.1250 0.8750-0.3750 (   365 PWs)   bands (ev):

    -4.2427   0.7532   3.1170   3.5508

          k =-0.3750 1.1250-0.3750 (   369 PWs)   bands (ev):

    -3.1876  -0.8360   1.8680   3.8497

          k =-0.3750 1.6250-0.3750 (   362 PWs)   bands (ev):

    -4.3443  -0.1135   4.6004   4.6004

          k =-0.3750-1.1250-0.3750 (   369 PWs)   bands (ev):

    -3.1876  -0.8360   1.8680   3.8497

          k =-0.3750-0.6250-0.3750 (   369 PWs)   bands (ev):

    -3.6690  -0.8799   3.4490   4.1543

     highest occupied level (ev):     5.3701

     Writing output data file silicon.10.45.save

                                                                                

     bravais-lattice index     =            2
     lattice parameter (alat)  =      10.4500  a.u.
     unit-cell volume          =     285.2915 (a.u.)^3
     number of atoms/cell      =            2
     number of atomic types    =            1
     kinetic-energy cut-off    =      18.0000  Ry
     charge density cut-off    =      72.0000  Ry
     convergence threshold     =      1.0E-12
     beta                      =       0.7000
     number of iterations used =            4
     Exchange-correlation      = SLA  PW   PBE  PBE ( 1  4  3  4 0 0)


     celldm(1)=   10.45000  celldm(2)=    0.00000  celldm(3)=    0.00000
     celldm(4)=    0.00000  celldm(5)=    0.00000  celldm(6)=    0.00000

     crystal axes: (cart. coord. in units of alat)
               a(1) = ( -0.5000  0.0000  0.5000 )  
               a(2) = (  0.0000  0.5000  0.5000 )  
               a(3) = ( -0.5000  0.5000  0.0000 )  

     reciprocal axes: (cart. coord. in units 2 pi/alat)
               b(1) = ( -1.0000 -1.0000  1.0000 )  
               b(2) = (  1.0000  1.0000  1.0000 )  
               b(3) = ( -1.0000  1.0000 -1.0000 )  


     Atoms inside the unit cell: 

     Cartesian axes

     site n.  atom      mass           positions (alat units)
        1     Si  28.0860   tau(    1) = (    0.00000    0.00000    0.00000  )
        2     Si  28.0860   tau(    2) = (    0.25000    0.25000    0.25000  )

     Computing dynamical matrix for 
                    q = (   0.0000000   0.5000000   0.0000000 )

      8 Sym.Ops. (no q -> -q+G )


     G cutoff =  199.1615  (    722 G-vectors)     FFT grid: ( 20, 20, 20)
     number of k points=    80

     PseudoPot. # 1 for Si read from file:
     /home/max/quantum_espresso/qe-6.1/pseudo/si_pbe_v1.uspp.F.UPF.txt
     MD5 check sum: a056efeee980c13900f22a371efd63c1
     Pseudo is Ultrasoft + core correction, Zval =  4.0
     Generated by new atomic code, or converted to UPF format
     Using radial grid of  899 points,  6 beta functions with: 
                l(1) =   0
                l(2) =   0
                l(3) =   1
                l(4) =   1
                l(5) =   2
                l(6) =   2
     Q(r) pseudized with  8 coefficients,  rinner =    0.900   0.900   0.900
                                                       0.900   0.900

     Mode symmetry, C_4v (4mm)  point group:


     Atomic displacements:
     There are   4 irreducible representations

     Representation     1      1 modes -A_1  G_1 D_1  To be done

     Representation     2      1 modes -B_2  G_4 D_2'  To be done

     Representation     3      2 modes -E    G_5 D_5  To be done

     Representation     4      2 modes -E    G_5 D_5  To be done



     Alpha used in Ewald sum =   0.7000

     negative rho (up, down):  2.246E-06 0.000E+00
     PHONON       :    21.38s CPU        22.66s WALL



     Representation #  1 mode #   1

     Self-consistent Calculation

      iter #   1 total cpu time :    22.8 secs   av.it.:   5.8
      thresh= 1.000E-02 alpha_mix =  0.700 |ddv_scf|^2 =  2.890E-03

      iter #   2 total cpu time :    23.0 secs   av.it.:   7.6
      thresh= 5.376E-03 alpha_mix =  0.700 |ddv_scf|^2 =  3.872E-02

      iter #   3 total cpu time :    23.1 secs   av.it.:   6.7
      thresh= 1.000E-02 alpha_mix =  0.700 |ddv_scf|^2 =  1.499E-07

      iter #   4 total cpu time :    23.3 secs   av.it.:   8.1
      thresh= 3.872E-05 alpha_mix =  0.700 |ddv_scf|^2 =  1.723E-08

      iter #   5 total cpu time :    23.5 secs   av.it.:   7.8
      thresh= 1.313E-05 alpha_mix =  0.700 |ddv_scf|^2 =  6.540E-10

      iter #   6 total cpu time :    23.7 secs   av.it.:   8.0
      thresh= 2.557E-06 alpha_mix =  0.700 |ddv_scf|^2 =  2.533E-12

      iter #   7 total cpu time :    23.9 secs   av.it.:   8.1
      thresh= 1.592E-07 alpha_mix =  0.700 |ddv_scf|^2 =  5.059E-13

     End of self-consistent calculation

     Convergence has been achieved 


     Representation #  2 mode #   2

     Self-consistent Calculation

      iter #   1 total cpu time :    24.2 secs   av.it.:   4.9
      thresh= 1.000E-02 alpha_mix =  0.700 |ddv_scf|^2 =  5.130E-06

      iter #   2 total cpu time :    24.4 secs   av.it.:   8.7
      thresh= 2.265E-04 alpha_mix =  0.700 |ddv_scf|^2 =  1.371E-06

      iter #   3 total cpu time :    24.6 secs   av.it.:   8.5
      thresh= 1.171E-04 alpha_mix =  0.700 |ddv_scf|^2 =  3.333E-08

      iter #   4 total cpu time :    24.8 secs   av.it.:   8.3
      thresh= 1.826E-05 alpha_mix =  0.700 |ddv_scf|^2 =  8.219E-10

      iter #   5 total cpu time :    24.9 secs   av.it.:   8.7
      thresh= 2.867E-06 alpha_mix =  0.700 |ddv_scf|^2 =  7.932E-12

      iter #   6 total cpu time :    25.1 secs   av.it.:   7.9
      thresh= 2.816E-07 alpha_mix =  0.700 |ddv_scf|^2 =  1.008E-13

     End of self-consistent calculation

     Convergence has been achieved 


     Representation #  3 modes #   3  4

     Self-consistent Calculation

      iter #   1 total cpu time :    25.4 secs   av.it.:   5.0
      thresh= 1.000E-02 alpha_mix =  0.700 |ddv_scf|^2 =  9.395E-07

      iter #   2 total cpu time :    25.8 secs   av.it.:   9.8
      thresh= 9.693E-05 alpha_mix =  0.700 |ddv_scf|^2 =  1.190E-07

      iter #   3 total cpu time :    26.4 secs   av.it.:   9.5
      thresh= 3.450E-05 alpha_mix =  0.700 |ddv_scf|^2 =  5.108E-09

      iter #   4 total cpu time :    26.8 secs   av.it.:   8.8
      thresh= 7.147E-06 alpha_mix =  0.700 |ddv_scf|^2 =  9.102E-12

      iter #   5 total cpu time :    27.1 secs   av.it.:   9.1
      thresh= 3.017E-07 alpha_mix =  0.700 |ddv_scf|^2 =  3.110E-13

     End of self-consistent calculation

     Convergence has been achieved 


     Representation #  4 modes #   5  6

     Self-consistent Calculation

      iter #   1 total cpu time :    27.4 secs   av.it.:   5.0
      thresh= 1.000E-02 alpha_mix =  0.700 |ddv_scf|^2 =  9.486E-07

      iter #   2 total cpu time :    27.8 secs   av.it.:   9.8
      thresh= 9.740E-05 alpha_mix =  0.700 |ddv_scf|^2 =  1.204E-07

      iter #   3 total cpu time :    28.4 secs   av.it.:   9.5
      thresh= 3.470E-05 alpha_mix =  0.700 |ddv_scf|^2 =  7.697E-09

      iter #   4 total cpu time :    28.8 secs   av.it.:   8.9
      thresh= 8.773E-06 alpha_mix =  0.700 |ddv_scf|^2 =  1.587E-11

      iter #   5 total cpu time :    29.2 secs   av.it.:   9.2
      thresh= 3.983E-07 alpha_mix =  0.700 |ddv_scf|^2 =  4.712E-14

     End of self-consistent calculation

     Convergence has been achieved 

     Number of q in the star =    6
     List of q in the star:
          1   0.000000000   0.500000000   0.000000000
          2   0.000000000  -0.500000000   0.000000000
          3   0.500000000   0.000000000   0.000000000
          4   0.000000000   0.000000000   0.500000000
          5   0.000000000   0.000000000  -0.500000000
          6  -0.500000000   0.000000000   0.000000000

     Diagonalizing the dynamical matrix

     q = (    0.000000000   0.500000000   0.000000000 ) 

 **************************************************************************
     freq (    1) =       4.381987 [THz] =     146.167366 [cm-1]
     freq (    2) =       4.381987 [THz] =     146.167366 [cm-1]
     freq (    3) =       6.878858 [THz] =     229.454017 [cm-1]
     freq (    4) =      14.009691 [THz] =     467.313000 [cm-1]
     freq (    5) =      14.009691 [THz] =     467.313000 [cm-1]
     freq (    6) =      14.757573 [THz] =     492.259650 [cm-1]
 **************************************************************************

     Mode symmetry, C_4v (4mm)  point group:

     freq (  1 -  2) =        146.2  [cm-1]   --> E    G_5 D_5       
     freq (  3 -  3) =        229.5  [cm-1]   --> A_1  G_1 D_1       
     freq (  4 -  5) =        467.3  [cm-1]   --> E    G_5 D_5       
     freq (  6 -  6) =        492.3  [cm-1]   --> B_2  G_4 D_2'      

     Calculation of q =    0.7500000  -0.2500000   0.7500000

   Info: using nr1, nr2, nr3 values from input

   Info: using nr1, nr2, nr3 values from input

     Parallelization info
     --------------------
     sticks:   dense  smooth     PW     G-vecs:    dense   smooth      PW
     Min          65      65     30                  722      722     216
     Max          67      67     31                  723      723     218
     Sum         265     265    121                 2891     2891     869



     bravais-lattice index     =            2
     lattice parameter (alat)  =      10.4500  a.u.
     unit-cell volume          =     285.2915 (a.u.)^3
     number of atoms/cell      =            2
     number of atomic types    =            1
     number of electrons       =         8.00
     number of Kohn-Sham states=            4
     kinetic-energy cutoff     =      18.0000  Ry
     charge density cutoff     =      72.0000  Ry
     Exchange-correlation      = SLA  PW   PBE  PBE ( 1  4  3  4 0 0)

     celldm(1)=  10.450000  celldm(2)=   0.000000  celldm(3)=   0.000000
     celldm(4)=   0.000000  celldm(5)=   0.000000  celldm(6)=   0.000000

     crystal axes: (cart. coord. in units of alat)
               a(1) = (  -0.500000   0.000000   0.500000 )  
               a(2) = (   0.000000   0.500000   0.500000 )  
               a(3) = (  -0.500000   0.500000   0.000000 )  

     reciprocal axes: (cart. coord. in units 2 pi/alat)
               b(1) = ( -1.000000 -1.000000  1.000000 )  
               b(2) = (  1.000000  1.000000  1.000000 )  
               b(3) = ( -1.000000  1.000000 -1.000000 )  


     PseudoPot. # 1 for Si read from file:
     /home/max/quantum_espresso/qe-6.1/pseudo/si_pbe_v1.uspp.F.UPF.txt
     MD5 check sum: a056efeee980c13900f22a371efd63c1
     Pseudo is Ultrasoft + core correction, Zval =  4.0
     Generated by new atomic code, or converted to UPF format
     Using radial grid of  899 points,  6 beta functions with: 
                l(1) =   0
                l(2) =   0
                l(3) =   1
                l(4) =   1
                l(5) =   2
                l(6) =   2
     Q(r) pseudized with  8 coefficients,  rinner =    0.900   0.900   0.900
                                                       0.900   0.900

     atomic species   valence    mass     pseudopotential
        Si             4.00    28.08600     Si( 1.00)

     48 Sym. Ops., with inversion, found



   Cartesian axes

     site n.     atom                  positions (alat units)
         1           Si  tau(   1) = (   0.0000000   0.0000000   0.0000000  )
         2           Si  tau(   2) = (   0.2500000   0.2500000   0.2500000  )

     number of k points=   288

     Number of k-points >= 100: set verbosity='high' to print them.

     Dense  grid:     2891 G-vectors     FFT dimensions: (  20,  20,  20)

     Estimated max dynamical RAM per process >       0.34MB

     Estimated total allocated dynamical RAM >       1.34MB

     Check: negative/imaginary core charge=   -0.000006    0.000000

     The potential is recalculated from file :
     ./_ph0/silicon.10.45.save/charge-density.dat


     negative rho (up, down):  2.246E-06 0.000E+00
     Starting wfc are    8 atomic wfcs

     Band Structure Calculation
     Davidson diagonalization with overlap

     ethr =  1.25E-10,  avg # of iterations = 11.6

     total cpu time spent up to now is        4.5 secs

     End of band structure calculation

     Number of k-points >= 100: set verbosity='high' to print the bands.

     highest occupied level (ev):     5.3701

     Writing output data file silicon.10.45.save

                                                                                

     bravais-lattice index     =            2
     lattice parameter (alat)  =      10.4500  a.u.
     unit-cell volume          =     285.2915 (a.u.)^3
     number of atoms/cell      =            2
     number of atomic types    =            1
     kinetic-energy cut-off    =      18.0000  Ry
     charge density cut-off    =      72.0000  Ry
     convergence threshold     =      1.0E-12
     beta                      =       0.7000
     number of iterations used =            4
     Exchange-correlation      = SLA  PW   PBE  PBE ( 1  4  3  4 0 0)


     celldm(1)=   10.45000  celldm(2)=    0.00000  celldm(3)=    0.00000
     celldm(4)=    0.00000  celldm(5)=    0.00000  celldm(6)=    0.00000

     crystal axes: (cart. coord. in units of alat)
               a(1) = ( -0.5000  0.0000  0.5000 )  
               a(2) = (  0.0000  0.5000  0.5000 )  
               a(3) = ( -0.5000  0.5000  0.0000 )  

     reciprocal axes: (cart. coord. in units 2 pi/alat)
               b(1) = ( -1.0000 -1.0000  1.0000 )  
               b(2) = (  1.0000  1.0000  1.0000 )  
               b(3) = ( -1.0000  1.0000 -1.0000 )  


     Atoms inside the unit cell: 

     Cartesian axes

     site n.  atom      mass           positions (alat units)
        1     Si  28.0860   tau(    1) = (    0.00000    0.00000    0.00000  )
        2     Si  28.0860   tau(    2) = (    0.25000    0.25000    0.25000  )

     Computing dynamical matrix for 
                    q = (   0.7500000  -0.2500000   0.7500000 )

      2 Sym.Ops. (no q -> -q+G )


     G cutoff =  199.1615  (    723 G-vectors)     FFT grid: ( 20, 20, 20)
     number of k points=   288

     PseudoPot. # 1 for Si read from file:
     /home/max/quantum_espresso/qe-6.1/pseudo/si_pbe_v1.uspp.F.UPF.txt
     MD5 check sum: a056efeee980c13900f22a371efd63c1
     Pseudo is Ultrasoft + core correction, Zval =  4.0
     Generated by new atomic code, or converted to UPF format
     Using radial grid of  899 points,  6 beta functions with: 
                l(1) =   0
                l(2) =   0
                l(3) =   1
                l(4) =   1
                l(5) =   2
                l(6) =   2
     Q(r) pseudized with  8 coefficients,  rinner =    0.900   0.900   0.900
                                                       0.900   0.900

     Mode symmetry, C_s (m)     point group:


     Atomic displacements:
     There are   6 irreducible representations

     Representation     1      1 modes -A'  To be done

     Representation     2      1 modes -A'  To be done

     Representation     3      1 modes -A'  To be done

     Representation     4      1 modes -A'  To be done

     Representation     5      1 modes -A''  To be done

     Representation     6      1 modes -A''  To be done



     Alpha used in Ewald sum =   0.7000

     negative rho (up, down):  2.246E-06 0.000E+00
     PHONON       :    30.37s CPU        32.09s WALL



     Representation #  1 mode #   1

     Self-consistent Calculation

      iter #   1 total cpu time :    32.6 secs   av.it.:   5.3
      thresh= 1.000E-02 alpha_mix =  0.700 |ddv_scf|^2 =  5.976E-05

      iter #   2 total cpu time :    33.3 secs   av.it.:   8.9
      thresh= 7.730E-04 alpha_mix =  0.700 |ddv_scf|^2 =  1.600E-04

      iter #   3 total cpu time :    33.8 secs   av.it.:   7.6
      thresh= 1.265E-03 alpha_mix =  0.700 |ddv_scf|^2 =  1.127E-06

      iter #   4 total cpu time :    34.6 secs   av.it.:   8.4
      thresh= 1.062E-04 alpha_mix =  0.700 |ddv_scf|^2 =  6.072E-08

      iter #   5 total cpu time :    35.3 secs   av.it.:   8.3
      thresh= 2.464E-05 alpha_mix =  0.700 |ddv_scf|^2 =  7.447E-09

      iter #   6 total cpu time :    36.0 secs   av.it.:   8.5
      thresh= 8.630E-06 alpha_mix =  0.700 |ddv_scf|^2 =  1.013E-10

      iter #   7 total cpu time :    36.7 secs   av.it.:   8.8
      thresh= 1.006E-06 alpha_mix =  0.700 |ddv_scf|^2 =  3.570E-12

      iter #   8 total cpu time :    37.4 secs   av.it.:   8.6
      thresh= 1.889E-07 alpha_mix =  0.700 |ddv_scf|^2 =  2.489E-13

     End of self-consistent calculation

     Convergence has been achieved 


     Representation #  2 mode #   2

     Self-consistent Calculation

      iter #   1 total cpu time :    38.1 secs   av.it.:   5.4
      thresh= 1.000E-02 alpha_mix =  0.700 |ddv_scf|^2 =  1.060E-04

      iter #   2 total cpu time :    38.8 secs   av.it.:   8.7
      thresh= 1.029E-03 alpha_mix =  0.700 |ddv_scf|^2 =  3.064E-04

      iter #   3 total cpu time :    39.3 secs   av.it.:   7.4
      thresh= 1.750E-03 alpha_mix =  0.700 |ddv_scf|^2 =  8.154E-07

      iter #   4 total cpu time :    40.2 secs   av.it.:   8.6
      thresh= 9.030E-05 alpha_mix =  0.700 |ddv_scf|^2 =  5.870E-08

      iter #   5 total cpu time :    40.8 secs   av.it.:   8.2
      thresh= 2.423E-05 alpha_mix =  0.700 |ddv_scf|^2 =  1.112E-08

      iter #   6 total cpu time :    41.4 secs   av.it.:   8.5
      thresh= 1.054E-05 alpha_mix =  0.700 |ddv_scf|^2 =  9.457E-11

      iter #   7 total cpu time :    42.3 secs   av.it.:   8.7
      thresh= 9.725E-07 alpha_mix =  0.700 |ddv_scf|^2 =  3.087E-12

      iter #   8 total cpu time :    42.9 secs   av.it.:   8.7
      thresh= 1.757E-07 alpha_mix =  0.700 |ddv_scf|^2 =  8.510E-13

     End of self-consistent calculation

     Convergence has been achieved 


     Representation #  3 mode #   3

     Self-consistent Calculation

      iter #   1 total cpu time :    43.5 secs   av.it.:   5.3
      thresh= 1.000E-02 alpha_mix =  0.700 |ddv_scf|^2 =  8.303E-05

      iter #   2 total cpu time :    44.3 secs   av.it.:   8.8
      thresh= 9.112E-04 alpha_mix =  0.700 |ddv_scf|^2 =  2.238E-04

      iter #   3 total cpu time :    44.9 secs   av.it.:   7.4
      thresh= 1.496E-03 alpha_mix =  0.700 |ddv_scf|^2 =  1.383E-06

      iter #   4 total cpu time :    45.5 secs   av.it.:   8.2
      thresh= 1.176E-04 alpha_mix =  0.700 |ddv_scf|^2 =  5.988E-08

      iter #   5 total cpu time :    46.3 secs   av.it.:   8.5
      thresh= 2.447E-05 alpha_mix =  0.700 |ddv_scf|^2 =  1.158E-08

      iter #   6 total cpu time :    46.9 secs   av.it.:   8.5
      thresh= 1.076E-05 alpha_mix =  0.700 |ddv_scf|^2 =  5.252E-11

      iter #   7 total cpu time :    47.6 secs   av.it.:   8.7
      thresh= 7.247E-07 alpha_mix =  0.700 |ddv_scf|^2 =  2.108E-12

[...]
        k(   60) = (  -1.3750000  -0.8750000  -0.1250000), wk =   0.0000000
        k(   61) = (  -1.1250000   0.3750000  -0.3750000), wk =   0.0625000
        k(   62) = (  -1.6250000  -0.6250000  -0.3750000), wk =   0.0000000
        k(   63) = (  -0.3750000   0.3750000   1.1250000), wk =   0.0625000
        k(   64) = (  -0.8750000  -0.6250000   1.1250000), wk =   0.0000000

     Dense  grid:     2891 G-vectors     FFT dimensions: (  20,  20,  20)

     Estimated max dynamical RAM per process >       0.34MB

     Estimated total allocated dynamical RAM >       1.34MB

     Check: negative/imaginary core charge=   -0.000006    0.000000

     The potential is recalculated from file :
     ./_ph0/silicon.10.45.save/charge-density.dat


     negative rho (up, down):  2.246E-06 0.000E+00
     Starting wfc are    8 atomic wfcs

     Band Structure Calculation
     Davidson diagonalization with overlap

     ethr =  1.25E-10,  avg # of iterations = 11.6

     total cpu time spent up to now is        6.6 secs

     End of band structure calculation

          k =-0.1250 0.1250 0.1250 (   359 PWs)   bands (ev):

    -5.7522   4.0550   5.3701   5.3701

          k =-0.6250-0.8750 0.1250 (   373 PWs)   bands (ev):

    -2.6654  -1.1586   1.8248   2.8582

          k =-0.3750 0.3750-0.1250 (   366 PWs)   bands (ev):

    -4.7597   1.1202   3.4463   4.8970

          k =-0.8750-0.6250-0.1250 (   373 PWs)   bands (ev):

    -2.6654  -1.1586   1.8248   2.8582

          k = 0.3750-0.3750 0.6250 (   369 PWs)   bands (ev):

    -3.6690  -0.8799   3.4490   4.1543

          k =-0.1250-1.3750 0.6250 (   369 PWs)   bands (ev):

    -3.1876  -0.8360   1.8680   3.8497

          k = 0.1250-0.1250 0.3750 (   362 PWs)   bands (ev):

    -5.2408   2.4530   4.3985   4.4433

          k =-0.3750-1.1250 0.3750 (   369 PWs)   bands (ev):

    -3.1876  -0.8360   1.8680   3.8497

          k =-0.1250 0.6250 0.1250 (   365 PWs)   bands (ev):

    -4.2427   0.7532   3.1170   3.5508

          k =-0.6250-0.3750 0.1250 (   369 PWs)   bands (ev):

    -3.8453  -0.0727   2.4914   3.8185

          k = 0.6250-0.1250 0.8750 (   373 PWs)   bands (ev):

    -2.6654  -1.1586   1.8248   2.8582

          k = 0.1250-1.1250 0.8750 (   366 PWs)   bands (ev):

    -2.8184  -1.0682   2.4079   3.0971

          k = 0.3750 0.1250 0.6250 (   369 PWs)   bands (ev):

    -3.8453  -0.0727   2.4914   3.8185

          k =-0.1250-0.8750 0.6250 (   373 PWs)   bands (ev):

    -2.6654  -1.1586   1.8248   2.8582

          k =-0.1250-0.8750 0.1250 (   366 PWs)   bands (ev):

    -2.8184  -1.0682   2.4079   3.0971

          k =-0.6250-1.8750 0.1250 (   365 PWs)   bands (ev):

    -4.2427   0.7532   3.1170   3.5508

          k =-0.3750 0.3750 0.3750 (   362 PWs)   bands (ev):

    -4.3443  -0.1135   4.6004   4.6004

          k =-0.8750-0.6250 0.3750 (   369 PWs)   bands (ev):

    -3.8453  -0.0727   2.4914   3.8185

          k = 0.3750-0.3750 1.1250 (   369 PWs)   bands (ev):

    -3.1876  -0.8360   1.8680   3.8497

          k =-0.1250-1.3750 1.1250 (   373 PWs)   bands (ev):

    -2.6654  -1.1586   1.8248   2.8582

          k = 0.1250-0.3750 0.3750 (   366 PWs)   bands (ev):

    -4.7597   1.1202   3.4463   4.8970

          k =-0.3750-1.3750 0.3750 (   369 PWs)   bands (ev):

    -3.6690  -0.8799   3.4490   4.1543

          k = 0.3750-0.3750-0.1250 (   366 PWs)   bands (ev):

    -4.7597   1.1202   3.4463   4.8970

          k =-0.1250-1.3750-0.1250 (   365 PWs)   bands (ev):

    -4.2427   0.7532   3.1170   3.5508

          k =-0.6250 0.3750-0.3750 (   369 PWs)   bands (ev):

    -3.6690  -0.8799   3.4490   4.1543

          k =-1.1250-0.6250-0.3750 (   369 PWs)   bands (ev):

    -3.8453  -0.0727   2.4914   3.8185

          k =-0.3750 0.3750 0.6250 (   369 PWs)   bands (ev):

    -3.6690  -0.8799   3.4490   4.1543

          k =-0.8750-0.6250 0.6250 (   366 PWs)   bands (ev):

    -4.7597   1.1202   3.4463   4.8970

          k =-0.3750 0.1250-0.1250 (   362 PWs)   bands (ev):

    -5.2408   2.4530   4.3985   4.4433

          k =-0.8750-0.8750-0.1250 (   366 PWs)   bands (ev):

    -2.8184  -1.0682   2.4079   3.0971

          k =-0.1250 0.1250 0.3750 (   362 PWs)   bands (ev):

    -5.2408   2.4530   4.3985   4.4433

          k =-0.6250-0.8750 0.3750 (   369 PWs)   bands (ev):

    -3.8453  -0.0727   2.4914   3.8185

          k = 0.1250 0.6250-0.1250 (   365 PWs)   bands (ev):

    -4.2427   0.7532   3.1170   3.5508

          k =-0.3750-0.3750-0.1250 (   366 PWs)   bands (ev):

    -4.7597   1.1202   3.4463   4.8970

          k = 0.6250 0.1250-0.1250 (   365 PWs)   bands (ev):

    -4.2427   0.7532   3.1170   3.5508

          k = 0.1250-0.8750-0.1250 (   366 PWs)   bands (ev):

    -2.8184  -1.0682   2.4079   3.0971

          k =-0.8750 0.1250-0.6250 (   373 PWs)   bands (ev):

    -2.6654  -1.1586   1.8248   2.8582

          k =-1.3750-0.8750-0.6250 (   366 PWs)   bands (ev):

    -4.7597   1.1202   3.4463   4.8970

          k = 0.8750-0.1250 0.6250 (   373 PWs)   bands (ev):

    -2.6654  -1.1586   1.8248   2.8582

          k = 0.3750-1.1250 0.6250 (   369 PWs)   bands (ev):

    -3.8453  -0.0727   2.4914   3.8185

          k =-0.6250 0.1250 0.8750 (   373 PWs)   bands (ev):

    -2.6654  -1.1586   1.8248   2.8582

          k =-1.1250-0.8750 0.8750 (   359 PWs)   bands (ev):

    -5.7522   4.0550   5.3701   5.3701

          k =-0.1250 0.8750 0.6250 (   373 PWs)   bands (ev):

    -2.6654  -1.1586   1.8248   2.8582

          k =-0.6250-0.1250 0.6250 (   369 PWs)   bands (ev):

    -3.1876  -0.8360   1.8680   3.8497

          k = 0.1250 0.8750-0.6250 (   373 PWs)   bands (ev):

    -2.6654  -1.1586   1.8248   2.8582

          k =-0.3750-0.1250-0.6250 (   369 PWs)   bands (ev):

    -3.8453  -0.0727   2.4914   3.8185

          k =-0.6250-0.1250-0.3750 (   369 PWs)   bands (ev):

    -3.8453  -0.0727   2.4914   3.8185

          k =-1.1250-1.1250-0.3750 (   365 PWs)   bands (ev):

    -4.2427   0.7532   3.1170   3.5508

          k = 0.6250 0.1250 0.3750 (   369 PWs)   bands (ev):

    -3.8453  -0.0727   2.4914   3.8185

          k = 0.1250-0.8750 0.3750 (   373 PWs)   bands (ev):

    -2.6654  -1.1586   1.8248   2.8582

          k =-0.3750-0.1250 0.6250 (   369 PWs)   bands (ev):

    -3.8453  -0.0727   2.4914   3.8185

          k =-0.8750-1.1250 0.6250 (   362 PWs)   bands (ev):

    -5.2408   2.4530   4.3985   4.4433

          k = 0.1250 0.6250 0.3750 (   369 PWs)   bands (ev):

    -3.8453  -0.0727   2.4914   3.8185

          k =-0.3750-0.3750 0.3750 (   362 PWs)   bands (ev):

    -4.3443  -0.1135   4.6004   4.6004

          k =-0.1250 0.6250-0.3750 (   369 PWs)   bands (ev):

    -3.8453  -0.0727   2.4914   3.8185

          k =-0.6250-0.3750-0.3750 (   369 PWs)   bands (ev):

    -3.6690  -0.8799   3.4490   4.1543

          k = 0.1250-0.8750-0.1250 (   366 PWs)   bands (ev):

    -2.8184  -1.0682   2.4079   3.0971

          k =-0.3750-1.8750-0.1250 (   362 PWs)   bands (ev):

    -5.2408   2.4530   4.3985   4.4433

          k =-0.8750 0.1250-0.1250 (   366 PWs)   bands (ev):

    -2.8184  -1.0682   2.4079   3.0971

          k =-1.3750-0.8750-0.1250 (   373 PWs)   bands (ev):

    -2.6654  -1.1586   1.8248   2.8582

          k =-1.1250 0.3750-0.3750 (   369 PWs)   bands (ev):

    -3.1876  -0.8360   1.8680   3.8497

          k =-1.6250-0.6250-0.3750 (   369 PWs)   bands (ev):

    -3.6690  -0.8799   3.4490   4.1543

          k =-0.3750 0.3750 1.1250 (   369 PWs)   bands (ev):

    -3.1876  -0.8360   1.8680   3.8497

          k =-0.8750-0.6250 1.1250 (   362 PWs)   bands (ev):

    -5.2408   2.4530   4.3985   4.4433

     highest occupied level (ev):     5.3701

     Writing output data file silicon.10.45.save

                                                                                

     bravais-lattice index     =            2
     lattice parameter (alat)  =      10.4500  a.u.
     unit-cell volume          =     285.2915 (a.u.)^3
     number of atoms/cell      =            2
     number of atomic types    =            1
     kinetic-energy cut-off    =      18.0000  Ry
     charge density cut-off    =      72.0000  Ry
     convergence threshold     =      1.0E-12
     beta                      =       0.7000
     number of iterations used =            4
     Exchange-correlation      = SLA  PW   PBE  PBE ( 1  4  3  4 0 0)


     celldm(1)=   10.45000  celldm(2)=    0.00000  celldm(3)=    0.00000
     celldm(4)=    0.00000  celldm(5)=    0.00000  celldm(6)=    0.00000

     crystal axes: (cart. coord. in units of alat)
               a(1) = ( -0.5000  0.0000  0.5000 )  
               a(2) = (  0.0000  0.5000  0.5000 )  
               a(3) = ( -0.5000  0.5000  0.0000 )  

     reciprocal axes: (cart. coord. in units 2 pi/alat)
               b(1) = ( -1.0000 -1.0000  1.0000 )  
               b(2) = (  1.0000  1.0000  1.0000 )  
               b(3) = ( -1.0000  1.0000 -1.0000 )  


     Atoms inside the unit cell: 

     Cartesian axes

     site n.  atom      mass           positions (alat units)
        1     Si  28.0860   tau(    1) = (    0.00000    0.00000    0.00000  )
        2     Si  28.0860   tau(    2) = (    0.25000    0.25000    0.25000  )

     Computing dynamical matrix for 
                    q = (  -0.5000000  -1.0000000   0.0000000 )

      8 Sym.Ops. (no q -> -q+G )


     G cutoff =  199.1615  (    722 G-vectors)     FFT grid: ( 20, 20, 20)
     number of k points=    64

     PseudoPot. # 1 for Si read from file:
     /home/max/quantum_espresso/qe-6.1/pseudo/si_pbe_v1.uspp.F.UPF.txt
     MD5 check sum: a056efeee980c13900f22a371efd63c1
     Pseudo is Ultrasoft + core correction, Zval =  4.0
     Generated by new atomic code, or converted to UPF format
     Using radial grid of  899 points,  6 beta functions with: 
                l(1) =   0
                l(2) =   0
                l(3) =   1
                l(4) =   1
                l(5) =   2
                l(6) =   2
     Q(r) pseudized with  8 coefficients,  rinner =    0.900   0.900   0.900
                                                       0.900   0.900


     Atomic displacements:
     There are   3 irreducible representations

     Representation     1      2 modes -  To be done

     Representation     2      2 modes -  To be done

     Representation     3      2 modes -  To be done



     Alpha used in Ewald sum =   0.7000

     negative rho (up, down):  2.246E-06 0.000E+00
     PHONON       :  1m14.89s CPU     1m19.51s WALL



     Representation #  1 modes #   1  2

     Self-consistent Calculation

      iter #   1 total cpu time :    79.8 secs   av.it.:   5.3
      thresh= 1.000E-02 alpha_mix =  0.700 |ddv_scf|^2 =  6.194E-06

      iter #   2 total cpu time :    80.2 secs   av.it.:   9.8
      thresh= 2.489E-04 alpha_mix =  0.700 |ddv_scf|^2 =  3.322E-06

      iter #   3 total cpu time :    80.6 secs   av.it.:   9.2
      thresh= 1.823E-04 alpha_mix =  0.700 |ddv_scf|^2 =  8.729E-09

      iter #   4 total cpu time :    80.9 secs   av.it.:   9.1
      thresh= 9.343E-06 alpha_mix =  0.700 |ddv_scf|^2 =  2.262E-11

      iter #   5 total cpu time :    81.2 secs   av.it.:   9.1
      thresh= 4.756E-07 alpha_mix =  0.700 |ddv_scf|^2 =  6.598E-13

     End of self-consistent calculation

     Convergence has been achieved 


     Representation #  2 modes #   3  4

     Self-consistent Calculation

      iter #   1 total cpu time :    81.4 secs   av.it.:   5.2
      thresh= 1.000E-02 alpha_mix =  0.700 |ddv_scf|^2 =  9.629E-06

      iter #   2 total cpu time :    81.8 secs   av.it.:   9.9
      thresh= 3.103E-04 alpha_mix =  0.700 |ddv_scf|^2 =  1.330E-05

      iter #   3 total cpu time :    82.2 secs   av.it.:   9.1
      thresh= 3.647E-04 alpha_mix =  0.700 |ddv_scf|^2 =  1.052E-08

      iter #   4 total cpu time :    82.5 secs   av.it.:   8.9
      thresh= 1.026E-05 alpha_mix =  0.700 |ddv_scf|^2 =  1.071E-10

      iter #   5 total cpu time :    82.8 secs   av.it.:   9.5
      thresh= 1.035E-06 alpha_mix =  0.700 |ddv_scf|^2 =  1.976E-12

      iter #   6 total cpu time :    83.2 secs   av.it.:   9.2
      thresh= 1.406E-07 alpha_mix =  0.700 |ddv_scf|^2 =  1.638E-14

     End of self-consistent calculation

     Convergence has been achieved 


     Representation #  3 modes #   5  6

     Self-consistent Calculation

      iter #   1 total cpu time :    83.4 secs   av.it.:   5.1
      thresh= 1.000E-02 alpha_mix =  0.700 |ddv_scf|^2 =  2.588E-06

      iter #   2 total cpu time :    83.7 secs   av.it.:   9.7
      thresh= 1.609E-04 alpha_mix =  0.700 |ddv_scf|^2 =  1.403E-06

      iter #   3 total cpu time :    84.2 secs   av.it.:   9.1
      thresh= 1.185E-04 alpha_mix =  0.700 |ddv_scf|^2 =  8.378E-09

      iter #   4 total cpu time :    84.5 secs   av.it.:   8.8
      thresh= 9.153E-06 alpha_mix =  0.700 |ddv_scf|^2 =  4.592E-11

      iter #   5 total cpu time :    84.8 secs   av.it.:   9.1
      thresh= 6.776E-07 alpha_mix =  0.700 |ddv_scf|^2 =  7.213E-13

     End of self-consistent calculation

     Convergence has been achieved 

     Number of q in the star =    6
     List of q in the star:
          1  -0.500000000  -1.000000000   0.000000000
          2   0.000000000   1.000000000   0.500000000
          3   0.000000000  -1.000000000  -0.500000000
          4   0.500000000   1.000000000   0.000000000
          5  -1.000000000  -0.500000000   0.000000000
          6   0.000000000  -0.500000000  -1.000000000

     Diagonalizing the dynamical matrix

     q = (   -0.500000000  -1.000000000   0.000000000 ) 

 **************************************************************************
     freq (    1) =       7.900293 [THz] =     263.525422 [cm-1]
     freq (    2) =       7.900293 [THz] =     263.525422 [cm-1]
     freq (    3) =      10.920532 [THz] =     364.269740 [cm-1]
     freq (    4) =      10.920532 [THz] =     364.269740 [cm-1]
     freq (    5) =      13.514649 [THz] =     450.800154 [cm-1]
     freq (    6) =      13.514649 [THz] =     450.800154 [cm-1]
 **************************************************************************

     init_run     :      0.59s CPU      0.62s WALL (       7 calls)
     electrons    :      4.96s CPU      5.19s WALL (       7 calls)

     Called by init_run:
     wfcinit      :      0.00s CPU      0.00s WALL (       7 calls)
     potinit      :      0.04s CPU      0.04s WALL (       7 calls)

     Called by electrons:
     c_bands      :      4.95s CPU      5.18s WALL (       7 calls)
     v_of_rho     :      0.02s CPU      0.02s WALL (       8 calls)
     newd         :      0.04s CPU      0.04s WALL (       8 calls)

     Called by c_bands:
     init_us_2    :      0.68s CPU      0.73s WALL (   17588 calls)
     cegterg      :      4.17s CPU      4.36s WALL (     796 calls)

     Called by sum_band:

     Called by *egterg:
     h_psi        :     43.67s CPU     46.46s WALL (  152425 calls)
     s_psi        :      5.89s CPU      6.24s WALL (  309570 calls)
     g_psi        :      0.03s CPU      0.03s WALL (    9268 calls)
     cdiaghg      :      0.44s CPU      0.47s WALL (   10064 calls)

     Called by h_psi:
     h_psi:pot    :     43.48s CPU     46.26s WALL (  152425 calls)
     h_psi:calbec :      4.52s CPU      4.86s WALL (  152425 calls)
     vloc_psi     :     35.81s CPU     38.08s WALL (  152425 calls)
     add_vuspsi   :      2.94s CPU      3.10s WALL (  152425 calls)

     General routines
     calbec       :     10.02s CPU     10.73s WALL (  345942 calls)
     fft          :      0.42s CPU      0.44s WALL (    5239 calls)
     ffts         :      0.13s CPU      0.14s WALL (    2748 calls)
     fftw         :     41.67s CPU     44.43s WALL ( 1380044 calls)
     davcio       :      0.32s CPU      0.34s WALL (   79045 calls)

     Parallel routines
     fft_scatter  :      9.78s CPU     10.76s WALL ( 1388031 calls)

     PHONON       :  1m19.79s CPU     1m24.85s WALL

     INITIALIZATION: 
     phq_setup    :      0.05s CPU      0.05s WALL (       8 calls)
     phq_init     :      2.09s CPU      2.14s WALL (       8 calls)

     phq_init     :      2.09s CPU      2.14s WALL (       8 calls)
     set_drhoc    :      0.29s CPU      0.29s WALL (      24 calls)
     init_vloc    :      0.01s CPU      0.01s WALL (       8 calls)
     init_us_1    :      0.50s CPU      0.52s WALL (       8 calls)
     newd         :      0.04s CPU      0.04s WALL (       8 calls)
     dvanqq       :      0.23s CPU      0.24s WALL (       8 calls)
     drho         :      0.99s CPU      1.01s WALL (       8 calls)

     DYNAMICAL MATRIX:
     dynmat0      :      0.63s CPU      0.65s WALL (       8 calls)
     phqscf       :     69.65s CPU     74.31s WALL (       8 calls)
     dynmatrix    :      0.01s CPU      0.02s WALL (       8 calls)

     phqscf       :     69.65s CPU     74.31s WALL (       8 calls)
     solve_linter :     68.94s CPU     73.56s WALL (      32 calls)
     drhodv       :      0.51s CPU      0.52s WALL (      32 calls)

     dynmat0      :      0.63s CPU      0.65s WALL (       8 calls)
     dynmat_us    :      0.34s CPU      0.36s WALL (       8 calls)
     d2ionq       :      0.00s CPU      0.01s WALL (       8 calls)
     dynmatcc     :      0.27s CPU      0.27s WALL (       8 calls)

     dynmat_us    :      0.34s CPU      0.36s WALL (       8 calls)
     addusdynmat  :      0.00s CPU      0.00s WALL (       8 calls)

     phqscf       :     69.65s CPU     74.31s WALL (       8 calls)
     solve_linter :     68.94s CPU     73.56s WALL (      32 calls)

     solve_linter :     68.94s CPU     73.56s WALL (      32 calls)
     dvqpsi_us    :      1.62s CPU      1.69s WALL (    2508 calls)
     ortho        :      1.08s CPU      1.14s WALL (   15550 calls)
     cgsolve      :     53.81s CPU     57.38s WALL (   15550 calls)
     incdrhoscf   :      4.82s CPU      5.23s WALL (   15550 calls)
     addusddens   :      1.17s CPU      1.19s WALL (     228 calls)
     vpsifft      :      3.51s CPU      3.77s WALL (   12922 calls)
     dv_of_drho   :      0.21s CPU      0.22s WALL (     295 calls)
     mix_pot      :      0.05s CPU      0.06s WALL (     201 calls)
     psymdvscf    :      0.81s CPU      0.82s WALL (     196 calls)
     newdq        :      1.22s CPU      1.30s WALL (     201 calls)
     adddvscf     :      0.46s CPU      0.52s WALL (   13042 calls)
     drhodvus     :      0.00s CPU      0.00s WALL (      32 calls)

     dvqpsi_us    :      1.62s CPU      1.69s WALL (    2508 calls)
     dvqpsi_us_on :      0.82s CPU      0.86s WALL (    2508 calls)

     cgsolve      :     53.81s CPU     57.38s WALL (   15550 calls)
     ch_psi       :     51.99s CPU     55.40s WALL (  141565 calls)

     ch_psi       :     51.99s CPU     55.40s WALL (  141565 calls)
     h_psi        :     43.67s CPU     46.46s WALL (  152425 calls)
     last         :      8.61s CPU      9.22s WALL (  141565 calls)

     h_psi        :     43.67s CPU     46.46s WALL (  152425 calls)
     add_vuspsi   :      2.94s CPU      3.10s WALL (  152425 calls)

     incdrhoscf   :      4.82s CPU      5.23s WALL (   15550 calls)
     addusdbec    :      0.71s CPU      0.76s WALL (   17998 calls)

     drhodvus     :      0.00s CPU      0.00s WALL (      32 calls)

      General routines
     calbec       :     10.02s CPU     10.73s WALL (  345942 calls)
     fft          :      0.42s CPU      0.44s WALL (    5239 calls)
     ffts         :      0.13s CPU      0.14s WALL (    2748 calls)
     fftw         :     41.67s CPU     44.43s WALL ( 1380044 calls)
     davcio       :      0.32s CPU      0.34s WALL (   79045 calls)
     write_rec    :      0.21s CPU      0.22s WALL (     233 calls)


     PHONON       :  1m19.79s CPU     1m24.85s WALL


   This run was terminated on:   1:41:29   9Nov2017            

=------------------------------------------------------------------------------=
   JOB DONE.
=------------------------------------------------------------------------------=
