
     Program PHONON v.6.1 (svn rev. 13369) starts on 10Nov2017 at 15:44:21 

     This program is part of the open-source Quantum ESPRESSO suite
     for quantum simulation of materials; please cite
         "P. Giannozzi et al., J. Phys.:Condens. Matter 21 395502 (2009);
          URL http://www.quantum-espresso.org", 
     in publications or presentations arising from this work. More details at
     http://www.quantum-espresso.org/quote

     Parallel version (MPI), running on     4 processors
     R & G space division:  proc/nbgrp/npool/nimage =       4

     Reading data from directory:
     ./silicon.10.336.save

   Info: using nr1, nr2, nr3 values from input

   Info: using nr1, nr2, nr3 values from input

     IMPORTANT: XC functional enforced from input :
     Exchange-correlation      = SLA  PW   PBE  PBE ( 1  4  3  4 0 0)
     Any further DFT definition will be discarded
     Please, verify this is what you really want


     Parallelization info
     --------------------
     sticks:   dense  smooth     PW     G-vecs:    dense   smooth      PW
     Min         219     109     37                 4315     1545     284
     Max         220     110     38                 4316     1546     285
     Sum         877     439    151                17261     6183    1139



     Dynamical matrices for ( 4, 4, 4)  uniform grid of q-points
     (   8q-points):
       N         xq(1)         xq(2)         xq(3) 
       1   0.000000000   0.000000000   0.000000000
       2  -0.250000000   0.250000000  -0.250000000
       3   0.500000000  -0.500000000   0.500000000
       4   0.000000000   0.500000000   0.000000000
       5   0.750000000  -0.250000000   0.750000000
       6   0.500000000   0.000000000   0.500000000
       7   0.000000000  -1.000000000   0.000000000
       8  -0.500000000  -1.000000000   0.000000000

     Calculation of q =    0.0000000   0.0000000   0.0000000

                                                                                

     bravais-lattice index     =            2
     lattice parameter (alat)  =      10.3360  a.u.
     unit-cell volume          =     276.0562 (a.u.)^3
     number of atoms/cell      =            2
     number of atomic types    =            1
     kinetic-energy cut-off    =      30.0000  Ry
     charge density cut-off    =     240.0000  Ry
     convergence threshold     =      1.0E-12
     beta                      =       0.7000
     number of iterations used =            4
     Exchange-correlation      = SLA  PW   PBE  PBE ( 1  4  3  4 0 0)


     celldm(1)=   10.33600  celldm(2)=    0.00000  celldm(3)=    0.00000
     celldm(4)=    0.00000  celldm(5)=    0.00000  celldm(6)=    0.00000

     crystal axes: (cart. coord. in units of alat)
               a(1) = ( -0.5000  0.0000  0.5000 )  
               a(2) = (  0.0000  0.5000  0.5000 )  
               a(3) = ( -0.5000  0.5000  0.0000 )  

     reciprocal axes: (cart. coord. in units 2 pi/alat)
               b(1) = ( -1.0000 -1.0000  1.0000 )  
               b(2) = (  1.0000  1.0000  1.0000 )  
               b(3) = ( -1.0000  1.0000 -1.0000 )  


     Atoms inside the unit cell: 

     Cartesian axes

     site n.  atom      mass           positions (alat units)
        1     Si  28.0860   tau(    1) = (    0.00000    0.00000    0.00000  )
        2     Si  28.0860   tau(    2) = (    0.25000    0.25000    0.25000  )

     Computing dynamical matrix for 
                    q = (   0.0000000   0.0000000   0.0000000 )

     49 Sym.Ops. (with q -> -q+G )


     G cutoff =  649.4661  (   4315 G-vectors)     FFT grid: ( 40, 40, 40)
     G cutoff =  324.7331  (   1546 G-vectors)  smooth grid: ( 25, 25, 25)
     number of k points=    10

     PseudoPot. # 1 for Si read from file:
     /home/s1333534/quantum_espresso/qe-6.1/pseudo/si_pbe_v1.uspp.F.UPF.txt
     MD5 check sum: a056efeee980c13900f22a371efd63c1
     Pseudo is Ultrasoft + core correction, Zval =  4.0
     Generated by new atomic code, or converted to UPF format
     Using radial grid of  899 points,  6 beta functions with: 
                l(1) =   0
                l(2) =   0
                l(3) =   1
                l(4) =   1
                l(5) =   2
                l(6) =   2
     Q(r) pseudized with  8 coefficients,  rinner =    0.900   0.900   0.900
                                                       0.900   0.900

     Mode symmetry, O_h (m-3m)  point group:


     Electric field:
     Dielectric constant
     Born effective charges in two ways 


     Atomic displacements:
     There are   2 irreducible representations

     Representation     1      3 modes -T_2g G_25' G_5+  To be done

     Representation     2      3 modes -T_1u G_15  G_4-  To be done



     Alpha used in Ewald sum =   2.5000
     PHONON       :     0.96s CPU         1.29s WALL


     Electric Fields Calculation

      iter #   1 total cpu time :     2.4 secs   av.it.:   5.7
      thresh= 1.000E-02 alpha_mix =  0.700 |ddv_scf|^2 =  9.696E-08

      iter #   2 total cpu time :     3.4 secs   av.it.:  11.9
      thresh= 3.114E-05 alpha_mix =  0.700 |ddv_scf|^2 =  5.718E-09

      iter #   3 total cpu time :     4.3 secs   av.it.:  11.7
      thresh= 7.562E-06 alpha_mix =  0.700 |ddv_scf|^2 =  3.821E-10

      iter #   4 total cpu time :     5.0 secs   av.it.:  10.6
      thresh= 1.955E-06 alpha_mix =  0.700 |ddv_scf|^2 =  2.517E-12

      iter #   5 total cpu time :     5.7 secs   av.it.:  11.2
      thresh= 1.586E-07 alpha_mix =  0.700 |ddv_scf|^2 =  2.510E-15

     End of electric fields calculation

          Dielectric constant in cartesian axis 

          (      13.971132864      -0.000000000      -0.000000000 )
          (      -0.000000000      13.971132864       0.000000000 )
          (      -0.000000000       0.000000000      13.971132864 )

          Effective charges (d Force / dE) in cartesian axis

           atom      1   Si 
      Ex  (       -0.03846        0.00000       -0.00000 )
      Ey  (        0.00000       -0.03846        0.00000 )
      Ez  (        0.00000        0.00000       -0.03846 )
           atom      2   Si 
      Ex  (       -0.03846        0.00000        0.00000 )
      Ey  (        0.00000       -0.03846        0.00000 )
      Ez  (        0.00000        0.00000       -0.03846 )


     Representation #  1 modes #   1  2  3

     Self-consistent Calculation

      iter #   1 total cpu time :     7.3 secs   av.it.:   5.1
      thresh= 1.000E-02 alpha_mix =  0.700 |ddv_scf|^2 =  1.714E-08

      iter #   2 total cpu time :     8.2 secs   av.it.:  11.8
      thresh= 1.309E-05 alpha_mix =  0.700 |ddv_scf|^2 =  7.011E-10

      iter #   3 total cpu time :     9.0 secs   av.it.:  11.3
      thresh= 2.648E-06 alpha_mix =  0.700 |ddv_scf|^2 =  4.769E-11

      iter #   4 total cpu time :     9.7 secs   av.it.:  10.4
      thresh= 6.906E-07 alpha_mix =  0.700 |ddv_scf|^2 =  1.179E-13

     End of self-consistent calculation

     Convergence has been achieved 


     Representation #  2 modes #   4  5  6

     Self-consistent Calculation

      iter #   1 total cpu time :    10.6 secs   av.it.:   5.2
      thresh= 1.000E-02 alpha_mix =  0.700 |ddv_scf|^2 =  1.352E-08

      iter #   2 total cpu time :    11.4 secs   av.it.:  11.8
      thresh= 1.163E-05 alpha_mix =  0.700 |ddv_scf|^2 =  7.953E-10

      iter #   3 total cpu time :    12.3 secs   av.it.:  11.4
      thresh= 2.820E-06 alpha_mix =  0.700 |ddv_scf|^2 =  4.933E-11

      iter #   4 total cpu time :    13.0 secs   av.it.:  11.5
      thresh= 7.024E-07 alpha_mix =  0.700 |ddv_scf|^2 =  1.909E-13

     End of self-consistent calculation

     Convergence has been achieved 

     Number of q in the star =    1
     List of q in the star:
          1   0.000000000   0.000000000   0.000000000

          Dielectric constant in cartesian axis 

          (      13.971132864      -0.000000000      -0.000000000 )
          (      -0.000000000      13.971132864       0.000000000 )
          (      -0.000000000       0.000000000      13.971132864 )

          Effective charges (d Force / dE) in cartesian axis

           atom      1   Si 
      Ex  (       -0.03846        0.00000       -0.00000 )
      Ey  (        0.00000       -0.03846        0.00000 )
      Ez  (        0.00000        0.00000       -0.03846 )
           atom      2   Si 
      Ex  (       -0.03846        0.00000        0.00000 )
      Ey  (        0.00000       -0.03846        0.00000 )
      Ez  (        0.00000        0.00000       -0.03846 )

          Effective charges (d P / du) in cartesian axis 

           atom      1   Si 
      Px  (       -0.07252        0.00000        0.00000 )
      Py  (       -0.00000       -0.07252       -0.00000 )
      Pz  (        0.00000       -0.00000       -0.07252 )
           atom      2   Si 
      Px  (       -0.07252       -0.00000       -0.00000 )
      Py  (       -0.00000       -0.07252        0.00000 )
      Pz  (       -0.00000        0.00000       -0.07252 )

     Diagonalizing the dynamical matrix

     q = (    0.000000000   0.000000000   0.000000000 ) 

 **************************************************************************
     freq (    1) =      -0.475938 [THz] =     -15.875584 [cm-1]
     freq (    2) =      -0.475938 [THz] =     -15.875584 [cm-1]
     freq (    3) =      -0.475938 [THz] =     -15.875584 [cm-1]
     freq (    4) =      15.057017 [THz] =     502.248026 [cm-1]
     freq (    5) =      15.057017 [THz] =     502.248026 [cm-1]
     freq (    6) =      15.057017 [THz] =     502.248026 [cm-1]
 **************************************************************************

     Mode symmetry, O_h (m-3m)  point group:

     freq (  1 -  3) =        -15.9  [cm-1]   --> T_1u G_15  G_4- I  
     freq (  4 -  6) =        502.2  [cm-1]   --> T_2g G_25' G_5+ R  

     Calculation of q =   -0.2500000   0.2500000  -0.2500000

   Info: using nr1, nr2, nr3 values from input

   Info: using nr1, nr2, nr3 values from input

     Parallelization info
     --------------------
     sticks:   dense  smooth     PW     G-vecs:    dense   smooth      PW
     Min         218     109     37                 4315     1545     309
     Max         220     110     38                 4316     1546     312
     Sum         877     439    151                17261     6183    1243



     bravais-lattice index     =            2
     lattice parameter (alat)  =      10.3360  a.u.
     unit-cell volume          =     276.0562 (a.u.)^3
     number of atoms/cell      =            2
     number of atomic types    =            1
     number of electrons       =         8.00
     number of Kohn-Sham states=            4
     kinetic-energy cutoff     =      30.0000  Ry
     charge density cutoff     =     240.0000  Ry
     Exchange-correlation      = SLA  PW   PBE  PBE ( 1  4  3  4 0 0)

     celldm(1)=  10.336000  celldm(2)=   0.000000  celldm(3)=   0.000000
     celldm(4)=   0.000000  celldm(5)=   0.000000  celldm(6)=   0.000000

     crystal axes: (cart. coord. in units of alat)
               a(1) = (  -0.500000   0.000000   0.500000 )  
               a(2) = (   0.000000   0.500000   0.500000 )  
               a(3) = (  -0.500000   0.500000   0.000000 )  

     reciprocal axes: (cart. coord. in units 2 pi/alat)
               b(1) = ( -1.000000 -1.000000  1.000000 )  
               b(2) = (  1.000000  1.000000  1.000000 )  
               b(3) = ( -1.000000  1.000000 -1.000000 )  


     PseudoPot. # 1 for Si read from file:
     /home/s1333534/quantum_espresso/qe-6.1/pseudo/si_pbe_v1.uspp.F.UPF.txt
     MD5 check sum: a056efeee980c13900f22a371efd63c1
     Pseudo is Ultrasoft + core correction, Zval =  4.0
     Generated by new atomic code, or converted to UPF format
     Using radial grid of  899 points,  6 beta functions with: 
                l(1) =   0
                l(2) =   0
                l(3) =   1
                l(4) =   1
                l(5) =   2
                l(6) =   2
     Q(r) pseudized with  8 coefficients,  rinner =    0.900   0.900   0.900
                                                       0.900   0.900

     atomic species   valence    mass     pseudopotential
        Si             4.00    28.08600     Si( 1.00)

     48 Sym. Ops., with inversion, found



   Cartesian axes

     site n.     atom                  positions (alat units)
         1           Si  tau(   1) = (   0.0000000   0.0000000   0.0000000  )
         2           Si  tau(   2) = (   0.2500000   0.2500000   0.2500000  )

     number of k points=   120

     Number of k-points >= 100: set verbosity='high' to print them.

     Dense  grid:    17261 G-vectors     FFT dimensions: (  40,  40,  40)

     Smooth grid:     6183 G-vectors     FFT dimensions: (  25,  25,  25)

     Estimated max dynamical RAM per process >       1.78MB

     Estimated total allocated dynamical RAM >       7.14MB

     The potential is recalculated from file :
     ./_ph0/silicon.10.336.save/charge-density.dat

     Starting wfc are    8 atomic wfcs

     Band Structure Calculation
     Davidson diagonalization with overlap

     ethr =  1.25E-10,  avg # of iterations = 12.2

     total cpu time spent up to now is        1.4 secs

     End of band structure calculation

     Number of k-points >= 100: set verbosity='high' to print the bands.

     highest occupied level (ev):     5.6892

     Writing output data file silicon.10.336.save

                                                                                

     bravais-lattice index     =            2
     lattice parameter (alat)  =      10.3360  a.u.
     unit-cell volume          =     276.0562 (a.u.)^3
     number of atoms/cell      =            2
     number of atomic types    =            1
     kinetic-energy cut-off    =      30.0000  Ry
     charge density cut-off    =     240.0000  Ry
     convergence threshold     =      1.0E-12
     beta                      =       0.7000
     number of iterations used =            4
     Exchange-correlation      = SLA  PW   PBE  PBE ( 1  4  3  4 0 0)


     celldm(1)=   10.33600  celldm(2)=    0.00000  celldm(3)=    0.00000
     celldm(4)=    0.00000  celldm(5)=    0.00000  celldm(6)=    0.00000

     crystal axes: (cart. coord. in units of alat)
               a(1) = ( -0.5000  0.0000  0.5000 )  
               a(2) = (  0.0000  0.5000  0.5000 )  
               a(3) = ( -0.5000  0.5000  0.0000 )  

     reciprocal axes: (cart. coord. in units 2 pi/alat)
               b(1) = ( -1.0000 -1.0000  1.0000 )  
               b(2) = (  1.0000  1.0000  1.0000 )  
               b(3) = ( -1.0000  1.0000 -1.0000 )  


     Atoms inside the unit cell: 

     Cartesian axes

     site n.  atom      mass           positions (alat units)
        1     Si  28.0860   tau(    1) = (    0.00000    0.00000    0.00000  )
        2     Si  28.0860   tau(    2) = (    0.25000    0.25000    0.25000  )

     Computing dynamical matrix for 
                    q = (  -0.2500000   0.2500000  -0.2500000 )

      6 Sym.Ops. (no q -> -q+G )


     G cutoff =  649.4661  (   4315 G-vectors)     FFT grid: ( 40, 40, 40)
     G cutoff =  324.7331  (   1546 G-vectors)  smooth grid: ( 25, 25, 25)
     number of k points=   120

     PseudoPot. # 1 for Si read from file:
     /home/s1333534/quantum_espresso/qe-6.1/pseudo/si_pbe_v1.uspp.F.UPF.txt
     MD5 check sum: a056efeee980c13900f22a371efd63c1
     Pseudo is Ultrasoft + core correction, Zval =  4.0
     Generated by new atomic code, or converted to UPF format
     Using radial grid of  899 points,  6 beta functions with: 
                l(1) =   0
                l(2) =   0
                l(3) =   1
                l(4) =   1
                l(5) =   2
                l(6) =   2
     Q(r) pseudized with  8 coefficients,  rinner =    0.900   0.900   0.900
                                                       0.900   0.900

     Mode symmetry, C_3v (3m)   point group:


     Atomic displacements:
     There are   4 irreducible representations

     Representation     1      1 modes -A_1  L_1  To be done

     Representation     2      1 modes -A_1  L_1  To be done

     Representation     3      2 modes -E    L_3  To be done

     Representation     4      2 modes -E    L_3  To be done



     Alpha used in Ewald sum =   2.5000
     PHONON       :    12.07s CPU        16.46s WALL



     Representation #  1 mode #   1

     Self-consistent Calculation

      iter #   1 total cpu time :    16.9 secs   av.it.:   5.9
      thresh= 1.000E-02 alpha_mix =  0.700 |ddv_scf|^2 =  3.105E-04

      iter #   2 total cpu time :    17.6 secs   av.it.:   9.2
      thresh= 1.762E-03 alpha_mix =  0.700 |ddv_scf|^2 =  4.733E-03

      iter #   3 total cpu time :    18.1 secs   av.it.:   7.1
      thresh= 6.880E-03 alpha_mix =  0.700 |ddv_scf|^2 =  1.958E-07

      iter #   4 total cpu time :    18.8 secs   av.it.:   9.8
      thresh= 4.425E-05 alpha_mix =  0.700 |ddv_scf|^2 =  1.288E-08

      iter #   5 total cpu time :    19.4 secs   av.it.:   9.7
      thresh= 1.135E-05 alpha_mix =  0.700 |ddv_scf|^2 =  2.374E-10

      iter #   6 total cpu time :    20.1 secs   av.it.:   9.8
      thresh= 1.541E-06 alpha_mix =  0.700 |ddv_scf|^2 =  5.482E-10

      iter #   7 total cpu time :    20.6 secs   av.it.:   7.8
      thresh= 2.341E-06 alpha_mix =  0.700 |ddv_scf|^2 =  3.929E-11

      iter #   8 total cpu time :    21.3 secs   av.it.:   9.3
      thresh= 6.269E-07 alpha_mix =  0.700 |ddv_scf|^2 =  3.967E-13

     End of self-consistent calculation

     Convergence has been achieved 


     Representation #  2 mode #   2

     Self-consistent Calculation

      iter #   1 total cpu time :    21.9 secs   av.it.:   5.9
      thresh= 1.000E-02 alpha_mix =  0.700 |ddv_scf|^2 =  3.105E-04

      iter #   2 total cpu time :    22.5 secs   av.it.:   9.2
      thresh= 1.762E-03 alpha_mix =  0.700 |ddv_scf|^2 =  4.733E-03

      iter #   3 total cpu time :    23.0 secs   av.it.:   7.1
      thresh= 6.880E-03 alpha_mix =  0.700 |ddv_scf|^2 =  1.958E-07

      iter #   4 total cpu time :    23.7 secs   av.it.:   9.8
      thresh= 4.425E-05 alpha_mix =  0.700 |ddv_scf|^2 =  1.288E-08

      iter #   5 total cpu time :    24.4 secs   av.it.:   9.7
      thresh= 1.135E-05 alpha_mix =  0.700 |ddv_scf|^2 =  2.374E-10

      iter #   6 total cpu time :    25.0 secs   av.it.:   9.8
      thresh= 1.541E-06 alpha_mix =  0.700 |ddv_scf|^2 =  5.482E-10

      iter #   7 total cpu time :    25.6 secs   av.it.:   7.8
      thresh= 2.341E-06 alpha_mix =  0.700 |ddv_scf|^2 =  3.929E-11

      iter #   8 total cpu time :    26.2 secs   av.it.:   9.3
      thresh= 6.269E-07 alpha_mix =  0.700 |ddv_scf|^2 =  3.967E-13

     End of self-consistent calculation

     Convergence has been achieved 


     Representation #  3 modes #   3  4

     Self-consistent Calculation

      iter #   1 total cpu time :    27.2 secs   av.it.:   5.2
      thresh= 1.000E-02 alpha_mix =  0.700 |ddv_scf|^2 =  4.821E-08

      iter #   2 total cpu time :    28.5 secs   av.it.:  11.6
      thresh= 2.196E-05 alpha_mix =  0.700 |ddv_scf|^2 =  3.097E-09

      iter #   3 total cpu time :    29.8 secs   av.it.:  11.2
      thresh= 5.565E-06 alpha_mix =  0.700 |ddv_scf|^2 =  1.638E-10

      iter #   4 total cpu time :    31.0 secs   av.it.:  11.1
      thresh= 1.280E-06 alpha_mix =  0.700 |ddv_scf|^2 =  6.266E-13

     End of self-consistent calculation

     Convergence has been achieved 


     Representation #  4 modes #   5  6

     Self-consistent Calculation

      iter #   1 total cpu time :    32.1 secs   av.it.:   5.2
      thresh= 1.000E-02 alpha_mix =  0.700 |ddv_scf|^2 =  4.822E-08

      iter #   2 total cpu time :    33.4 secs   av.it.:  11.7
      thresh= 2.196E-05 alpha_mix =  0.700 |ddv_scf|^2 =  3.097E-09

      iter #   3 total cpu time :    34.7 secs   av.it.:  11.4
      thresh= 5.565E-06 alpha_mix =  0.700 |ddv_scf|^2 =  1.637E-10

      iter #   4 total cpu time :    35.9 secs   av.it.:  11.2
      thresh= 1.279E-06 alpha_mix =  0.700 |ddv_scf|^2 =  6.299E-13

     End of self-consistent calculation

     Convergence has been achieved 

     Number of q in the star =    8
     List of q in the star:
          1  -0.250000000   0.250000000  -0.250000000
          2   0.250000000  -0.250000000  -0.250000000
          3   0.250000000  -0.250000000   0.250000000
          4   0.250000000   0.250000000   0.250000000
          5  -0.250000000  -0.250000000  -0.250000000
          6  -0.250000000  -0.250000000   0.250000000
          7  -0.250000000   0.250000000   0.250000000
          8   0.250000000   0.250000000  -0.250000000

     Diagonalizing the dynamical matrix

     q = (   -0.250000000   0.250000000  -0.250000000 ) 

 **************************************************************************
     freq (    1) =       2.786975 [THz] =      92.963476 [cm-1]
     freq (    2) =       2.786975 [THz] =      92.963476 [cm-1]
     freq (    3) =       6.725397 [THz] =     224.335097 [cm-1]
     freq (    4) =      14.209019 [THz] =     473.961867 [cm-1]
     freq (    5) =      14.480372 [THz] =     483.013216 [cm-1]
     freq (    6) =      14.480372 [THz] =     483.013216 [cm-1]
 **************************************************************************

     Mode symmetry, C_3v (3m)   point group:

     freq (  1 -  2) =         93.0  [cm-1]   --> E    L_3           
     freq (  3 -  3) =        224.3  [cm-1]   --> A_1  L_1           
     freq (  4 -  4) =        474.0  [cm-1]   --> A_1  L_1           
     freq (  5 -  6) =        483.0  [cm-1]   --> E    L_3           

     Calculation of q =    0.5000000  -0.5000000   0.5000000

   Info: using nr1, nr2, nr3 values from input

   Info: using nr1, nr2, nr3 values from input

     Parallelization info
     --------------------
     sticks:   dense  smooth     PW     G-vecs:    dense   smooth      PW
     Min         219     109     40                 4315     1545     351
     Max         220     110     41                 4316     1546     354
     Sum         877     439    163                17261     6183    1411



     bravais-lattice index     =            2
     lattice parameter (alat)  =      10.3360  a.u.
     unit-cell volume          =     276.0562 (a.u.)^3
     number of atoms/cell      =            2
     number of atomic types    =            1
     number of electrons       =         8.00
     number of Kohn-Sham states=            4
     kinetic-energy cutoff     =      30.0000  Ry
     charge density cutoff     =     240.0000  Ry
     Exchange-correlation      = SLA  PW   PBE  PBE ( 1  4  3  4 0 0)

     celldm(1)=  10.336000  celldm(2)=   0.000000  celldm(3)=   0.000000
     celldm(4)=   0.000000  celldm(5)=   0.000000  celldm(6)=   0.000000

     crystal axes: (cart. coord. in units of alat)
               a(1) = (  -0.500000   0.000000   0.500000 )  
               a(2) = (   0.000000   0.500000   0.500000 )  
               a(3) = (  -0.500000   0.500000   0.000000 )  

     reciprocal axes: (cart. coord. in units 2 pi/alat)
               b(1) = ( -1.000000 -1.000000  1.000000 )  
               b(2) = (  1.000000  1.000000  1.000000 )  
               b(3) = ( -1.000000  1.000000 -1.000000 )  


     PseudoPot. # 1 for Si read from file:
     /home/s1333534/quantum_espresso/qe-6.1/pseudo/si_pbe_v1.uspp.F.UPF.txt
     MD5 check sum: a056efeee980c13900f22a371efd63c1
     Pseudo is Ultrasoft + core correction, Zval =  4.0
     Generated by new atomic code, or converted to UPF format
     Using radial grid of  899 points,  6 beta functions with: 
                l(1) =   0
                l(2) =   0
                l(3) =   1
                l(4) =   1
                l(5) =   2
                l(6) =   2
     Q(r) pseudized with  8 coefficients,  rinner =    0.900   0.900   0.900
                                                       0.900   0.900

     atomic species   valence    mass     pseudopotential
        Si             4.00    28.08600     Si( 1.00)

     48 Sym. Ops., with inversion, found



   Cartesian axes

     site n.     atom                  positions (alat units)
         1           Si  tau(   1) = (   0.0000000   0.0000000   0.0000000  )
         2           Si  tau(   2) = (   0.2500000   0.2500000   0.2500000  )

     number of k points=    60
                       cart. coord. in units 2pi/alat
        k(    1) = (  -0.1250000   0.1250000   0.1250000), wk =   0.0468750
        k(    2) = (   0.3750000  -0.3750000   0.6250000), wk =   0.0000000
        k(    3) = (  -0.3750000   0.3750000  -0.1250000), wk =   0.0468750
        k(    4) = (   0.1250000  -0.1250000   0.3750000), wk =   0.0000000
        k(    5) = (   0.3750000  -0.3750000   0.6250000), wk =   0.0468750
        k(    6) = (   0.8750000  -0.8750000   1.1250000), wk =   0.0000000
        k(    7) = (   0.1250000  -0.1250000   0.3750000), wk =   0.0468750
        k(    8) = (   0.6250000  -0.6250000   0.8750000), wk =   0.0000000
        k(    9) = (  -0.1250000   0.6250000   0.1250000), wk =   0.0937500
        k(   10) = (   0.3750000   0.1250000   0.6250000), wk =   0.0000000
        k(   11) = (   0.6250000  -0.1250000   0.8750000), wk =   0.0937500
        k(   12) = (   1.1250000  -0.6250000   1.3750000), wk =   0.0000000
        k(   13) = (   0.3750000   0.1250000   0.6250000), wk =   0.0937500
        k(   14) = (   0.8750000  -0.3750000   1.1250000), wk =   0.0000000
        k(   15) = (  -0.1250000  -0.8750000   0.1250000), wk =   0.0937500
        k(   16) = (   0.3750000  -1.3750000   0.6250000), wk =   0.0000000
        k(   17) = (  -0.3750000   0.3750000   0.3750000), wk =   0.0468750
        k(   18) = (   0.1250000  -0.1250000   0.8750000), wk =   0.0000000
        k(   19) = (   0.3750000  -0.3750000   1.1250000), wk =   0.0468750
        k(   20) = (   0.8750000  -0.8750000   1.6250000), wk =   0.0000000
        k(   21) = (   0.1250000  -0.1250000   0.1250000), wk =   0.0156250
        k(   22) = (   0.6250000  -0.6250000   0.6250000), wk =   0.0000000
        k(   23) = (  -0.3750000  -0.3750000  -0.1250000), wk =   0.0937500
        k(   24) = (   0.1250000  -0.8750000   0.3750000), wk =   0.0000000
        k(   25) = (  -0.1250000  -0.3750000   0.3750000), wk =   0.0468750
        k(   26) = (   0.3750000  -0.8750000   0.8750000), wk =   0.0000000
        k(   27) = (   0.3750000   0.3750000   0.6250000), wk =   0.0937500
        k(   28) = (   0.8750000  -0.1250000   1.1250000), wk =   0.0000000
        k(   29) = (   0.6250000   0.3750000  -0.3750000), wk =   0.0468750
        k(   30) = (   1.1250000  -0.1250000   0.1250000), wk =   0.0000000
        k(   31) = (   0.1250000   0.1250000   0.3750000), wk =   0.0937500
        k(   32) = (   0.6250000  -0.3750000   0.8750000), wk =   0.0000000
        k(   33) = (   0.3750000   0.1250000  -0.1250000), wk =   0.0468750
        k(   34) = (   0.8750000  -0.3750000   0.3750000), wk =   0.0000000
        k(   35) = (  -0.1250000  -0.6250000  -0.1250000), wk =   0.0468750
        k(   36) = (   0.3750000  -1.1250000   0.3750000), wk =   0.0000000
        k(   37) = (   0.1250000  -0.6250000   0.1250000), wk =   0.0468750
        k(   38) = (   0.6250000  -1.1250000   0.6250000), wk =   0.0000000
        k(   39) = (   0.6250000   0.1250000   0.8750000), wk =   0.0937500
        k(   40) = (   1.1250000  -0.3750000   1.3750000), wk =   0.0000000
        k(   41) = (  -0.8750000   0.1250000   0.6250000), wk =   0.0937500
        k(   42) = (  -0.3750000  -0.3750000   1.1250000), wk =   0.0000000
        k(   43) = (   0.8750000   0.1250000  -0.6250000), wk =   0.0937500
        k(   44) = (   1.3750000  -0.3750000  -0.1250000), wk =   0.0000000
        k(   45) = (   0.3750000  -0.1250000   0.6250000), wk =   0.0937500
        k(   46) = (   0.8750000  -0.6250000   1.1250000), wk =   0.0000000
        k(   47) = (  -0.6250000  -0.1250000   0.3750000), wk =   0.0937500
        k(   48) = (  -0.1250000  -0.6250000   0.8750000), wk =   0.0000000
        k(   49) = (   0.6250000  -0.1250000  -0.3750000), wk =   0.0937500
        k(   50) = (   1.1250000  -0.6250000   0.1250000), wk =   0.0000000
        k(   51) = (  -0.1250000   0.8750000  -0.1250000), wk =   0.0468750
        k(   52) = (   0.3750000   0.3750000   0.3750000), wk =   0.0000000
        k(   53) = (   0.1250000   0.8750000   0.1250000), wk =   0.0468750
        k(   54) = (   0.6250000   0.3750000   0.6250000), wk =   0.0000000
        k(   55) = (   0.3750000  -0.3750000   0.3750000), wk =   0.0156250
        k(   56) = (   0.8750000  -0.8750000   0.8750000), wk =   0.0000000
        k(   57) = (   0.3750000   0.3750000   1.1250000), wk =   0.0937500
        k(   58) = (   0.8750000  -0.1250000   1.6250000), wk =   0.0000000
        k(   59) = (   1.1250000   0.3750000  -0.3750000), wk =   0.0468750
        k(   60) = (   1.6250000  -0.1250000   0.1250000), wk =   0.0000000

     Dense  grid:    17261 G-vectors     FFT dimensions: (  40,  40,  40)

     Smooth grid:     6183 G-vectors     FFT dimensions: (  25,  25,  25)

     Estimated max dynamical RAM per process >       1.78MB

     Estimated total allocated dynamical RAM >       7.14MB

     The potential is recalculated from file :
     ./_ph0/silicon.10.336.save/charge-density.dat

     Starting wfc are    8 atomic wfcs

     Band Structure Calculation
     Davidson diagonalization with overlap

     ethr =  1.25E-10,  avg # of iterations = 12.2

     total cpu time spent up to now is        2.4 secs

     End of band structure calculation

          k =-0.1250 0.1250 0.1250 (   770 PWs)   bands (ev):

    -5.6405   4.3799   5.6892   5.6892

          k = 0.3750-0.3750 0.6250 (   767 PWs)   bands (ev):

    -3.4772  -0.6859   3.7257   4.4390

          k =-0.3750 0.3750-0.1250 (   773 PWs)   bands (ev):

    -4.6151   1.3895   3.7054   5.2094

          k = 0.1250-0.1250 0.3750 (   774 PWs)   bands (ev):

    -5.1133   2.7645   4.6826   4.7460

          k = 0.3750-0.3750 0.6250 (   767 PWs)   bands (ev):

    -3.4772  -0.6859   3.7257   4.4390

          k = 0.8750-0.8750 1.1250 (   770 PWs)   bands (ev):

    -5.6405   4.3799   5.6892   5.6892

          k = 0.1250-0.1250 0.3750 (   774 PWs)   bands (ev):

    -5.1133   2.7645   4.6826   4.7460

          k = 0.6250-0.6250 0.8750 (   773 PWs)   bands (ev):

    -4.6151   1.3895   3.7054   5.2094

          k =-0.1250 0.6250 0.1250 (   768 PWs)   bands (ev):

    -4.0831   1.0546   3.3575   3.8096

          k = 0.3750 0.1250 0.6250 (   768 PWs)   bands (ev):

    -3.6682   0.1830   2.7162   4.0840

          k = 0.6250-0.1250 0.8750 (   757 PWs)   bands (ev):

    -2.4455  -0.9053   2.0053   3.0804

          k = 1.1250-0.6250 1.3750 (   773 PWs)   bands (ev):

    -4.6151   1.3895   3.7054   5.2094

          k = 0.3750 0.1250 0.6250 (   768 PWs)   bands (ev):

    -3.6682   0.1830   2.7162   4.0840

          k = 0.8750-0.3750 1.1250 (   768 PWs)   bands (ev):

    -4.0831   1.0546   3.3575   3.8096

          k =-0.1250-0.8750 0.1250 (   762 PWs)   bands (ev):

    -2.6128  -0.8082   2.6143   3.3433

          k = 0.3750-1.3750 0.6250 (   767 PWs)   bands (ev):

    -3.4772  -0.6859   3.7257   4.4390

          k =-0.3750 0.3750 0.3750 (   763 PWs)   bands (ev):

    -4.1828   0.1012   4.9029   4.9029

          k = 0.1250-0.1250 0.8750 (   762 PWs)   bands (ev):

    -2.6128  -0.8082   2.6143   3.3433

          k = 0.3750-0.3750 1.1250 (   767 PWs)   bands (ev):

    -2.9820  -0.6023   2.0631   4.1225

          k = 0.8750-0.8750 1.6250 (   768 PWs)   bands (ev):

    -4.0831   1.0546   3.3575   3.8096

          k = 0.1250-0.1250 0.1250 (   770 PWs)   bands (ev):

    -5.6405   4.3799   5.6892   5.6892

          k = 0.6250-0.6250 0.6250 (   763 PWs)   bands (ev):

    -4.1828   0.1012   4.9029   4.9029

          k =-0.3750-0.3750-0.1250 (   773 PWs)   bands (ev):

    -4.6151   1.3895   3.7054   5.2094

          k = 0.1250-0.8750 0.3750 (   757 PWs)   bands (ev):

    -2.4455  -0.9053   2.0053   3.0804

          k =-0.1250-0.3750 0.3750 (   773 PWs)   bands (ev):

    -4.6151   1.3895   3.7054   5.2094

          k = 0.3750-0.8750 0.8750 (   768 PWs)   bands (ev):

    -4.0831   1.0546   3.3575   3.8096

          k = 0.3750 0.3750 0.6250 (   767 PWs)   bands (ev):

    -3.4772  -0.6859   3.7257   4.4390

          k = 0.8750-0.1250 1.1250 (   762 PWs)   bands (ev):

    -2.6128  -0.8082   2.6143   3.3433

          k = 0.6250 0.3750-0.3750 (   767 PWs)   bands (ev):

    -3.4772  -0.6859   3.7257   4.4390

          k = 1.1250-0.1250 0.1250 (   762 PWs)   bands (ev):

    -2.6128  -0.8082   2.6143   3.3433

          k = 0.1250 0.1250 0.3750 (   774 PWs)   bands (ev):

    -5.1133   2.7645   4.6826   4.7460

          k = 0.6250-0.3750 0.8750 (   768 PWs)   bands (ev):

    -3.6682   0.1830   2.7162   4.0840

          k = 0.3750 0.1250-0.1250 (   774 PWs)   bands (ev):

    -5.1133   2.7645   4.6826   4.7460

          k = 0.8750-0.3750 0.3750 (   767 PWs)   bands (ev):

    -2.9820  -0.6023   2.0631   4.1225

          k =-0.1250-0.6250-0.1250 (   768 PWs)   bands (ev):

    -4.0831   1.0546   3.3575   3.8096

          k = 0.3750-1.1250 0.3750 (   767 PWs)   bands (ev):

    -2.9820  -0.6023   2.0631   4.1225

          k = 0.1250-0.6250 0.1250 (   768 PWs)   bands (ev):

    -4.0831   1.0546   3.3575   3.8096

          k = 0.6250-1.1250 0.6250 (   773 PWs)   bands (ev):

    -4.6151   1.3895   3.7054   5.2094

          k = 0.6250 0.1250 0.8750 (   757 PWs)   bands (ev):

    -2.4455  -0.9053   2.0053   3.0804

          k = 1.1250-0.3750 1.3750 (   768 PWs)   bands (ev):

    -3.6682   0.1830   2.7162   4.0840

          k =-0.8750 0.1250 0.6250 (   757 PWs)   bands (ev):

    -2.4455  -0.9053   2.0053   3.0804

          k =-0.3750-0.3750 1.1250 (   767 PWs)   bands (ev):

    -2.9820  -0.6023   2.0631   4.1225

          k = 0.8750 0.1250-0.6250 (   757 PWs)   bands (ev):

    -2.4455  -0.9053   2.0053   3.0804

          k = 1.3750-0.3750-0.1250 (   768 PWs)   bands (ev):

    -3.6682   0.1830   2.7162   4.0840

          k = 0.3750-0.1250 0.6250 (   768 PWs)   bands (ev):

    -3.6682   0.1830   2.7162   4.0840

          k = 0.8750-0.6250 1.1250 (   774 PWs)   bands (ev):

    -5.1133   2.7645   4.6826   4.7460

          k =-0.6250-0.1250 0.3750 (   768 PWs)   bands (ev):

    -3.6682   0.1830   2.7162   4.0840

          k =-0.1250-0.6250 0.8750 (   757 PWs)   bands (ev):

    -2.4455  -0.9053   2.0053   3.0804

          k = 0.6250-0.1250-0.3750 (   768 PWs)   bands (ev):

    -3.6682   0.1830   2.7162   4.0840

          k = 1.1250-0.6250 0.1250 (   757 PWs)   bands (ev):

    -2.4455  -0.9053   2.0053   3.0804

          k =-0.1250 0.8750-0.1250 (   762 PWs)   bands (ev):

    -2.6128  -0.8082   2.6143   3.3433

          k = 0.3750 0.3750 0.3750 (   763 PWs)   bands (ev):

    -4.1828   0.1012   4.9029   4.9029

          k = 0.1250 0.8750 0.1250 (   762 PWs)   bands (ev):

    -2.6128  -0.8082   2.6143   3.3433

          k = 0.6250 0.3750 0.6250 (   767 PWs)   bands (ev):

    -3.4772  -0.6859   3.7257   4.4390

          k = 0.3750-0.3750 0.3750 (   763 PWs)   bands (ev):

    -4.1828   0.1012   4.9029   4.9029

          k = 0.8750-0.8750 0.8750 (   770 PWs)   bands (ev):

    -5.6405   4.3799   5.6892   5.6892

          k = 0.3750 0.3750 1.1250 (   767 PWs)   bands (ev):

    -2.9820  -0.6023   2.0631   4.1225

          k = 0.8750-0.1250 1.6250 (   757 PWs)   bands (ev):

    -2.4455  -0.9053   2.0053   3.0804

          k = 1.1250 0.3750-0.3750 (   767 PWs)   bands (ev):

    -2.9820  -0.6023   2.0631   4.1225

          k = 1.6250-0.1250 0.1250 (   774 PWs)   bands (ev):

    -5.1133   2.7645   4.6826   4.7460

     highest occupied level (ev):     5.6892

     Writing output data file silicon.10.336.save

                                                                                

     bravais-lattice index     =            2
     lattice parameter (alat)  =      10.3360  a.u.
     unit-cell volume          =     276.0562 (a.u.)^3
     number of atoms/cell      =            2
     number of atomic types    =            1
     kinetic-energy cut-off    =      30.0000  Ry
     charge density cut-off    =     240.0000  Ry
     convergence threshold     =      1.0E-12
     beta                      =       0.7000
     number of iterations used =            4
     Exchange-correlation      = SLA  PW   PBE  PBE ( 1  4  3  4 0 0)


     celldm(1)=   10.33600  celldm(2)=    0.00000  celldm(3)=    0.00000
     celldm(4)=    0.00000  celldm(5)=    0.00000  celldm(6)=    0.00000

     crystal axes: (cart. coord. in units of alat)
               a(1) = ( -0.5000  0.0000  0.5000 )  
               a(2) = (  0.0000  0.5000  0.5000 )  
               a(3) = ( -0.5000  0.5000  0.0000 )  

     reciprocal axes: (cart. coord. in units 2 pi/alat)
               b(1) = ( -1.0000 -1.0000  1.0000 )  
               b(2) = (  1.0000  1.0000  1.0000 )  
               b(3) = ( -1.0000  1.0000 -1.0000 )  


     Atoms inside the unit cell: 

     Cartesian axes

     site n.  atom      mass           positions (alat units)
        1     Si  28.0860   tau(    1) = (    0.00000    0.00000    0.00000  )
        2     Si  28.0860   tau(    2) = (    0.25000    0.25000    0.25000  )

     Computing dynamical matrix for 
                    q = (   0.5000000  -0.5000000   0.5000000 )

     13 Sym.Ops. (with q -> -q+G )


     G cutoff =  649.4661  (   4316 G-vectors)     FFT grid: ( 40, 40, 40)
     G cutoff =  324.7331  (   1546 G-vectors)  smooth grid: ( 25, 25, 25)
     number of k points=    60

     PseudoPot. # 1 for Si read from file:
     /home/s1333534/quantum_espresso/qe-6.1/pseudo/si_pbe_v1.uspp.F.UPF.txt
     MD5 check sum: a056efeee980c13900f22a371efd63c1
     Pseudo is Ultrasoft + core correction, Zval =  4.0
     Generated by new atomic code, or converted to UPF format
     Using radial grid of  899 points,  6 beta functions with: 
                l(1) =   0
                l(2) =   0
                l(3) =   1
                l(4) =   1
                l(5) =   2
                l(6) =   2
     Q(r) pseudized with  8 coefficients,  rinner =    0.900   0.900   0.900
                                                       0.900   0.900


     Atomic displacements:
     There are   4 irreducible representations

     Representation     1      1 modes -  To be done

     Representation     2      1 modes -  To be done

     Representation     3      2 modes -  To be done

     Representation     4      2 modes -  To be done



     Alpha used in Ewald sum =   2.5000
     PHONON       :    29.53s CPU        38.21s WALL



     Representation #  1 mode #   1

     Self-consistent Calculation

      iter #   1 total cpu time :    38.5 secs   av.it.:   5.1
      thresh= 1.000E-02 alpha_mix =  0.700 |ddv_scf|^2 =  3.048E-06

      iter #   2 total cpu time :    38.9 secs   av.it.:  10.1
      thresh= 1.746E-04 alpha_mix =  0.700 |ddv_scf|^2 =  2.802E-06

      iter #   3 total cpu time :    39.4 secs   av.it.:   9.4
      thresh= 1.674E-04 alpha_mix =  0.700 |ddv_scf|^2 =  1.684E-09

      iter #   4 total cpu time :    39.8 secs   av.it.:   9.6
      thresh= 4.104E-06 alpha_mix =  0.700 |ddv_scf|^2 =  1.667E-11

      iter #   5 total cpu time :    40.2 secs   av.it.:   9.5
      thresh= 4.083E-07 alpha_mix =  0.700 |ddv_scf|^2 =  2.220E-13

     End of self-consistent calculation

     Convergence has been achieved 


     Representation #  2 mode #   2

     Self-consistent Calculation

      iter #   1 total cpu time :    40.7 secs   av.it.:   6.0
      thresh= 1.000E-02 alpha_mix =  0.700 |ddv_scf|^2 =  4.331E-05

      iter #   2 total cpu time :    41.1 secs   av.it.:  10.0
      thresh= 6.581E-04 alpha_mix =  0.700 |ddv_scf|^2 =  1.348E-04

      iter #   3 total cpu time :    41.6 secs   av.it.:   8.9
      thresh= 1.161E-03 alpha_mix =  0.700 |ddv_scf|^2 =  9.828E-09

      iter #   4 total cpu time :    42.0 secs   av.it.:  10.2
      thresh= 9.913E-06 alpha_mix =  0.700 |ddv_scf|^2 =  4.989E-10

      iter #   5 total cpu time :    42.5 secs   av.it.:  10.4
      thresh= 2.234E-06 alpha_mix =  0.700 |ddv_scf|^2 =  1.498E-11

      iter #   6 total cpu time :    42.9 secs   av.it.:  10.0
      thresh= 3.871E-07 alpha_mix =  0.700 |ddv_scf|^2 =  1.111E-13

     End of self-consistent calculation

     Convergence has been achieved 


     Representation #  3 modes #   3  4

     Self-consistent Calculation

      iter #   1 total cpu time :    43.5 secs   av.it.:   5.1
      thresh= 1.000E-02 alpha_mix =  0.700 |ddv_scf|^2 =  1.959E-08

      iter #   2 total cpu time :    44.3 secs   av.it.:  11.1
      thresh= 1.400E-05 alpha_mix =  0.700 |ddv_scf|^2 =  1.154E-09

      iter #   3 total cpu time :    45.2 secs   av.it.:  10.8
      thresh= 3.397E-06 alpha_mix =  0.700 |ddv_scf|^2 =  3.872E-11

      iter #   4 total cpu time :    45.9 secs   av.it.:  10.8
      thresh= 6.223E-07 alpha_mix =  0.700 |ddv_scf|^2 =  3.157E-13

     End of self-consistent calculation

     Convergence has been achieved 


     Representation #  4 modes #   5  6

     Self-consistent Calculation

      iter #   1 total cpu time :    46.7 secs   av.it.:   5.1
      thresh= 1.000E-02 alpha_mix =  0.700 |ddv_scf|^2 =  1.004E-07

      iter #   2 total cpu time :    47.5 secs   av.it.:  11.2
      thresh= 3.169E-05 alpha_mix =  0.700 |ddv_scf|^2 =  8.061E-09

      iter #   3 total cpu time :    48.3 secs   av.it.:  11.2
      thresh= 8.978E-06 alpha_mix =  0.700 |ddv_scf|^2 =  2.118E-10

      iter #   4 total cpu time :    49.0 secs   av.it.:  10.1
      thresh= 1.455E-06 alpha_mix =  0.700 |ddv_scf|^2 =  3.853E-13

     End of self-consistent calculation

     Convergence has been achieved 

     Number of q in the star =    4
     List of q in the star:
          1   0.500000000  -0.500000000   0.500000000
          2   0.500000000   0.500000000   0.500000000
          3  -0.500000000   0.500000000   0.500000000
          4   0.500000000   0.500000000  -0.500000000

     Diagonalizing the dynamical matrix

     q = (    0.500000000  -0.500000000   0.500000000 ) 

 **************************************************************************
     freq (    1) =       3.305991 [THz] =     110.276005 [cm-1]
     freq (    2) =       3.305991 [THz] =     110.276005 [cm-1]
     freq (    3) =      11.094099 [THz] =     370.059311 [cm-1]
     freq (    4) =      11.952052 [THz] =     398.677525 [cm-1]
     freq (    5) =      14.268500 [THz] =     475.945938 [cm-1]
     freq (    6) =      14.268500 [THz] =     475.945938 [cm-1]
 **************************************************************************

     Calculation of q =    0.0000000   0.5000000   0.0000000

   Info: using nr1, nr2, nr3 values from input

   Info: using nr1, nr2, nr3 values from input

     Parallelization info
     --------------------
     sticks:   dense  smooth     PW     G-vecs:    dense   smooth      PW
     Min         218     109     37                 4315     1545     309
     Max         220     110     38                 4316     1546     312
     Sum         877     439    151                17261     6183    1243



     bravais-lattice index     =            2
     lattice parameter (alat)  =      10.3360  a.u.
     unit-cell volume          =     276.0562 (a.u.)^3
     number of atoms/cell      =            2
     number of atomic types    =            1
     number of electrons       =         8.00
     number of Kohn-Sham states=            4
     kinetic-energy cutoff     =      30.0000  Ry
     charge density cutoff     =     240.0000  Ry
     Exchange-correlation      = SLA  PW   PBE  PBE ( 1  4  3  4 0 0)

     celldm(1)=  10.336000  celldm(2)=   0.000000  celldm(3)=   0.000000
     celldm(4)=   0.000000  celldm(5)=   0.000000  celldm(6)=   0.000000

     crystal axes: (cart. coord. in units of alat)
               a(1) = (  -0.500000   0.000000   0.500000 )  
               a(2) = (   0.000000   0.500000   0.500000 )  
               a(3) = (  -0.500000   0.500000   0.000000 )  

     reciprocal axes: (cart. coord. in units 2 pi/alat)
               b(1) = ( -1.000000 -1.000000  1.000000 )  
               b(2) = (  1.000000  1.000000  1.000000 )  
               b(3) = ( -1.000000  1.000000 -1.000000 )  


     PseudoPot. # 1 for Si read from file:
     /home/s1333534/quantum_espresso/qe-6.1/pseudo/si_pbe_v1.uspp.F.UPF.txt
     MD5 check sum: a056efeee980c13900f22a371efd63c1
     Pseudo is Ultrasoft + core correction, Zval =  4.0
     Generated by new atomic code, or converted to UPF format
     Using radial grid of  899 points,  6 beta functions with: 
                l(1) =   0
                l(2) =   0
                l(3) =   1
                l(4) =   1
                l(5) =   2
                l(6) =   2
     Q(r) pseudized with  8 coefficients,  rinner =    0.900   0.900   0.900
                                                       0.900   0.900

     atomic species   valence    mass     pseudopotential
        Si             4.00    28.08600     Si( 1.00)

     48 Sym. Ops., with inversion, found



   Cartesian axes

     site n.     atom                  positions (alat units)
         1           Si  tau(   1) = (   0.0000000   0.0000000   0.0000000  )
         2           Si  tau(   2) = (   0.2500000   0.2500000   0.2500000  )

     number of k points=    80
                       cart. coord. in units 2pi/alat
        k(    1) = (  -0.1250000   0.1250000   0.1250000), wk =   0.0312500
        k(    2) = (  -0.1250000   0.6250000   0.1250000), wk =   0.0000000
        k(    3) = (  -0.3750000   0.3750000  -0.1250000), wk =   0.0625000
        k(    4) = (  -0.3750000   0.8750000  -0.1250000), wk =   0.0000000
        k(    5) = (   0.3750000  -0.3750000   0.6250000), wk =   0.0625000
        k(    6) = (   0.3750000   0.1250000   0.6250000), wk =   0.0000000
        k(    7) = (   0.1250000  -0.1250000   0.3750000), wk =   0.0625000
        k(    8) = (   0.1250000   0.3750000   0.3750000), wk =   0.0000000
        k(    9) = (  -0.1250000   0.6250000   0.1250000), wk =   0.0312500
        k(   10) = (  -0.1250000   1.1250000   0.1250000), wk =   0.0000000
        k(   11) = (   0.6250000  -0.1250000   0.8750000), wk =   0.0625000
        k(   12) = (   0.6250000   0.3750000   0.8750000), wk =   0.0000000
        k(   13) = (   0.3750000   0.1250000   0.6250000), wk =   0.0625000
        k(   14) = (   0.3750000   0.6250000   0.6250000), wk =   0.0000000
        k(   15) = (  -0.1250000  -0.8750000   0.1250000), wk =   0.0312500
        k(   16) = (  -0.1250000  -0.3750000   0.1250000), wk =   0.0000000
        k(   17) = (  -0.3750000   0.3750000   0.3750000), wk =   0.0312500
        k(   18) = (  -0.3750000   0.8750000   0.3750000), wk =   0.0000000
        k(   19) = (   0.3750000  -0.3750000   1.1250000), wk =   0.0625000
        k(   20) = (   0.3750000   0.1250000   1.1250000), wk =   0.0000000
        k(   21) = (  -0.1250000  -0.1250000   0.1250000), wk =   0.0312500
        k(   22) = (  -0.1250000   0.3750000   0.1250000), wk =   0.0000000
        k(   23) = (   0.1250000  -0.3750000   0.3750000), wk =   0.0625000
        k(   24) = (   0.1250000   0.1250000   0.3750000), wk =   0.0000000
        k(   25) = (   0.3750000  -0.1250000   0.3750000), wk =   0.0312500
        k(   26) = (   0.3750000   0.3750000   0.3750000), wk =   0.0000000
        k(   27) = (   0.3750000   0.1250000   0.3750000), wk =   0.0312500
        k(   28) = (   0.3750000   0.6250000   0.3750000), wk =   0.0000000
        k(   29) = (  -0.6250000   0.3750000  -0.3750000), wk =   0.0625000
        k(   30) = (  -0.6250000   0.8750000  -0.3750000), wk =   0.0000000
        k(   31) = (  -0.3750000   0.6250000  -0.3750000), wk =   0.0312500
        k(   32) = (  -0.3750000   1.1250000  -0.3750000), wk =   0.0000000
        k(   33) = (  -0.3750000  -0.6250000  -0.3750000), wk =   0.0312500
        k(   34) = (  -0.3750000  -0.1250000  -0.3750000), wk =   0.0000000
        k(   35) = (  -0.3750000   0.1250000  -0.1250000), wk =   0.0625000
        k(   36) = (  -0.3750000   0.6250000  -0.1250000), wk =   0.0000000
        k(   37) = (  -0.1250000   0.3750000  -0.1250000), wk =   0.0312500
        k(   38) = (  -0.1250000   0.8750000  -0.1250000), wk =   0.0000000
        k(   39) = (  -0.1250000  -0.3750000  -0.1250000), wk =   0.0312500
        k(   40) = (  -0.1250000   0.1250000  -0.1250000), wk =   0.0000000
        k(   41) = (  -0.1250000  -0.6250000   0.1250000), wk =   0.0312500
        k(   42) = (  -0.1250000  -0.1250000   0.1250000), wk =   0.0000000
        k(   43) = (   0.6250000  -0.1250000  -0.1250000), wk =   0.0625000
        k(   44) = (   0.6250000   0.3750000  -0.1250000), wk =   0.0000000
        k(   45) = (   0.6250000   0.1250000   0.1250000), wk =   0.0625000
        k(   46) = (   0.6250000   0.6250000   0.1250000), wk =   0.0000000
        k(   47) = (  -0.8750000   0.1250000  -0.6250000), wk =   0.0625000
        k(   48) = (  -0.8750000   0.6250000  -0.6250000), wk =   0.0000000
        k(   49) = (  -0.1250000   0.6250000  -0.8750000), wk =   0.0625000
        k(   50) = (  -0.1250000   1.1250000  -0.8750000), wk =   0.0000000
        k(   51) = (  -0.1250000   0.8750000  -0.6250000), wk =   0.0625000
        k(   52) = (  -0.1250000   1.3750000  -0.6250000), wk =   0.0000000
        k(   53) = (  -0.1250000  -0.8750000  -0.6250000), wk =   0.0625000
        k(   54) = (  -0.1250000  -0.3750000  -0.6250000), wk =   0.0000000
        k(   55) = (   0.8750000  -0.6250000   0.1250000), wk =   0.0625000
        k(   56) = (   0.8750000  -0.1250000   0.1250000), wk =   0.0000000
        k(   57) = (  -0.6250000  -0.1250000  -0.3750000), wk =   0.0625000
        k(   58) = (  -0.6250000   0.3750000  -0.3750000), wk =   0.0000000
        k(   59) = (   0.1250000   0.3750000  -0.6250000), wk =   0.0625000
        k(   60) = (   0.1250000   0.8750000  -0.6250000), wk =   0.0000000
        k(   61) = (   0.1250000   0.6250000  -0.3750000), wk =   0.0625000
        k(   62) = (   0.1250000   1.1250000  -0.3750000), wk =   0.0000000
        k(   63) = (   0.1250000  -0.6250000  -0.3750000), wk =   0.0625000
        k(   64) = (   0.1250000  -0.1250000  -0.3750000), wk =   0.0000000
        k(   65) = (   0.6250000  -0.3750000  -0.1250000), wk =   0.0625000
        k(   66) = (   0.6250000   0.1250000  -0.1250000), wk =   0.0000000
        k(   67) = (  -0.1250000   0.8750000   0.1250000), wk =   0.0312500
        k(   68) = (  -0.1250000   1.3750000   0.1250000), wk =   0.0000000
        k(   69) = (  -0.8750000  -0.1250000  -0.1250000), wk =   0.0625000
        k(   70) = (  -0.8750000   0.3750000  -0.1250000), wk =   0.0000000
        k(   71) = (  -0.8750000   0.1250000   0.1250000), wk =   0.0625000
        k(   72) = (  -0.8750000   0.6250000   0.1250000), wk =   0.0000000
        k(   73) = (  -0.3750000  -0.3750000   0.3750000), wk =   0.0312500
        k(   74) = (  -0.3750000   0.1250000   0.3750000), wk =   0.0000000
        k(   75) = (  -1.1250000   0.3750000  -0.3750000), wk =   0.0625000
        k(   76) = (  -1.1250000   0.8750000  -0.3750000), wk =   0.0000000
        k(   77) = (  -0.3750000   1.1250000  -0.3750000), wk =   0.0312500
        k(   78) = (  -0.3750000   1.6250000  -0.3750000), wk =   0.0000000
        k(   79) = (  -0.3750000  -1.1250000  -0.3750000), wk =   0.0312500
        k(   80) = (  -0.3750000  -0.6250000  -0.3750000), wk =   0.0000000

     Dense  grid:    17261 G-vectors     FFT dimensions: (  40,  40,  40)

     Smooth grid:     6183 G-vectors     FFT dimensions: (  25,  25,  25)

     Estimated max dynamical RAM per process >       1.78MB

     Estimated total allocated dynamical RAM >       7.14MB

     The potential is recalculated from file :
     ./_ph0/silicon.10.336.save/charge-density.dat

     Starting wfc are    8 atomic wfcs

     Band Structure Calculation
     Davidson diagonalization with overlap

     ethr =  1.25E-10,  avg # of iterations = 12.2

     total cpu time spent up to now is        3.5 secs

     End of band structure calculation

          k =-0.1250 0.1250 0.1250 (   770 PWs)   bands (ev):

    -5.6405   4.3799   5.6892   5.6892

          k =-0.1250 0.6250 0.1250 (   768 PWs)   bands (ev):

    -4.0831   1.0546   3.3575   3.8096

          k =-0.3750 0.3750-0.1250 (   773 PWs)   bands (ev):

    -4.6151   1.3895   3.7054   5.2094

          k =-0.3750 0.8750-0.1250 (   757 PWs)   bands (ev):

    -2.4455  -0.9053   2.0053   3.0804

          k = 0.3750-0.3750 0.6250 (   767 PWs)   bands (ev):

    -3.4772  -0.6859   3.7257   4.4390

          k = 0.3750 0.1250 0.6250 (   768 PWs)   bands (ev):

    -3.6682   0.1830   2.7162   4.0840

          k = 0.1250-0.1250 0.3750 (   774 PWs)   bands (ev):

    -5.1133   2.7645   4.6826   4.7460

          k = 0.1250 0.3750 0.3750 (   773 PWs)   bands (ev):

    -4.6151   1.3895   3.7054   5.2094

          k =-0.1250 0.6250 0.1250 (   768 PWs)   bands (ev):

    -4.0831   1.0546   3.3575   3.8096

          k =-0.1250 1.1250 0.1250 (   762 PWs)   bands (ev):

    -2.6128  -0.8082   2.6143   3.3433

          k = 0.6250-0.1250 0.8750 (   757 PWs)   bands (ev):

    -2.4455  -0.9053   2.0053   3.0804

          k = 0.6250 0.3750 0.8750 (   768 PWs)   bands (ev):

    -3.6682   0.1830   2.7162   4.0840

          k = 0.3750 0.1250 0.6250 (   768 PWs)   bands (ev):

    -3.6682   0.1830   2.7162   4.0840

          k = 0.3750 0.6250 0.6250 (   767 PWs)   bands (ev):

    -3.4772  -0.6859   3.7257   4.4390

          k =-0.1250-0.8750 0.1250 (   762 PWs)   bands (ev):

    -2.6128  -0.8082   2.6143   3.3433

          k =-0.1250-0.3750 0.1250 (   774 PWs)   bands (ev):

    -5.1133   2.7645   4.6826   4.7460

          k =-0.3750 0.3750 0.3750 (   763 PWs)   bands (ev):

    -4.1828   0.1012   4.9029   4.9029

          k =-0.3750 0.8750 0.3750 (   767 PWs)   bands (ev):

    -2.9820  -0.6023   2.0631   4.1225

          k = 0.3750-0.3750 1.1250 (   767 PWs)   bands (ev):

    -2.9820  -0.6023   2.0631   4.1225

          k = 0.3750 0.1250 1.1250 (   757 PWs)   bands (ev):

    -2.4455  -0.9053   2.0053   3.0804

          k =-0.1250-0.1250 0.1250 (   770 PWs)   bands (ev):

    -5.6405   4.3799   5.6892   5.6892

          k =-0.1250 0.3750 0.1250 (   774 PWs)   bands (ev):

    -5.1133   2.7645   4.6826   4.7460

          k = 0.1250-0.3750 0.3750 (   773 PWs)   bands (ev):

    -4.6151   1.3895   3.7054   5.2094

          k = 0.1250 0.1250 0.3750 (   774 PWs)   bands (ev):

    -5.1133   2.7645   4.6826   4.7460

          k = 0.3750-0.1250 0.3750 (   773 PWs)   bands (ev):

    -4.6151   1.3895   3.7054   5.2094

          k = 0.3750 0.3750 0.3750 (   763 PWs)   bands (ev):

    -4.1828   0.1012   4.9029   4.9029

          k = 0.3750 0.1250 0.3750 (   773 PWs)   bands (ev):

    -4.6151   1.3895   3.7054   5.2094

          k = 0.3750 0.6250 0.3750 (   767 PWs)   bands (ev):

    -3.4772  -0.6859   3.7257   4.4390

          k =-0.6250 0.3750-0.3750 (   767 PWs)   bands (ev):

    -3.4772  -0.6859   3.7257   4.4390

          k =-0.6250 0.8750-0.3750 (   768 PWs)   bands (ev):

    -3.6682   0.1830   2.7162   4.0840

          k =-0.3750 0.6250-0.3750 (   767 PWs)   bands (ev):

    -3.4772  -0.6859   3.7257   4.4390

          k =-0.3750 1.1250-0.3750 (   767 PWs)   bands (ev):

    -2.9820  -0.6023   2.0631   4.1225

          k =-0.3750-0.6250-0.3750 (   767 PWs)   bands (ev):

    -3.4772  -0.6859   3.7257   4.4390

          k =-0.3750-0.1250-0.3750 (   773 PWs)   bands (ev):

    -4.6151   1.3895   3.7054   5.2094

          k =-0.3750 0.1250-0.1250 (   774 PWs)   bands (ev):

    -5.1133   2.7645   4.6826   4.7460

          k =-0.3750 0.6250-0.1250 (   768 PWs)   bands (ev):

    -3.6682   0.1830   2.7162   4.0840

          k =-0.1250 0.3750-0.1250 (   774 PWs)   bands (ev):

    -5.1133   2.7645   4.6826   4.7460

          k =-0.1250 0.8750-0.1250 (   762 PWs)   bands (ev):

    -2.6128  -0.8082   2.6143   3.3433

          k =-0.1250-0.3750-0.1250 (   774 PWs)   bands (ev):

    -5.1133   2.7645   4.6826   4.7460

          k =-0.1250 0.1250-0.1250 (   770 PWs)   bands (ev):

    -5.6405   4.3799   5.6892   5.6892

          k =-0.1250-0.6250 0.1250 (   768 PWs)   bands (ev):

    -4.0831   1.0546   3.3575   3.8096

          k =-0.1250-0.1250 0.1250 (   770 PWs)   bands (ev):

    -5.6405   4.3799   5.6892   5.6892

          k = 0.6250-0.1250-0.1250 (   768 PWs)   bands (ev):

    -4.0831   1.0546   3.3575   3.8096

          k = 0.6250 0.3750-0.1250 (   768 PWs)   bands (ev):

    -3.6682   0.1830   2.7162   4.0840

          k = 0.6250 0.1250 0.1250 (   768 PWs)   bands (ev):

    -4.0831   1.0546   3.3575   3.8096

          k = 0.6250 0.6250 0.1250 (   767 PWs)   bands (ev):

    -2.9820  -0.6023   2.0631   4.1225

          k =-0.8750 0.1250-0.6250 (   757 PWs)   bands (ev):

    -2.4455  -0.9053   2.0053   3.0804

          k =-0.8750 0.6250-0.6250 (   773 PWs)   bands (ev):

    -4.6151   1.3895   3.7054   5.2094

          k =-0.1250 0.6250-0.8750 (   757 PWs)   bands (ev):

    -2.4455  -0.9053   2.0053   3.0804

          k =-0.1250 1.1250-0.8750 (   762 PWs)   bands (ev):

    -2.6128  -0.8082   2.6143   3.3433

          k =-0.1250 0.8750-0.6250 (   757 PWs)   bands (ev):

    -2.4455  -0.9053   2.0053   3.0804

          k =-0.1250 1.3750-0.6250 (   767 PWs)   bands (ev):

    -2.9820  -0.6023   2.0631   4.1225

          k =-0.1250-0.8750-0.6250 (   757 PWs)   bands (ev):

    -2.4455  -0.9053   2.0053   3.0804

          k =-0.1250-0.3750-0.6250 (   768 PWs)   bands (ev):

    -3.6682   0.1830   2.7162   4.0840

          k = 0.8750-0.6250 0.1250 (   757 PWs)   bands (ev):

    -2.4455  -0.9053   2.0053   3.0804

          k = 0.8750-0.1250 0.1250 (   762 PWs)   bands (ev):

    -2.6128  -0.8082   2.6143   3.3433

          k =-0.6250-0.1250-0.3750 (   768 PWs)   bands (ev):

    -3.6682   0.1830   2.7162   4.0840

          k =-0.6250 0.3750-0.3750 (   767 PWs)   bands (ev):

    -3.4772  -0.6859   3.7257   4.4390

          k = 0.1250 0.3750-0.6250 (   768 PWs)   bands (ev):

    -3.6682   0.1830   2.7162   4.0840

          k = 0.1250 0.8750-0.6250 (   757 PWs)   bands (ev):

    -2.4455  -0.9053   2.0053   3.0804

          k = 0.1250 0.6250-0.3750 (   768 PWs)   bands (ev):

    -3.6682   0.1830   2.7162   4.0840

          k = 0.1250 1.1250-0.3750 (   757 PWs)   bands (ev):

    -2.4455  -0.9053   2.0053   3.0804

          k = 0.1250-0.6250-0.3750 (   768 PWs)   bands (ev):

    -3.6682   0.1830   2.7162   4.0840

          k = 0.1250-0.1250-0.3750 (   774 PWs)   bands (ev):

    -5.1133   2.7645   4.6826   4.7460

          k = 0.6250-0.3750-0.1250 (   768 PWs)   bands (ev):

    -3.6682   0.1830   2.7162   4.0840

          k = 0.6250 0.1250-0.1250 (   768 PWs)   bands (ev):

    -4.0831   1.0546   3.3575   3.8096

          k =-0.1250 0.8750 0.1250 (   762 PWs)   bands (ev):

    -2.6128  -0.8082   2.6143   3.3433

          k =-0.1250 1.3750 0.1250 (   768 PWs)   bands (ev):

    -4.0831   1.0546   3.3575   3.8096

          k =-0.8750-0.1250-0.1250 (   762 PWs)   bands (ev):

    -2.6128  -0.8082   2.6143   3.3433

          k =-0.8750 0.3750-0.1250 (   757 PWs)   bands (ev):

    -2.4455  -0.9053   2.0053   3.0804

          k =-0.8750 0.1250 0.1250 (   762 PWs)   bands (ev):

    -2.6128  -0.8082   2.6143   3.3433

          k =-0.8750 0.6250 0.1250 (   757 PWs)   bands (ev):

    -2.4455  -0.9053   2.0053   3.0804

          k =-0.3750-0.3750 0.3750 (   763 PWs)   bands (ev):

    -4.1828   0.1012   4.9029   4.9029

          k =-0.3750 0.1250 0.3750 (   773 PWs)   bands (ev):

    -4.6151   1.3895   3.7054   5.2094

          k =-1.1250 0.3750-0.3750 (   767 PWs)   bands (ev):

    -2.9820  -0.6023   2.0631   4.1225

          k =-1.1250 0.8750-0.3750 (   768 PWs)   bands (ev):

    -4.0831   1.0546   3.3575   3.8096

          k =-0.3750 1.1250-0.3750 (   767 PWs)   bands (ev):

    -2.9820  -0.6023   2.0631   4.1225

          k =-0.3750 1.6250-0.3750 (   763 PWs)   bands (ev):

    -4.1828   0.1012   4.9029   4.9029

          k =-0.3750-1.1250-0.3750 (   767 PWs)   bands (ev):

    -2.9820  -0.6023   2.0631   4.1225

          k =-0.3750-0.6250-0.3750 (   767 PWs)   bands (ev):

    -3.4772  -0.6859   3.7257   4.4390

     highest occupied level (ev):     5.6892

     Writing output data file silicon.10.336.save

                                                                                

     bravais-lattice index     =            2
     lattice parameter (alat)  =      10.3360  a.u.
     unit-cell volume          =     276.0562 (a.u.)^3
     number of atoms/cell      =            2
     number of atomic types    =            1
     kinetic-energy cut-off    =      30.0000  Ry
     charge density cut-off    =     240.0000  Ry
     convergence threshold     =      1.0E-12
     beta                      =       0.7000
     number of iterations used =            4
     Exchange-correlation      = SLA  PW   PBE  PBE ( 1  4  3  4 0 0)


     celldm(1)=   10.33600  celldm(2)=    0.00000  celldm(3)=    0.00000
     celldm(4)=    0.00000  celldm(5)=    0.00000  celldm(6)=    0.00000

     crystal axes: (cart. coord. in units of alat)
               a(1) = ( -0.5000  0.0000  0.5000 )  
               a(2) = (  0.0000  0.5000  0.5000 )  
               a(3) = ( -0.5000  0.5000  0.0000 )  

     reciprocal axes: (cart. coord. in units 2 pi/alat)
               b(1) = ( -1.0000 -1.0000  1.0000 )  
               b(2) = (  1.0000  1.0000  1.0000 )  
               b(3) = ( -1.0000  1.0000 -1.0000 )  


     Atoms inside the unit cell: 

     Cartesian axes

     site n.  atom      mass           positions (alat units)
        1     Si  28.0860   tau(    1) = (    0.00000    0.00000    0.00000  )
        2     Si  28.0860   tau(    2) = (    0.25000    0.25000    0.25000  )

     Computing dynamical matrix for 
                    q = (   0.0000000   0.5000000   0.0000000 )

      8 Sym.Ops. (no q -> -q+G )


     G cutoff =  649.4661  (   4315 G-vectors)     FFT grid: ( 40, 40, 40)
     G cutoff =  324.7331  (   1546 G-vectors)  smooth grid: ( 25, 25, 25)
     number of k points=    80

     PseudoPot. # 1 for Si read from file:
     /home/s1333534/quantum_espresso/qe-6.1/pseudo/si_pbe_v1.uspp.F.UPF.txt
     MD5 check sum: a056efeee980c13900f22a371efd63c1
     Pseudo is Ultrasoft + core correction, Zval =  4.0
     Generated by new atomic code, or converted to UPF format
     Using radial grid of  899 points,  6 beta functions with: 
                l(1) =   0
                l(2) =   0
                l(3) =   1
                l(4) =   1
                l(5) =   2
                l(6) =   2
     Q(r) pseudized with  8 coefficients,  rinner =    0.900   0.900   0.900
                                                       0.900   0.900

     Mode symmetry, C_4v (4mm)  point group:


     Atomic displacements:
     There are   4 irreducible representations

     Representation     1      1 modes -A_1  G_1 D_1  To be done

     Representation     2      1 modes -B_2  G_4 D_2'  To be done

     Representation     3      2 modes -E    G_5 D_5  To be done

     Representation     4      2 modes -E    G_5 D_5  To be done



     Alpha used in Ewald sum =   2.5000
     PHONON       :    39.75s CPU        51.75s WALL



     Representation #  1 mode #   1

     Self-consistent Calculation

      iter #   1 total cpu time :    52.1 secs   av.it.:   6.2
      thresh= 1.000E-02 alpha_mix =  0.700 |ddv_scf|^2 =  3.735E-04

      iter #   2 total cpu time :    52.6 secs   av.it.:   9.5
      thresh= 1.933E-03 alpha_mix =  0.700 |ddv_scf|^2 =  4.960E-03

      iter #   3 total cpu time :    53.0 secs   av.it.:   7.5
      thresh= 7.043E-03 alpha_mix =  0.700 |ddv_scf|^2 =  7.436E-09

      iter #   4 total cpu time :    53.5 secs   av.it.:  10.2
      thresh= 8.623E-06 alpha_mix =  0.700 |ddv_scf|^2 =  7.243E-10

      iter #   5 total cpu time :    54.0 secs   av.it.:   9.9
      thresh= 2.691E-06 alpha_mix =  0.700 |ddv_scf|^2 =  8.112E-11

      iter #   6 total cpu time :    54.5 secs   av.it.:   9.5
      thresh= 9.006E-07 alpha_mix =  0.700 |ddv_scf|^2 =  2.430E-13

     End of self-consistent calculation

     Convergence has been achieved 


     Representation #  2 mode #   2

     Self-consistent Calculation

      iter #   1 total cpu time :    54.9 secs   av.it.:   5.1
      thresh= 1.000E-02 alpha_mix =  0.700 |ddv_scf|^2 =  5.907E-07

      iter #   2 total cpu time :    55.4 secs   av.it.:  10.6
      thresh= 7.686E-05 alpha_mix =  0.700 |ddv_scf|^2 =  1.622E-07

      iter #   3 total cpu time :    55.9 secs   av.it.:  10.2
      thresh= 4.028E-05 alpha_mix =  0.700 |ddv_scf|^2 =  1.656E-09

      iter #   4 total cpu time :    56.4 secs   av.it.:  10.3
      thresh= 4.069E-06 alpha_mix =  0.700 |ddv_scf|^2 =  6.527E-11

      iter #   5 total cpu time :    56.9 secs   av.it.:  10.5
      thresh= 8.079E-07 alpha_mix =  0.700 |ddv_scf|^2 =  3.847E-13

     End of self-consistent calculation

     Convergence has been achieved 


     Representation #  3 modes #   3  4

     Self-consistent Calculation

      iter #   1 total cpu time :    57.6 secs   av.it.:   5.2
      thresh= 1.000E-02 alpha_mix =  0.700 |ddv_scf|^2 =  1.047E-07

      iter #   2 total cpu time :    58.6 secs   av.it.:  11.7
      thresh= 3.235E-05 alpha_mix =  0.700 |ddv_scf|^2 =  1.443E-08

      iter #   3 total cpu time :    59.5 secs   av.it.:  11.2
      thresh= 1.201E-05 alpha_mix =  0.700 |ddv_scf|^2 =  2.430E-10

      iter #   4 total cpu time :    60.5 secs   av.it.:  10.8
      thresh= 1.559E-06 alpha_mix =  0.700 |ddv_scf|^2 =  5.740E-13

     End of self-consistent calculation

     Convergence has been achieved 


     Representation #  4 modes #   5  6

     Self-consistent Calculation

      iter #   1 total cpu time :    61.3 secs   av.it.:   5.3
      thresh= 1.000E-02 alpha_mix =  0.700 |ddv_scf|^2 =  9.595E-08

      iter #   2 total cpu time :    62.3 secs   av.it.:  11.6
      thresh= 3.098E-05 alpha_mix =  0.700 |ddv_scf|^2 =  1.288E-08

      iter #   3 total cpu time :    63.3 secs   av.it.:  11.4
      thresh= 1.135E-05 alpha_mix =  0.700 |ddv_scf|^2 =  2.486E-10

      iter #   4 total cpu time :    64.1 secs   av.it.:  11.1
      thresh= 1.577E-06 alpha_mix =  0.700 |ddv_scf|^2 =  6.113E-13

     End of self-consistent calculation

     Convergence has been achieved 

     Number of q in the star =    6
     List of q in the star:
          1   0.000000000   0.500000000   0.000000000
          2   0.000000000  -0.500000000   0.000000000
          3   0.500000000   0.000000000   0.000000000
          4   0.000000000   0.000000000   0.500000000
          5   0.000000000   0.000000000  -0.500000000
          6  -0.500000000   0.000000000   0.000000000

     Diagonalizing the dynamical matrix

     q = (    0.000000000   0.500000000   0.000000000 ) 

 **************************************************************************
     freq (    1) =       3.771007 [THz] =     125.787241 [cm-1]
     freq (    2) =       3.771007 [THz] =     125.787241 [cm-1]
     freq (    3) =       7.053571 [THz] =     235.281799 [cm-1]
     freq (    4) =      13.807985 [THz] =     460.584816 [cm-1]
     freq (    5) =      13.807985 [THz] =     460.584816 [cm-1]
     freq (    6) =      14.445476 [THz] =     481.849210 [cm-1]
 **************************************************************************

     Mode symmetry, C_4v (4mm)  point group:

     freq (  1 -  2) =        125.8  [cm-1]   --> E    G_5 D_5       
     freq (  3 -  3) =        235.3  [cm-1]   --> A_1  G_1 D_1       
     freq (  4 -  5) =        460.6  [cm-1]   --> E    G_5 D_5       
     freq (  6 -  6) =        481.8  [cm-1]   --> B_2  G_4 D_2'      

     Calculation of q =    0.7500000  -0.2500000   0.7500000

   Info: using nr1, nr2, nr3 values from input

   Info: using nr1, nr2, nr3 values from input

     Parallelization info
     --------------------
     sticks:   dense  smooth     PW     G-vecs:    dense   smooth      PW
     Min         219     109     40                 4315     1545     362
     Max         220     110     41                 4316     1546     366
     Sum         877     439    163                17261     6183    1459



     bravais-lattice index     =            2
     lattice parameter (alat)  =      10.3360  a.u.
     unit-cell volume          =     276.0562 (a.u.)^3
     number of atoms/cell      =            2
     number of atomic types    =            1
     number of electrons       =         8.00
     number of Kohn-Sham states=            4
     kinetic-energy cutoff     =      30.0000  Ry
     charge density cutoff     =     240.0000  Ry
     Exchange-correlation      = SLA  PW   PBE  PBE ( 1  4  3  4 0 0)

     celldm(1)=  10.336000  celldm(2)=   0.000000  celldm(3)=   0.000000
     celldm(4)=   0.000000  celldm(5)=   0.000000  celldm(6)=   0.000000

     crystal axes: (cart. coord. in units of alat)
               a(1) = (  -0.500000   0.000000   0.500000 )  
               a(2) = (   0.000000   0.500000   0.500000 )  
               a(3) = (  -0.500000   0.500000   0.000000 )  

     reciprocal axes: (cart. coord. in units 2 pi/alat)
               b(1) = ( -1.000000 -1.000000  1.000000 )  
               b(2) = (  1.000000  1.000000  1.000000 )  
               b(3) = ( -1.000000  1.000000 -1.000000 )  


     PseudoPot. # 1 for Si read from file:
     /home/s1333534/quantum_espresso/qe-6.1/pseudo/si_pbe_v1.uspp.F.UPF.txt
     MD5 check sum: a056efeee980c13900f22a371efd63c1
     Pseudo is Ultrasoft + core correction, Zval =  4.0
     Generated by new atomic code, or converted to UPF format
     Using radial grid of  899 points,  6 beta functions with: 
                l(1) =   0
                l(2) =   0
                l(3) =   1
                l(4) =   1
                l(5) =   2
                l(6) =   2
     Q(r) pseudized with  8 coefficients,  rinner =    0.900   0.900   0.900
                                                       0.900   0.900

     atomic species   valence    mass     pseudopotential
        Si             4.00    28.08600     Si( 1.00)

     48 Sym. Ops., with inversion, found



   Cartesian axes

     site n.     atom                  positions (alat units)
         1           Si  tau(   1) = (   0.0000000   0.0000000   0.0000000  )
         2           Si  tau(   2) = (   0.2500000   0.2500000   0.2500000  )

     number of k points=   288

     Number of k-points >= 100: set verbosity='high' to print them.

     Dense  grid:    17261 G-vectors     FFT dimensions: (  40,  40,  40)

     Smooth grid:     6183 G-vectors     FFT dimensions: (  25,  25,  25)

     Estimated max dynamical RAM per process >       1.78MB

     Estimated total allocated dynamical RAM >       7.14MB

     The potential is recalculated from file :
     ./_ph0/silicon.10.336.save/charge-density.dat

     Starting wfc are    8 atomic wfcs

     Band Structure Calculation
     Davidson diagonalization with overlap

     ethr =  1.25E-10,  avg # of iterations = 12.1

     total cpu time spent up to now is        6.8 secs

     End of band structure calculation

     Number of k-points >= 100: set verbosity='high' to print the bands.

     highest occupied level (ev):     5.6892

     Writing output data file silicon.10.336.save

                                                                                

     bravais-lattice index     =            2
     lattice parameter (alat)  =      10.3360  a.u.
     unit-cell volume          =     276.0562 (a.u.)^3
     number of atoms/cell      =            2
     number of atomic types    =            1
     kinetic-energy cut-off    =      30.0000  Ry
     charge density cut-off    =     240.0000  Ry
     convergence threshold     =      1.0E-12
     beta                      =       0.7000
     number of iterations used =            4
     Exchange-correlation      = SLA  PW   PBE  PBE ( 1  4  3  4 0 0)


     celldm(1)=   10.33600  celldm(2)=    0.00000  celldm(3)=    0.00000
     celldm(4)=    0.00000  celldm(5)=    0.00000  celldm(6)=    0.00000

     crystal axes: (cart. coord. in units of alat)
               a(1) = ( -0.5000  0.0000  0.5000 )  
               a(2) = (  0.0000  0.5000  0.5000 )  
               a(3) = ( -0.5000  0.5000  0.0000 )  

     reciprocal axes: (cart. coord. in units 2 pi/alat)
               b(1) = ( -1.0000 -1.0000  1.0000 )  
               b(2) = (  1.0000  1.0000  1.0000 )  
               b(3) = ( -1.0000  1.0000 -1.0000 )  


     Atoms inside the unit cell: 

     Cartesian axes

     site n.  atom      mass           positions (alat units)
        1     Si  28.0860   tau(    1) = (    0.00000    0.00000    0.00000  )
        2     Si  28.0860   tau(    2) = (    0.25000    0.25000    0.25000  )

     Computing dynamical matrix for 
                    q = (   0.7500000  -0.2500000   0.7500000 )

      2 Sym.Ops. (no q -> -q+G )


     G cutoff =  649.4661  (   4315 G-vectors)     FFT grid: ( 40, 40, 40)
     G cutoff =  324.7331  (   1546 G-vectors)  smooth grid: ( 25, 25, 25)
     number of k points=   288

     PseudoPot. # 1 for Si read from file:
     /home/s1333534/quantum_espresso/qe-6.1/pseudo/si_pbe_v1.uspp.F.UPF.txt
     MD5 check sum: a056efeee980c13900f22a371efd63c1
     Pseudo is Ultrasoft + core correction, Zval =  4.0
     Generated by new atomic code, or converted to UPF format
     Using radial grid of  899 points,  6 beta functions with: 
                l(1) =   0
                l(2) =   0
                l(3) =   1
                l(4) =   1
                l(5) =   2
                l(6) =   2
     Q(r) pseudized with  8 coefficients,  rinner =    0.900   0.900   0.900
                                                       0.900   0.900

     Mode symmetry, C_s (m)     point group:


     Atomic displacements:
     There are   6 irreducible representations

     Representation     1      1 modes -A'  To be done

     Representation     2      1 modes -A'  To be done

     Representation     3      1 modes -A'  To be done

     Representation     4      1 modes -A'  To be done

     Representation     5      1 modes -A''  To be done

     Representation     6      1 modes -A''  To be done



     Alpha used in Ewald sum =   2.5000
     PHONON       :  0m54.20s CPU     1m 9.43s WALL



     Representation #  1 mode #   1

     Self-consistent Calculation

      iter #   1 total cpu time :    70.3 secs   av.it.:   5.7
      thresh= 1.000E-02 alpha_mix =  0.700 |ddv_scf|^2 =  7.619E-06

      iter #   2 total cpu time :    71.7 secs   av.it.:  10.7
      thresh= 2.760E-04 alpha_mix =  0.700 |ddv_scf|^2 =  2.037E-05

      iter #   3 total cpu time :    72.9 secs   av.it.:   9.4
      thresh= 4.513E-04 alpha_mix =  0.700 |ddv_scf|^2 =  1.366E-07

      iter #   4 total cpu time :    74.2 secs   av.it.:  10.1
      thresh= 3.696E-05 alpha_mix =  0.700 |ddv_scf|^2 =  2.719E-09

      iter #   5 total cpu time :    75.6 secs   av.it.:  10.7
      thresh= 5.214E-06 alpha_mix =  0.700 |ddv_scf|^2 =  4.659E-10

      iter #   6 total cpu time :    76.9 secs   av.it.:  10.6
      thresh= 2.159E-06 alpha_mix =  0.700 |ddv_scf|^2 =  7.178E-12

      iter #   7 total cpu time :    78.3 secs   av.it.:  10.7
      thresh= 2.679E-07 alpha_mix =  0.700 |ddv_scf|^2 =  2.725E-13

     End of self-consistent calculation

     Convergence has been achieved 


     Representation #  2 mode #   2

     Self-consistent Calculation

      iter #   1 total cpu time :    79.3 secs   av.it.:   5.8
      thresh= 1.000E-02 alpha_mix =  0.700 |ddv_scf|^2 =  1.364E-05

      iter #   2 total cpu time :    80.7 secs   av.it.:  10.6
      thresh= 3.693E-04 alpha_mix =  0.700 |ddv_scf|^2 =  3.956E-05

      iter #   3 total cpu time :    81.9 secs   av.it.:   9.2
      thresh= 6.290E-04 alpha_mix =  0.700 |ddv_scf|^2 =  9.245E-08

      iter #   4 total cpu time :    83.3 secs   av.it.:  10.4
      thresh= 3.041E-05 alpha_mix =  0.700 |ddv_scf|^2 =  3.073E-09

      iter #   5 total cpu time :    84.7 secs   av.it.:  10.6
      thresh= 5.544E-06 alpha_mix =  0.700 |ddv_scf|^2 =  6.263E-10

      iter #   6 total cpu time :    86.0 secs   av.it.:  10.5
      thresh= 2.503E-06 alpha_mix =  0.700 |ddv_scf|^2 =  6.513E-12

      iter #   7 total cpu time :    87.3 secs   av.it.:  10.7
      thresh= 2.552E-07 alpha_mix =  0.700 |ddv_scf|^2 =  2.314E-13

     End of self-consistent calculation

     Convergence has been achieved 


     Representation #  3 mode #   3

     Self-consistent Calculation

      iter #   1 total cpu time :    88.4 secs   av.it.:   5.7
      thresh= 1.000E-02 alpha_mix =  0.700 |ddv_scf|^2 =  1.069E-05

      iter #   2 total cpu time :    89.8 secs   av.it.:  10.7
      thresh= 3.269E-04 alpha_mix =  0.700 |ddv_scf|^2 =  2.911E-05

      iter #   3 total cpu time :    91.1 secs   av.it.:   9.2
      thresh= 5.395E-04 alpha_mix =  0.700 |ddv_scf|^2 =  1.611E-07

      iter #   4 total cpu time :    92.4 secs   av.it.:  10.0
      thresh= 4.014E-05 alpha_mix =  0.700 |ddv_scf|^2 =  3.133E-09

      iter #   5 total cpu time :    93.8 secs   av.it.:  10.7
      thresh= 5.597E-06 alpha_mix =  0.700 |ddv_scf|^2 =  6.126E-10

      iter #   6 total cpu time :    95.2 secs   av.it.:  10.5
      thresh= 2.475E-06 alpha_mix =  0.700 |ddv_scf|^2 =  4.549E-12

      iter #   7 total cpu time :    96.5 secs   av.it.:  10.7
      thresh= 2.133E-07 alpha_mix =  0.700 |ddv_scf|^2 =  1.341E-13

     End of self-consistent calculation

     Convergence has been achieved 


     Representation #  4 mode #   4

     Self-consistent Calculation

      iter #   1 total cpu time :    97.6 secs   av.it.:   5.5
      thresh= 1.000E-02 alpha_mix =  0.700 |ddv_scf|^2 =  4.662E-06

      iter #   2 total cpu time :    99.0 secs   av.it.:  10.9
      thresh= 2.159E-04 alpha_mix =  0.700 |ddv_scf|^2 =  9.894E-06

      iter #   3 total cpu time :   100.3 secs   av.it.:   9.7
      thresh= 3.145E-04 alpha_mix =  0.700 |ddv_scf|^2 =  2.142E-07

      iter #   4 total cpu time :   101.6 secs   av.it.:  10.0
      thresh= 4.628E-05 alpha_mix =  0.700 |ddv_scf|^2 =  2.683E-09

      iter #   5 total cpu time :   103.2 secs   av.it.:  10.7
      thresh= 5.180E-06 alpha_mix =  0.700 |ddv_scf|^2 =  5.023E-10

      iter #   6 total cpu time :   104.6 secs   av.it.:  10.5
      thresh= 2.241E-06 alpha_mix =  0.700 |ddv_scf|^2 =  3.021E-12

      iter #   7 total cpu time :   105.9 secs   av.it.:  10.8
      thresh= 1.738E-07 alpha_mix =  0.700 |ddv_scf|^2 =  1.394E-13

     End of self-consistent calculation

     Convergence has been achieved 


     Representation #  5 mode #   5

     Self-consistent Calculation

      iter #   1 total cpu time :   106.9 secs   av.it.:   5.2
      thresh= 1.000E-02 alpha_mix =  0.700 |ddv_scf|^2 =  4.837E-07

      iter #   2 total cpu time :   108.3 secs   av.it.:  10.4
      thresh= 6.955E-05 alpha_mix =  0.700 |ddv_scf|^2 =  7.894E-08

      iter #   3 total cpu time :   109.6 secs   av.it.:  10.2
      thresh= 2.810E-05 alpha_mix =  0.700 |ddv_scf|^2 =  1.052E-09

      iter #   4 total cpu time :   111.0 secs   av.it.:   9.8
      thresh= 3.244E-06 alpha_mix =  0.700 |ddv_scf|^2 =  2.468E-12

      iter #   5 total cpu time :   112.3 secs   av.it.:  10.3
      thresh= 1.571E-07 alpha_mix =  0.700 |ddv_scf|^2 =  6.951E-14

     End of self-consistent calculation

     Convergence has been achieved 


     Representation #  6 mode #   6

     Self-consistent Calculation

      iter #   1 total cpu time :   113.3 secs   av.it.:   5.2
      thresh= 1.000E-02 alpha_mix =  0.700 |ddv_scf|^2 =  4.837E-07

      iter #   2 total cpu time :   114.7 secs   av.it.:  10.4
[...]
        k(   59) = (  -0.8750000   0.1250000  -0.1250000), wk =   0.0625000
        k(   60) = (  -1.3750000  -0.8750000  -0.1250000), wk =   0.0000000
        k(   61) = (  -1.1250000   0.3750000  -0.3750000), wk =   0.0625000
        k(   62) = (  -1.6250000  -0.6250000  -0.3750000), wk =   0.0000000
        k(   63) = (  -0.3750000   0.3750000   1.1250000), wk =   0.0625000
        k(   64) = (  -0.8750000  -0.6250000   1.1250000), wk =   0.0000000

     Dense  grid:    17261 G-vectors     FFT dimensions: (  40,  40,  40)

     Smooth grid:     6183 G-vectors     FFT dimensions: (  25,  25,  25)

     Estimated max dynamical RAM per process >       1.78MB

     Estimated total allocated dynamical RAM >       7.14MB

     The potential is recalculated from file :
     ./_ph0/silicon.10.336.save/charge-density.dat

     Starting wfc are    8 atomic wfcs

     Band Structure Calculation
     Davidson diagonalization with overlap

     ethr =  1.25E-10,  avg # of iterations = 12.1

     total cpu time spent up to now is       10.6 secs

     End of band structure calculation

          k =-0.1250 0.1250 0.1250 (   770 PWs)   bands (ev):

    -5.6405   4.3799   5.6892   5.6892

          k =-0.6250-0.8750 0.1250 (   757 PWs)   bands (ev):

    -2.4455  -0.9053   2.0053   3.0804

          k =-0.3750 0.3750-0.1250 (   773 PWs)   bands (ev):

    -4.6151   1.3895   3.7054   5.2094

          k =-0.8750-0.6250-0.1250 (   757 PWs)   bands (ev):

    -2.4455  -0.9053   2.0053   3.0804

          k = 0.3750-0.3750 0.6250 (   767 PWs)   bands (ev):

    -3.4772  -0.6859   3.7257   4.4390

          k =-0.1250-1.3750 0.6250 (   767 PWs)   bands (ev):

    -2.9820  -0.6023   2.0631   4.1225

          k = 0.1250-0.1250 0.3750 (   774 PWs)   bands (ev):

    -5.1133   2.7645   4.6826   4.7460

          k =-0.3750-1.1250 0.3750 (   767 PWs)   bands (ev):

    -2.9820  -0.6023   2.0631   4.1225

          k =-0.1250 0.6250 0.1250 (   768 PWs)   bands (ev):

    -4.0831   1.0546   3.3575   3.8096

          k =-0.6250-0.3750 0.1250 (   768 PWs)   bands (ev):

    -3.6682   0.1830   2.7162   4.0840

          k = 0.6250-0.1250 0.8750 (   757 PWs)   bands (ev):

    -2.4455  -0.9053   2.0053   3.0804

          k = 0.1250-1.1250 0.8750 (   762 PWs)   bands (ev):

    -2.6128  -0.8082   2.6143   3.3433

          k = 0.3750 0.1250 0.6250 (   768 PWs)   bands (ev):

    -3.6682   0.1830   2.7162   4.0840

          k =-0.1250-0.8750 0.6250 (   757 PWs)   bands (ev):

    -2.4455  -0.9053   2.0053   3.0804

          k =-0.1250-0.8750 0.1250 (   762 PWs)   bands (ev):

    -2.6128  -0.8082   2.6143   3.3433

          k =-0.6250-1.8750 0.1250 (   768 PWs)   bands (ev):

    -4.0831   1.0546   3.3575   3.8096

          k =-0.3750 0.3750 0.3750 (   763 PWs)   bands (ev):

    -4.1828   0.1012   4.9029   4.9029

          k =-0.8750-0.6250 0.3750 (   768 PWs)   bands (ev):

    -3.6682   0.1830   2.7162   4.0840

          k = 0.3750-0.3750 1.1250 (   767 PWs)   bands (ev):

    -2.9820  -0.6023   2.0631   4.1225

          k =-0.1250-1.3750 1.1250 (   757 PWs)   bands (ev):

    -2.4455  -0.9053   2.0053   3.0804

          k = 0.1250-0.3750 0.3750 (   773 PWs)   bands (ev):

    -4.6151   1.3895   3.7054   5.2094

          k =-0.3750-1.3750 0.3750 (   767 PWs)   bands (ev):

    -3.4772  -0.6859   3.7257   4.4390

          k = 0.3750-0.3750-0.1250 (   773 PWs)   bands (ev):

    -4.6151   1.3895   3.7054   5.2094

          k =-0.1250-1.3750-0.1250 (   768 PWs)   bands (ev):

    -4.0831   1.0546   3.3575   3.8096

          k =-0.6250 0.3750-0.3750 (   767 PWs)   bands (ev):

    -3.4772  -0.6859   3.7257   4.4390

          k =-1.1250-0.6250-0.3750 (   768 PWs)   bands (ev):

    -3.6682   0.1830   2.7162   4.0840

          k =-0.3750 0.3750 0.6250 (   767 PWs)   bands (ev):

    -3.4772  -0.6859   3.7257   4.4390

          k =-0.8750-0.6250 0.6250 (   773 PWs)   bands (ev):

    -4.6151   1.3895   3.7054   5.2094

          k =-0.3750 0.1250-0.1250 (   774 PWs)   bands (ev):

    -5.1133   2.7645   4.6826   4.7460

          k =-0.8750-0.8750-0.1250 (   762 PWs)   bands (ev):

    -2.6128  -0.8082   2.6143   3.3433

          k =-0.1250 0.1250 0.3750 (   774 PWs)   bands (ev):

    -5.1133   2.7645   4.6826   4.7460

          k =-0.6250-0.8750 0.3750 (   768 PWs)   bands (ev):

    -3.6682   0.1830   2.7162   4.0840

          k = 0.1250 0.6250-0.1250 (   768 PWs)   bands (ev):

    -4.0831   1.0546   3.3575   3.8096

          k =-0.3750-0.3750-0.1250 (   773 PWs)   bands (ev):

    -4.6151   1.3895   3.7054   5.2094

          k = 0.6250 0.1250-0.1250 (   768 PWs)   bands (ev):

    -4.0831   1.0546   3.3575   3.8096

          k = 0.1250-0.8750-0.1250 (   762 PWs)   bands (ev):

    -2.6128  -0.8082   2.6143   3.3433

          k =-0.8750 0.1250-0.6250 (   757 PWs)   bands (ev):

    -2.4455  -0.9053   2.0053   3.0804

          k =-1.3750-0.8750-0.6250 (   773 PWs)   bands (ev):

    -4.6151   1.3895   3.7054   5.2094

          k = 0.8750-0.1250 0.6250 (   757 PWs)   bands (ev):

    -2.4455  -0.9053   2.0053   3.0804

          k = 0.3750-1.1250 0.6250 (   768 PWs)   bands (ev):

    -3.6682   0.1830   2.7162   4.0840

          k =-0.6250 0.1250 0.8750 (   757 PWs)   bands (ev):

    -2.4455  -0.9053   2.0053   3.0804

          k =-1.1250-0.8750 0.8750 (   770 PWs)   bands (ev):

    -5.6405   4.3799   5.6892   5.6892

          k =-0.1250 0.8750 0.6250 (   757 PWs)   bands (ev):

    -2.4455  -0.9053   2.0053   3.0804

          k =-0.6250-0.1250 0.6250 (   767 PWs)   bands (ev):

    -2.9820  -0.6023   2.0631   4.1225

          k = 0.1250 0.8750-0.6250 (   757 PWs)   bands (ev):

    -2.4455  -0.9053   2.0053   3.0804

          k =-0.3750-0.1250-0.6250 (   768 PWs)   bands (ev):

    -3.6682   0.1830   2.7162   4.0840

          k =-0.6250-0.1250-0.3750 (   768 PWs)   bands (ev):

    -3.6682   0.1830   2.7162   4.0840

          k =-1.1250-1.1250-0.3750 (   768 PWs)   bands (ev):

    -4.0831   1.0546   3.3575   3.8096

          k = 0.6250 0.1250 0.3750 (   768 PWs)   bands (ev):

    -3.6682   0.1830   2.7162   4.0840

          k = 0.1250-0.8750 0.3750 (   757 PWs)   bands (ev):

    -2.4455  -0.9053   2.0053   3.0804

          k =-0.3750-0.1250 0.6250 (   768 PWs)   bands (ev):

    -3.6682   0.1830   2.7162   4.0840

          k =-0.8750-1.1250 0.6250 (   774 PWs)   bands (ev):

    -5.1133   2.7645   4.6826   4.7460

          k = 0.1250 0.6250 0.3750 (   768 PWs)   bands (ev):

    -3.6682   0.1830   2.7162   4.0840

          k =-0.3750-0.3750 0.3750 (   763 PWs)   bands (ev):

    -4.1828   0.1012   4.9029   4.9029

          k =-0.1250 0.6250-0.3750 (   768 PWs)   bands (ev):

    -3.6682   0.1830   2.7162   4.0840

          k =-0.6250-0.3750-0.3750 (   767 PWs)   bands (ev):

    -3.4772  -0.6859   3.7257   4.4390

          k = 0.1250-0.8750-0.1250 (   762 PWs)   bands (ev):

    -2.6128  -0.8082   2.6143   3.3433

          k =-0.3750-1.8750-0.1250 (   774 PWs)   bands (ev):

    -5.1133   2.7645   4.6826   4.7460

          k =-0.8750 0.1250-0.1250 (   762 PWs)   bands (ev):

    -2.6128  -0.8082   2.6143   3.3433

          k =-1.3750-0.8750-0.1250 (   757 PWs)   bands (ev):

    -2.4455  -0.9053   2.0053   3.0804

          k =-1.1250 0.3750-0.3750 (   767 PWs)   bands (ev):

    -2.9820  -0.6023   2.0631   4.1225

          k =-1.6250-0.6250-0.3750 (   767 PWs)   bands (ev):

    -3.4772  -0.6859   3.7257   4.4390

          k =-0.3750 0.3750 1.1250 (   767 PWs)   bands (ev):

    -2.9820  -0.6023   2.0631   4.1225

          k =-0.8750-0.6250 1.1250 (   774 PWs)   bands (ev):

    -5.1133   2.7645   4.6826   4.7460

     highest occupied level (ev):     5.6892

     Writing output data file silicon.10.336.save

                                                                                

     bravais-lattice index     =            2
     lattice parameter (alat)  =      10.3360  a.u.
     unit-cell volume          =     276.0562 (a.u.)^3
     number of atoms/cell      =            2
     number of atomic types    =            1
     kinetic-energy cut-off    =      30.0000  Ry
     charge density cut-off    =     240.0000  Ry
     convergence threshold     =      1.0E-12
     beta                      =       0.7000
     number of iterations used =            4
     Exchange-correlation      = SLA  PW   PBE  PBE ( 1  4  3  4 0 0)


     celldm(1)=   10.33600  celldm(2)=    0.00000  celldm(3)=    0.00000
     celldm(4)=    0.00000  celldm(5)=    0.00000  celldm(6)=    0.00000

     crystal axes: (cart. coord. in units of alat)
               a(1) = ( -0.5000  0.0000  0.5000 )  
               a(2) = (  0.0000  0.5000  0.5000 )  
               a(3) = ( -0.5000  0.5000  0.0000 )  

     reciprocal axes: (cart. coord. in units 2 pi/alat)
               b(1) = ( -1.0000 -1.0000  1.0000 )  
               b(2) = (  1.0000  1.0000  1.0000 )  
               b(3) = ( -1.0000  1.0000 -1.0000 )  


     Atoms inside the unit cell: 

     Cartesian axes

     site n.  atom      mass           positions (alat units)
        1     Si  28.0860   tau(    1) = (    0.00000    0.00000    0.00000  )
        2     Si  28.0860   tau(    2) = (    0.25000    0.25000    0.25000  )

     Computing dynamical matrix for 
                    q = (  -0.5000000  -1.0000000   0.0000000 )

      8 Sym.Ops. (no q -> -q+G )


     G cutoff =  649.4661  (   4316 G-vectors)     FFT grid: ( 40, 40, 40)
     G cutoff =  324.7331  (   1546 G-vectors)  smooth grid: ( 25, 25, 25)
     number of k points=    64

     PseudoPot. # 1 for Si read from file:
     /home/s1333534/quantum_espresso/qe-6.1/pseudo/si_pbe_v1.uspp.F.UPF.txt
     MD5 check sum: a056efeee980c13900f22a371efd63c1
     Pseudo is Ultrasoft + core correction, Zval =  4.0
     Generated by new atomic code, or converted to UPF format
     Using radial grid of  899 points,  6 beta functions with: 
                l(1) =   0
                l(2) =   0
                l(3) =   1
                l(4) =   1
                l(5) =   2
                l(6) =   2
     Q(r) pseudized with  8 coefficients,  rinner =    0.900   0.900   0.900
                                                       0.900   0.900


     Atomic displacements:
     There are   3 irreducible representations

     Representation     1      2 modes -  To be done

     Representation     2      2 modes -  To be done

     Representation     3      2 modes -  To be done



     Alpha used in Ewald sum =   2.5000
     PHONON       :  2m 7.31s CPU     2m40.34s WALL



     Representation #  1 modes #   1  2

     Self-consistent Calculation

      iter #   1 total cpu time :   161.1 secs   av.it.:   5.7
      thresh= 1.000E-02 alpha_mix =  0.700 |ddv_scf|^2 =  7.877E-07

      iter #   2 total cpu time :   162.0 secs   av.it.:  11.8
      thresh= 8.876E-05 alpha_mix =  0.700 |ddv_scf|^2 =  4.458E-07

      iter #   3 total cpu time :   162.8 secs   av.it.:  11.2
      thresh= 6.677E-05 alpha_mix =  0.700 |ddv_scf|^2 =  4.287E-10

      iter #   4 total cpu time :   163.7 secs   av.it.:  11.1
      thresh= 2.071E-06 alpha_mix =  0.700 |ddv_scf|^2 =  1.937E-12

      iter #   5 total cpu time :   164.4 secs   av.it.:  11.3
      thresh= 1.392E-07 alpha_mix =  0.700 |ddv_scf|^2 =  5.083E-14

     End of self-consistent calculation

     Convergence has been achieved 


     Representation #  2 modes #   3  4

     Self-consistent Calculation

      iter #   1 total cpu time :   165.2 secs   av.it.:   5.6
      thresh= 1.000E-02 alpha_mix =  0.700 |ddv_scf|^2 =  1.223E-06

      iter #   2 total cpu time :   166.1 secs   av.it.:  11.8
      thresh= 1.106E-04 alpha_mix =  0.700 |ddv_scf|^2 =  1.660E-06

      iter #   3 total cpu time :   167.0 secs   av.it.:  11.0
      thresh= 1.288E-04 alpha_mix =  0.700 |ddv_scf|^2 =  5.092E-10

      iter #   4 total cpu time :   167.9 secs   av.it.:  11.0
      thresh= 2.257E-06 alpha_mix =  0.700 |ddv_scf|^2 =  7.958E-12

      iter #   5 total cpu time :   168.6 secs   av.it.:  11.3
      thresh= 2.821E-07 alpha_mix =  0.700 |ddv_scf|^2 =  1.313E-13

     End of self-consistent calculation

     Convergence has been achieved 


     Representation #  3 modes #   5  6

     Self-consistent Calculation

      iter #   1 total cpu time :   169.4 secs   av.it.:   5.3
      thresh= 1.000E-02 alpha_mix =  0.700 |ddv_scf|^2 =  3.201E-07

      iter #   2 total cpu time :   170.3 secs   av.it.:  11.8
      thresh= 5.658E-05 alpha_mix =  0.700 |ddv_scf|^2 =  1.870E-07

      iter #   3 total cpu time :   171.1 secs   av.it.:  11.2
      thresh= 4.324E-05 alpha_mix =  0.700 |ddv_scf|^2 =  3.724E-10

      iter #   4 total cpu time :   172.0 secs   av.it.:  11.1
      thresh= 1.930E-06 alpha_mix =  0.700 |ddv_scf|^2 =  4.434E-12

      iter #   5 total cpu time :   172.7 secs   av.it.:  11.2
      thresh= 2.106E-07 alpha_mix =  0.700 |ddv_scf|^2 =  6.076E-14

     End of self-consistent calculation

     Convergence has been achieved 

     Number of q in the star =    6
     List of q in the star:
          1  -0.500000000  -1.000000000   0.000000000
          2   0.000000000   1.000000000   0.500000000
          3   0.000000000  -1.000000000  -0.500000000
          4   0.500000000   1.000000000   0.000000000
          5  -1.000000000  -0.500000000   0.000000000
          6   0.000000000  -0.500000000  -1.000000000

     Diagonalizing the dynamical matrix

     q = (   -0.500000000  -1.000000000   0.000000000 ) 

 **************************************************************************
     freq (    1) =       6.021411 [THz] =     200.852665 [cm-1]
     freq (    2) =       6.021411 [THz] =     200.852665 [cm-1]
     freq (    3) =      10.315438 [THz] =     344.085984 [cm-1]
     freq (    4) =      10.315438 [THz] =     344.085984 [cm-1]
     freq (    5) =      13.541342 [THz] =     451.690554 [cm-1]
     freq (    6) =      13.541342 [THz] =     451.690554 [cm-1]
 **************************************************************************

     init_run     :      1.28s CPU      1.33s WALL (       7 calls)
     electrons    :      7.31s CPU      7.89s WALL (       7 calls)

     Called by init_run:
     wfcinit      :      0.00s CPU      0.03s WALL (       7 calls)
     potinit      :      0.10s CPU      0.11s WALL (       7 calls)

     Called by electrons:
     c_bands      :      7.31s CPU      7.89s WALL (       7 calls)
     v_of_rho     :      0.09s CPU      0.09s WALL (       8 calls)
     newd         :      0.12s CPU      0.12s WALL (       8 calls)

     Called by c_bands:
     init_us_2    :      1.63s CPU      1.57s WALL (   15896 calls)
     cegterg      :      6.13s CPU      6.59s WALL (     796 calls)

     Called by sum_band:

     Called by *egterg:
     h_psi        :     70.62s CPU     75.46s WALL (  154654 calls)
     s_psi        :      6.03s CPU      7.03s WALL (  311566 calls)
     g_psi        :      0.06s CPU      0.07s WALL (    9666 calls)
     cdiaghg      :      0.55s CPU      0.55s WALL (   10462 calls)

     Called by h_psi:
     h_psi:pot    :     70.17s CPU     74.94s WALL (  154654 calls)
     h_psi:calbec :      3.50s CPU      4.05s WALL (  154654 calls)
     vloc_psi     :     62.07s CPU     66.72s WALL (  154654 calls)
     add_vuspsi   :      4.25s CPU      3.69s WALL (  154654 calls)

     General routines
     calbec       :      8.05s CPU      8.52s WALL (  345874 calls)
     fft          :      1.88s CPU      1.97s WALL (    5233 calls)
     ffts         :      0.21s CPU      0.22s WALL (    3316 calls)
     fftw         :     63.47s CPU     67.34s WALL ( 1384572 calls)
     interpolate  :      0.26s CPU      0.29s WALL (     568 calls)
     davcio       :      0.34s CPU      0.93s WALL (   69130 calls)

     Parallel routines
     fft_scatter  :     15.07s CPU     19.34s WALL ( 1393121 calls)

     PHONON       :  2m16.98s CPU     2m53.18s WALL

     INITIALIZATION: 
     phq_setup    :      0.30s CPU      0.47s WALL (       8 calls)
     phq_init     :      6.78s CPU      7.07s WALL (       8 calls)

     phq_init     :      6.78s CPU      7.07s WALL (       8 calls)
     set_drhoc    :      1.83s CPU      1.83s WALL (      24 calls)
     init_vloc    :      0.03s CPU      0.03s WALL (       8 calls)
     init_us_1    :      0.98s CPU      0.98s WALL (       8 calls)
     newd         :      0.12s CPU      0.12s WALL (       8 calls)
     dvanqq       :      1.16s CPU      1.18s WALL (       8 calls)
     drho         :      2.62s CPU      2.68s WALL (       8 calls)

     DYNAMICAL MATRIX:
     dynmat0      :      1.75s CPU      1.86s WALL (       8 calls)
     phqscf       :    116.00s CPU    146.40s WALL (       8 calls)
     dynmatrix    :      0.01s CPU      0.24s WALL (       8 calls)

     phqscf       :    116.00s CPU    146.40s WALL (       8 calls)
     solve_linter :    115.09s CPU    143.58s WALL (      32 calls)
     drhodv       :      0.59s CPU      0.62s WALL (      32 calls)

     dynmat0      :      1.75s CPU      1.86s WALL (       8 calls)
     dynmat_us    :      0.38s CPU      0.39s WALL (       8 calls)
     d2ionq       :      0.04s CPU      0.04s WALL (       8 calls)
     dynmatcc     :      1.31s CPU      1.31s WALL (       8 calls)

     dynmat_us    :      0.38s CPU      0.39s WALL (       8 calls)
     addusdynmat  :      0.00s CPU      0.00s WALL (       8 calls)

     phqscf       :    116.00s CPU    146.40s WALL (       8 calls)
     solve_linter :    115.09s CPU    143.58s WALL (      32 calls)

     solve_linter :    115.09s CPU    143.58s WALL (      32 calls)
     dvqpsi_us    :      2.15s CPU      2.29s WALL (    2508 calls)
     ortho        :      0.89s CPU      1.01s WALL (   13486 calls)
     cgsolve      :     78.15s CPU     84.70s WALL (   13486 calls)
     incdrhoscf   :      6.23s CPU      6.79s WALL (   13486 calls)
     addusddens   :      7.04s CPU      7.13s WALL (     200 calls)
     vpsifft      :      4.43s CPU      4.84s WALL (   10858 calls)
     dv_of_drho   :      1.73s CPU      1.78s WALL (     254 calls)
     mix_pot      :      0.37s CPU     11.47s WALL (     173 calls)
     psymdvscf    :      5.83s CPU      5.91s WALL (     168 calls)
     newdq        :      7.66s CPU      7.68s WALL (     173 calls)
     adddvscf     :      0.46s CPU      0.44s WALL (   10978 calls)
     drhodvus     :      0.02s CPU      0.02s WALL (      32 calls)

     dvqpsi_us    :      2.15s CPU      2.29s WALL (    2508 calls)
     dvqpsi_us_on :      0.94s CPU      0.97s WALL (    2508 calls)

     cgsolve      :     78.15s CPU     84.70s WALL (   13486 calls)
     ch_psi       :     77.14s CPU     82.97s WALL (  143396 calls)

     ch_psi       :     77.14s CPU     82.97s WALL (  143396 calls)
     h_psi        :     70.62s CPU     75.46s WALL (  154654 calls)
     last         :      9.09s CPU      9.20s WALL (  143396 calls)

     h_psi        :     70.62s CPU     75.46s WALL (  154654 calls)
     add_vuspsi   :      4.25s CPU      3.69s WALL (  154654 calls)

     incdrhoscf   :      6.23s CPU      6.79s WALL (   13486 calls)
     addusdbec    :      0.48s CPU      0.53s WALL (   15934 calls)

     drhodvus     :      0.02s CPU      0.02s WALL (      32 calls)

      General routines
     calbec       :      8.05s CPU      8.52s WALL (  345874 calls)
     fft          :      1.88s CPU      1.97s WALL (    5233 calls)
     ffts         :      0.21s CPU      0.22s WALL (    3316 calls)
     fftw         :     63.47s CPU     67.34s WALL ( 1384572 calls)
     davcio       :      0.34s CPU      0.93s WALL (   69130 calls)
     write_rec    :      0.23s CPU     11.84s WALL (     205 calls)


     PHONON       :  2m16.98s CPU     2m53.18s WALL


   This run was terminated on:  15:47:14  10Nov2017            

=------------------------------------------------------------------------------=
   JOB DONE.
=------------------------------------------------------------------------------=
