
     Program PWSCF v.6.1 (svn rev. 13369) starts on 10Nov2017 at 10: 3: 8 

     This program is part of the open-source Quantum ESPRESSO suite
     for quantum simulation of materials; please cite
         "P. Giannozzi et al., J. Phys.:Condens. Matter 21 395502 (2009);
          URL http://www.quantum-espresso.org", 
     in publications or presentations arising from this work. More details at
     http://www.quantum-espresso.org/quote

     Parallel version (MPI), running on     4 processors
     R & G space division:  proc/nbgrp/npool/nimage =       4
     Waiting for input...
     Reading input from standard input
     Message from routine read_cards :
     DEPRECATED: no units specified in ATOMIC_POSITIONS card
     Message from routine read_cards :
     ATOMIC_POSITIONS: units set to alat

     Current dimensions of program PWSCF are:
     Max number of different atomic species (ntypx) = 10
     Max number of k-points (npk) =  40000
     Max angular momentum in pseudopotentials (lmaxx) =  3

     Subspace diagonalization in iterative solution of the eigenvalue problem:
     a serial algorithm will be used


     Parallelization info
     --------------------
     sticks:   dense  smooth     PW     G-vecs:    dense   smooth      PW
     Min         133      66     22                 2024      722     152
     Max         134      67     23                 2025      724     153
     Sum         535     265     91                 8099     2891     609



     bravais-lattice index     =            2
     lattice parameter (alat)  =      10.3900  a.u.
     unit-cell volume          =     280.4056 (a.u.)^3
     number of atoms/cell      =            2
     number of atomic types    =            1
     number of electrons       =         8.00
     number of Kohn-Sham states=            4
     kinetic-energy cutoff     =      18.0000  Ry
     charge density cutoff     =     144.0000  Ry
     convergence threshold     =      1.0E-08
     mixing beta               =       0.7000
     number of iterations used =            8  plain     mixing
     Exchange-correlation      = SLA  PW   PBE  PBE ( 1  4  3  4 0 0)

     celldm(1)=  10.390000  celldm(2)=   0.000000  celldm(3)=   0.000000
     celldm(4)=   0.000000  celldm(5)=   0.000000  celldm(6)=   0.000000

     crystal axes: (cart. coord. in units of alat)
               a(1) = (  -0.500000   0.000000   0.500000 )  
               a(2) = (   0.000000   0.500000   0.500000 )  
               a(3) = (  -0.500000   0.500000   0.000000 )  

     reciprocal axes: (cart. coord. in units 2 pi/alat)
               b(1) = ( -1.000000 -1.000000  1.000000 )  
               b(2) = (  1.000000  1.000000  1.000000 )  
               b(3) = ( -1.000000  1.000000 -1.000000 )  


     PseudoPot. # 1 for Si read from file:
     /home/max/quantum_espresso/qe-6.1/pseudo/si_pbe_v1.uspp.F.UPF.txt
     MD5 check sum: a056efeee980c13900f22a371efd63c1
     Pseudo is Ultrasoft + core correction, Zval =  4.0
     Generated by new atomic code, or converted to UPF format
     Using radial grid of  899 points,  6 beta functions with: 
                l(1) =   0
                l(2) =   0
                l(3) =   1
                l(4) =   1
                l(5) =   2
                l(6) =   2
     Q(r) pseudized with  8 coefficients,  rinner =    0.900   0.900   0.900
                                                       0.900   0.900

     atomic species   valence    mass     pseudopotential
        Si             4.00    28.08600     Si( 1.00)

     24 Sym. Ops. (no inversion) found
          (note: 24 additional sym.ops. were found but ignored
           their fractional translations are incommensurate with FFT grid)


   Cartesian axes

     site n.     atom                  positions (alat units)
         1           Si  tau(   1) = (   0.0000000   0.0000000   0.0000000  )
         2           Si  tau(   2) = (   0.2500000   0.2500000   0.2500000  )

     number of k points=    60
                       cart. coord. in units 2pi/alat
        k(    1) = (  -0.0625000   0.0625000   0.0625000), wk =   0.0078125
        k(    2) = (  -0.1875000   0.1875000  -0.0625000), wk =   0.0234375
        k(    3) = (  -0.3125000   0.3125000  -0.1875000), wk =   0.0234375
        k(    4) = (  -0.4375000   0.4375000  -0.3125000), wk =   0.0234375
        k(    5) = (   0.4375000  -0.4375000   0.5625000), wk =   0.0234375
        k(    6) = (   0.3125000  -0.3125000   0.4375000), wk =   0.0234375
        k(    7) = (   0.1875000  -0.1875000   0.3125000), wk =   0.0234375
        k(    8) = (   0.0625000  -0.0625000   0.1875000), wk =   0.0234375
        k(    9) = (  -0.0625000   0.3125000   0.0625000), wk =   0.0234375
        k(   10) = (  -0.1875000   0.4375000  -0.0625000), wk =   0.0468750
        k(   11) = (  -0.3125000   0.5625000  -0.1875000), wk =   0.0468750
        k(   12) = (   0.5625000  -0.3125000   0.6875000), wk =   0.0468750
        k(   13) = (   0.4375000  -0.1875000   0.5625000), wk =   0.0468750
        k(   14) = (   0.3125000  -0.0625000   0.4375000), wk =   0.0468750
        k(   15) = (   0.1875000   0.0625000   0.3125000), wk =   0.0468750
        k(   16) = (  -0.0625000   0.5625000   0.0625000), wk =   0.0234375
        k(   17) = (  -0.1875000   0.6875000  -0.0625000), wk =   0.0468750
        k(   18) = (   0.6875000  -0.1875000   0.8125000), wk =   0.0468750
        k(   19) = (   0.5625000  -0.0625000   0.6875000), wk =   0.0468750
        k(   20) = (   0.4375000   0.0625000   0.5625000), wk =   0.0468750
        k(   21) = (   0.3125000   0.1875000   0.4375000), wk =   0.0468750
        k(   22) = (  -0.0625000   0.8125000   0.0625000), wk =   0.0234375
        k(   23) = (   0.8125000  -0.0625000   0.9375000), wk =   0.0468750
        k(   24) = (   0.6875000   0.0625000   0.8125000), wk =   0.0468750
        k(   25) = (   0.5625000   0.1875000   0.6875000), wk =   0.0468750
        k(   26) = (   0.4375000   0.3125000   0.5625000), wk =   0.0468750
        k(   27) = (  -0.0625000  -0.9375000   0.0625000), wk =   0.0234375
        k(   28) = (  -0.1875000  -0.8125000  -0.0625000), wk =   0.0468750
        k(   29) = (  -0.3125000  -0.6875000  -0.1875000), wk =   0.0468750
        k(   30) = (  -0.0625000  -0.6875000   0.0625000), wk =   0.0234375
        k(   31) = (  -0.1875000  -0.5625000  -0.0625000), wk =   0.0468750
        k(   32) = (  -0.0625000  -0.4375000   0.0625000), wk =   0.0234375
        k(   33) = (  -0.1875000   0.1875000   0.1875000), wk =   0.0078125
        k(   34) = (  -0.3125000   0.3125000   0.0625000), wk =   0.0234375
        k(   35) = (  -0.4375000   0.4375000  -0.0625000), wk =   0.0234375
        k(   36) = (   0.4375000  -0.4375000   0.8125000), wk =   0.0234375
        k(   37) = (   0.3125000  -0.3125000   0.6875000), wk =   0.0234375
        k(   38) = (   0.1875000  -0.1875000   0.5625000), wk =   0.0234375
        k(   39) = (  -0.1875000   0.4375000   0.1875000), wk =   0.0234375
        k(   40) = (  -0.3125000   0.5625000   0.0625000), wk =   0.0468750
        k(   41) = (   0.5625000  -0.3125000   0.9375000), wk =   0.0468750
        k(   42) = (   0.4375000  -0.1875000   0.8125000), wk =   0.0468750
        k(   43) = (   0.3125000  -0.0625000   0.6875000), wk =   0.0468750
        k(   44) = (  -0.1875000   0.6875000   0.1875000), wk =   0.0234375
        k(   45) = (   0.6875000  -0.1875000   1.0625000), wk =   0.0468750
        k(   46) = (   0.5625000  -0.0625000   0.9375000), wk =   0.0468750
        k(   47) = (   0.4375000   0.0625000   0.8125000), wk =   0.0468750
        k(   48) = (  -0.1875000  -1.0625000   0.1875000), wk =   0.0234375
        k(   49) = (  -0.3125000  -0.9375000   0.0625000), wk =   0.0468750
        k(   50) = (  -0.1875000  -0.8125000   0.1875000), wk =   0.0234375
        k(   51) = (  -0.3125000   0.3125000   0.3125000), wk =   0.0078125
        k(   52) = (  -0.4375000   0.4375000   0.1875000), wk =   0.0234375
        k(   53) = (   0.4375000  -0.4375000   1.0625000), wk =   0.0234375
        k(   54) = (   0.3125000  -0.3125000   0.9375000), wk =   0.0234375
        k(   55) = (  -0.3125000   0.5625000   0.3125000), wk =   0.0234375
        k(   56) = (   0.5625000  -0.3125000   1.1875000), wk =   0.0468750
        k(   57) = (   0.4375000  -0.1875000   1.0625000), wk =   0.0468750
        k(   58) = (  -0.3125000  -1.1875000   0.3125000), wk =   0.0234375
        k(   59) = (  -0.4375000   0.4375000   0.4375000), wk =   0.0078125
        k(   60) = (   0.4375000  -0.4375000   1.3125000), wk =   0.0234375

     Dense  grid:     8099 G-vectors     FFT dimensions: (  30,  30,  30)

     Smooth grid:     2891 G-vectors     FFT dimensions: (  20,  20,  20)

     Estimated max dynamical RAM per process >       1.73MB

     Estimated total allocated dynamical RAM >       6.94MB

     Initial potential from superposition of free atoms

     starting charge    7.99866, renormalised to    8.00000
     Starting wfc are    8 randomized atomic wfcs

     total cpu time spent up to now is        0.4 secs

     per-process dynamical memory:     8.6 Mb

     Self-consistent Calculation

     iteration #  1     ecut=    18.00 Ry     beta=0.70
     Davidson diagonalization with overlap
     ethr =  1.00E-02,  avg # of iterations =  2.0

     Threshold (ethr) on eigenvalues was too large:
     Diagonalizing with lowered threshold

     Davidson diagonalization with overlap
     ethr =  6.56E-04,  avg # of iterations =  1.1

     total cpu time spent up to now is        0.7 secs

     total energy              =     -19.18917845 Ry
     Harris-Foulkes estimate   =     -19.20092749 Ry
     estimated scf accuracy    <       0.05231466 Ry

     iteration #  2     ecut=    18.00 Ry     beta=0.70
     Davidson diagonalization with overlap
     ethr =  6.54E-04,  avg # of iterations =  1.0

     total cpu time spent up to now is        0.9 secs

     total energy              =     -19.19079959 Ry
     Harris-Foulkes estimate   =     -19.19096899 Ry
     estimated scf accuracy    <       0.00245490 Ry

     iteration #  3     ecut=    18.00 Ry     beta=0.70
     Davidson diagonalization with overlap
     ethr =  3.07E-05,  avg # of iterations =  1.9

     total cpu time spent up to now is        1.0 secs

     total energy              =     -19.19106765 Ry
     Harris-Foulkes estimate   =     -19.19108005 Ry
     estimated scf accuracy    <       0.00003905 Ry

     iteration #  4     ecut=    18.00 Ry     beta=0.70
     Davidson diagonalization with overlap
     ethr =  4.88E-07,  avg # of iterations =  2.8

     total cpu time spent up to now is        1.3 secs

     total energy              =     -19.19109193 Ry
     Harris-Foulkes estimate   =     -19.19109242 Ry
     estimated scf accuracy    <       0.00000212 Ry

     iteration #  5     ecut=    18.00 Ry     beta=0.70
     Davidson diagonalization with overlap
     ethr =  2.65E-08,  avg # of iterations =  2.2

     total cpu time spent up to now is        1.4 secs

     total energy              =     -19.19109237 Ry
     Harris-Foulkes estimate   =     -19.19109239 Ry
     estimated scf accuracy    <       0.00000005 Ry

     iteration #  6     ecut=    18.00 Ry     beta=0.70
     Davidson diagonalization with overlap
     ethr =  6.11E-10,  avg # of iterations =  2.7

     total cpu time spent up to now is        2.1 secs

     End of self-consistent calculation

          k =-0.0625 0.0625 0.0625 (   338 PWs)   bands (ev):

    -5.8431   5.2819   5.7333   5.7333

          k =-0.1875 0.1875-0.0625 (   353 PWs)   bands (ev):

    -5.5812   3.7866   4.9448   5.6156

          k =-0.3125 0.3125-0.1875 (   354 PWs)   bands (ev):

    -4.9480   1.5999   4.4628   5.1618

          k =-0.4375 0.4375-0.3125 (   358 PWs)   bands (ev):

    -4.0682  -0.2470   4.2474   4.7626

          k = 0.4375-0.4375 0.5625 (   360 PWs)   bands (ev):

    -3.6338  -0.9293   4.2945   4.5492

          k = 0.3125-0.3125 0.4375 (   357 PWs)   bands (ev):

    -4.3690   0.2983   4.5711   4.5752

          k = 0.1875-0.1875 0.3125 (   357 PWs)   bands (ev):

    -5.1963   2.3160   4.8441   5.0317

          k = 0.0625-0.0625 0.1875 (   344 PWs)   bands (ev):

    -5.7113   4.5310   5.3176   5.4681

          k =-0.0625 0.3125 0.0625 (   353 PWs)   bands (ev):

    -5.4487   3.6360   4.7716   4.8476

          k =-0.1875 0.4375-0.0625 (   356 PWs)   bands (ev):

    -4.9355   2.1570   3.8211   4.5941

          k =-0.3125 0.5625-0.1875 (   361 PWs)   bands (ev):

    -4.1103   0.3406   3.3282   4.1946

          k = 0.5625-0.3125 0.6875 (   365 PWs)   bands (ev):

    -3.3702  -0.8380   3.0422   4.1041

          k = 0.4375-0.1875 0.5625 (   363 PWs)   bands (ev):

    -3.8147  -0.1664   2.9742   4.3815

          k = 0.3125-0.0625 0.4375 (   359 PWs)   bands (ev):

    -4.6933   1.5208   3.2776   4.8772

          k = 0.1875 0.0625 0.3125 (   355 PWs)   bands (ev):

    -5.3214   2.9769   4.3799   5.2422

          k =-0.0625 0.5625 0.0625 (   355 PWs)   bands (ev):

    -4.5430   1.6485   3.6821   3.8009

          k =-0.1875 0.6875-0.0625 (   357 PWs)   bands (ev):

    -3.8074   0.4342   2.9141   3.4625

          k = 0.6875-0.1875 0.8125 (   365 PWs)   bands (ev):

    -2.9323  -0.7351   2.0929   3.4313

          k = 0.5625-0.0625 0.6875 (   367 PWs)   bands (ev):

    -3.0032  -0.6427   1.7502   3.7672

          k = 0.4375 0.0625 0.5625 (   362 PWs)   bands (ev):

    -3.8778   0.2969   2.3377   4.3389

          k = 0.3125 0.1875 0.4375 (   358 PWs)   bands (ev):

    -4.5829   0.9367   3.9285   4.7794

          k =-0.0625 0.8125 0.0625 (   362 PWs)   bands (ev):

    -3.1667  -0.4146   3.0085   3.2186

          k = 0.8125-0.0625 0.9375 (   363 PWs)   bands (ev):

    -2.2773  -1.3850   2.4669   2.9825

          k = 0.6875 0.0625 0.8125 (   368 PWs)   bands (ev):

    -2.3774  -1.2198   1.7575   3.2907

          k = 0.5625 0.1875 0.6875 (   365 PWs)   bands (ev):

    -3.1192  -0.8021   2.2849   3.8783

          k = 0.4375 0.3125 0.5625 (   363 PWs)   bands (ev):

    -3.7144  -0.6429   3.7531   4.4517

          k =-0.0625-0.9375 0.0625 (   358 PWs)   bands (ev):

    -2.3260  -1.4007   2.8736   3.0996

          k =-0.1875-0.8125-0.0625 (   359 PWs)   bands (ev):

    -3.0838  -0.4771   2.6200   3.1391

          k =-0.3125-0.6875-0.1875 (   364 PWs)   bands (ev):

    -3.5478  -0.2061   2.6719   3.7249

          k =-0.0625-0.6875 0.0625 (   358 PWs)   bands (ev):

    -3.9101   0.6120   3.2784   3.4542

          k =-0.1875-0.5625-0.0625 (   356 PWs)   bands (ev):

    -4.4284   1.3148   3.3236   3.9594

          k =-0.0625-0.4375 0.0625 (   351 PWs)   bands (ev):

    -5.0579   2.6667   4.2144   4.2478

          k =-0.1875 0.1875 0.1875 (   356 PWs)   bands (ev):

    -5.4521   3.0759   5.3005   5.3005

          k =-0.3125 0.3125 0.0625 (   360 PWs)   bands (ev):

    -5.0684   2.2404   3.8191   5.3152

          k =-0.4375 0.4375-0.0625 (   361 PWs)   bands (ev):

    -4.3373   0.8907   2.7605   4.8207

          k = 0.4375-0.4375 0.8125 (   367 PWs)   bands (ev):

    -3.4651  -0.5629   2.6040   4.3011

          k = 0.3125-0.3125 0.6875 (   365 PWs)   bands (ev):

    -3.4498  -0.5907   2.8953   3.9906

          k = 0.1875-0.1875 0.5625 (   358 PWs)   bands (ev):

    -4.3202   0.8874   3.4976   3.9682

          k =-0.1875 0.4375 0.1875 (   362 PWs)   bands (ev):

    -4.8170   1.5882   4.3053   4.3786

          k =-0.3125 0.5625 0.0625 (   360 PWs)   bands (ev):

    -4.2035   0.8209   2.8161   4.1860

          k = 0.5625-0.3125 0.9375 (   364 PWs)   bands (ev):

    -3.3325  -0.2647   2.0450   3.6324

          k = 0.4375-0.1875 0.8125 (   368 PWs)   bands (ev):

    -2.8577  -0.8631   2.0450   3.3276

          k = 0.3125-0.0625 0.6875 (   362 PWs)   bands (ev):

    -3.6100   0.1175   2.4612   3.5022

          k =-0.1875 0.6875 0.1875 (   360 PWs)   bands (ev):

    -3.7166   0.1763   2.7863   3.6437

          k = 0.6875-0.1875 1.0625 (   360 PWs)   bands (ev):

    -2.9297  -0.6145   2.2249   2.9783

          k = 0.5625-0.0625 0.9375 (   370 PWs)   bands (ev):

    -2.1414  -1.3579   1.9163   2.4895

          k = 0.4375 0.0625 0.8125 (   367 PWs)   bands (ev):

    -2.7311  -0.8169   1.9063   2.9539

          k =-0.1875-1.0625 0.1875 (   364 PWs)   bands (ev):

    -2.2997  -1.3346   2.0180   3.3076

          k =-0.3125-0.9375 0.0625 (   364 PWs)   bands (ev):

    -2.2012  -1.3660   2.1098   2.6979

          k =-0.1875-0.8125 0.1875 (   360 PWs)   bands (ev):

    -3.0248  -0.5758   2.2765   3.4208

          k =-0.3125 0.3125 0.3125 (   359 PWs)   bands (ev):

    -4.7122   0.9108   4.8929   4.8929

          k =-0.4375 0.4375 0.1875 (   360 PWs)   bands (ev):

    -4.2430   0.3394   3.4537   4.8061

          k = 0.4375-0.4375 1.0625 (   367 PWs)   bands (ev):

    -3.4683  -0.1980   1.9662   4.2385

          k = 0.3125-0.3125 0.9375 (   364 PWs)   bands (ev):

    -2.6657  -0.9694   1.6392   3.7035

          k =-0.3125 0.5625 0.3125 (   366 PWs)   bands (ev):

    -3.9369  -0.2071   3.7785   4.2558

          k = 0.5625-0.3125 1.1875 (   367 PWs)   bands (ev):

    -3.3307  -0.5682   2.5007   3.7931

          k = 0.4375-0.1875 1.0625 (   369 PWs)   bands (ev):

    -2.5303  -1.0370   1.7293   3.0967

          k =-0.3125-1.1875 0.3125 (   363 PWs)   bands (ev):

    -2.9802  -0.8454   2.1204   3.8015

          k =-0.4375 0.4375 0.4375 (   356 PWs)   bands (ev):

    -3.8450  -0.6990   4.6750   4.6750

          k = 0.4375-0.4375 1.3125 (   365 PWs)   bands (ev):

    -3.5028  -0.8744   3.4689   4.4131

     highest occupied level (ev):     5.7333

!    total energy              =     -19.19109240 Ry
     Harris-Foulkes estimate   =     -19.19109240 Ry
     estimated scf accuracy    <          7.0E-09 Ry

     The total energy is the sum of the following terms:

     one-electron contribution =       4.82823265 Ry
     hartree contribution      =       1.14775226 Ry
     xc contribution           =      -8.57636145 Ry
     ewald contribution        =     -16.59071586 Ry

     convergence has been achieved in   6 iterations

     Writing output data file silicon.10.390.save

     init_run     :      0.26s CPU      0.29s WALL (       1 calls)
     electrons    :      1.20s CPU      1.75s WALL (       1 calls)

     Called by init_run:
     wfcinit      :      0.07s CPU      0.08s WALL (       1 calls)
     potinit      :      0.01s CPU      0.02s WALL (       1 calls)

     Called by electrons:
     c_bands      :      0.87s CPU      1.32s WALL (       7 calls)
     sum_band     :      0.20s CPU      0.26s WALL (       7 calls)
     v_of_rho     :      0.06s CPU      0.07s WALL (       7 calls)
     newd         :      0.08s CPU      0.09s WALL (       7 calls)
     mix_rho      :      0.00s CPU      0.01s WALL (       7 calls)

     Called by c_bands:
     init_us_2    :      0.06s CPU      0.06s WALL (     900 calls)
     cegterg      :      0.74s CPU      1.16s WALL (     420 calls)

     Called by sum_band:
     sum_band:bec :      0.00s CPU      0.01s WALL (     420 calls)
     addusdens    :      0.08s CPU      0.08s WALL (       7 calls)

     Called by *egterg:
     h_psi        :      0.51s CPU      0.70s WALL (    1300 calls)
     s_psi        :      0.06s CPU      0.06s WALL (    1300 calls)
     g_psi        :      0.00s CPU      0.00s WALL (     820 calls)
     cdiaghg      :      0.09s CPU      0.14s WALL (    1180 calls)

     Called by h_psi:
     h_psi:pot    :      0.51s CPU      0.69s WALL (    1300 calls)
     h_psi:calbec :      0.09s CPU      0.15s WALL (    1300 calls)
     vloc_psi     :      0.36s CPU      0.48s WALL (    1300 calls)
     add_vuspsi   :      0.06s CPU      0.06s WALL (    1300 calls)

     General routines
     calbec       :      0.11s CPU      0.18s WALL (    1720 calls)
     fft          :      0.05s CPU      0.08s WALL (     112 calls)
     ffts         :      0.00s CPU      0.00s WALL (      14 calls)
     fftw         :      0.34s CPU      0.47s WALL (   11606 calls)
     interpolate  :      0.01s CPU      0.02s WALL (      14 calls)
     davcio       :      0.00s CPU      0.00s WALL (      60 calls)

     Parallel routines
     fft_scatter  :      0.19s CPU      0.33s WALL (   11732 calls)

     PWSCF        :     1.73s CPU         2.32s WALL


   This run was terminated on:  10: 3:10  10Nov2017            

=------------------------------------------------------------------------------=
   JOB DONE.
=------------------------------------------------------------------------------=
