
     Program PHONON v.6.1 (svn rev. 13369) starts on  9Nov2017 at 12:27:11 

     This program is part of the open-source Quantum ESPRESSO suite
     for quantum simulation of materials; please cite
         "P. Giannozzi et al., J. Phys.:Condens. Matter 21 395502 (2009);
          URL http://www.quantum-espresso.org", 
     in publications or presentations arising from this work. More details at
     http://www.quantum-espresso.org/quote

     Parallel version (MPI), running on     4 processors
     R & G space division:  proc/nbgrp/npool/nimage =       4

     Reading data from directory:
     ./silicon.10.335.save

   Info: using nr1, nr2, nr3 values from input

   Info: using nr1, nr2, nr3 values from input

     IMPORTANT: XC functional enforced from input :
     Exchange-correlation      = SLA  PW   PBE  PBE ( 1  4  3  4 0 0)
     Any further DFT definition will be discarded
     Please, verify this is what you really want


     Parallelization info
     --------------------
     sticks:   dense  smooth     PW     G-vecs:    dense   smooth      PW
     Min          63      63     22                  684      684     140
     Max          64      64     23                  688      688     141
     Sum         253     253     91                 2741     2741     561


     Check: negative/imaginary core charge=   -0.000005    0.000000


     Dynamical matrices for ( 4, 4, 4)  uniform grid of q-points
     (   8q-points):
       N         xq(1)         xq(2)         xq(3) 
       1   0.000000000   0.000000000   0.000000000
       2  -0.250000000   0.250000000  -0.250000000
       3   0.500000000  -0.500000000   0.500000000
       4   0.000000000   0.500000000   0.000000000
       5   0.750000000  -0.250000000   0.750000000
       6   0.500000000   0.000000000   0.500000000
       7   0.000000000  -1.000000000   0.000000000
       8  -0.500000000  -1.000000000   0.000000000

     Calculation of q =    0.0000000   0.0000000   0.0000000

                                                                                

     bravais-lattice index     =            2
     lattice parameter (alat)  =      10.3350  a.u.
     unit-cell volume          =     275.9761 (a.u.)^3
     number of atoms/cell      =            2
     number of atomic types    =            1
     kinetic-energy cut-off    =      18.0000  Ry
     charge density cut-off    =      72.0000  Ry
     convergence threshold     =      1.0E-12
     beta                      =       0.7000
     number of iterations used =            4
     Exchange-correlation      = SLA  PW   PBE  PBE ( 1  4  3  4 0 0)


     celldm(1)=   10.33500  celldm(2)=    0.00000  celldm(3)=    0.00000
     celldm(4)=    0.00000  celldm(5)=    0.00000  celldm(6)=    0.00000

     crystal axes: (cart. coord. in units of alat)
               a(1) = ( -0.5000  0.0000  0.5000 )  
               a(2) = (  0.0000  0.5000  0.5000 )  
               a(3) = ( -0.5000  0.5000  0.0000 )  

     reciprocal axes: (cart. coord. in units 2 pi/alat)
               b(1) = ( -1.0000 -1.0000  1.0000 )  
               b(2) = (  1.0000  1.0000  1.0000 )  
               b(3) = ( -1.0000  1.0000 -1.0000 )  


     Atoms inside the unit cell: 

     Cartesian axes

     site n.  atom      mass           positions (alat units)
        1     Si  28.0860   tau(    1) = (    0.00000    0.00000    0.00000  )
        2     Si  28.0860   tau(    2) = (    0.25000    0.25000    0.25000  )

     Computing dynamical matrix for 
                    q = (   0.0000000   0.0000000   0.0000000 )

     49 Sym.Ops. (with q -> -q+G )


     G cutoff =  194.8021  (    685 G-vectors)     FFT grid: ( 20, 20, 20)
     number of k points=    10

     PseudoPot. # 1 for Si read from file:
     /home/max/quantum_espresso/qe-6.1/pseudo/si_pbe_v1.uspp.F.UPF.txt
     MD5 check sum: a056efeee980c13900f22a371efd63c1
     Pseudo is Ultrasoft + core correction, Zval =  4.0
     Generated by new atomic code, or converted to UPF format
     Using radial grid of  899 points,  6 beta functions with: 
                l(1) =   0
                l(2) =   0
                l(3) =   1
                l(4) =   1
                l(5) =   2
                l(6) =   2
     Q(r) pseudized with  8 coefficients,  rinner =    0.900   0.900   0.900
                                                       0.900   0.900

     Mode symmetry, O_h (m-3m)  point group:


     Electric field:
     Dielectric constant
     Born effective charges in two ways 


     Atomic displacements:
     There are   2 irreducible representations

     Representation     1      3 modes -T_2g G_25' G_5+  To be done

     Representation     2      3 modes -T_1u G_15  G_4-  To be done



     Alpha used in Ewald sum =   0.7000
     PHONON       :     0.41s CPU         0.43s WALL


     Electric Fields Calculation

      iter #   1 total cpu time :     0.9 secs   av.it.:   5.6
      thresh= 1.000E-02 alpha_mix =  0.700 |ddv_scf|^2 =  9.058E-07

      iter #   2 total cpu time :     1.2 secs   av.it.:   9.9
      thresh= 9.517E-05 alpha_mix =  0.700 |ddv_scf|^2 =  5.581E-08

      iter #   3 total cpu time :     1.4 secs   av.it.:   9.8
      thresh= 2.362E-05 alpha_mix =  0.700 |ddv_scf|^2 =  4.237E-09

      iter #   4 total cpu time :     1.6 secs   av.it.:   9.0
      thresh= 6.509E-06 alpha_mix =  0.700 |ddv_scf|^2 =  2.504E-11

      iter #   5 total cpu time :     1.8 secs   av.it.:   9.2
      thresh= 5.004E-07 alpha_mix =  0.700 |ddv_scf|^2 =  1.331E-14

     End of electric fields calculation

          Dielectric constant in cartesian axis 

          (      13.874152782       0.000000000       0.000000000 )
          (       0.000000000      13.874152782      -0.000000000 )
          (      -0.000000000      -0.000000000      13.874152782 )

          Effective charges (d Force / dE) in cartesian axis

           atom      1   Si 
      Ex  (       -0.03110       -0.00000       -0.00000 )
      Ey  (       -0.00000       -0.03110       -0.00000 )
      Ez  (       -0.00000        0.00000       -0.03110 )
           atom      2   Si 
      Ex  (       -0.03110        0.00000        0.00000 )
      Ey  (        0.00000       -0.03110       -0.00000 )
      Ez  (        0.00000       -0.00000       -0.03110 )


     Representation #  1 modes #   1  2  3

     Self-consistent Calculation

      iter #   1 total cpu time :     2.2 secs   av.it.:   4.9
      thresh= 1.000E-02 alpha_mix =  0.700 |ddv_scf|^2 =  2.256E-07

      iter #   2 total cpu time :     2.4 secs   av.it.:   9.8
      thresh= 4.749E-05 alpha_mix =  0.700 |ddv_scf|^2 =  1.398E-08

      iter #   3 total cpu time :     2.6 secs   av.it.:   9.3
      thresh= 1.183E-05 alpha_mix =  0.700 |ddv_scf|^2 =  8.610E-10

      iter #   4 total cpu time :     2.8 secs   av.it.:   9.0
      thresh= 2.934E-06 alpha_mix =  0.700 |ddv_scf|^2 =  1.892E-12

      iter #   5 total cpu time :     3.2 secs   av.it.:   9.5
      thresh= 1.375E-07 alpha_mix =  0.700 |ddv_scf|^2 =  1.231E-14

     End of self-consistent calculation

     Convergence has been achieved 


     Representation #  2 modes #   4  5  6

     Self-consistent Calculation

      iter #   1 total cpu time :     3.4 secs   av.it.:   5.0
      thresh= 1.000E-02 alpha_mix =  0.700 |ddv_scf|^2 =  1.710E-07

      iter #   2 total cpu time :     3.6 secs   av.it.:   9.6
      thresh= 4.135E-05 alpha_mix =  0.700 |ddv_scf|^2 =  1.335E-08

      iter #   3 total cpu time :     3.8 secs   av.it.:   9.3
      thresh= 1.155E-05 alpha_mix =  0.700 |ddv_scf|^2 =  8.501E-10

      iter #   4 total cpu time :     4.0 secs   av.it.:   9.5
      thresh= 2.916E-06 alpha_mix =  0.700 |ddv_scf|^2 =  5.092E-12

      iter #   5 total cpu time :     4.2 secs   av.it.:   9.0
      thresh= 2.257E-07 alpha_mix =  0.700 |ddv_scf|^2 =  4.438E-15

     End of self-consistent calculation

     Convergence has been achieved 

     Number of q in the star =    1
     List of q in the star:
          1   0.000000000   0.000000000   0.000000000

          Dielectric constant in cartesian axis 

          (      13.874152782       0.000000000       0.000000000 )
          (       0.000000000      13.874152782      -0.000000000 )
          (      -0.000000000      -0.000000000      13.874152782 )

          Effective charges (d Force / dE) in cartesian axis

           atom      1   Si 
      Ex  (       -0.03110       -0.00000       -0.00000 )
      Ey  (       -0.00000       -0.03110       -0.00000 )
      Ez  (       -0.00000        0.00000       -0.03110 )
           atom      2   Si 
      Ex  (       -0.03110        0.00000        0.00000 )
      Ey  (        0.00000       -0.03110       -0.00000 )
      Ez  (        0.00000       -0.00000       -0.03110 )

          Effective charges (d P / du) in cartesian axis 

           atom      1   Si 
      Px  (       -0.07258       -0.00000        0.00000 )
      Py  (       -0.00000       -0.07258        0.00000 )
      Pz  (        0.00000        0.00000       -0.07258 )
           atom      2   Si 
      Px  (       -0.07258        0.00000        0.00000 )
      Py  (        0.00000       -0.07258       -0.00000 )
      Pz  (        0.00000       -0.00000       -0.07258 )

     Diagonalizing the dynamical matrix

     q = (    0.000000000   0.000000000   0.000000000 ) 

 **************************************************************************
     freq (    1) =       1.948859 [THz] =      65.006931 [cm-1]
     freq (    2) =       1.948859 [THz] =      65.006931 [cm-1]
     freq (    3) =       1.948859 [THz] =      65.006931 [cm-1]
     freq (    4) =      15.004018 [THz] =     500.480157 [cm-1]
     freq (    5) =      15.004018 [THz] =     500.480157 [cm-1]
     freq (    6) =      15.004018 [THz] =     500.480157 [cm-1]
 **************************************************************************

     Mode symmetry, O_h (m-3m)  point group:

     freq (  1 -  3) =         65.0  [cm-1]   --> T_1u G_15  G_4- I  
     freq (  4 -  6) =        500.5  [cm-1]   --> T_2g G_25' G_5+ R  

     Calculation of q =   -0.2500000   0.2500000  -0.2500000

   Info: using nr1, nr2, nr3 values from input

   Info: using nr1, nr2, nr3 values from input

     Parallelization info
     --------------------
     sticks:   dense  smooth     PW     G-vecs:    dense   smooth      PW
     Min          63      63     24                  684      684     161
     Max          64      64     25                  688      688     162
     Sum         253     253     97                 2741     2741     645



     bravais-lattice index     =            2
     lattice parameter (alat)  =      10.3350  a.u.
     unit-cell volume          =     275.9761 (a.u.)^3
     number of atoms/cell      =            2
     number of atomic types    =            1
     number of electrons       =         8.00
     number of Kohn-Sham states=            4
     kinetic-energy cutoff     =      18.0000  Ry
     charge density cutoff     =      72.0000  Ry
     Exchange-correlation      = SLA  PW   PBE  PBE ( 1  4  3  4 0 0)

     celldm(1)=  10.335000  celldm(2)=   0.000000  celldm(3)=   0.000000
     celldm(4)=   0.000000  celldm(5)=   0.000000  celldm(6)=   0.000000

     crystal axes: (cart. coord. in units of alat)
               a(1) = (  -0.500000   0.000000   0.500000 )  
               a(2) = (   0.000000   0.500000   0.500000 )  
               a(3) = (  -0.500000   0.500000   0.000000 )  

     reciprocal axes: (cart. coord. in units 2 pi/alat)
               b(1) = ( -1.000000 -1.000000  1.000000 )  
               b(2) = (  1.000000  1.000000  1.000000 )  
               b(3) = ( -1.000000  1.000000 -1.000000 )  


     PseudoPot. # 1 for Si read from file:
     /home/max/quantum_espresso/qe-6.1/pseudo/si_pbe_v1.uspp.F.UPF.txt
     MD5 check sum: a056efeee980c13900f22a371efd63c1
     Pseudo is Ultrasoft + core correction, Zval =  4.0
     Generated by new atomic code, or converted to UPF format
     Using radial grid of  899 points,  6 beta functions with: 
                l(1) =   0
                l(2) =   0
                l(3) =   1
                l(4) =   1
                l(5) =   2
                l(6) =   2
     Q(r) pseudized with  8 coefficients,  rinner =    0.900   0.900   0.900
                                                       0.900   0.900

     atomic species   valence    mass     pseudopotential
        Si             4.00    28.08600     Si( 1.00)

     48 Sym. Ops., with inversion, found



   Cartesian axes

     site n.     atom                  positions (alat units)
         1           Si  tau(   1) = (   0.0000000   0.0000000   0.0000000  )
         2           Si  tau(   2) = (   0.2500000   0.2500000   0.2500000  )

     number of k points=   120

     Number of k-points >= 100: set verbosity='high' to print them.

     Dense  grid:     2741 G-vectors     FFT dimensions: (  20,  20,  20)

     Estimated max dynamical RAM per process >       0.33MB

     Estimated total allocated dynamical RAM >       1.31MB

     Check: negative/imaginary core charge=   -0.000005    0.000000

     The potential is recalculated from file :
     ./_ph0/silicon.10.335.save/charge-density.dat

     Starting wfc are    8 atomic wfcs

     Band Structure Calculation
     Davidson diagonalization with overlap

     ethr =  1.25E-10,  avg # of iterations = 11.7

     total cpu time spent up to now is        1.0 secs

     End of band structure calculation

     Number of k-points >= 100: set verbosity='high' to print the bands.

     highest occupied level (ev):     5.6958

     Writing output data file silicon.10.335.save

                                                                                

     bravais-lattice index     =            2
     lattice parameter (alat)  =      10.3350  a.u.
     unit-cell volume          =     275.9761 (a.u.)^3
     number of atoms/cell      =            2
     number of atomic types    =            1
     kinetic-energy cut-off    =      18.0000  Ry
     charge density cut-off    =      72.0000  Ry
     convergence threshold     =      1.0E-12
     beta                      =       0.7000
     number of iterations used =            4
     Exchange-correlation      = SLA  PW   PBE  PBE ( 1  4  3  4 0 0)


     celldm(1)=   10.33500  celldm(2)=    0.00000  celldm(3)=    0.00000
     celldm(4)=    0.00000  celldm(5)=    0.00000  celldm(6)=    0.00000

     crystal axes: (cart. coord. in units of alat)
               a(1) = ( -0.5000  0.0000  0.5000 )  
               a(2) = (  0.0000  0.5000  0.5000 )  
               a(3) = ( -0.5000  0.5000  0.0000 )  

     reciprocal axes: (cart. coord. in units 2 pi/alat)
               b(1) = ( -1.0000 -1.0000  1.0000 )  
               b(2) = (  1.0000  1.0000  1.0000 )  
               b(3) = ( -1.0000  1.0000 -1.0000 )  


     Atoms inside the unit cell: 

     Cartesian axes

     site n.  atom      mass           positions (alat units)
        1     Si  28.0860   tau(    1) = (    0.00000    0.00000    0.00000  )
        2     Si  28.0860   tau(    2) = (    0.25000    0.25000    0.25000  )

     Computing dynamical matrix for 
                    q = (  -0.2500000   0.2500000  -0.2500000 )

      6 Sym.Ops. (no q -> -q+G )


     G cutoff =  194.8021  (    685 G-vectors)     FFT grid: ( 20, 20, 20)
     number of k points=   120

     PseudoPot. # 1 for Si read from file:
     /home/max/quantum_espresso/qe-6.1/pseudo/si_pbe_v1.uspp.F.UPF.txt
     MD5 check sum: a056efeee980c13900f22a371efd63c1
     Pseudo is Ultrasoft + core correction, Zval =  4.0
     Generated by new atomic code, or converted to UPF format
     Using radial grid of  899 points,  6 beta functions with: 
                l(1) =   0
                l(2) =   0
                l(3) =   1
                l(4) =   1
                l(5) =   2
                l(6) =   2
     Q(r) pseudized with  8 coefficients,  rinner =    0.900   0.900   0.900
                                                       0.900   0.900

     Mode symmetry, C_3v (3m)   point group:


     Atomic displacements:
     There are   4 irreducible representations

     Representation     1      1 modes -A_1  L_1  To be done

     Representation     2      1 modes -A_1  L_1  To be done

     Representation     3      2 modes -E    L_3  To be done

     Representation     4      2 modes -E    L_3  To be done



     Alpha used in Ewald sum =   0.7000
     PHONON       :     5.15s CPU         5.77s WALL



     Representation #  1 mode #   1

     Self-consistent Calculation

      iter #   1 total cpu time :     6.0 secs   av.it.:   5.5
      thresh= 1.000E-02 alpha_mix =  0.700 |ddv_scf|^2 =  2.470E-03

      iter #   2 total cpu time :     6.3 secs   av.it.:   7.5
      thresh= 4.970E-03 alpha_mix =  0.700 |ddv_scf|^2 =  3.728E-02

      iter #   3 total cpu time :     6.6 secs   av.it.:   6.3
      thresh= 1.000E-02 alpha_mix =  0.700 |ddv_scf|^2 =  1.719E-06

      iter #   4 total cpu time :     7.0 secs   av.it.:   8.2
      thresh= 1.311E-04 alpha_mix =  0.700 |ddv_scf|^2 =  1.151E-07

      iter #   5 total cpu time :     7.3 secs   av.it.:   8.1
      thresh= 3.392E-05 alpha_mix =  0.700 |ddv_scf|^2 =  4.387E-09

      iter #   6 total cpu time :     7.6 secs   av.it.:   8.0
      thresh= 6.624E-06 alpha_mix =  0.700 |ddv_scf|^2 =  5.074E-09

      iter #   7 total cpu time :     7.9 secs   av.it.:   6.0
      thresh= 7.123E-06 alpha_mix =  0.700 |ddv_scf|^2 =  4.068E-10

      iter #   8 total cpu time :     8.2 secs   av.it.:   7.3
      thresh= 2.017E-06 alpha_mix =  0.700 |ddv_scf|^2 =  3.665E-12

      iter #   9 total cpu time :     8.5 secs   av.it.:   7.2
      thresh= 1.914E-07 alpha_mix =  0.700 |ddv_scf|^2 =  1.257E-13

     End of self-consistent calculation

     Convergence has been achieved 


     Representation #  2 mode #   2

     Self-consistent Calculation

      iter #   1 total cpu time :     8.7 secs   av.it.:   5.5
      thresh= 1.000E-02 alpha_mix =  0.700 |ddv_scf|^2 =  2.470E-03

      iter #   2 total cpu time :     9.2 secs   av.it.:   7.5
      thresh= 4.970E-03 alpha_mix =  0.700 |ddv_scf|^2 =  3.728E-02

      iter #   3 total cpu time :     9.5 secs   av.it.:   6.3
      thresh= 1.000E-02 alpha_mix =  0.700 |ddv_scf|^2 =  1.719E-06

      iter #   4 total cpu time :     9.8 secs   av.it.:   8.2
      thresh= 1.311E-04 alpha_mix =  0.700 |ddv_scf|^2 =  1.151E-07

      iter #   5 total cpu time :    10.1 secs   av.it.:   8.1
      thresh= 3.392E-05 alpha_mix =  0.700 |ddv_scf|^2 =  4.387E-09

      iter #   6 total cpu time :    10.4 secs   av.it.:   8.0
      thresh= 6.624E-06 alpha_mix =  0.700 |ddv_scf|^2 =  5.074E-09

      iter #   7 total cpu time :    10.6 secs   av.it.:   6.0
      thresh= 7.123E-06 alpha_mix =  0.700 |ddv_scf|^2 =  4.068E-10

      iter #   8 total cpu time :    11.1 secs   av.it.:   7.3
      thresh= 2.017E-06 alpha_mix =  0.700 |ddv_scf|^2 =  3.665E-12

      iter #   9 total cpu time :    11.4 secs   av.it.:   7.2
      thresh= 1.914E-07 alpha_mix =  0.700 |ddv_scf|^2 =  1.257E-13

     End of self-consistent calculation

     Convergence has been achieved 


     Representation #  3 modes #   3  4

     Self-consistent Calculation

      iter #   1 total cpu time :    11.9 secs   av.it.:   5.0
      thresh= 1.000E-02 alpha_mix =  0.700 |ddv_scf|^2 =  5.570E-07

      iter #   2 total cpu time :    12.5 secs   av.it.:   9.5
      thresh= 7.463E-05 alpha_mix =  0.700 |ddv_scf|^2 =  4.114E-08

      iter #   3 total cpu time :    13.3 secs   av.it.:   9.2
      thresh= 2.028E-05 alpha_mix =  0.700 |ddv_scf|^2 =  3.536E-09

      iter #   4 total cpu time :    14.0 secs   av.it.:   9.0
      thresh= 5.946E-06 alpha_mix =  0.700 |ddv_scf|^2 =  1.086E-11

      iter #   5 total cpu time :    14.7 secs   av.it.:   9.2
      thresh= 3.296E-07 alpha_mix =  0.700 |ddv_scf|^2 =  4.941E-13

     End of self-consistent calculation

     Convergence has been achieved 


     Representation #  4 modes #   5  6

     Self-consistent Calculation

      iter #   1 total cpu time :    15.3 secs   av.it.:   5.0
      thresh= 1.000E-02 alpha_mix =  0.700 |ddv_scf|^2 =  5.569E-07

      iter #   2 total cpu time :    16.0 secs   av.it.:   9.6
      thresh= 7.462E-05 alpha_mix =  0.700 |ddv_scf|^2 =  4.110E-08

      iter #   3 total cpu time :    16.7 secs   av.it.:   9.4
      thresh= 2.027E-05 alpha_mix =  0.700 |ddv_scf|^2 =  3.533E-09

      iter #   4 total cpu time :    17.5 secs   av.it.:   9.1
      thresh= 5.944E-06 alpha_mix =  0.700 |ddv_scf|^2 =  1.087E-11

      iter #   5 total cpu time :    18.2 secs   av.it.:   9.3
      thresh= 3.297E-07 alpha_mix =  0.700 |ddv_scf|^2 =  4.944E-13

     End of self-consistent calculation

     Convergence has been achieved 

     Number of q in the star =    8
     List of q in the star:
          1  -0.250000000   0.250000000  -0.250000000
          2   0.250000000  -0.250000000  -0.250000000
          3   0.250000000  -0.250000000   0.250000000
          4   0.250000000   0.250000000   0.250000000
          5  -0.250000000  -0.250000000  -0.250000000
          6  -0.250000000  -0.250000000   0.250000000
          7  -0.250000000   0.250000000   0.250000000
          8   0.250000000   0.250000000  -0.250000000

     Diagonalizing the dynamical matrix

     q = (   -0.250000000   0.250000000  -0.250000000 ) 

 **************************************************************************
     freq (    1) =       3.393847 [THz] =     113.206563 [cm-1]
     freq (    2) =       3.393847 [THz] =     113.206563 [cm-1]
     freq (    3) =       6.932924 [THz] =     231.257445 [cm-1]
     freq (    4) =      14.078424 [THz] =     469.605668 [cm-1]
     freq (    5) =      14.388750 [THz] =     479.957033 [cm-1]
     freq (    6) =      14.388750 [THz] =     479.957033 [cm-1]
 **************************************************************************

     Mode symmetry, C_3v (3m)   point group:

     freq (  1 -  2) =        113.2  [cm-1]   --> E    L_3           
     freq (  3 -  3) =        231.3  [cm-1]   --> A_1  L_1           
     freq (  4 -  4) =        469.6  [cm-1]   --> A_1  L_1           
     freq (  5 -  6) =        480.0  [cm-1]   --> E    L_3           

     Calculation of q =    0.5000000  -0.5000000   0.5000000

   Info: using nr1, nr2, nr3 values from input

   Info: using nr1, nr2, nr3 values from input

     Parallelization info
     --------------------
     sticks:   dense  smooth     PW     G-vecs:    dense   smooth      PW
     Min          63      63     27                  684      684     186
     Max          64      64     28                  688      688     189
     Sum         253     253    109                 2741     2741     749



     bravais-lattice index     =            2
     lattice parameter (alat)  =      10.3350  a.u.
     unit-cell volume          =     275.9761 (a.u.)^3
     number of atoms/cell      =            2
     number of atomic types    =            1
     number of electrons       =         8.00
     number of Kohn-Sham states=            4
     kinetic-energy cutoff     =      18.0000  Ry
     charge density cutoff     =      72.0000  Ry
     Exchange-correlation      = SLA  PW   PBE  PBE ( 1  4  3  4 0 0)

     celldm(1)=  10.335000  celldm(2)=   0.000000  celldm(3)=   0.000000
     celldm(4)=   0.000000  celldm(5)=   0.000000  celldm(6)=   0.000000

     crystal axes: (cart. coord. in units of alat)
               a(1) = (  -0.500000   0.000000   0.500000 )  
               a(2) = (   0.000000   0.500000   0.500000 )  
               a(3) = (  -0.500000   0.500000   0.000000 )  

     reciprocal axes: (cart. coord. in units 2 pi/alat)
               b(1) = ( -1.000000 -1.000000  1.000000 )  
               b(2) = (  1.000000  1.000000  1.000000 )  
               b(3) = ( -1.000000  1.000000 -1.000000 )  


     PseudoPot. # 1 for Si read from file:
     /home/max/quantum_espresso/qe-6.1/pseudo/si_pbe_v1.uspp.F.UPF.txt
     MD5 check sum: a056efeee980c13900f22a371efd63c1
     Pseudo is Ultrasoft + core correction, Zval =  4.0
     Generated by new atomic code, or converted to UPF format
     Using radial grid of  899 points,  6 beta functions with: 
                l(1) =   0
                l(2) =   0
                l(3) =   1
                l(4) =   1
                l(5) =   2
                l(6) =   2
     Q(r) pseudized with  8 coefficients,  rinner =    0.900   0.900   0.900
                                                       0.900   0.900

     atomic species   valence    mass     pseudopotential
        Si             4.00    28.08600     Si( 1.00)

     48 Sym. Ops., with inversion, found



   Cartesian axes

     site n.     atom                  positions (alat units)
         1           Si  tau(   1) = (   0.0000000   0.0000000   0.0000000  )
         2           Si  tau(   2) = (   0.2500000   0.2500000   0.2500000  )

     number of k points=    60
                       cart. coord. in units 2pi/alat
        k(    1) = (  -0.1250000   0.1250000   0.1250000), wk =   0.0468750
        k(    2) = (   0.3750000  -0.3750000   0.6250000), wk =   0.0000000
        k(    3) = (  -0.3750000   0.3750000  -0.1250000), wk =   0.0468750
        k(    4) = (   0.1250000  -0.1250000   0.3750000), wk =   0.0000000
        k(    5) = (   0.3750000  -0.3750000   0.6250000), wk =   0.0468750
        k(    6) = (   0.8750000  -0.8750000   1.1250000), wk =   0.0000000
        k(    7) = (   0.1250000  -0.1250000   0.3750000), wk =   0.0468750
        k(    8) = (   0.6250000  -0.6250000   0.8750000), wk =   0.0000000
        k(    9) = (  -0.1250000   0.6250000   0.1250000), wk =   0.0937500
        k(   10) = (   0.3750000   0.1250000   0.6250000), wk =   0.0000000
        k(   11) = (   0.6250000  -0.1250000   0.8750000), wk =   0.0937500
        k(   12) = (   1.1250000  -0.6250000   1.3750000), wk =   0.0000000
        k(   13) = (   0.3750000   0.1250000   0.6250000), wk =   0.0937500
        k(   14) = (   0.8750000  -0.3750000   1.1250000), wk =   0.0000000
        k(   15) = (  -0.1250000  -0.8750000   0.1250000), wk =   0.0937500
        k(   16) = (   0.3750000  -1.3750000   0.6250000), wk =   0.0000000
        k(   17) = (  -0.3750000   0.3750000   0.3750000), wk =   0.0468750
        k(   18) = (   0.1250000  -0.1250000   0.8750000), wk =   0.0000000
        k(   19) = (   0.3750000  -0.3750000   1.1250000), wk =   0.0468750
        k(   20) = (   0.8750000  -0.8750000   1.6250000), wk =   0.0000000
        k(   21) = (   0.1250000  -0.1250000   0.1250000), wk =   0.0156250
        k(   22) = (   0.6250000  -0.6250000   0.6250000), wk =   0.0000000
        k(   23) = (  -0.3750000  -0.3750000  -0.1250000), wk =   0.0937500
        k(   24) = (   0.1250000  -0.8750000   0.3750000), wk =   0.0000000
        k(   25) = (  -0.1250000  -0.3750000   0.3750000), wk =   0.0468750
        k(   26) = (   0.3750000  -0.8750000   0.8750000), wk =   0.0000000
        k(   27) = (   0.3750000   0.3750000   0.6250000), wk =   0.0937500
        k(   28) = (   0.8750000  -0.1250000   1.1250000), wk =   0.0000000
        k(   29) = (   0.6250000   0.3750000  -0.3750000), wk =   0.0468750
        k(   30) = (   1.1250000  -0.1250000   0.1250000), wk =   0.0000000
        k(   31) = (   0.1250000   0.1250000   0.3750000), wk =   0.0937500
        k(   32) = (   0.6250000  -0.3750000   0.8750000), wk =   0.0000000
        k(   33) = (   0.3750000   0.1250000  -0.1250000), wk =   0.0468750
        k(   34) = (   0.8750000  -0.3750000   0.3750000), wk =   0.0000000
        k(   35) = (  -0.1250000  -0.6250000  -0.1250000), wk =   0.0468750
        k(   36) = (   0.3750000  -1.1250000   0.3750000), wk =   0.0000000
        k(   37) = (   0.1250000  -0.6250000   0.1250000), wk =   0.0468750
        k(   38) = (   0.6250000  -1.1250000   0.6250000), wk =   0.0000000
        k(   39) = (   0.6250000   0.1250000   0.8750000), wk =   0.0937500
        k(   40) = (   1.1250000  -0.3750000   1.3750000), wk =   0.0000000
        k(   41) = (  -0.8750000   0.1250000   0.6250000), wk =   0.0937500
        k(   42) = (  -0.3750000  -0.3750000   1.1250000), wk =   0.0000000
        k(   43) = (   0.8750000   0.1250000  -0.6250000), wk =   0.0937500
        k(   44) = (   1.3750000  -0.3750000  -0.1250000), wk =   0.0000000
        k(   45) = (   0.3750000  -0.1250000   0.6250000), wk =   0.0937500
        k(   46) = (   0.8750000  -0.6250000   1.1250000), wk =   0.0000000
        k(   47) = (  -0.6250000  -0.1250000   0.3750000), wk =   0.0937500
        k(   48) = (  -0.1250000  -0.6250000   0.8750000), wk =   0.0000000
        k(   49) = (   0.6250000  -0.1250000  -0.3750000), wk =   0.0937500
        k(   50) = (   1.1250000  -0.6250000   0.1250000), wk =   0.0000000
        k(   51) = (  -0.1250000   0.8750000  -0.1250000), wk =   0.0468750
        k(   52) = (   0.3750000   0.3750000   0.3750000), wk =   0.0000000
        k(   53) = (   0.1250000   0.8750000   0.1250000), wk =   0.0468750
        k(   54) = (   0.6250000   0.3750000   0.6250000), wk =   0.0000000
        k(   55) = (   0.3750000  -0.3750000   0.3750000), wk =   0.0156250
        k(   56) = (   0.8750000  -0.8750000   0.8750000), wk =   0.0000000
        k(   57) = (   0.3750000   0.3750000   1.1250000), wk =   0.0937500
        k(   58) = (   0.8750000  -0.1250000   1.6250000), wk =   0.0000000
        k(   59) = (   1.1250000   0.3750000  -0.3750000), wk =   0.0468750
        k(   60) = (   1.6250000  -0.1250000   0.1250000), wk =   0.0000000

     Dense  grid:     2741 G-vectors     FFT dimensions: (  20,  20,  20)

     Estimated max dynamical RAM per process >       0.33MB

     Estimated total allocated dynamical RAM >       1.31MB

     Check: negative/imaginary core charge=   -0.000005    0.000000

     The potential is recalculated from file :
     ./_ph0/silicon.10.335.save/charge-density.dat

     Starting wfc are    8 atomic wfcs

     Band Structure Calculation
     Davidson diagonalization with overlap

     ethr =  1.25E-10,  avg # of iterations = 11.7

     total cpu time spent up to now is        1.6 secs

     End of band structure calculation

          k =-0.1250 0.1250 0.1250 (   338 PWs)   bands (ev):

    -5.6321   4.3871   5.6958   5.6958

          k = 0.3750-0.3750 0.6250 (   361 PWs)   bands (ev):

    -3.4741  -0.6760   3.7339   4.4446

          k =-0.3750 0.3750-0.1250 (   352 PWs)   bands (ev):

    -4.6087   1.3955   3.7158   5.2141

          k = 0.1250-0.1250 0.3750 (   353 PWs)   bands (ev):

    -5.1060   2.7688   4.6894   4.7528

          k = 0.3750-0.3750 0.6250 (   361 PWs)   bands (ev):

    -3.4741  -0.6760   3.7339   4.4446

          k = 0.8750-0.8750 1.1250 (   338 PWs)   bands (ev):

    -5.6321   4.3871   5.6958   5.6958

          k = 0.1250-0.1250 0.3750 (   353 PWs)   bands (ev):

    -5.1060   2.7688   4.6894   4.7528

          k = 0.6250-0.6250 0.8750 (   352 PWs)   bands (ev):

    -4.6087   1.3955   3.7158   5.2141

          k =-0.1250 0.6250 0.1250 (   351 PWs)   bands (ev):

    -4.0773   1.0567   3.3686   3.8167

          k = 0.3750 0.1250 0.6250 (   357 PWs)   bands (ev):

    -3.6636   0.1880   2.7291   4.0922

          k = 0.6250-0.1250 0.8750 (   361 PWs)   bands (ev):

    -2.4427  -0.9035   2.0215   3.0921

          k = 1.1250-0.6250 1.3750 (   352 PWs)   bands (ev):

    -4.6087   1.3955   3.7158   5.2141

          k = 0.3750 0.1250 0.6250 (   357 PWs)   bands (ev):

    -3.6636   0.1880   2.7291   4.0922

          k = 0.8750-0.3750 1.1250 (   351 PWs)   bands (ev):

    -4.0773   1.0567   3.3686   3.8167

          k =-0.1250-0.8750 0.1250 (   358 PWs)   bands (ev):

    -2.6089  -0.8065   2.6271   3.3504

          k = 0.3750-1.3750 0.6250 (   361 PWs)   bands (ev):

    -3.4741  -0.6760   3.7339   4.4446

          k =-0.3750 0.3750 0.3750 (   353 PWs)   bands (ev):

    -4.1780   0.1108   4.9080   4.9080

          k = 0.1250-0.1250 0.8750 (   358 PWs)   bands (ev):

    -2.6089  -0.8065   2.6271   3.3504

          k = 0.3750-0.3750 1.1250 (   361 PWs)   bands (ev):

    -2.9792  -0.5969   2.0781   4.1289

          k = 0.8750-0.8750 1.6250 (   351 PWs)   bands (ev):

    -4.0773   1.0567   3.3686   3.8167

          k = 0.1250-0.1250 0.1250 (   338 PWs)   bands (ev):

    -5.6321   4.3871   5.6958   5.6958

          k = 0.6250-0.6250 0.6250 (   353 PWs)   bands (ev):

    -4.1780   0.1108   4.9080   4.9080

          k =-0.3750-0.3750-0.1250 (   352 PWs)   bands (ev):

    -4.6087   1.3955   3.7158   5.2141

          k = 0.1250-0.8750 0.3750 (   361 PWs)   bands (ev):

    -2.4427  -0.9035   2.0215   3.0921

          k =-0.1250-0.3750 0.3750 (   352 PWs)   bands (ev):

    -4.6087   1.3955   3.7158   5.2141

          k = 0.3750-0.8750 0.8750 (   351 PWs)   bands (ev):

    -4.0773   1.0567   3.3686   3.8167

          k = 0.3750 0.3750 0.6250 (   361 PWs)   bands (ev):

    -3.4741  -0.6760   3.7339   4.4446

          k = 0.8750-0.1250 1.1250 (   358 PWs)   bands (ev):

    -2.6089  -0.8065   2.6271   3.3504

          k = 0.6250 0.3750-0.3750 (   361 PWs)   bands (ev):

    -3.4741  -0.6760   3.7339   4.4446

          k = 1.1250-0.1250 0.1250 (   358 PWs)   bands (ev):

    -2.6089  -0.8065   2.6271   3.3504

          k = 0.1250 0.1250 0.3750 (   353 PWs)   bands (ev):

    -5.1060   2.7688   4.6894   4.7528

          k = 0.6250-0.3750 0.8750 (   357 PWs)   bands (ev):

    -3.6636   0.1880   2.7291   4.0922

          k = 0.3750 0.1250-0.1250 (   353 PWs)   bands (ev):

    -5.1060   2.7688   4.6894   4.7528

          k = 0.8750-0.3750 0.3750 (   361 PWs)   bands (ev):

    -2.9792  -0.5969   2.0781   4.1289

          k =-0.1250-0.6250-0.1250 (   351 PWs)   bands (ev):

    -4.0773   1.0567   3.3686   3.8167

          k = 0.3750-1.1250 0.3750 (   361 PWs)   bands (ev):

    -2.9792  -0.5969   2.0781   4.1289

          k = 0.1250-0.6250 0.1250 (   351 PWs)   bands (ev):

    -4.0773   1.0567   3.3686   3.8167

          k = 0.6250-1.1250 0.6250 (   352 PWs)   bands (ev):

    -4.6087   1.3955   3.7158   5.2141

          k = 0.6250 0.1250 0.8750 (   361 PWs)   bands (ev):

    -2.4427  -0.9035   2.0215   3.0921

          k = 1.1250-0.3750 1.3750 (   357 PWs)   bands (ev):

    -3.6636   0.1880   2.7291   4.0922

          k =-0.8750 0.1250 0.6250 (   361 PWs)   bands (ev):

    -2.4427  -0.9035   2.0215   3.0921

          k =-0.3750-0.3750 1.1250 (   361 PWs)   bands (ev):

    -2.9792  -0.5969   2.0781   4.1289

          k = 0.8750 0.1250-0.6250 (   361 PWs)   bands (ev):

    -2.4427  -0.9035   2.0215   3.0921

          k = 1.3750-0.3750-0.1250 (   357 PWs)   bands (ev):

    -3.6636   0.1880   2.7291   4.0922

          k = 0.3750-0.1250 0.6250 (   357 PWs)   bands (ev):

    -3.6636   0.1880   2.7291   4.0922

          k = 0.8750-0.6250 1.1250 (   353 PWs)   bands (ev):

    -5.1060   2.7688   4.6894   4.7528

          k =-0.6250-0.1250 0.3750 (   357 PWs)   bands (ev):

    -3.6636   0.1880   2.7291   4.0922

          k =-0.1250-0.6250 0.8750 (   361 PWs)   bands (ev):

    -2.4427  -0.9035   2.0215   3.0921

          k = 0.6250-0.1250-0.3750 (   357 PWs)   bands (ev):

    -3.6636   0.1880   2.7291   4.0922

          k = 1.1250-0.6250 0.1250 (   361 PWs)   bands (ev):

    -2.4427  -0.9035   2.0215   3.0921

          k =-0.1250 0.8750-0.1250 (   358 PWs)   bands (ev):

    -2.6089  -0.8065   2.6271   3.3504

          k = 0.3750 0.3750 0.3750 (   353 PWs)   bands (ev):

    -4.1780   0.1108   4.9080   4.9080

          k = 0.1250 0.8750 0.1250 (   358 PWs)   bands (ev):

    -2.6089  -0.8065   2.6271   3.3504

          k = 0.6250 0.3750 0.6250 (   361 PWs)   bands (ev):

    -3.4741  -0.6760   3.7339   4.4446

          k = 0.3750-0.3750 0.3750 (   353 PWs)   bands (ev):

    -4.1780   0.1108   4.9080   4.9080

          k = 0.8750-0.8750 0.8750 (   338 PWs)   bands (ev):

    -5.6321   4.3871   5.6958   5.6958

          k = 0.3750 0.3750 1.1250 (   361 PWs)   bands (ev):

    -2.9792  -0.5969   2.0781   4.1289

          k = 0.8750-0.1250 1.6250 (   361 PWs)   bands (ev):

    -2.4427  -0.9035   2.0215   3.0921

          k = 1.1250 0.3750-0.3750 (   361 PWs)   bands (ev):

    -2.9792  -0.5969   2.0781   4.1289

          k = 1.6250-0.1250 0.1250 (   353 PWs)   bands (ev):

    -5.1060   2.7688   4.6894   4.7528

     highest occupied level (ev):     5.6958

     Writing output data file silicon.10.335.save

                                                                                

     bravais-lattice index     =            2
     lattice parameter (alat)  =      10.3350  a.u.
     unit-cell volume          =     275.9761 (a.u.)^3
     number of atoms/cell      =            2
     number of atomic types    =            1
     kinetic-energy cut-off    =      18.0000  Ry
     charge density cut-off    =      72.0000  Ry
     convergence threshold     =      1.0E-12
     beta                      =       0.7000
     number of iterations used =            4
     Exchange-correlation      = SLA  PW   PBE  PBE ( 1  4  3  4 0 0)


     celldm(1)=   10.33500  celldm(2)=    0.00000  celldm(3)=    0.00000
     celldm(4)=    0.00000  celldm(5)=    0.00000  celldm(6)=    0.00000

     crystal axes: (cart. coord. in units of alat)
               a(1) = ( -0.5000  0.0000  0.5000 )  
               a(2) = (  0.0000  0.5000  0.5000 )  
               a(3) = ( -0.5000  0.5000  0.0000 )  

     reciprocal axes: (cart. coord. in units 2 pi/alat)
               b(1) = ( -1.0000 -1.0000  1.0000 )  
               b(2) = (  1.0000  1.0000  1.0000 )  
               b(3) = ( -1.0000  1.0000 -1.0000 )  


     Atoms inside the unit cell: 

     Cartesian axes

     site n.  atom      mass           positions (alat units)
        1     Si  28.0860   tau(    1) = (    0.00000    0.00000    0.00000  )
        2     Si  28.0860   tau(    2) = (    0.25000    0.25000    0.25000  )

     Computing dynamical matrix for 
                    q = (   0.5000000  -0.5000000   0.5000000 )

     13 Sym.Ops. (with q -> -q+G )


     G cutoff =  194.8021  (    685 G-vectors)     FFT grid: ( 20, 20, 20)
     number of k points=    60

     PseudoPot. # 1 for Si read from file:
     /home/max/quantum_espresso/qe-6.1/pseudo/si_pbe_v1.uspp.F.UPF.txt
     MD5 check sum: a056efeee980c13900f22a371efd63c1
     Pseudo is Ultrasoft + core correction, Zval =  4.0
     Generated by new atomic code, or converted to UPF format
     Using radial grid of  899 points,  6 beta functions with: 
                l(1) =   0
                l(2) =   0
                l(3) =   1
                l(4) =   1
                l(5) =   2
                l(6) =   2
     Q(r) pseudized with  8 coefficients,  rinner =    0.900   0.900   0.900
                                                       0.900   0.900


     Atomic displacements:
     There are   4 irreducible representations

     Representation     1      1 modes -  To be done

     Representation     2      1 modes -  To be done

     Representation     3      2 modes -  To be done

     Representation     4      2 modes -  To be done



     Alpha used in Ewald sum =   0.7000
     PHONON       :    16.41s CPU        19.16s WALL



     Representation #  1 mode #   1

     Self-consistent Calculation

      iter #   1 total cpu time :    19.3 secs   av.it.:   4.8
      thresh= 1.000E-02 alpha_mix =  0.700 |ddv_scf|^2 =  2.480E-05

      iter #   2 total cpu time :    19.5 secs   av.it.:   8.3
      thresh= 4.980E-04 alpha_mix =  0.700 |ddv_scf|^2 =  2.211E-05

      iter #   3 total cpu time :    19.6 secs   av.it.:   7.5
      thresh= 4.702E-04 alpha_mix =  0.700 |ddv_scf|^2 =  4.215E-08

      iter #   4 total cpu time :    19.8 secs   av.it.:   7.5
      thresh= 2.053E-05 alpha_mix =  0.700 |ddv_scf|^2 =  1.414E-10

      iter #   5 total cpu time :    19.9 secs   av.it.:   7.9
      thresh= 1.189E-06 alpha_mix =  0.700 |ddv_scf|^2 =  3.604E-12

      iter #   6 total cpu time :    20.1 secs   av.it.:   7.9
      thresh= 1.899E-07 alpha_mix =  0.700 |ddv_scf|^2 =  5.559E-14

     End of self-consistent calculation

     Convergence has been achieved 


     Representation #  2 mode #   2

     Self-consistent Calculation

      iter #   1 total cpu time :    20.2 secs   av.it.:   5.6
      thresh= 1.000E-02 alpha_mix =  0.700 |ddv_scf|^2 =  3.446E-04

      iter #   2 total cpu time :    20.4 secs   av.it.:   8.3
      thresh= 1.856E-03 alpha_mix =  0.700 |ddv_scf|^2 =  1.062E-03

      iter #   3 total cpu time :    20.6 secs   av.it.:   7.1
      thresh= 3.259E-03 alpha_mix =  0.700 |ddv_scf|^2 =  1.145E-07

      iter #   4 total cpu time :    20.7 secs   av.it.:   8.1
      thresh= 3.383E-05 alpha_mix =  0.700 |ddv_scf|^2 =  7.368E-09

      iter #   5 total cpu time :    21.0 secs   av.it.:   8.5
      thresh= 8.584E-06 alpha_mix =  0.700 |ddv_scf|^2 =  1.304E-10

      iter #   6 total cpu time :    21.2 secs   av.it.:   8.3
      thresh= 1.142E-06 alpha_mix =  0.700 |ddv_scf|^2 =  2.073E-12

      iter #   7 total cpu time :    21.4 secs   av.it.:   7.8
      thresh= 1.440E-07 alpha_mix =  0.700 |ddv_scf|^2 =  3.123E-15

     End of self-consistent calculation

     Convergence has been achieved 


     Representation #  3 modes #   3  4

     Self-consistent Calculation

      iter #   1 total cpu time :    21.7 secs   av.it.:   4.7
      thresh= 1.000E-02 alpha_mix =  0.700 |ddv_scf|^2 =  3.042E-07

      iter #   2 total cpu time :    22.0 secs   av.it.:   9.1
      thresh= 5.516E-05 alpha_mix =  0.700 |ddv_scf|^2 =  2.512E-08

      iter #   3 total cpu time :    22.3 secs   av.it.:   8.4
      thresh= 1.585E-05 alpha_mix =  0.700 |ddv_scf|^2 =  4.942E-10

      iter #   4 total cpu time :    22.7 secs   av.it.:   8.9
      thresh= 2.223E-06 alpha_mix =  0.700 |ddv_scf|^2 =  6.206E-12

      iter #   5 total cpu time :    23.2 secs   av.it.:   8.7
      thresh= 2.491E-07 alpha_mix =  0.700 |ddv_scf|^2 =  3.228E-14

     End of self-consistent calculation

     Convergence has been achieved 


     Representation #  4 modes #   5  6

     Self-consistent Calculation

      iter #   1 total cpu time :    23.4 secs   av.it.:   5.0
      thresh= 1.000E-02 alpha_mix =  0.700 |ddv_scf|^2 =  9.802E-07

      iter #   2 total cpu time :    23.8 secs   av.it.:   9.4
      thresh= 9.901E-05 alpha_mix =  0.700 |ddv_scf|^2 =  7.671E-08

      iter #   3 total cpu time :    24.1 secs   av.it.:   9.3
      thresh= 2.770E-05 alpha_mix =  0.700 |ddv_scf|^2 =  4.931E-09

      iter #   4 total cpu time :    24.5 secs   av.it.:   8.5
      thresh= 7.022E-06 alpha_mix =  0.700 |ddv_scf|^2 =  6.626E-12

      iter #   5 total cpu time :    24.8 secs   av.it.:   8.8
      thresh= 2.574E-07 alpha_mix =  0.700 |ddv_scf|^2 =  2.301E-14

     End of self-consistent calculation

     Convergence has been achieved 

     Number of q in the star =    4
     List of q in the star:
          1   0.500000000  -0.500000000   0.500000000
          2   0.500000000   0.500000000   0.500000000
          3  -0.500000000   0.500000000   0.500000000
          4   0.500000000   0.500000000  -0.500000000

     Diagonalizing the dynamical matrix

     q = (    0.500000000  -0.500000000   0.500000000 ) 

 **************************************************************************
     freq (    1) =       4.562041 [THz] =     152.173310 [cm-1]
     freq (    2) =       4.562041 [THz] =     152.173310 [cm-1]
     freq (    3) =      11.549956 [THz] =     385.265050 [cm-1]
     freq (    4) =      12.126291 [THz] =     404.489519 [cm-1]
     freq (    5) =      14.404337 [THz] =     480.476955 [cm-1]
     freq (    6) =      14.404337 [THz] =     480.476955 [cm-1]
 **************************************************************************

     Calculation of q =    0.0000000   0.5000000   0.0000000

   Info: using nr1, nr2, nr3 values from input

   Info: using nr1, nr2, nr3 values from input

     Parallelization info
     --------------------
     sticks:   dense  smooth     PW     G-vecs:    dense   smooth      PW
     Min          63      63     27                  684      684     175
     Max          64      64     28                  688      688     176
     Sum         253     253    109                 2741     2741     701



     bravais-lattice index     =            2
     lattice parameter (alat)  =      10.3350  a.u.
     unit-cell volume          =     275.9761 (a.u.)^3
     number of atoms/cell      =            2
     number of atomic types    =            1
     number of electrons       =         8.00
     number of Kohn-Sham states=            4
     kinetic-energy cutoff     =      18.0000  Ry
     charge density cutoff     =      72.0000  Ry
     Exchange-correlation      = SLA  PW   PBE  PBE ( 1  4  3  4 0 0)

     celldm(1)=  10.335000  celldm(2)=   0.000000  celldm(3)=   0.000000
     celldm(4)=   0.000000  celldm(5)=   0.000000  celldm(6)=   0.000000

     crystal axes: (cart. coord. in units of alat)
               a(1) = (  -0.500000   0.000000   0.500000 )  
               a(2) = (   0.000000   0.500000   0.500000 )  
               a(3) = (  -0.500000   0.500000   0.000000 )  

     reciprocal axes: (cart. coord. in units 2 pi/alat)
               b(1) = ( -1.000000 -1.000000  1.000000 )  
               b(2) = (  1.000000  1.000000  1.000000 )  
               b(3) = ( -1.000000  1.000000 -1.000000 )  


     PseudoPot. # 1 for Si read from file:
     /home/max/quantum_espresso/qe-6.1/pseudo/si_pbe_v1.uspp.F.UPF.txt
     MD5 check sum: a056efeee980c13900f22a371efd63c1
     Pseudo is Ultrasoft + core correction, Zval =  4.0
     Generated by new atomic code, or converted to UPF format
     Using radial grid of  899 points,  6 beta functions with: 
                l(1) =   0
                l(2) =   0
                l(3) =   1
                l(4) =   1
                l(5) =   2
                l(6) =   2
     Q(r) pseudized with  8 coefficients,  rinner =    0.900   0.900   0.900
                                                       0.900   0.900

     atomic species   valence    mass     pseudopotential
        Si             4.00    28.08600     Si( 1.00)

     48 Sym. Ops., with inversion, found



   Cartesian axes

     site n.     atom                  positions (alat units)
         1           Si  tau(   1) = (   0.0000000   0.0000000   0.0000000  )
         2           Si  tau(   2) = (   0.2500000   0.2500000   0.2500000  )

     number of k points=    80
                       cart. coord. in units 2pi/alat
        k(    1) = (  -0.1250000   0.1250000   0.1250000), wk =   0.0312500
        k(    2) = (  -0.1250000   0.6250000   0.1250000), wk =   0.0000000
        k(    3) = (  -0.3750000   0.3750000  -0.1250000), wk =   0.0625000
        k(    4) = (  -0.3750000   0.8750000  -0.1250000), wk =   0.0000000
        k(    5) = (   0.3750000  -0.3750000   0.6250000), wk =   0.0625000
        k(    6) = (   0.3750000   0.1250000   0.6250000), wk =   0.0000000
        k(    7) = (   0.1250000  -0.1250000   0.3750000), wk =   0.0625000
        k(    8) = (   0.1250000   0.3750000   0.3750000), wk =   0.0000000
        k(    9) = (  -0.1250000   0.6250000   0.1250000), wk =   0.0312500
        k(   10) = (  -0.1250000   1.1250000   0.1250000), wk =   0.0000000
        k(   11) = (   0.6250000  -0.1250000   0.8750000), wk =   0.0625000
        k(   12) = (   0.6250000   0.3750000   0.8750000), wk =   0.0000000
        k(   13) = (   0.3750000   0.1250000   0.6250000), wk =   0.0625000
        k(   14) = (   0.3750000   0.6250000   0.6250000), wk =   0.0000000
        k(   15) = (  -0.1250000  -0.8750000   0.1250000), wk =   0.0312500
        k(   16) = (  -0.1250000  -0.3750000   0.1250000), wk =   0.0000000
        k(   17) = (  -0.3750000   0.3750000   0.3750000), wk =   0.0312500
        k(   18) = (  -0.3750000   0.8750000   0.3750000), wk =   0.0000000
        k(   19) = (   0.3750000  -0.3750000   1.1250000), wk =   0.0625000
        k(   20) = (   0.3750000   0.1250000   1.1250000), wk =   0.0000000
        k(   21) = (  -0.1250000  -0.1250000   0.1250000), wk =   0.0312500
        k(   22) = (  -0.1250000   0.3750000   0.1250000), wk =   0.0000000
        k(   23) = (   0.1250000  -0.3750000   0.3750000), wk =   0.0625000
        k(   24) = (   0.1250000   0.1250000   0.3750000), wk =   0.0000000
        k(   25) = (   0.3750000  -0.1250000   0.3750000), wk =   0.0312500
        k(   26) = (   0.3750000   0.3750000   0.3750000), wk =   0.0000000
        k(   27) = (   0.3750000   0.1250000   0.3750000), wk =   0.0312500
        k(   28) = (   0.3750000   0.6250000   0.3750000), wk =   0.0000000
        k(   29) = (  -0.6250000   0.3750000  -0.3750000), wk =   0.0625000
        k(   30) = (  -0.6250000   0.8750000  -0.3750000), wk =   0.0000000
        k(   31) = (  -0.3750000   0.6250000  -0.3750000), wk =   0.0312500
        k(   32) = (  -0.3750000   1.1250000  -0.3750000), wk =   0.0000000
        k(   33) = (  -0.3750000  -0.6250000  -0.3750000), wk =   0.0312500
        k(   34) = (  -0.3750000  -0.1250000  -0.3750000), wk =   0.0000000
        k(   35) = (  -0.3750000   0.1250000  -0.1250000), wk =   0.0625000
        k(   36) = (  -0.3750000   0.6250000  -0.1250000), wk =   0.0000000
        k(   37) = (  -0.1250000   0.3750000  -0.1250000), wk =   0.0312500
        k(   38) = (  -0.1250000   0.8750000  -0.1250000), wk =   0.0000000
        k(   39) = (  -0.1250000  -0.3750000  -0.1250000), wk =   0.0312500
        k(   40) = (  -0.1250000   0.1250000  -0.1250000), wk =   0.0000000
        k(   41) = (  -0.1250000  -0.6250000   0.1250000), wk =   0.0312500
        k(   42) = (  -0.1250000  -0.1250000   0.1250000), wk =   0.0000000
        k(   43) = (   0.6250000  -0.1250000  -0.1250000), wk =   0.0625000
        k(   44) = (   0.6250000   0.3750000  -0.1250000), wk =   0.0000000
        k(   45) = (   0.6250000   0.1250000   0.1250000), wk =   0.0625000
        k(   46) = (   0.6250000   0.6250000   0.1250000), wk =   0.0000000
        k(   47) = (  -0.8750000   0.1250000  -0.6250000), wk =   0.0625000
        k(   48) = (  -0.8750000   0.6250000  -0.6250000), wk =   0.0000000
        k(   49) = (  -0.1250000   0.6250000  -0.8750000), wk =   0.0625000
        k(   50) = (  -0.1250000   1.1250000  -0.8750000), wk =   0.0000000
        k(   51) = (  -0.1250000   0.8750000  -0.6250000), wk =   0.0625000
        k(   52) = (  -0.1250000   1.3750000  -0.6250000), wk =   0.0000000
        k(   53) = (  -0.1250000  -0.8750000  -0.6250000), wk =   0.0625000
        k(   54) = (  -0.1250000  -0.3750000  -0.6250000), wk =   0.0000000
        k(   55) = (   0.8750000  -0.6250000   0.1250000), wk =   0.0625000
        k(   56) = (   0.8750000  -0.1250000   0.1250000), wk =   0.0000000
        k(   57) = (  -0.6250000  -0.1250000  -0.3750000), wk =   0.0625000
        k(   58) = (  -0.6250000   0.3750000  -0.3750000), wk =   0.0000000
        k(   59) = (   0.1250000   0.3750000  -0.6250000), wk =   0.0625000
        k(   60) = (   0.1250000   0.8750000  -0.6250000), wk =   0.0000000
        k(   61) = (   0.1250000   0.6250000  -0.3750000), wk =   0.0625000
        k(   62) = (   0.1250000   1.1250000  -0.3750000), wk =   0.0000000
        k(   63) = (   0.1250000  -0.6250000  -0.3750000), wk =   0.0625000
        k(   64) = (   0.1250000  -0.1250000  -0.3750000), wk =   0.0000000
        k(   65) = (   0.6250000  -0.3750000  -0.1250000), wk =   0.0625000
        k(   66) = (   0.6250000   0.1250000  -0.1250000), wk =   0.0000000
        k(   67) = (  -0.1250000   0.8750000   0.1250000), wk =   0.0312500
        k(   68) = (  -0.1250000   1.3750000   0.1250000), wk =   0.0000000
        k(   69) = (  -0.8750000  -0.1250000  -0.1250000), wk =   0.0625000
        k(   70) = (  -0.8750000   0.3750000  -0.1250000), wk =   0.0000000
        k(   71) = (  -0.8750000   0.1250000   0.1250000), wk =   0.0625000
        k(   72) = (  -0.8750000   0.6250000   0.1250000), wk =   0.0000000
        k(   73) = (  -0.3750000  -0.3750000   0.3750000), wk =   0.0312500
        k(   74) = (  -0.3750000   0.1250000   0.3750000), wk =   0.0000000
        k(   75) = (  -1.1250000   0.3750000  -0.3750000), wk =   0.0625000
        k(   76) = (  -1.1250000   0.8750000  -0.3750000), wk =   0.0000000
        k(   77) = (  -0.3750000   1.1250000  -0.3750000), wk =   0.0312500
        k(   78) = (  -0.3750000   1.6250000  -0.3750000), wk =   0.0000000
        k(   79) = (  -0.3750000  -1.1250000  -0.3750000), wk =   0.0312500
        k(   80) = (  -0.3750000  -0.6250000  -0.3750000), wk =   0.0000000

     Dense  grid:     2741 G-vectors     FFT dimensions: (  20,  20,  20)

     Estimated max dynamical RAM per process >       0.33MB

     Estimated total allocated dynamical RAM >       1.31MB

     Check: negative/imaginary core charge=   -0.000005    0.000000

     The potential is recalculated from file :
     ./_ph0/silicon.10.335.save/charge-density.dat

     Starting wfc are    8 atomic wfcs

     Band Structure Calculation
     Davidson diagonalization with overlap

     ethr =  1.25E-10,  avg # of iterations = 11.7

     total cpu time spent up to now is        2.5 secs

     End of band structure calculation

          k =-0.1250 0.1250 0.1250 (   338 PWs)   bands (ev):

    -5.6321   4.3871   5.6958   5.6958

          k =-0.1250 0.6250 0.1250 (   351 PWs)   bands (ev):

    -4.0773   1.0567   3.3686   3.8167

          k =-0.3750 0.3750-0.1250 (   352 PWs)   bands (ev):

    -4.6087   1.3955   3.7158   5.2141

          k =-0.3750 0.8750-0.1250 (   361 PWs)   bands (ev):

    -2.4427  -0.9035   2.0215   3.0921

          k = 0.3750-0.3750 0.6250 (   361 PWs)   bands (ev):

    -3.4741  -0.6760   3.7339   4.4446

          k = 0.3750 0.1250 0.6250 (   357 PWs)   bands (ev):

    -3.6636   0.1880   2.7291   4.0922

          k = 0.1250-0.1250 0.3750 (   353 PWs)   bands (ev):

    -5.1060   2.7688   4.6894   4.7528

          k = 0.1250 0.3750 0.3750 (   352 PWs)   bands (ev):

    -4.6087   1.3955   3.7158   5.2141

          k =-0.1250 0.6250 0.1250 (   351 PWs)   bands (ev):

    -4.0773   1.0567   3.3686   3.8167

          k =-0.1250 1.1250 0.1250 (   358 PWs)   bands (ev):

    -2.6089  -0.8065   2.6271   3.3504

          k = 0.6250-0.1250 0.8750 (   361 PWs)   bands (ev):

    -2.4427  -0.9035   2.0215   3.0921

          k = 0.6250 0.3750 0.8750 (   357 PWs)   bands (ev):

    -3.6636   0.1880   2.7291   4.0922

          k = 0.3750 0.1250 0.6250 (   357 PWs)   bands (ev):

    -3.6636   0.1880   2.7291   4.0922

          k = 0.3750 0.6250 0.6250 (   361 PWs)   bands (ev):

    -3.4741  -0.6760   3.7339   4.4446

          k =-0.1250-0.8750 0.1250 (   358 PWs)   bands (ev):

    -2.6089  -0.8065   2.6271   3.3504

          k =-0.1250-0.3750 0.1250 (   353 PWs)   bands (ev):

    -5.1060   2.7688   4.6894   4.7528

          k =-0.3750 0.3750 0.3750 (   353 PWs)   bands (ev):

    -4.1780   0.1108   4.9080   4.9080

          k =-0.3750 0.8750 0.3750 (   361 PWs)   bands (ev):

    -2.9792  -0.5969   2.0781   4.1289

          k = 0.3750-0.3750 1.1250 (   361 PWs)   bands (ev):

    -2.9792  -0.5969   2.0781   4.1289

          k = 0.3750 0.1250 1.1250 (   361 PWs)   bands (ev):

    -2.4427  -0.9035   2.0215   3.0921

          k =-0.1250-0.1250 0.1250 (   338 PWs)   bands (ev):

    -5.6321   4.3871   5.6958   5.6958

          k =-0.1250 0.3750 0.1250 (   353 PWs)   bands (ev):

    -5.1060   2.7688   4.6894   4.7528

          k = 0.1250-0.3750 0.3750 (   352 PWs)   bands (ev):

    -4.6087   1.3955   3.7158   5.2141

          k = 0.1250 0.1250 0.3750 (   353 PWs)   bands (ev):

    -5.1060   2.7688   4.6894   4.7528

          k = 0.3750-0.1250 0.3750 (   352 PWs)   bands (ev):

    -4.6087   1.3955   3.7158   5.2141

          k = 0.3750 0.3750 0.3750 (   353 PWs)   bands (ev):

    -4.1780   0.1108   4.9080   4.9080

          k = 0.3750 0.1250 0.3750 (   352 PWs)   bands (ev):

    -4.6087   1.3955   3.7158   5.2141

          k = 0.3750 0.6250 0.3750 (   361 PWs)   bands (ev):

    -3.4741  -0.6760   3.7339   4.4446

          k =-0.6250 0.3750-0.3750 (   361 PWs)   bands (ev):

    -3.4741  -0.6760   3.7339   4.4446

          k =-0.6250 0.8750-0.3750 (   357 PWs)   bands (ev):

    -3.6636   0.1880   2.7291   4.0922

          k =-0.3750 0.6250-0.3750 (   361 PWs)   bands (ev):

    -3.4741  -0.6760   3.7339   4.4446

          k =-0.3750 1.1250-0.3750 (   361 PWs)   bands (ev):

    -2.9792  -0.5969   2.0781   4.1289

          k =-0.3750-0.6250-0.3750 (   361 PWs)   bands (ev):

    -3.4741  -0.6760   3.7339   4.4446

          k =-0.3750-0.1250-0.3750 (   352 PWs)   bands (ev):

    -4.6087   1.3955   3.7158   5.2141

          k =-0.3750 0.1250-0.1250 (   353 PWs)   bands (ev):

    -5.1060   2.7688   4.6894   4.7528

          k =-0.3750 0.6250-0.1250 (   357 PWs)   bands (ev):

    -3.6636   0.1880   2.7291   4.0922

          k =-0.1250 0.3750-0.1250 (   353 PWs)   bands (ev):

    -5.1060   2.7688   4.6894   4.7528

          k =-0.1250 0.8750-0.1250 (   358 PWs)   bands (ev):

    -2.6089  -0.8065   2.6271   3.3504

          k =-0.1250-0.3750-0.1250 (   353 PWs)   bands (ev):

    -5.1060   2.7688   4.6894   4.7528

          k =-0.1250 0.1250-0.1250 (   338 PWs)   bands (ev):

    -5.6321   4.3871   5.6958   5.6958

          k =-0.1250-0.6250 0.1250 (   351 PWs)   bands (ev):

    -4.0773   1.0567   3.3686   3.8167

          k =-0.1250-0.1250 0.1250 (   338 PWs)   bands (ev):

    -5.6321   4.3871   5.6958   5.6958

          k = 0.6250-0.1250-0.1250 (   351 PWs)   bands (ev):

    -4.0773   1.0567   3.3686   3.8167

          k = 0.6250 0.3750-0.1250 (   357 PWs)   bands (ev):

    -3.6636   0.1880   2.7291   4.0922

          k = 0.6250 0.1250 0.1250 (   351 PWs)   bands (ev):

    -4.0773   1.0567   3.3686   3.8167

          k = 0.6250 0.6250 0.1250 (   361 PWs)   bands (ev):

    -2.9792  -0.5969   2.0781   4.1289

          k =-0.8750 0.1250-0.6250 (   361 PWs)   bands (ev):

    -2.4427  -0.9035   2.0215   3.0921

          k =-0.8750 0.6250-0.6250 (   352 PWs)   bands (ev):

    -4.6087   1.3955   3.7158   5.2141

          k =-0.1250 0.6250-0.8750 (   361 PWs)   bands (ev):

    -2.4427  -0.9035   2.0215   3.0921

          k =-0.1250 1.1250-0.8750 (   358 PWs)   bands (ev):

    -2.6089  -0.8065   2.6271   3.3504

          k =-0.1250 0.8750-0.6250 (   361 PWs)   bands (ev):

    -2.4427  -0.9035   2.0215   3.0921

          k =-0.1250 1.3750-0.6250 (   361 PWs)   bands (ev):

    -2.9792  -0.5969   2.0781   4.1289

          k =-0.1250-0.8750-0.6250 (   361 PWs)   bands (ev):

    -2.4427  -0.9035   2.0215   3.0921

          k =-0.1250-0.3750-0.6250 (   357 PWs)   bands (ev):

    -3.6636   0.1880   2.7291   4.0922

          k = 0.8750-0.6250 0.1250 (   361 PWs)   bands (ev):

    -2.4427  -0.9035   2.0215   3.0921

          k = 0.8750-0.1250 0.1250 (   358 PWs)   bands (ev):

    -2.6089  -0.8065   2.6271   3.3504

          k =-0.6250-0.1250-0.3750 (   357 PWs)   bands (ev):

    -3.6636   0.1880   2.7291   4.0922

          k =-0.6250 0.3750-0.3750 (   361 PWs)   bands (ev):

    -3.4741  -0.6760   3.7339   4.4446

          k = 0.1250 0.3750-0.6250 (   357 PWs)   bands (ev):

    -3.6636   0.1880   2.7291   4.0922

          k = 0.1250 0.8750-0.6250 (   361 PWs)   bands (ev):

    -2.4427  -0.9035   2.0215   3.0921

          k = 0.1250 0.6250-0.3750 (   357 PWs)   bands (ev):

    -3.6636   0.1880   2.7291   4.0922

          k = 0.1250 1.1250-0.3750 (   361 PWs)   bands (ev):

    -2.4427  -0.9035   2.0215   3.0921

          k = 0.1250-0.6250-0.3750 (   357 PWs)   bands (ev):

    -3.6636   0.1880   2.7291   4.0922

          k = 0.1250-0.1250-0.3750 (   353 PWs)   bands (ev):

    -5.1060   2.7688   4.6894   4.7528

          k = 0.6250-0.3750-0.1250 (   357 PWs)   bands (ev):

    -3.6636   0.1880   2.7291   4.0922

          k = 0.6250 0.1250-0.1250 (   351 PWs)   bands (ev):

    -4.0773   1.0567   3.3686   3.8167

          k =-0.1250 0.8750 0.1250 (   358 PWs)   bands (ev):

    -2.6089  -0.8065   2.6271   3.3504

          k =-0.1250 1.3750 0.1250 (   351 PWs)   bands (ev):

    -4.0773   1.0567   3.3686   3.8167

          k =-0.8750-0.1250-0.1250 (   358 PWs)   bands (ev):

    -2.6089  -0.8065   2.6271   3.3504

          k =-0.8750 0.3750-0.1250 (   361 PWs)   bands (ev):

    -2.4427  -0.9035   2.0215   3.0921

          k =-0.8750 0.1250 0.1250 (   358 PWs)   bands (ev):

    -2.6089  -0.8065   2.6271   3.3504

          k =-0.8750 0.6250 0.1250 (   361 PWs)   bands (ev):

    -2.4427  -0.9035   2.0215   3.0921

          k =-0.3750-0.3750 0.3750 (   353 PWs)   bands (ev):

    -4.1780   0.1108   4.9080   4.9080

          k =-0.3750 0.1250 0.3750 (   352 PWs)   bands (ev):

    -4.6087   1.3955   3.7158   5.2141

          k =-1.1250 0.3750-0.3750 (   361 PWs)   bands (ev):

    -2.9792  -0.5969   2.0781   4.1289

          k =-1.1250 0.8750-0.3750 (   351 PWs)   bands (ev):

    -4.0773   1.0567   3.3686   3.8167

          k =-0.3750 1.1250-0.3750 (   361 PWs)   bands (ev):

    -2.9792  -0.5969   2.0781   4.1289

          k =-0.3750 1.6250-0.3750 (   353 PWs)   bands (ev):

    -4.1780   0.1108   4.9080   4.9080

          k =-0.3750-1.1250-0.3750 (   361 PWs)   bands (ev):

    -2.9792  -0.5969   2.0781   4.1289

          k =-0.3750-0.6250-0.3750 (   361 PWs)   bands (ev):

    -3.4741  -0.6760   3.7339   4.4446

     highest occupied level (ev):     5.6958

     Writing output data file silicon.10.335.save

                                                                                

     bravais-lattice index     =            2
     lattice parameter (alat)  =      10.3350  a.u.
     unit-cell volume          =     275.9761 (a.u.)^3
     number of atoms/cell      =            2
     number of atomic types    =            1
     kinetic-energy cut-off    =      18.0000  Ry
     charge density cut-off    =      72.0000  Ry
     convergence threshold     =      1.0E-12
     beta                      =       0.7000
     number of iterations used =            4
     Exchange-correlation      = SLA  PW   PBE  PBE ( 1  4  3  4 0 0)


     celldm(1)=   10.33500  celldm(2)=    0.00000  celldm(3)=    0.00000
     celldm(4)=    0.00000  celldm(5)=    0.00000  celldm(6)=    0.00000

     crystal axes: (cart. coord. in units of alat)
               a(1) = ( -0.5000  0.0000  0.5000 )  
               a(2) = (  0.0000  0.5000  0.5000 )  
               a(3) = ( -0.5000  0.5000  0.0000 )  

     reciprocal axes: (cart. coord. in units 2 pi/alat)
               b(1) = ( -1.0000 -1.0000  1.0000 )  
               b(2) = (  1.0000  1.0000  1.0000 )  
               b(3) = ( -1.0000  1.0000 -1.0000 )  


     Atoms inside the unit cell: 

     Cartesian axes

     site n.  atom      mass           positions (alat units)
        1     Si  28.0860   tau(    1) = (    0.00000    0.00000    0.00000  )
        2     Si  28.0860   tau(    2) = (    0.25000    0.25000    0.25000  )

     Computing dynamical matrix for 
                    q = (   0.0000000   0.5000000   0.0000000 )

      8 Sym.Ops. (no q -> -q+G )


     G cutoff =  194.8021  (    685 G-vectors)     FFT grid: ( 20, 20, 20)
     number of k points=    80

     PseudoPot. # 1 for Si read from file:
     /home/max/quantum_espresso/qe-6.1/pseudo/si_pbe_v1.uspp.F.UPF.txt
     MD5 check sum: a056efeee980c13900f22a371efd63c1
     Pseudo is Ultrasoft + core correction, Zval =  4.0
     Generated by new atomic code, or converted to UPF format
     Using radial grid of  899 points,  6 beta functions with: 
                l(1) =   0
                l(2) =   0
                l(3) =   1
                l(4) =   1
                l(5) =   2
                l(6) =   2
     Q(r) pseudized with  8 coefficients,  rinner =    0.900   0.900   0.900
                                                       0.900   0.900

     Mode symmetry, C_4v (4mm)  point group:


     Atomic displacements:
     There are   4 irreducible representations

     Representation     1      1 modes -A_1  G_1 D_1  To be done

     Representation     2      1 modes -B_2  G_4 D_2'  To be done

     Representation     3      2 modes -E    G_5 D_5  To be done

     Representation     4      2 modes -E    G_5 D_5  To be done



     Alpha used in Ewald sum =   0.7000
     PHONON       :    22.78s CPU        25.94s WALL



     Representation #  1 mode #   1

     Self-consistent Calculation

      iter #   1 total cpu time :    26.1 secs   av.it.:   5.8
      thresh= 1.000E-02 alpha_mix =  0.700 |ddv_scf|^2 =  2.970E-03

      iter #   2 total cpu time :    26.3 secs   av.it.:   7.7
      thresh= 5.450E-03 alpha_mix =  0.700 |ddv_scf|^2 =  3.908E-02

      iter #   3 total cpu time :    26.5 secs   av.it.:   6.7
      thresh= 1.000E-02 alpha_mix =  0.700 |ddv_scf|^2 =  1.382E-07

      iter #   4 total cpu time :    26.7 secs   av.it.:   8.2
      thresh= 3.717E-05 alpha_mix =  0.700 |ddv_scf|^2 =  1.254E-08

      iter #   5 total cpu time :    27.1 secs   av.it.:   7.8
      thresh= 1.120E-05 alpha_mix =  0.700 |ddv_scf|^2 =  7.442E-10

      iter #   6 total cpu time :    27.3 secs   av.it.:   7.8
      thresh= 2.728E-06 alpha_mix =  0.700 |ddv_scf|^2 =  2.741E-12

      iter #   7 total cpu time :    27.5 secs   av.it.:   7.9
      thresh= 1.656E-07 alpha_mix =  0.700 |ddv_scf|^2 =  5.430E-13

     End of self-consistent calculation

     Convergence has been achieved 


     Representation #  2 mode #   2

     Self-consistent Calculation

      iter #   1 total cpu time :    27.7 secs   av.it.:   4.9
      thresh= 1.000E-02 alpha_mix =  0.700 |ddv_scf|^2 =  5.516E-06

      iter #   2 total cpu time :    27.9 secs   av.it.:   8.7
      thresh= 2.349E-04 alpha_mix =  0.700 |ddv_scf|^2 =  1.336E-06

      iter #   3 total cpu time :    28.1 secs   av.it.:   8.5
      thresh= 1.156E-04 alpha_mix =  0.700 |ddv_scf|^2 =  4.297E-08

      iter #   4 total cpu time :    28.3 secs   av.it.:   8.2
      thresh= 2.073E-05 alpha_mix =  0.700 |ddv_scf|^2 =  7.001E-10

      iter #   5 total cpu time :    28.5 secs   av.it.:   8.6
      thresh= 2.646E-06 alpha_mix =  0.700 |ddv_scf|^2 =  6.914E-12

      iter #   6 total cpu time :    28.7 secs   av.it.:   7.9
      thresh= 2.629E-07 alpha_mix =  0.700 |ddv_scf|^2 =  7.006E-14

     End of self-consistent calculation

     Convergence has been achieved 


     Representation #  3 modes #   3  4

     Self-consistent Calculation

      iter #   1 total cpu time :    29.3 secs   av.it.:   5.0
      thresh= 1.000E-02 alpha_mix =  0.700 |ddv_scf|^2 =  1.026E-06

      iter #   2 total cpu time :    29.7 secs   av.it.:   9.7
      thresh= 1.013E-04 alpha_mix =  0.700 |ddv_scf|^2 =  1.269E-07

      iter #   3 total cpu time :    30.2 secs   av.it.:   9.5
      thresh= 3.562E-05 alpha_mix =  0.700 |ddv_scf|^2 =  6.725E-09

      iter #   4 total cpu time :    30.6 secs   av.it.:   8.8
      thresh= 8.201E-06 alpha_mix =  0.700 |ddv_scf|^2 =  9.397E-12

      iter #   5 total cpu time :    31.2 secs   av.it.:   9.1
      thresh= 3.065E-07 alpha_mix =  0.700 |ddv_scf|^2 =  2.860E-13

     End of self-consistent calculation

     Convergence has been achieved 


     Representation #  4 modes #   5  6

     Self-consistent Calculation

      iter #   1 total cpu time :    31.6 secs   av.it.:   5.0
      thresh= 1.000E-02 alpha_mix =  0.700 |ddv_scf|^2 =  9.086E-07

      iter #   2 total cpu time :    32.1 secs   av.it.:   9.8
      thresh= 9.532E-05 alpha_mix =  0.700 |ddv_scf|^2 =  1.150E-07

      iter #   3 total cpu time :    32.5 secs   av.it.:   9.4
      thresh= 3.392E-05 alpha_mix =  0.700 |ddv_scf|^2 =  6.171E-09

      iter #   4 total cpu time :    33.2 secs   av.it.:   8.9
      thresh= 7.856E-06 alpha_mix =  0.700 |ddv_scf|^2 =  1.406E-11

      iter #   5 total cpu time :    33.6 secs   av.it.:   9.2
      thresh= 3.750E-07 alpha_mix =  0.700 |ddv_scf|^2 =  4.330E-14

     End of self-consistent calculation

     Convergence has been achieved 

     Number of q in the star =    6
     List of q in the star:
          1   0.000000000   0.500000000   0.000000000
          2   0.000000000  -0.500000000   0.000000000
          3   0.500000000   0.000000000   0.000000000
          4   0.000000000   0.000000000   0.500000000
          5   0.000000000   0.000000000  -0.500000000
          6  -0.500000000   0.000000000   0.000000000

     Diagonalizing the dynamical matrix

     q = (    0.000000000   0.500000000   0.000000000 ) 

 **************************************************************************
     freq (    1) =       4.220105 [THz] =     140.767560 [cm-1]
     freq (    2) =       4.220105 [THz] =     140.767560 [cm-1]
     freq (    3) =       7.182033 [THz] =     239.566847 [cm-1]
     freq (    4) =      13.697637 [THz] =     456.903999 [cm-1]
     freq (    5) =      13.697637 [THz] =     456.903999 [cm-1]
     freq (    6) =      14.312122 [THz] =     477.400993 [cm-1]
 **************************************************************************

     Mode symmetry, C_4v (4mm)  point group:

     freq (  1 -  2) =        140.8  [cm-1]   --> E    G_5 D_5       
     freq (  3 -  3) =        239.6  [cm-1]   --> A_1  G_1 D_1       
     freq (  4 -  5) =        456.9  [cm-1]   --> E    G_5 D_5       
     freq (  6 -  6) =        477.4  [cm-1]   --> B_2  G_4 D_2'      

     Calculation of q =    0.7500000  -0.2500000   0.7500000

   Info: using nr1, nr2, nr3 values from input

   Info: using nr1, nr2, nr3 values from input

     Parallelization info
     --------------------
     sticks:   dense  smooth     PW     G-vecs:    dense   smooth      PW
     Min          63      63     30                  684      684     216
     Max          64      64     31                  688      688     218
     Sum         253     253    121                 2741     2741     869



     bravais-lattice index     =            2
     lattice parameter (alat)  =      10.3350  a.u.
     unit-cell volume          =     275.9761 (a.u.)^3
     number of atoms/cell      =            2
     number of atomic types    =            1
     number of electrons       =         8.00
     number of Kohn-Sham states=            4
     kinetic-energy cutoff     =      18.0000  Ry
     charge density cutoff     =      72.0000  Ry
     Exchange-correlation      = SLA  PW   PBE  PBE ( 1  4  3  4 0 0)

     celldm(1)=  10.335000  celldm(2)=   0.000000  celldm(3)=   0.000000
     celldm(4)=   0.000000  celldm(5)=   0.000000  celldm(6)=   0.000000

     crystal axes: (cart. coord. in units of alat)
               a(1) = (  -0.500000   0.000000   0.500000 )  
               a(2) = (   0.000000   0.500000   0.500000 )  
               a(3) = (  -0.500000   0.500000   0.000000 )  

     reciprocal axes: (cart. coord. in units 2 pi/alat)
               b(1) = ( -1.000000 -1.000000  1.000000 )  
               b(2) = (  1.000000  1.000000  1.000000 )  
               b(3) = ( -1.000000  1.000000 -1.000000 )  


     PseudoPot. # 1 for Si read from file:
     /home/max/quantum_espresso/qe-6.1/pseudo/si_pbe_v1.uspp.F.UPF.txt
     MD5 check sum: a056efeee980c13900f22a371efd63c1
     Pseudo is Ultrasoft + core correction, Zval =  4.0
     Generated by new atomic code, or converted to UPF format
     Using radial grid of  899 points,  6 beta functions with: 
                l(1) =   0
                l(2) =   0
                l(3) =   1
                l(4) =   1
                l(5) =   2
                l(6) =   2
     Q(r) pseudized with  8 coefficients,  rinner =    0.900   0.900   0.900
                                                       0.900   0.900

     atomic species   valence    mass     pseudopotential
        Si             4.00    28.08600     Si( 1.00)

     48 Sym. Ops., with inversion, found



   Cartesian axes

     site n.     atom                  positions (alat units)
         1           Si  tau(   1) = (   0.0000000   0.0000000   0.0000000  )
         2           Si  tau(   2) = (   0.2500000   0.2500000   0.2500000  )

     number of k points=   288

     Number of k-points >= 100: set verbosity='high' to print them.

     Dense  grid:     2741 G-vectors     FFT dimensions: (  20,  20,  20)

     Estimated max dynamical RAM per process >       0.33MB

     Estimated total allocated dynamical RAM >       1.31MB

     Check: negative/imaginary core charge=   -0.000005    0.000000

     The potential is recalculated from file :
     ./_ph0/silicon.10.335.save/charge-density.dat

     Starting wfc are    8 atomic wfcs

     Band Structure Calculation
     Davidson diagonalization with overlap

     ethr =  1.25E-10,  avg # of iterations = 11.6

     total cpu time spent up to now is        4.9 secs

     End of band structure calculation

     Number of k-points >= 100: set verbosity='high' to print the bands.

     highest occupied level (ev):     5.6958

     Writing output data file silicon.10.335.save

                                                                                

     bravais-lattice index     =            2
     lattice parameter (alat)  =      10.3350  a.u.
     unit-cell volume          =     275.9761 (a.u.)^3
     number of atoms/cell      =            2
     number of atomic types    =            1
     kinetic-energy cut-off    =      18.0000  Ry
     charge density cut-off    =      72.0000  Ry
     convergence threshold     =      1.0E-12
     beta                      =       0.7000
     number of iterations used =            4
     Exchange-correlation      = SLA  PW   PBE  PBE ( 1  4  3  4 0 0)


     celldm(1)=   10.33500  celldm(2)=    0.00000  celldm(3)=    0.00000
     celldm(4)=    0.00000  celldm(5)=    0.00000  celldm(6)=    0.00000

     crystal axes: (cart. coord. in units of alat)
               a(1) = ( -0.5000  0.0000  0.5000 )  
               a(2) = (  0.0000  0.5000  0.5000 )  
               a(3) = ( -0.5000  0.5000  0.0000 )  

     reciprocal axes: (cart. coord. in units 2 pi/alat)
               b(1) = ( -1.0000 -1.0000  1.0000 )  
               b(2) = (  1.0000  1.0000  1.0000 )  
               b(3) = ( -1.0000  1.0000 -1.0000 )  


     Atoms inside the unit cell: 

     Cartesian axes

     site n.  atom      mass           positions (alat units)
        1     Si  28.0860   tau(    1) = (    0.00000    0.00000    0.00000  )
        2     Si  28.0860   tau(    2) = (    0.25000    0.25000    0.25000  )

     Computing dynamical matrix for 
                    q = (   0.7500000  -0.2500000   0.7500000 )

      2 Sym.Ops. (no q -> -q+G )


     G cutoff =  194.8021  (    685 G-vectors)     FFT grid: ( 20, 20, 20)
     number of k points=   288

     PseudoPot. # 1 for Si read from file:
     /home/max/quantum_espresso/qe-6.1/pseudo/si_pbe_v1.uspp.F.UPF.txt
     MD5 check sum: a056efeee980c13900f22a371efd63c1
     Pseudo is Ultrasoft + core correction, Zval =  4.0
     Generated by new atomic code, or converted to UPF format
     Using radial grid of  899 points,  6 beta functions with: 
                l(1) =   0
                l(2) =   0
                l(3) =   1
                l(4) =   1
                l(5) =   2
                l(6) =   2
     Q(r) pseudized with  8 coefficients,  rinner =    0.900   0.900   0.900
                                                       0.900   0.900

     Mode symmetry, C_s (m)     point group:


     Atomic displacements:
     There are   6 irreducible representations

     Representation     1      1 modes -A'  To be done

     Representation     2      1 modes -A'  To be done

     Representation     3      1 modes -A'  To be done

     Representation     4      1 modes -A'  To be done

     Representation     5      1 modes -A''  To be done

     Representation     6      1 modes -A''  To be done



     Alpha used in Ewald sum =   0.7000
     PHONON       :    32.55s CPU        36.77s WALL



     Representation #  1 mode #   1

     Self-consistent Calculation

      iter #   1 total cpu time :    37.5 secs   av.it.:   5.3
      thresh= 1.000E-02 alpha_mix =  0.700 |ddv_scf|^2 =  6.117E-05

      iter #   2 total cpu time :    38.3 secs   av.it.:   8.9
      thresh= 7.821E-04 alpha_mix =  0.700 |ddv_scf|^2 =  1.601E-04

      iter #   3 total cpu time :    39.1 secs   av.it.:   7.6
      thresh= 1.265E-03 alpha_mix =  0.700 |ddv_scf|^2 =  1.140E-06

      iter #   4 total cpu time :    39.9 secs   av.it.:   8.4
      thresh= 1.068E-04 alpha_mix =  0.700 |ddv_scf|^2 =  5.668E-08

      iter #   5 total cpu time :    40.6 secs   av.it.:   8.3
      thresh= 2.381E-05 alpha_mix =  0.700 |ddv_scf|^2 =  7.276E-09

      iter #   6 total cpu time :    41.5 secs   av.it.:   8.5
      thresh= 8.530E-06 alpha_mix =  0.700 |ddv_scf|^2 =  7.978E-11

      iter #   7 total cpu time :    42.3 secs   av.it.:   8.8
      thresh= 8.932E-07 alpha_mix =  0.700 |ddv_scf|^2 =  2.884E-12

      iter #   8 total cpu time :    43.2 secs   av.it.:   8.6
      thresh= 1.698E-07 alpha_mix =  0.700 |ddv_scf|^2 =  1.796E-13

     End of self-consistent calculation

     Convergence has been achieved 


     Representation #  2 mode #   2

     Self-consistent Calculation

      iter #   1 total cpu time :    43.8 secs   av.it.:   5.4
      thresh= 1.000E-02 alpha_mix =  0.700 |ddv_scf|^2 =  1.089E-04

      iter #   2 total cpu time :    44.5 secs   av.it.:   8.7
      thresh= 1.044E-03 alpha_mix =  0.700 |ddv_scf|^2 =  3.104E-04

      iter #   3 total cpu time :    45.4 secs   av.it.:   7.4
      thresh= 1.762E-03 alpha_mix =  0.700 |ddv_scf|^2 =  7.832E-07

      iter #   4 total cpu time :    46.1 secs   av.it.:   8.5
      thresh= 8.850E-05 alpha_mix =  0.700 |ddv_scf|^2 =  5.616E-08

      iter #   5 total cpu time :    46.9 secs   av.it.:   8.2
      thresh= 2.370E-05 alpha_mix =  0.700 |ddv_scf|^2 =  1.028E-08

      iter #   6 total cpu time :    47.8 secs   av.it.:   8.5
      thresh= 1.014E-05 alpha_mix =  0.700 |ddv_scf|^2 =  7.900E-11

      iter #   7 total cpu time :    48.5 secs   av.it.:   8.8
      thresh= 8.888E-07 alpha_mix =  0.700 |ddv_scf|^2 =  2.512E-12

      iter #   8 total cpu time :    49.4 secs   av.it.:   8.7
      thresh= 1.585E-07 alpha_mix =  0.700 |ddv_scf|^2 =  5.949E-13

     End of self-consistent calculation

     Convergence has been achieved 


     Representation #  3 mode #   3

     Self-consistent Calculation

      iter #   1 total cpu time :    50.1 secs   av.it.:   5.3
      thresh= 1.000E-02 alpha_mix =  0.700 |ddv_scf|^2 =  8.537E-05

      iter #   2 total cpu time :    50.9 secs   av.it.:   8.8
      thresh= 9.240E-04 alpha_mix =  0.700 |ddv_scf|^2 =  2.278E-04

      iter #   3 total cpu time :    51.7 secs   av.it.:   7.4
      thresh= 1.509E-03 alpha_mix =  0.700 |ddv_scf|^2 =  1.337E-06

      iter #   4 total cpu time :    52.4 secs   av.it.:   8.2
      thresh= 1.156E-04 alpha_mix =  0.700 |ddv_scf|^2 =  5.722E-08

      iter #   5 total cpu time :    53.4 secs   av.it.:   8.4
      thresh= 2.392E-05 alpha_mix =  0.700 |ddv_scf|^2 =  1.054E-08

      iter #   6 total cpu time :    54.1 secs   av.it.:   8.5
      thresh= 1.027E-05 alpha_mix =  0.700 |ddv_scf|^2 =  4.630E-11

      iter #   7 total cpu time :    55.1 secs   av.it.:   8.7
      thresh= 6.804E-07 alpha_mix =  0.700 |ddv_scf|^2 =  1.595E-12

      iter #   8 total cpu time :    55.9 secs   av.it.:   8.8
      thresh= 1.263E-07 alpha_mix =  0.700 |ddv_scf|^2 =  2.441E-13

     End of self-consistent calculation

     Convergence has been achieved 


     Representation #  4 mode #   4

     Self-consistent Calculation

      iter #   1 total cpu time :    56.5 secs   av.it.:   5.2
      thresh= 1.000E-02 alpha_mix =  0.700 |ddv_scf|^2 =  3.768E-05

      iter #   2 total cpu time :    57.5 secs   av.it.:   8.9
[...]
        k(   59) = (  -0.8750000   0.1250000  -0.1250000), wk =   0.0625000
        k(   60) = (  -1.3750000  -0.8750000  -0.1250000), wk =   0.0000000
        k(   61) = (  -1.1250000   0.3750000  -0.3750000), wk =   0.0625000
        k(   62) = (  -1.6250000  -0.6250000  -0.3750000), wk =   0.0000000
        k(   63) = (  -0.3750000   0.3750000   1.1250000), wk =   0.0625000
        k(   64) = (  -0.8750000  -0.6250000   1.1250000), wk =   0.0000000

     Dense  grid:     2741 G-vectors     FFT dimensions: (  20,  20,  20)

     Estimated max dynamical RAM per process >       0.33MB

     Estimated total allocated dynamical RAM >       1.31MB

     Check: negative/imaginary core charge=   -0.000005    0.000000

     The potential is recalculated from file :
     ./_ph0/silicon.10.335.save/charge-density.dat

     Starting wfc are    8 atomic wfcs

     Band Structure Calculation
     Davidson diagonalization with overlap

     ethr =  1.25E-10,  avg # of iterations = 11.6

     total cpu time spent up to now is        7.5 secs

     End of band structure calculation

          k =-0.1250 0.1250 0.1250 (   338 PWs)   bands (ev):

    -5.6321   4.3871   5.6958   5.6958

          k =-0.6250-0.8750 0.1250 (   361 PWs)   bands (ev):

    -2.4427  -0.9035   2.0215   3.0921

          k =-0.3750 0.3750-0.1250 (   352 PWs)   bands (ev):

    -4.6087   1.3955   3.7158   5.2141

          k =-0.8750-0.6250-0.1250 (   361 PWs)   bands (ev):

    -2.4427  -0.9035   2.0215   3.0921

          k = 0.3750-0.3750 0.6250 (   361 PWs)   bands (ev):

    -3.4741  -0.6760   3.7339   4.4446

          k =-0.1250-1.3750 0.6250 (   361 PWs)   bands (ev):

    -2.9792  -0.5969   2.0781   4.1289

          k = 0.1250-0.1250 0.3750 (   353 PWs)   bands (ev):

    -5.1060   2.7688   4.6894   4.7528

          k =-0.3750-1.1250 0.3750 (   361 PWs)   bands (ev):

    -2.9792  -0.5969   2.0781   4.1289

          k =-0.1250 0.6250 0.1250 (   351 PWs)   bands (ev):

    -4.0773   1.0567   3.3686   3.8167

          k =-0.6250-0.3750 0.1250 (   357 PWs)   bands (ev):

    -3.6636   0.1880   2.7291   4.0922

          k = 0.6250-0.1250 0.8750 (   361 PWs)   bands (ev):

    -2.4427  -0.9035   2.0215   3.0921

          k = 0.1250-1.1250 0.8750 (   358 PWs)   bands (ev):

    -2.6089  -0.8065   2.6271   3.3504

          k = 0.3750 0.1250 0.6250 (   357 PWs)   bands (ev):

    -3.6636   0.1880   2.7291   4.0922

          k =-0.1250-0.8750 0.6250 (   361 PWs)   bands (ev):

    -2.4427  -0.9035   2.0215   3.0921

          k =-0.1250-0.8750 0.1250 (   358 PWs)   bands (ev):

    -2.6089  -0.8065   2.6271   3.3504

          k =-0.6250-1.8750 0.1250 (   351 PWs)   bands (ev):

    -4.0773   1.0567   3.3686   3.8167

          k =-0.3750 0.3750 0.3750 (   353 PWs)   bands (ev):

    -4.1780   0.1108   4.9080   4.9080

          k =-0.8750-0.6250 0.3750 (   357 PWs)   bands (ev):

    -3.6636   0.1880   2.7291   4.0922

          k = 0.3750-0.3750 1.1250 (   361 PWs)   bands (ev):

    -2.9792  -0.5969   2.0781   4.1289

          k =-0.1250-1.3750 1.1250 (   361 PWs)   bands (ev):

    -2.4427  -0.9035   2.0215   3.0921

          k = 0.1250-0.3750 0.3750 (   352 PWs)   bands (ev):

    -4.6087   1.3955   3.7158   5.2141

          k =-0.3750-1.3750 0.3750 (   361 PWs)   bands (ev):

    -3.4741  -0.6760   3.7339   4.4446

          k = 0.3750-0.3750-0.1250 (   352 PWs)   bands (ev):

    -4.6087   1.3955   3.7158   5.2141

          k =-0.1250-1.3750-0.1250 (   351 PWs)   bands (ev):

    -4.0773   1.0567   3.3686   3.8167

          k =-0.6250 0.3750-0.3750 (   361 PWs)   bands (ev):

    -3.4741  -0.6760   3.7339   4.4446

          k =-1.1250-0.6250-0.3750 (   357 PWs)   bands (ev):

    -3.6636   0.1880   2.7291   4.0922

          k =-0.3750 0.3750 0.6250 (   361 PWs)   bands (ev):

    -3.4741  -0.6760   3.7339   4.4446

          k =-0.8750-0.6250 0.6250 (   352 PWs)   bands (ev):

    -4.6087   1.3955   3.7158   5.2141

          k =-0.3750 0.1250-0.1250 (   353 PWs)   bands (ev):

    -5.1060   2.7688   4.6894   4.7528

          k =-0.8750-0.8750-0.1250 (   358 PWs)   bands (ev):

    -2.6089  -0.8065   2.6271   3.3504

          k =-0.1250 0.1250 0.3750 (   353 PWs)   bands (ev):

    -5.1060   2.7688   4.6894   4.7528

          k =-0.6250-0.8750 0.3750 (   357 PWs)   bands (ev):

    -3.6636   0.1880   2.7291   4.0922

          k = 0.1250 0.6250-0.1250 (   351 PWs)   bands (ev):

    -4.0773   1.0567   3.3686   3.8167

          k =-0.3750-0.3750-0.1250 (   352 PWs)   bands (ev):

    -4.6087   1.3955   3.7158   5.2141

          k = 0.6250 0.1250-0.1250 (   351 PWs)   bands (ev):

    -4.0773   1.0567   3.3686   3.8167

          k = 0.1250-0.8750-0.1250 (   358 PWs)   bands (ev):

    -2.6089  -0.8065   2.6271   3.3504

          k =-0.8750 0.1250-0.6250 (   361 PWs)   bands (ev):

    -2.4427  -0.9035   2.0215   3.0921

          k =-1.3750-0.8750-0.6250 (   352 PWs)   bands (ev):

    -4.6087   1.3955   3.7158   5.2141

          k = 0.8750-0.1250 0.6250 (   361 PWs)   bands (ev):

    -2.4427  -0.9035   2.0215   3.0921

          k = 0.3750-1.1250 0.6250 (   357 PWs)   bands (ev):

    -3.6636   0.1880   2.7291   4.0922

          k =-0.6250 0.1250 0.8750 (   361 PWs)   bands (ev):

    -2.4427  -0.9035   2.0215   3.0921

          k =-1.1250-0.8750 0.8750 (   338 PWs)   bands (ev):

    -5.6321   4.3871   5.6958   5.6958

          k =-0.1250 0.8750 0.6250 (   361 PWs)   bands (ev):

    -2.4427  -0.9035   2.0215   3.0921

          k =-0.6250-0.1250 0.6250 (   361 PWs)   bands (ev):

    -2.9792  -0.5969   2.0781   4.1289

          k = 0.1250 0.8750-0.6250 (   361 PWs)   bands (ev):

    -2.4427  -0.9035   2.0215   3.0921

          k =-0.3750-0.1250-0.6250 (   357 PWs)   bands (ev):

    -3.6636   0.1880   2.7291   4.0922

          k =-0.6250-0.1250-0.3750 (   357 PWs)   bands (ev):

    -3.6636   0.1880   2.7291   4.0922

          k =-1.1250-1.1250-0.3750 (   351 PWs)   bands (ev):

    -4.0773   1.0567   3.3686   3.8167

          k = 0.6250 0.1250 0.3750 (   357 PWs)   bands (ev):

    -3.6636   0.1880   2.7291   4.0922

          k = 0.1250-0.8750 0.3750 (   361 PWs)   bands (ev):

    -2.4427  -0.9035   2.0215   3.0921

          k =-0.3750-0.1250 0.6250 (   357 PWs)   bands (ev):

    -3.6636   0.1880   2.7291   4.0922

          k =-0.8750-1.1250 0.6250 (   353 PWs)   bands (ev):

    -5.1060   2.7688   4.6894   4.7528

          k = 0.1250 0.6250 0.3750 (   357 PWs)   bands (ev):

    -3.6636   0.1880   2.7291   4.0922

          k =-0.3750-0.3750 0.3750 (   353 PWs)   bands (ev):

    -4.1780   0.1108   4.9080   4.9080

          k =-0.1250 0.6250-0.3750 (   357 PWs)   bands (ev):

    -3.6636   0.1880   2.7291   4.0922

          k =-0.6250-0.3750-0.3750 (   361 PWs)   bands (ev):

    -3.4741  -0.6760   3.7339   4.4446

          k = 0.1250-0.8750-0.1250 (   358 PWs)   bands (ev):

    -2.6089  -0.8065   2.6271   3.3504

          k =-0.3750-1.8750-0.1250 (   353 PWs)   bands (ev):

    -5.1060   2.7688   4.6894   4.7528

          k =-0.8750 0.1250-0.1250 (   358 PWs)   bands (ev):

    -2.6089  -0.8065   2.6271   3.3504

          k =-1.3750-0.8750-0.1250 (   361 PWs)   bands (ev):

    -2.4427  -0.9035   2.0215   3.0921

          k =-1.1250 0.3750-0.3750 (   361 PWs)   bands (ev):

    -2.9792  -0.5969   2.0781   4.1289

          k =-1.6250-0.6250-0.3750 (   361 PWs)   bands (ev):

    -3.4741  -0.6760   3.7339   4.4446

          k =-0.3750 0.3750 1.1250 (   361 PWs)   bands (ev):

    -2.9792  -0.5969   2.0781   4.1289

          k =-0.8750-0.6250 1.1250 (   353 PWs)   bands (ev):

    -5.1060   2.7688   4.6894   4.7528

     highest occupied level (ev):     5.6958

     Writing output data file silicon.10.335.save

                                                                                

     bravais-lattice index     =            2
     lattice parameter (alat)  =      10.3350  a.u.
     unit-cell volume          =     275.9761 (a.u.)^3
     number of atoms/cell      =            2
     number of atomic types    =            1
     kinetic-energy cut-off    =      18.0000  Ry
     charge density cut-off    =      72.0000  Ry
     convergence threshold     =      1.0E-12
     beta                      =       0.7000
     number of iterations used =            4
     Exchange-correlation      = SLA  PW   PBE  PBE ( 1  4  3  4 0 0)


     celldm(1)=   10.33500  celldm(2)=    0.00000  celldm(3)=    0.00000
     celldm(4)=    0.00000  celldm(5)=    0.00000  celldm(6)=    0.00000

     crystal axes: (cart. coord. in units of alat)
               a(1) = ( -0.5000  0.0000  0.5000 )  
               a(2) = (  0.0000  0.5000  0.5000 )  
               a(3) = ( -0.5000  0.5000  0.0000 )  

     reciprocal axes: (cart. coord. in units 2 pi/alat)
               b(1) = ( -1.0000 -1.0000  1.0000 )  
               b(2) = (  1.0000  1.0000  1.0000 )  
               b(3) = ( -1.0000  1.0000 -1.0000 )  


     Atoms inside the unit cell: 

     Cartesian axes

     site n.  atom      mass           positions (alat units)
        1     Si  28.0860   tau(    1) = (    0.00000    0.00000    0.00000  )
        2     Si  28.0860   tau(    2) = (    0.25000    0.25000    0.25000  )

     Computing dynamical matrix for 
                    q = (  -0.5000000  -1.0000000   0.0000000 )

      8 Sym.Ops. (no q -> -q+G )


     G cutoff =  194.8021  (    685 G-vectors)     FFT grid: ( 20, 20, 20)
     number of k points=    64

     PseudoPot. # 1 for Si read from file:
     /home/max/quantum_espresso/qe-6.1/pseudo/si_pbe_v1.uspp.F.UPF.txt
     MD5 check sum: a056efeee980c13900f22a371efd63c1
     Pseudo is Ultrasoft + core correction, Zval =  4.0
     Generated by new atomic code, or converted to UPF format
     Using radial grid of  899 points,  6 beta functions with: 
                l(1) =   0
                l(2) =   0
                l(3) =   1
                l(4) =   1
                l(5) =   2
                l(6) =   2
     Q(r) pseudized with  8 coefficients,  rinner =    0.900   0.900   0.900
                                                       0.900   0.900


     Atomic displacements:
     There are   3 irreducible representations

     Representation     1      2 modes -  To be done

     Representation     2      2 modes -  To be done

     Representation     3      2 modes -  To be done



     Alpha used in Ewald sum =   0.7000
     PHONON       :  1m22.62s CPU     1m32.59s WALL



     Representation #  1 modes #   1  2

     Self-consistent Calculation

      iter #   1 total cpu time :    92.9 secs   av.it.:   5.3
      thresh= 1.000E-02 alpha_mix =  0.700 |ddv_scf|^2 =  6.331E-06

      iter #   2 total cpu time :    93.4 secs   av.it.:   9.9
      thresh= 2.516E-04 alpha_mix =  0.700 |ddv_scf|^2 =  3.428E-06

      iter #   3 total cpu time :    93.8 secs   av.it.:   9.3
      thresh= 1.851E-04 alpha_mix =  0.700 |ddv_scf|^2 =  8.456E-09

      iter #   4 total cpu time :    94.1 secs   av.it.:   9.1
      thresh= 9.196E-06 alpha_mix =  0.700 |ddv_scf|^2 =  1.916E-11

      iter #   5 total cpu time :    94.5 secs   av.it.:   9.2
      thresh= 4.378E-07 alpha_mix =  0.700 |ddv_scf|^2 =  5.300E-13

     End of self-consistent calculation

     Convergence has been achieved 


     Representation #  2 modes #   3  4

     Self-consistent Calculation

      iter #   1 total cpu time :    94.8 secs   av.it.:   5.2
      thresh= 1.000E-02 alpha_mix =  0.700 |ddv_scf|^2 =  9.813E-06

      iter #   2 total cpu time :    95.4 secs   av.it.:   9.9
      thresh= 3.133E-04 alpha_mix =  0.700 |ddv_scf|^2 =  1.306E-05

      iter #   3 total cpu time :    95.7 secs   av.it.:   9.1
      thresh= 3.614E-04 alpha_mix =  0.700 |ddv_scf|^2 =  9.946E-09

      iter #   4 total cpu time :    96.1 secs   av.it.:   8.9
      thresh= 9.973E-06 alpha_mix =  0.700 |ddv_scf|^2 =  8.107E-11

      iter #   5 total cpu time :    96.5 secs   av.it.:   9.4
      thresh= 9.004E-07 alpha_mix =  0.700 |ddv_scf|^2 =  1.741E-12

      iter #   6 total cpu time :    96.8 secs   av.it.:   9.1
      thresh= 1.319E-07 alpha_mix =  0.700 |ddv_scf|^2 =  1.445E-14

     End of self-consistent calculation

     Convergence has been achieved 


     Representation #  3 modes #   5  6

     Self-consistent Calculation

      iter #   1 total cpu time :    97.3 secs   av.it.:   5.1
      thresh= 1.000E-02 alpha_mix =  0.700 |ddv_scf|^2 =  2.650E-06

      iter #   2 total cpu time :    97.7 secs   av.it.:   9.7
      thresh= 1.628E-04 alpha_mix =  0.700 |ddv_scf|^2 =  1.446E-06

      iter #   3 total cpu time :    98.1 secs   av.it.:   9.1
      thresh= 1.203E-04 alpha_mix =  0.700 |ddv_scf|^2 =  8.334E-09

      iter #   4 total cpu time :    98.4 secs   av.it.:   8.8
      thresh= 9.129E-06 alpha_mix =  0.700 |ddv_scf|^2 =  4.279E-11

      iter #   5 total cpu time :    98.8 secs   av.it.:   9.1
      thresh= 6.542E-07 alpha_mix =  0.700 |ddv_scf|^2 =  6.998E-13

     End of self-consistent calculation

     Convergence has been achieved 

     Number of q in the star =    6
     List of q in the star:
          1  -0.500000000  -1.000000000   0.000000000
          2   0.000000000   1.000000000   0.500000000
          3   0.000000000  -1.000000000  -0.500000000
          4   0.500000000   1.000000000   0.000000000
          5  -1.000000000  -0.500000000   0.000000000
          6   0.000000000  -0.500000000  -1.000000000

     Diagonalizing the dynamical matrix

     q = (   -0.500000000  -1.000000000   0.000000000 ) 

 **************************************************************************
     freq (    1) =       7.005154 [THz] =     233.666783 [cm-1]
     freq (    2) =       7.005154 [THz] =     233.666783 [cm-1]
     freq (    3) =      10.779715 [THz] =     359.572596 [cm-1]
     freq (    4) =      10.779715 [THz] =     359.572596 [cm-1]
     freq (    5) =      13.775907 [THz] =     459.514799 [cm-1]
     freq (    6) =      13.775907 [THz] =     459.514799 [cm-1]
 **************************************************************************

     init_run     :      0.54s CPU      0.65s WALL (       7 calls)
     electrons    :      5.23s CPU      6.00s WALL (       7 calls)

     Called by init_run:
     wfcinit      :      0.00s CPU      0.01s WALL (       7 calls)
     potinit      :      0.02s CPU      0.02s WALL (       7 calls)

     Called by electrons:
     c_bands      :      5.22s CPU      5.99s WALL (       7 calls)
     v_of_rho     :      0.01s CPU      0.02s WALL (       8 calls)
     newd         :      0.03s CPU      0.04s WALL (       8 calls)

     Called by c_bands:
     init_us_2    :      0.69s CPU      0.78s WALL (   17588 calls)
     cegterg      :      4.34s CPU      5.01s WALL (     796 calls)

     Called by sum_band:

     Called by *egterg:
     h_psi        :     48.92s CPU     54.78s WALL (  152216 calls)
     s_psi        :      5.88s CPU      6.57s WALL (  309152 calls)
     g_psi        :      0.03s CPU      0.04s WALL (    9268 calls)
     cdiaghg      :      0.48s CPU      0.57s WALL (   10064 calls)

     Called by h_psi:
     h_psi:pot    :     48.72s CPU     54.56s WALL (  152216 calls)
     h_psi:calbec :      5.23s CPU      5.86s WALL (  152216 calls)
     vloc_psi     :     40.31s CPU     45.17s WALL (  152216 calls)
     add_vuspsi   :      2.95s CPU      3.28s WALL (  152216 calls)

     General routines
     calbec       :     11.15s CPU     12.52s WALL (  345524 calls)
     fft          :      0.51s CPU      0.56s WALL (    5239 calls)
     ffts         :      0.17s CPU      0.20s WALL (    2748 calls)
     fftw         :     46.86s CPU     52.51s WALL ( 1378314 calls)
     davcio       :      0.31s CPU      0.37s WALL (   79045 calls)

     Parallel routines
     fft_scatter  :     14.32s CPU     16.42s WALL ( 1386301 calls)

     PHONON       :  1m28.19s CPU     1m38.81s WALL

     INITIALIZATION: 
     phq_setup    :      0.06s CPU      0.07s WALL (       8 calls)
     phq_init     :      2.08s CPU      2.28s WALL (       8 calls)

     phq_init     :      2.08s CPU      2.28s WALL (       8 calls)
     set_drhoc    :      0.29s CPU      0.32s WALL (      24 calls)
     init_vloc    :      0.01s CPU      0.01s WALL (       8 calls)
     init_us_1    :      0.49s CPU      0.55s WALL (       8 calls)
     newd         :      0.03s CPU      0.04s WALL (       8 calls)
     dvanqq       :      0.25s CPU      0.25s WALL (       8 calls)
     drho         :      1.06s CPU      1.15s WALL (       8 calls)

     DYNAMICAL MATRIX:
     dynmat0      :      0.51s CPU      0.54s WALL (       8 calls)
     phqscf       :     77.72s CPU     86.91s WALL (       8 calls)
     dynmatrix    :      0.01s CPU      0.02s WALL (       8 calls)

     phqscf       :     77.72s CPU     86.91s WALL (       8 calls)
     solve_linter :     76.94s CPU     86.01s WALL (      32 calls)
     drhodv       :      0.56s CPU      0.67s WALL (      32 calls)

     dynmat0      :      0.51s CPU      0.54s WALL (       8 calls)
     dynmat_us    :      0.28s CPU      0.30s WALL (       8 calls)
     d2ionq       :      0.01s CPU      0.01s WALL (       8 calls)
     dynmatcc     :      0.21s CPU      0.22s WALL (       8 calls)

     dynmat_us    :      0.28s CPU      0.30s WALL (       8 calls)
     addusdynmat  :      0.00s CPU      0.00s WALL (       8 calls)

     phqscf       :     77.72s CPU     86.91s WALL (       8 calls)
     solve_linter :     76.94s CPU     86.01s WALL (      32 calls)

     solve_linter :     76.94s CPU     86.01s WALL (      32 calls)
     dvqpsi_us    :      1.81s CPU      2.03s WALL (    2508 calls)
     ortho        :      1.29s CPU      1.49s WALL (   15550 calls)
     cgsolve      :     60.64s CPU     67.85s WALL (   15550 calls)
     incdrhoscf   :      5.22s CPU      5.85s WALL (   15550 calls)
     addusddens   :      1.16s CPU      1.23s WALL (     228 calls)
     vpsifft      :      3.81s CPU      4.25s WALL (   12922 calls)
     dv_of_drho   :      0.24s CPU      0.26s WALL (     295 calls)
     mix_pot      :      0.06s CPU      0.07s WALL (     201 calls)
     psymdvscf    :      0.82s CPU      0.87s WALL (     196 calls)
     newdq        :      1.23s CPU      1.37s WALL (     201 calls)
     adddvscf     :      0.47s CPU      0.52s WALL (   13042 calls)
     drhodvus     :      0.00s CPU      0.00s WALL (      32 calls)

     dvqpsi_us    :      1.81s CPU      2.03s WALL (    2508 calls)
     dvqpsi_us_on :      0.84s CPU      0.93s WALL (    2508 calls)

     cgsolve      :     60.64s CPU     67.85s WALL (   15550 calls)
     ch_psi       :     58.07s CPU     64.89s WALL (  141356 calls)

     ch_psi       :     58.07s CPU     64.89s WALL (  141356 calls)
     h_psi        :     48.92s CPU     54.78s WALL (  152216 calls)
     last         :      9.72s CPU     10.85s WALL (  141356 calls)

     h_psi        :     48.92s CPU     54.78s WALL (  152216 calls)
     add_vuspsi   :      2.95s CPU      3.28s WALL (  152216 calls)

     incdrhoscf   :      5.22s CPU      5.85s WALL (   15550 calls)
     addusdbec    :      0.74s CPU      0.83s WALL (   17998 calls)

     drhodvus     :      0.00s CPU      0.00s WALL (      32 calls)

      General routines
     calbec       :     11.15s CPU     12.52s WALL (  345524 calls)
     fft          :      0.51s CPU      0.56s WALL (    5239 calls)
     ffts         :      0.17s CPU      0.20s WALL (    2748 calls)
     fftw         :     46.86s CPU     52.51s WALL ( 1378314 calls)
     davcio       :      0.31s CPU      0.37s WALL (   79045 calls)
     write_rec    :      0.23s CPU      0.27s WALL (     233 calls)


     PHONON       :  1m28.19s CPU     1m38.81s WALL


   This run was terminated on:  12:28:50   9Nov2017            

=------------------------------------------------------------------------------=
   JOB DONE.
=------------------------------------------------------------------------------=
