
     Program PWSCF v.6.1 (svn rev. 13369) starts on 10Nov2017 at 10:31:12 

     This program is part of the open-source Quantum ESPRESSO suite
     for quantum simulation of materials; please cite
         "P. Giannozzi et al., J. Phys.:Condens. Matter 21 395502 (2009);
          URL http://www.quantum-espresso.org", 
     in publications or presentations arising from this work. More details at
     http://www.quantum-espresso.org/quote

     Parallel version (MPI), running on     4 processors
     R & G space division:  proc/nbgrp/npool/nimage =       4
     Waiting for input...
     Reading input from standard input
     Message from routine read_cards :
     DEPRECATED: no units specified in ATOMIC_POSITIONS card
     Message from routine read_cards :
     ATOMIC_POSITIONS: units set to alat

     Current dimensions of program PWSCF are:
     Max number of different atomic species (ntypx) = 10
     Max number of k-points (npk) =  40000
     Max angular momentum in pseudopotentials (lmaxx) =  3

     Subspace diagonalization in iterative solution of the eigenvalue problem:
     a serial algorithm will be used


     Parallelization info
     --------------------
     sticks:   dense  smooth     PW     G-vecs:    dense   smooth      PW
     Min         217     109     37                 4288     1520     301
     Max         219     111     38                 4289     1521     304
     Sum         871     439    151                17153     6081    1211



     bravais-lattice index     =            2
     lattice parameter (alat)  =      10.3220  a.u.
     unit-cell volume          =     274.9360 (a.u.)^3
     number of atoms/cell      =            2
     number of atomic types    =            1
     number of electrons       =         8.00
     number of Kohn-Sham states=            4
     kinetic-energy cutoff     =      30.0000  Ry
     charge density cutoff     =     240.0000  Ry
     convergence threshold     =      1.0E-08
     mixing beta               =       0.7000
     number of iterations used =            8  plain     mixing
     Exchange-correlation      = SLA  PW   PBE  PBE ( 1  4  3  4 0 0)

     celldm(1)=  10.322000  celldm(2)=   0.000000  celldm(3)=   0.000000
     celldm(4)=   0.000000  celldm(5)=   0.000000  celldm(6)=   0.000000

     crystal axes: (cart. coord. in units of alat)
               a(1) = (  -0.500000   0.000000   0.500000 )  
               a(2) = (   0.000000   0.500000   0.500000 )  
               a(3) = (  -0.500000   0.500000   0.000000 )  

     reciprocal axes: (cart. coord. in units 2 pi/alat)
               b(1) = ( -1.000000 -1.000000  1.000000 )  
               b(2) = (  1.000000  1.000000  1.000000 )  
               b(3) = ( -1.000000  1.000000 -1.000000 )  


     PseudoPot. # 1 for Si read from file:
     /home/max/quantum_espresso/qe-6.1/pseudo/si_pbe_v1.uspp.F.UPF.txt
     MD5 check sum: a056efeee980c13900f22a371efd63c1
     Pseudo is Ultrasoft + core correction, Zval =  4.0
     Generated by new atomic code, or converted to UPF format
     Using radial grid of  899 points,  6 beta functions with: 
                l(1) =   0
                l(2) =   0
                l(3) =   1
                l(4) =   1
                l(5) =   2
                l(6) =   2
     Q(r) pseudized with  8 coefficients,  rinner =    0.900   0.900   0.900
                                                       0.900   0.900

     atomic species   valence    mass     pseudopotential
        Si             4.00    28.08600     Si( 1.00)

     48 Sym. Ops., with inversion, found (24 have fractional translation)



   Cartesian axes

     site n.     atom                  positions (alat units)
         1           Si  tau(   1) = (   0.0000000   0.0000000   0.0000000  )
         2           Si  tau(   2) = (   0.2500000   0.2500000   0.2500000  )

     number of k points=    28
                       cart. coord. in units 2pi/alat
        k(    1) = (  -0.0833333   0.0833333   0.0833333), wk =   0.0185185
        k(    2) = (  -0.2500000   0.2500000  -0.0833333), wk =   0.0555556
        k(    3) = (  -0.4166667   0.4166667  -0.2500000), wk =   0.0555556
        k(    4) = (   0.4166667  -0.4166667   0.5833333), wk =   0.0555556
        k(    5) = (   0.2500000  -0.2500000   0.4166667), wk =   0.0555556
        k(    6) = (   0.0833333  -0.0833333   0.2500000), wk =   0.0555556
        k(    7) = (  -0.0833333   0.4166667   0.0833333), wk =   0.0555556
        k(    8) = (  -0.2500000   0.5833333  -0.0833333), wk =   0.1111111
        k(    9) = (   0.5833333  -0.2500000   0.7500000), wk =   0.1111111
        k(   10) = (   0.4166667  -0.0833333   0.5833333), wk =   0.1111111
        k(   11) = (   0.2500000   0.0833333   0.4166667), wk =   0.1111111
        k(   12) = (  -0.0833333   0.7500000   0.0833333), wk =   0.0555556
        k(   13) = (   0.7500000  -0.0833333   0.9166667), wk =   0.1111111
        k(   14) = (   0.5833333   0.0833333   0.7500000), wk =   0.1111111
        k(   15) = (   0.4166667   0.2500000   0.5833333), wk =   0.1111111
        k(   16) = (  -0.0833333  -0.9166667   0.0833333), wk =   0.0555556
        k(   17) = (  -0.2500000  -0.7500000  -0.0833333), wk =   0.1111111
        k(   18) = (  -0.0833333  -0.5833333   0.0833333), wk =   0.0555556
        k(   19) = (  -0.2500000   0.2500000   0.2500000), wk =   0.0185185
        k(   20) = (  -0.4166667   0.4166667   0.0833333), wk =   0.0555556
        k(   21) = (   0.4166667  -0.4166667   0.9166667), wk =   0.0555556
        k(   22) = (   0.2500000  -0.2500000   0.7500000), wk =   0.0555556
        k(   23) = (  -0.2500000   0.5833333   0.2500000), wk =   0.0555556
        k(   24) = (   0.5833333  -0.2500000   1.0833333), wk =   0.1111111
        k(   25) = (   0.4166667  -0.0833333   0.9166667), wk =   0.1111111
        k(   26) = (  -0.2500000  -1.0833333   0.2500000), wk =   0.0555556
        k(   27) = (  -0.4166667   0.4166667   0.4166667), wk =   0.0185185
        k(   28) = (   0.4166667  -0.4166667   1.2500000), wk =   0.0555556

     Dense  grid:    17153 G-vectors     FFT dimensions: (  36,  36,  36)

     Smooth grid:     6081 G-vectors     FFT dimensions: (  25,  25,  25)

     Estimated max dynamical RAM per process >       3.04MB

     Estimated total allocated dynamical RAM >      12.16MB

     Initial potential from superposition of free atoms

     starting charge    7.99866, renormalised to    8.00000
     Starting wfc are    8 randomized atomic wfcs

     total cpu time spent up to now is        0.5 secs

     per-process dynamical memory:     9.9 Mb

     Self-consistent Calculation

     iteration #  1     ecut=    30.00 Ry     beta=0.70
     Davidson diagonalization with overlap
     ethr =  1.00E-02,  avg # of iterations =  2.0

     Threshold (ethr) on eigenvalues was too large:
     Diagonalizing with lowered threshold

     Davidson diagonalization with overlap
     ethr =  6.80E-04,  avg # of iterations =  1.0

     total cpu time spent up to now is        0.9 secs

     total energy              =     -19.19118690 Ry
     Harris-Foulkes estimate   =     -19.20377129 Ry
     estimated scf accuracy    <       0.05392709 Ry

     iteration #  2     ecut=    30.00 Ry     beta=0.70
     Davidson diagonalization with overlap
     ethr =  6.74E-04,  avg # of iterations =  1.0

     total cpu time spent up to now is        1.1 secs

     total energy              =     -19.19297860 Ry
     Harris-Foulkes estimate   =     -19.19314708 Ry
     estimated scf accuracy    <       0.00244819 Ry

     iteration #  3     ecut=    30.00 Ry     beta=0.70
     Davidson diagonalization with overlap
     ethr =  3.06E-05,  avg # of iterations =  2.1

     total cpu time spent up to now is        1.8 secs

     total energy              =     -19.19332403 Ry
     Harris-Foulkes estimate   =     -19.19333652 Ry
     estimated scf accuracy    <       0.00004135 Ry

     iteration #  4     ecut=    30.00 Ry     beta=0.70
     Davidson diagonalization with overlap
     ethr =  5.17E-07,  avg # of iterations =  3.4

     total cpu time spent up to now is        2.1 secs

     total energy              =     -19.19336104 Ry
     Harris-Foulkes estimate   =     -19.19336180 Ry
     estimated scf accuracy    <       0.00000293 Ry

     iteration #  5     ecut=    30.00 Ry     beta=0.70
     Davidson diagonalization with overlap
     ethr =  3.66E-08,  avg # of iterations =  2.0

     total cpu time spent up to now is        2.4 secs

     End of self-consistent calculation

          k =-0.0833 0.0833 0.0833 (   749 PWs)   bands (ev):

    -5.7377   5.1544   5.8718   5.8718

          k =-0.2500 0.2500-0.0833 (   765 PWs)   bands (ev):

    -5.2668   3.0854   4.6511   5.6624

          k =-0.4167 0.4167-0.2500 (   766 PWs)   bands (ev):

    -4.1891   0.3532   4.1882   5.0322

          k = 0.4167-0.4167 0.5833 (   765 PWs)   bands (ev):

    -3.5029  -0.7745   4.2518   4.6566

          k = 0.2500-0.2500 0.4167 (   769 PWs)   bands (ev):

    -4.5950   1.1899   4.7174   4.7455

          k = 0.0833-0.0833 0.2500 (   769 PWs)   bands (ev):

    -5.4999   4.0880   5.2346   5.4147

          k =-0.0833 0.4167 0.0833 (   770 PWs)   bands (ev):

    -5.0284   2.8908   4.4951   4.5132

          k =-0.2500 0.5833-0.0833 (   767 PWs)   bands (ev):

    -4.1295   1.0673   3.1946   4.1300

          k = 0.5833-0.2500 0.7500 (   759 PWs)   bands (ev):

    -3.0308  -0.6572   2.5963   3.9066

          k = 0.4167-0.0833 0.5833 (   766 PWs)   bands (ev):

    -3.7408   0.3840   2.5594   4.3859

          k = 0.2500 0.0833 0.4167 (   769 PWs)   bands (ev):

    -4.8059   2.0663   3.8830   5.0441

          k =-0.0833 0.7500 0.0833 (   767 PWs)   bands (ev):

    -3.4261   0.2421   3.1612   3.4953

          k = 0.7500-0.0833 0.9167 (   755 PWs)   bands (ev):

    -2.2461  -1.0839   2.3324   3.0956

          k = 0.5833 0.0833 0.7500 (   754 PWs)   bands (ev):

    -2.6157  -0.7464   1.8542   3.6341

          k = 0.4167 0.2500 0.5833 (   765 PWs)   bands (ev):

    -3.6317  -0.2837   3.4837   4.4818

          k =-0.0833-0.9167 0.0833 (   764 PWs)   bands (ev):

    -2.3353  -1.0912   2.8950   3.2822

          k =-0.2500-0.7500-0.0833 (   762 PWs)   bands (ev):

    -3.2604   0.0223   2.6477   3.4320

          k =-0.0833-0.5833 0.0833 (   762 PWs)   bands (ev):

    -4.3321   1.5959   3.6984   3.9132

          k =-0.2500 0.2500 0.2500 (   769 PWs)   bands (ev):

    -5.0402   2.1186   5.2644   5.2644

          k =-0.4167 0.4167 0.0833 (   763 PWs)   bands (ev):

    -4.3697   1.1867   3.1587   5.0961

          k = 0.4167-0.4167 0.9167 (   765 PWs)   bands (ev):

    -3.2073  -0.2436   2.0672   4.3200

          k = 0.2500-0.2500 0.7500 (   763 PWs)   bands (ev):

    -3.1550  -0.3223   2.5379   3.8442

          k =-0.2500 0.5833 0.2500 (   767 PWs)   bands (ev):

    -3.9514   0.3895   3.6123   4.2131

          k = 0.5833-0.2500 1.0833 (   759 PWs)   bands (ev):

    -2.9628  -0.3601   2.1668   3.4311

          k = 0.4167-0.0833 0.9167 (   755 PWs)   bands (ev):

    -2.1429  -1.0916   2.0080   2.7733

          k =-0.2500-1.0833 0.2500 (   756 PWs)   bands (ev):

    -2.3513  -0.9952   1.8832   3.6519

          k =-0.4167 0.4167 0.4167 (   769 PWs)   bands (ev):

    -3.8656  -0.3793   4.8789   4.8789

          k = 0.4167-0.4167 1.2500 (   765 PWs)   bands (ev):

    -3.2699  -0.6816   3.0638   4.4450

     highest occupied level (ev):     5.8718

!    total energy              =     -19.19336142 Ry
     Harris-Foulkes estimate   =     -19.19336141 Ry
     estimated scf accuracy    <          8.5E-09 Ry

     The total energy is the sum of the following terms:

     one-electron contribution =       4.97632859 Ry
     hartree contribution      =       1.13091430 Ry
     xc contribution           =      -8.60059100 Ry
     ewald contribution        =     -16.70001332 Ry

     convergence has been achieved in   5 iterations

     Writing output data file silicon.10.322.save

     init_run     :      0.35s CPU      0.39s WALL (       1 calls)
     electrons    :      1.22s CPU      1.88s WALL (       1 calls)

     Called by init_run:
     wfcinit      :      0.07s CPU      0.09s WALL (       1 calls)
     potinit      :      0.02s CPU      0.02s WALL (       1 calls)

     Called by electrons:
     c_bands      :      0.73s CPU      1.20s WALL (       6 calls)
     sum_band     :      0.29s CPU      0.44s WALL (       6 calls)
     v_of_rho     :      0.08s CPU      0.10s WALL (       6 calls)
     newd         :      0.14s CPU      0.16s WALL (       6 calls)
     mix_rho      :      0.01s CPU      0.01s WALL (       6 calls)

     Called by c_bands:
     init_us_2    :      0.04s CPU      0.05s WALL (     364 calls)
     cegterg      :      0.62s CPU      1.05s WALL (     168 calls)

     Called by sum_band:
     sum_band:bec :      0.00s CPU      0.00s WALL (     168 calls)
     addusdens    :      0.14s CPU      0.17s WALL (       6 calls)

     Called by *egterg:
     h_psi        :      0.53s CPU      0.84s WALL (     519 calls)
     s_psi        :      0.04s CPU      0.05s WALL (     519 calls)
     g_psi        :      0.00s CPU      0.00s WALL (     323 calls)
     cdiaghg      :      0.04s CPU      0.09s WALL (     463 calls)

     Called by h_psi:
     h_psi:pot    :      0.52s CPU      0.84s WALL (     519 calls)
     h_psi:calbec :      0.06s CPU      0.08s WALL (     519 calls)
     vloc_psi     :      0.42s CPU      0.71s WALL (     519 calls)
     add_vuspsi   :      0.04s CPU      0.05s WALL (     519 calls)

     General routines
     calbec       :      0.08s CPU      0.12s WALL (     687 calls)
     fft          :      0.06s CPU      0.11s WALL (      96 calls)
     ffts         :      0.00s CPU      0.00s WALL (      12 calls)
     fftw         :      0.45s CPU      0.78s WALL (    4614 calls)
     interpolate  :      0.01s CPU      0.02s WALL (      12 calls)
     davcio       :      0.00s CPU      0.00s WALL (      28 calls)

     Parallel routines
     fft_scatter  :      0.24s CPU      0.58s WALL (    4722 calls)

     PWSCF        :     1.79s CPU         2.49s WALL


   This run was terminated on:  10:31:15  10Nov2017            

=------------------------------------------------------------------------------=
   JOB DONE.
=------------------------------------------------------------------------------=
