
     Program PWSCF v.6.1 (svn rev. 13369) starts on 10Nov2017 at 10: 3:38 

     This program is part of the open-source Quantum ESPRESSO suite
     for quantum simulation of materials; please cite
         "P. Giannozzi et al., J. Phys.:Condens. Matter 21 395502 (2009);
          URL http://www.quantum-espresso.org", 
     in publications or presentations arising from this work. More details at
     http://www.quantum-espresso.org/quote

     Parallel version (MPI), running on     4 processors
     R & G space division:  proc/nbgrp/npool/nimage =       4
     Waiting for input...
     Reading input from standard input
     Message from routine read_cards :
     DEPRECATED: no units specified in ATOMIC_POSITIONS card
     Message from routine read_cards :
     ATOMIC_POSITIONS: units set to alat

     Current dimensions of program PWSCF are:
     Max number of different atomic species (ntypx) = 10
     Max number of k-points (npk) =  40000
     Max angular momentum in pseudopotentials (lmaxx) =  3

     Subspace diagonalization in iterative solution of the eigenvalue problem:
     a serial algorithm will be used


     Parallelization info
     --------------------
     sticks:   dense  smooth     PW     G-vecs:    dense   smooth      PW
     Min         133      66     22                 2024      722     152
     Max         134      67     23                 2025      724     153
     Sum         535     265     91                 8099     2891     609



     bravais-lattice index     =            2
     lattice parameter (alat)  =      10.4020  a.u.
     unit-cell volume          =     281.3783 (a.u.)^3
     number of atoms/cell      =            2
     number of atomic types    =            1
     number of electrons       =         8.00
     number of Kohn-Sham states=            4
     kinetic-energy cutoff     =      18.0000  Ry
     charge density cutoff     =     144.0000  Ry
     convergence threshold     =      1.0E-08
     mixing beta               =       0.7000
     number of iterations used =            8  plain     mixing
     Exchange-correlation      = SLA  PW   PBE  PBE ( 1  4  3  4 0 0)

     celldm(1)=  10.402000  celldm(2)=   0.000000  celldm(3)=   0.000000
     celldm(4)=   0.000000  celldm(5)=   0.000000  celldm(6)=   0.000000

     crystal axes: (cart. coord. in units of alat)
               a(1) = (  -0.500000   0.000000   0.500000 )  
               a(2) = (   0.000000   0.500000   0.500000 )  
               a(3) = (  -0.500000   0.500000   0.000000 )  

     reciprocal axes: (cart. coord. in units 2 pi/alat)
               b(1) = ( -1.000000 -1.000000  1.000000 )  
               b(2) = (  1.000000  1.000000  1.000000 )  
               b(3) = ( -1.000000  1.000000 -1.000000 )  


     PseudoPot. # 1 for Si read from file:
     /home/max/quantum_espresso/qe-6.1/pseudo/si_pbe_v1.uspp.F.UPF.txt
     MD5 check sum: a056efeee980c13900f22a371efd63c1
     Pseudo is Ultrasoft + core correction, Zval =  4.0
     Generated by new atomic code, or converted to UPF format
     Using radial grid of  899 points,  6 beta functions with: 
                l(1) =   0
                l(2) =   0
                l(3) =   1
                l(4) =   1
                l(5) =   2
                l(6) =   2
     Q(r) pseudized with  8 coefficients,  rinner =    0.900   0.900   0.900
                                                       0.900   0.900

     atomic species   valence    mass     pseudopotential
        Si             4.00    28.08600     Si( 1.00)

     24 Sym. Ops. (no inversion) found
          (note: 24 additional sym.ops. were found but ignored
           their fractional translations are incommensurate with FFT grid)


   Cartesian axes

     site n.     atom                  positions (alat units)
         1           Si  tau(   1) = (   0.0000000   0.0000000   0.0000000  )
         2           Si  tau(   2) = (   0.2500000   0.2500000   0.2500000  )

     number of k points=    60
                       cart. coord. in units 2pi/alat
        k(    1) = (  -0.0625000   0.0625000   0.0625000), wk =   0.0078125
        k(    2) = (  -0.1875000   0.1875000  -0.0625000), wk =   0.0234375
        k(    3) = (  -0.3125000   0.3125000  -0.1875000), wk =   0.0234375
        k(    4) = (  -0.4375000   0.4375000  -0.3125000), wk =   0.0234375
        k(    5) = (   0.4375000  -0.4375000   0.5625000), wk =   0.0234375
        k(    6) = (   0.3125000  -0.3125000   0.4375000), wk =   0.0234375
        k(    7) = (   0.1875000  -0.1875000   0.3125000), wk =   0.0234375
        k(    8) = (   0.0625000  -0.0625000   0.1875000), wk =   0.0234375
        k(    9) = (  -0.0625000   0.3125000   0.0625000), wk =   0.0234375
        k(   10) = (  -0.1875000   0.4375000  -0.0625000), wk =   0.0468750
        k(   11) = (  -0.3125000   0.5625000  -0.1875000), wk =   0.0468750
        k(   12) = (   0.5625000  -0.3125000   0.6875000), wk =   0.0468750
        k(   13) = (   0.4375000  -0.1875000   0.5625000), wk =   0.0468750
        k(   14) = (   0.3125000  -0.0625000   0.4375000), wk =   0.0468750
        k(   15) = (   0.1875000   0.0625000   0.3125000), wk =   0.0468750
        k(   16) = (  -0.0625000   0.5625000   0.0625000), wk =   0.0234375
        k(   17) = (  -0.1875000   0.6875000  -0.0625000), wk =   0.0468750
        k(   18) = (   0.6875000  -0.1875000   0.8125000), wk =   0.0468750
        k(   19) = (   0.5625000  -0.0625000   0.6875000), wk =   0.0468750
        k(   20) = (   0.4375000   0.0625000   0.5625000), wk =   0.0468750
        k(   21) = (   0.3125000   0.1875000   0.4375000), wk =   0.0468750
        k(   22) = (  -0.0625000   0.8125000   0.0625000), wk =   0.0234375
        k(   23) = (   0.8125000  -0.0625000   0.9375000), wk =   0.0468750
        k(   24) = (   0.6875000   0.0625000   0.8125000), wk =   0.0468750
        k(   25) = (   0.5625000   0.1875000   0.6875000), wk =   0.0468750
        k(   26) = (   0.4375000   0.3125000   0.5625000), wk =   0.0468750
        k(   27) = (  -0.0625000  -0.9375000   0.0625000), wk =   0.0234375
        k(   28) = (  -0.1875000  -0.8125000  -0.0625000), wk =   0.0468750
        k(   29) = (  -0.3125000  -0.6875000  -0.1875000), wk =   0.0468750
        k(   30) = (  -0.0625000  -0.6875000   0.0625000), wk =   0.0234375
        k(   31) = (  -0.1875000  -0.5625000  -0.0625000), wk =   0.0468750
        k(   32) = (  -0.0625000  -0.4375000   0.0625000), wk =   0.0234375
        k(   33) = (  -0.1875000   0.1875000   0.1875000), wk =   0.0078125
        k(   34) = (  -0.3125000   0.3125000   0.0625000), wk =   0.0234375
        k(   35) = (  -0.4375000   0.4375000  -0.0625000), wk =   0.0234375
        k(   36) = (   0.4375000  -0.4375000   0.8125000), wk =   0.0234375
        k(   37) = (   0.3125000  -0.3125000   0.6875000), wk =   0.0234375
        k(   38) = (   0.1875000  -0.1875000   0.5625000), wk =   0.0234375
        k(   39) = (  -0.1875000   0.4375000   0.1875000), wk =   0.0234375
        k(   40) = (  -0.3125000   0.5625000   0.0625000), wk =   0.0468750
        k(   41) = (   0.5625000  -0.3125000   0.9375000), wk =   0.0468750
        k(   42) = (   0.4375000  -0.1875000   0.8125000), wk =   0.0468750
        k(   43) = (   0.3125000  -0.0625000   0.6875000), wk =   0.0468750
        k(   44) = (  -0.1875000   0.6875000   0.1875000), wk =   0.0234375
        k(   45) = (   0.6875000  -0.1875000   1.0625000), wk =   0.0468750
        k(   46) = (   0.5625000  -0.0625000   0.9375000), wk =   0.0468750
        k(   47) = (   0.4375000   0.0625000   0.8125000), wk =   0.0468750
        k(   48) = (  -0.1875000  -1.0625000   0.1875000), wk =   0.0234375
        k(   49) = (  -0.3125000  -0.9375000   0.0625000), wk =   0.0468750
        k(   50) = (  -0.1875000  -0.8125000   0.1875000), wk =   0.0234375
        k(   51) = (  -0.3125000   0.3125000   0.3125000), wk =   0.0078125
        k(   52) = (  -0.4375000   0.4375000   0.1875000), wk =   0.0234375
        k(   53) = (   0.4375000  -0.4375000   1.0625000), wk =   0.0234375
        k(   54) = (   0.3125000  -0.3125000   0.9375000), wk =   0.0234375
        k(   55) = (  -0.3125000   0.5625000   0.3125000), wk =   0.0234375
        k(   56) = (   0.5625000  -0.3125000   1.1875000), wk =   0.0468750
        k(   57) = (   0.4375000  -0.1875000   1.0625000), wk =   0.0468750
        k(   58) = (  -0.3125000  -1.1875000   0.3125000), wk =   0.0234375
        k(   59) = (  -0.4375000   0.4375000   0.4375000), wk =   0.0078125
        k(   60) = (   0.4375000  -0.4375000   1.3125000), wk =   0.0234375

     Dense  grid:     8099 G-vectors     FFT dimensions: (  30,  30,  30)

     Smooth grid:     2891 G-vectors     FFT dimensions: (  20,  20,  20)

     Estimated max dynamical RAM per process >       1.73MB

     Estimated total allocated dynamical RAM >       6.94MB

     Initial potential from superposition of free atoms

     starting charge    7.99866, renormalised to    8.00000
     Starting wfc are    8 randomized atomic wfcs

     total cpu time spent up to now is        0.4 secs

     per-process dynamical memory:     8.6 Mb

     Self-consistent Calculation

     iteration #  1     ecut=    18.00 Ry     beta=0.70
     Davidson diagonalization with overlap
     ethr =  1.00E-02,  avg # of iterations =  2.0

     Threshold (ethr) on eigenvalues was too large:
     Diagonalizing with lowered threshold

     Davidson diagonalization with overlap
     ethr =  6.54E-04,  avg # of iterations =  1.0

     total cpu time spent up to now is        0.7 secs

     total energy              =     -19.18912215 Ry
     Harris-Foulkes estimate   =     -19.20073403 Ry
     estimated scf accuracy    <       0.05202281 Ry

     iteration #  2     ecut=    18.00 Ry     beta=0.70
     Davidson diagonalization with overlap
     ethr =  6.50E-04,  avg # of iterations =  1.0

     total cpu time spent up to now is        0.9 secs

     total energy              =     -19.19071093 Ry
     Harris-Foulkes estimate   =     -19.19088096 Ry
     estimated scf accuracy    <       0.00245403 Ry

     iteration #  3     ecut=    18.00 Ry     beta=0.70
     Davidson diagonalization with overlap
     ethr =  3.07E-05,  avg # of iterations =  1.9

     total cpu time spent up to now is        1.0 secs

     total energy              =     -19.19097371 Ry
     Harris-Foulkes estimate   =     -19.19098577 Ry
     estimated scf accuracy    <       0.00003862 Ry

     iteration #  4     ecut=    18.00 Ry     beta=0.70
     Davidson diagonalization with overlap
     ethr =  4.83E-07,  avg # of iterations =  2.8

     total cpu time spent up to now is        1.4 secs

     total energy              =     -19.19099707 Ry
     Harris-Foulkes estimate   =     -19.19099751 Ry
     estimated scf accuracy    <       0.00000197 Ry

     iteration #  5     ecut=    18.00 Ry     beta=0.70
     Davidson diagonalization with overlap
     ethr =  2.47E-08,  avg # of iterations =  2.2

     total cpu time spent up to now is        2.0 secs

     total energy              =     -19.19099749 Ry
     Harris-Foulkes estimate   =     -19.19099750 Ry
     estimated scf accuracy    <       0.00000005 Ry

     iteration #  6     ecut=    18.00 Ry     beta=0.70
     Davidson diagonalization with overlap
     ethr =  5.76E-10,  avg # of iterations =  2.8

     total cpu time spent up to now is        2.3 secs

     End of self-consistent calculation

          k =-0.0625 0.0625 0.0625 (   338 PWs)   bands (ev):

    -5.8549   5.2466   5.6988   5.6988

          k =-0.1875 0.1875-0.0625 (   355 PWs)   bands (ev):

    -5.5939   3.7520   4.9132   5.5811

          k =-0.3125 0.3125-0.1875 (   356 PWs)   bands (ev):

    -4.9628   1.5715   4.4319   5.1286

          k =-0.4375 0.4375-0.3125 (   360 PWs)   bands (ev):

    -4.0863  -0.2697   4.2165   4.7301

          k = 0.4375-0.4375 0.5625 (   364 PWs)   bands (ev):

    -3.6545  -0.9494   4.2631   4.5179

          k = 0.3125-0.3125 0.4375 (   357 PWs)   bands (ev):

    -4.3857   0.2738   4.5400   4.5429

          k = 0.1875-0.1875 0.3125 (   357 PWs)   bands (ev):

    -5.2102   2.2857   4.8126   4.9983

          k = 0.0625-0.0625 0.1875 (   346 PWs)   bands (ev):

    -5.7236   4.4948   5.2847   5.4337

          k =-0.0625 0.3125 0.0625 (   354 PWs)   bands (ev):

    -5.4618   3.6000   4.7407   4.8152

          k =-0.1875 0.4375-0.0625 (   357 PWs)   bands (ev):

    -4.9502   2.1243   3.7930   4.5627

          k =-0.3125 0.5625-0.1875 (   364 PWs)   bands (ev):

    -4.1281   0.3138   3.3001   4.1648

          k = 0.5625-0.3125 0.6875 (   368 PWs)   bands (ev):

    -3.3915  -0.8596   3.0145   4.0749

          k = 0.4375-0.1875 0.5625 (   364 PWs)   bands (ev):

    -3.8335  -0.1909   2.9474   4.3510

          k = 0.3125-0.0625 0.4375 (   361 PWs)   bands (ev):

    -4.7090   1.4902   3.2513   4.8449

          k = 0.1875 0.0625 0.3125 (   359 PWs)   bands (ev):

    -5.3351   2.9434   4.3499   5.2083

          k =-0.0625 0.5625 0.0625 (   357 PWs)   bands (ev):

    -4.5590   1.6147   3.6545   3.7729

          k =-0.1875 0.6875-0.0625 (   359 PWs)   bands (ev):

    -3.8257   0.4033   2.8894   3.4356

          k = 0.6875-0.1875 0.8125 (   367 PWs)   bands (ev):

    -2.9543  -0.7613   2.0710   3.4046

          k = 0.5625-0.0625 0.6875 (   369 PWs)   bands (ev):

    -3.0253  -0.6691   1.7300   3.7392

          k = 0.4375 0.0625 0.5625 (   365 PWs)   bands (ev):

    -3.8962   0.2685   2.3147   4.3084

          k = 0.3125 0.1875 0.4375 (   361 PWs)   bands (ev):

    -4.5991   0.9096   3.8988   4.7473

          k =-0.0625 0.8125 0.0625 (   364 PWs)   bands (ev):

    -3.1870  -0.4435   2.9831   3.1922

          k = 0.8125-0.0625 0.9375 (   363 PWs)   bands (ev):

    -2.3005  -1.4108   2.4442   2.9573

          k = 0.6875 0.0625 0.8125 (   369 PWs)   bands (ev):

    -2.4011  -1.2456   1.7379   3.2644

          k = 0.5625 0.1875 0.6875 (   367 PWs)   bands (ev):

    -3.1411  -0.8256   2.2609   3.8499

          k = 0.4375 0.3125 0.5625 (   365 PWs)   bands (ev):

    -3.7340  -0.6644   3.7230   4.4208

          k =-0.0625-0.9375 0.0625 (   362 PWs)   bands (ev):

    -2.3492  -1.4266   2.8486   3.0735

          k =-0.1875-0.8125-0.0625 (   361 PWs)   bands (ev):

    -3.1044  -0.5058   2.5966   3.1134

          k =-0.3125-0.6875-0.1875 (   364 PWs)   bands (ev):

    -3.5673  -0.2323   2.6467   3.6972

          k =-0.0625-0.6875 0.0625 (   358 PWs)   bands (ev):

    -3.9279   0.5806   3.2522   3.4272

          k =-0.1875-0.5625-0.0625 (   356 PWs)   bands (ev):

    -4.4447   1.2828   3.2973   3.9306

          k =-0.0625-0.4375 0.0625 (   353 PWs)   bands (ev):

    -5.0723   2.6311   4.1847   4.2184

          k =-0.1875 0.1875 0.1875 (   359 PWs)   bands (ev):

    -5.4654   3.0441   5.2670   5.2670

          k =-0.3125 0.3125 0.0625 (   362 PWs)   bands (ev):

    -5.0828   2.2086   3.7911   5.2814

          k =-0.4375 0.4375-0.0625 (   362 PWs)   bands (ev):

    -4.3541   0.8615   2.7360   4.7886

          k = 0.4375-0.4375 0.8125 (   367 PWs)   bands (ev):

    -3.4854  -0.5862   2.5786   4.2708

          k = 0.3125-0.3125 0.6875 (   368 PWs)   bands (ev):

    -3.4701  -0.6141   2.8684   3.9612

          k = 0.1875-0.1875 0.5625 (   358 PWs)   bands (ev):

    -4.3369   0.8584   3.4692   3.9395

          k =-0.1875 0.4375 0.1875 (   362 PWs)   bands (ev):

    -4.8321   1.5587   4.2736   4.3486

          k =-0.3125 0.5625 0.0625 (   361 PWs)   bands (ev):

    -4.2207   0.7910   2.7915   4.1565

          k = 0.5625-0.3125 0.9375 (   367 PWs)   bands (ev):

    -3.3530  -0.2926   2.0234   3.6053

          k = 0.4375-0.1875 0.8125 (   369 PWs)   bands (ev):

    -2.8800  -0.8882   2.0227   3.3017

          k = 0.3125-0.0625 0.6875 (   365 PWs)   bands (ev):

    -3.6291   0.0880   2.4379   3.4756

          k =-0.1875 0.6875 0.1875 (   362 PWs)   bands (ev):

    -3.7353   0.1473   2.7611   3.6159

          k = 0.6875-0.1875 1.0625 (   363 PWs)   bands (ev):

    -2.9515  -0.6425   2.2029   2.9540

          k = 0.5625-0.0625 0.9375 (   370 PWs)   bands (ev):

    -2.1658  -1.3841   1.8963   2.4672

          k = 0.4375 0.0625 0.8125 (   367 PWs)   bands (ev):

    -2.7535  -0.8440   1.8857   2.9298

          k =-0.1875-1.0625 0.1875 (   364 PWs)   bands (ev):

    -2.3231  -1.3603   1.9974   3.2808

          k =-0.3125-0.9375 0.0625 (   366 PWs)   bands (ev):

    -2.2250  -1.3924   2.0888   2.6743

          k =-0.1875-0.8125 0.1875 (   362 PWs)   bands (ev):

    -3.0460  -0.6035   2.2545   3.3937

          k =-0.3125 0.3125 0.3125 (   359 PWs)   bands (ev):

    -4.7278   0.8847   4.8607   4.8607

          k =-0.4375 0.4375 0.1875 (   362 PWs)   bands (ev):

    -4.2604   0.3139   3.4254   4.7739

          k = 0.4375-0.4375 1.0625 (   367 PWs)   bands (ev):

    -3.4882  -0.2250   1.9449   4.2085

          k = 0.3125-0.3125 0.9375 (   366 PWs)   bands (ev):

    -2.6888  -0.9954   1.6196   3.6754

          k =-0.3125 0.5625 0.3125 (   368 PWs)   bands (ev):

    -3.9552  -0.2307   3.7482   4.2258

          k = 0.5625-0.3125 1.1875 (   368 PWs)   bands (ev):

    -3.3513  -0.5926   2.4756   3.7654

          k = 0.4375-0.1875 1.0625 (   370 PWs)   bands (ev):

    -2.5536  -1.0633   1.7095   3.0717

          k =-0.3125-1.1875 0.3125 (   363 PWs)   bands (ev):

    -3.0021  -0.8696   2.0977   3.7731

          k =-0.4375 0.4375 0.4375 (   356 PWs)   bands (ev):

    -3.8641  -0.7197   4.6432   4.6432

          k = 0.4375-0.4375 1.3125 (   365 PWs)   bands (ev):

    -3.5233  -0.8951   3.4399   4.3824

     highest occupied level (ev):     5.6988

!    total energy              =     -19.19099751 Ry
     Harris-Foulkes estimate   =     -19.19099751 Ry
     estimated scf accuracy    <          6.5E-09 Ry

     The total energy is the sum of the following terms:

     one-electron contribution =       4.80209589 Ry
     hartree contribution      =       1.15082916 Ry
     xc contribution           =      -8.57234615 Ry
     ewald contribution        =     -16.57157641 Ry

     convergence has been achieved in   6 iterations

     Writing output data file silicon.10.402.save

     init_run     :      0.26s CPU      0.29s WALL (       1 calls)
     electrons    :      1.22s CPU      1.88s WALL (       1 calls)

     Called by init_run:
     wfcinit      :      0.07s CPU      0.08s WALL (       1 calls)
     potinit      :      0.01s CPU      0.02s WALL (       1 calls)

     Called by electrons:
     c_bands      :      0.86s CPU      1.40s WALL (       7 calls)
     sum_band     :      0.23s CPU      0.28s WALL (       7 calls)
     v_of_rho     :      0.06s CPU      0.08s WALL (       7 calls)
     newd         :      0.07s CPU      0.10s WALL (       7 calls)
     mix_rho      :      0.01s CPU      0.01s WALL (       7 calls)

     Called by c_bands:
     init_us_2    :      0.06s CPU      0.07s WALL (     900 calls)
     cegterg      :      0.73s CPU      1.21s WALL (     420 calls)

     Called by sum_band:
     sum_band:bec :      0.00s CPU      0.01s WALL (     420 calls)
     addusdens    :      0.08s CPU      0.09s WALL (       7 calls)

     Called by *egterg:
     h_psi        :      0.50s CPU      0.73s WALL (    1301 calls)
     s_psi        :      0.05s CPU      0.06s WALL (    1301 calls)
     g_psi        :      0.00s CPU      0.00s WALL (     821 calls)
     cdiaghg      :      0.10s CPU      0.18s WALL (    1181 calls)

     Called by h_psi:
     h_psi:pot    :      0.49s CPU      0.73s WALL (    1301 calls)
     h_psi:calbec :      0.08s CPU      0.15s WALL (    1301 calls)
     vloc_psi     :      0.35s CPU      0.50s WALL (    1301 calls)
     add_vuspsi   :      0.06s CPU      0.07s WALL (    1301 calls)

     General routines
     calbec       :      0.11s CPU      0.20s WALL (    1721 calls)
     fft          :      0.05s CPU      0.09s WALL (     112 calls)
     ffts         :      0.00s CPU      0.00s WALL (      14 calls)
     fftw         :      0.34s CPU      0.49s WALL (   11626 calls)
     interpolate  :      0.01s CPU      0.01s WALL (      14 calls)
     davcio       :      0.00s CPU      0.00s WALL (      60 calls)

     Parallel routines
     fft_scatter  :      0.19s CPU      0.35s WALL (   11752 calls)

     PWSCF        :     1.75s CPU         2.45s WALL


   This run was terminated on:  10: 3:41  10Nov2017            

=------------------------------------------------------------------------------=
   JOB DONE.
=------------------------------------------------------------------------------=
