
     Program PWSCF v.6.1 (svn rev. 13369) starts on 10Nov2017 at 10:31: 2 

     This program is part of the open-source Quantum ESPRESSO suite
     for quantum simulation of materials; please cite
         "P. Giannozzi et al., J. Phys.:Condens. Matter 21 395502 (2009);
          URL http://www.quantum-espresso.org", 
     in publications or presentations arising from this work. More details at
     http://www.quantum-espresso.org/quote

     Parallel version (MPI), running on     4 processors
     R & G space division:  proc/nbgrp/npool/nimage =       4
     Waiting for input...
     Reading input from standard input
     Message from routine read_cards :
     DEPRECATED: no units specified in ATOMIC_POSITIONS card
     Message from routine read_cards :
     ATOMIC_POSITIONS: units set to alat

     Current dimensions of program PWSCF are:
     Max number of different atomic species (ntypx) = 10
     Max number of k-points (npk) =  40000
     Max angular momentum in pseudopotentials (lmaxx) =  3

     Subspace diagonalization in iterative solution of the eigenvalue problem:
     a serial algorithm will be used


     Parallelization info
     --------------------
     sticks:   dense  smooth     PW     G-vecs:    dense   smooth      PW
     Min         217     109     37                 4288     1520     301
     Max         219     111     38                 4289     1521     304
     Sum         871     439    151                17153     6081    1211



     bravais-lattice index     =            2
     lattice parameter (alat)  =      10.3140  a.u.
     unit-cell volume          =     274.2972 (a.u.)^3
     number of atoms/cell      =            2
     number of atomic types    =            1
     number of electrons       =         8.00
     number of Kohn-Sham states=            4
     kinetic-energy cutoff     =      30.0000  Ry
     charge density cutoff     =     240.0000  Ry
     convergence threshold     =      1.0E-08
     mixing beta               =       0.7000
     number of iterations used =            8  plain     mixing
     Exchange-correlation      = SLA  PW   PBE  PBE ( 1  4  3  4 0 0)

     celldm(1)=  10.314000  celldm(2)=   0.000000  celldm(3)=   0.000000
     celldm(4)=   0.000000  celldm(5)=   0.000000  celldm(6)=   0.000000

     crystal axes: (cart. coord. in units of alat)
               a(1) = (  -0.500000   0.000000   0.500000 )  
               a(2) = (   0.000000   0.500000   0.500000 )  
               a(3) = (  -0.500000   0.500000   0.000000 )  

     reciprocal axes: (cart. coord. in units 2 pi/alat)
               b(1) = ( -1.000000 -1.000000  1.000000 )  
               b(2) = (  1.000000  1.000000  1.000000 )  
               b(3) = ( -1.000000  1.000000 -1.000000 )  


     PseudoPot. # 1 for Si read from file:
     /home/max/quantum_espresso/qe-6.1/pseudo/si_pbe_v1.uspp.F.UPF.txt
     MD5 check sum: a056efeee980c13900f22a371efd63c1
     Pseudo is Ultrasoft + core correction, Zval =  4.0
     Generated by new atomic code, or converted to UPF format
     Using radial grid of  899 points,  6 beta functions with: 
                l(1) =   0
                l(2) =   0
                l(3) =   1
                l(4) =   1
                l(5) =   2
                l(6) =   2
     Q(r) pseudized with  8 coefficients,  rinner =    0.900   0.900   0.900
                                                       0.900   0.900

     atomic species   valence    mass     pseudopotential
        Si             4.00    28.08600     Si( 1.00)

     48 Sym. Ops., with inversion, found (24 have fractional translation)



   Cartesian axes

     site n.     atom                  positions (alat units)
         1           Si  tau(   1) = (   0.0000000   0.0000000   0.0000000  )
         2           Si  tau(   2) = (   0.2500000   0.2500000   0.2500000  )

     number of k points=    28
                       cart. coord. in units 2pi/alat
        k(    1) = (  -0.0833333   0.0833333   0.0833333), wk =   0.0185185
        k(    2) = (  -0.2500000   0.2500000  -0.0833333), wk =   0.0555556
        k(    3) = (  -0.4166667   0.4166667  -0.2500000), wk =   0.0555556
        k(    4) = (   0.4166667  -0.4166667   0.5833333), wk =   0.0555556
        k(    5) = (   0.2500000  -0.2500000   0.4166667), wk =   0.0555556
        k(    6) = (   0.0833333  -0.0833333   0.2500000), wk =   0.0555556
        k(    7) = (  -0.0833333   0.4166667   0.0833333), wk =   0.0555556
        k(    8) = (  -0.2500000   0.5833333  -0.0833333), wk =   0.1111111
        k(    9) = (   0.5833333  -0.2500000   0.7500000), wk =   0.1111111
        k(   10) = (   0.4166667  -0.0833333   0.5833333), wk =   0.1111111
        k(   11) = (   0.2500000   0.0833333   0.4166667), wk =   0.1111111
        k(   12) = (  -0.0833333   0.7500000   0.0833333), wk =   0.0555556
        k(   13) = (   0.7500000  -0.0833333   0.9166667), wk =   0.1111111
        k(   14) = (   0.5833333   0.0833333   0.7500000), wk =   0.1111111
        k(   15) = (   0.4166667   0.2500000   0.5833333), wk =   0.1111111
        k(   16) = (  -0.0833333  -0.9166667   0.0833333), wk =   0.0555556
        k(   17) = (  -0.2500000  -0.7500000  -0.0833333), wk =   0.1111111
        k(   18) = (  -0.0833333  -0.5833333   0.0833333), wk =   0.0555556
        k(   19) = (  -0.2500000   0.2500000   0.2500000), wk =   0.0185185
        k(   20) = (  -0.4166667   0.4166667   0.0833333), wk =   0.0555556
        k(   21) = (   0.4166667  -0.4166667   0.9166667), wk =   0.0555556
        k(   22) = (   0.2500000  -0.2500000   0.7500000), wk =   0.0555556
        k(   23) = (  -0.2500000   0.5833333   0.2500000), wk =   0.0555556
        k(   24) = (   0.5833333  -0.2500000   1.0833333), wk =   0.1111111
        k(   25) = (   0.4166667  -0.0833333   0.9166667), wk =   0.1111111
        k(   26) = (  -0.2500000  -1.0833333   0.2500000), wk =   0.0555556
        k(   27) = (  -0.4166667   0.4166667   0.4166667), wk =   0.0185185
        k(   28) = (   0.4166667  -0.4166667   1.2500000), wk =   0.0555556

     Dense  grid:    17153 G-vectors     FFT dimensions: (  36,  36,  36)

     Smooth grid:     6081 G-vectors     FFT dimensions: (  25,  25,  25)

     Estimated max dynamical RAM per process >       3.04MB

     Estimated total allocated dynamical RAM >      12.16MB

     Initial potential from superposition of free atoms

     starting charge    7.99866, renormalised to    8.00000
     Starting wfc are    8 randomized atomic wfcs

     total cpu time spent up to now is        0.5 secs

     per-process dynamical memory:     9.9 Mb

     Self-consistent Calculation

     iteration #  1     ecut=    30.00 Ry     beta=0.70
     Davidson diagonalization with overlap
     ethr =  1.00E-02,  avg # of iterations =  2.0

     Threshold (ethr) on eigenvalues was too large:
     Diagonalizing with lowered threshold

     Davidson diagonalization with overlap
     ethr =  6.84E-04,  avg # of iterations =  1.0

     total cpu time spent up to now is        0.9 secs

     total energy              =     -19.19119837 Ry
     Harris-Foulkes estimate   =     -19.20387246 Ry
     estimated scf accuracy    <       0.05415752 Ry

     iteration #  2     ecut=    30.00 Ry     beta=0.70
     Davidson diagonalization with overlap
     ethr =  6.77E-04,  avg # of iterations =  1.0

     total cpu time spent up to now is        1.1 secs

     total energy              =     -19.19297590 Ry
     Harris-Foulkes estimate   =     -19.19314595 Ry
     estimated scf accuracy    <       0.00244272 Ry

     iteration #  3     ecut=    30.00 Ry     beta=0.70
     Davidson diagonalization with overlap
     ethr =  3.05E-05,  avg # of iterations =  2.0

     total cpu time spent up to now is        1.3 secs

     total energy              =     -19.19330339 Ry
     Harris-Foulkes estimate   =     -19.19331711 Ry
     estimated scf accuracy    <       0.00004404 Ry

     iteration #  4     ecut=    30.00 Ry     beta=0.70
     Davidson diagonalization with overlap
     ethr =  5.51E-07,  avg # of iterations =  3.4

     total cpu time spent up to now is        1.6 secs

     total energy              =     -19.19334406 Ry
     Harris-Foulkes estimate   =     -19.19334512 Ry
     estimated scf accuracy    <       0.00000367 Ry

     iteration #  5     ecut=    30.00 Ry     beta=0.70
     Davidson diagonalization with overlap
     ethr =  4.59E-08,  avg # of iterations =  2.0

     total cpu time spent up to now is        1.8 secs

     total energy              =     -19.19334454 Ry
     Harris-Foulkes estimate   =     -19.19334453 Ry
     estimated scf accuracy    <       0.00000001 Ry

     iteration #  6     ecut=    30.00 Ry     beta=0.70
     Davidson diagonalization with overlap
     ethr =  1.38E-10,  avg # of iterations =  4.0

     total cpu time spent up to now is        2.7 secs

     End of self-consistent calculation

          k =-0.0833 0.0833 0.0833 (   749 PWs)   bands (ev):

    -5.7296   5.1781   5.8951   5.8951

          k =-0.2500 0.2500-0.0833 (   765 PWs)   bands (ev):

    -5.2577   3.1072   4.6717   5.6856

          k =-0.4167 0.4167-0.2500 (   764 PWs)   bands (ev):

    -4.1776   0.3697   4.2087   5.0542

          k = 0.4167-0.4167 0.5833 (   764 PWs)   bands (ev):

    -3.4893  -0.7609   4.2729   4.6777

          k = 0.2500-0.2500 0.4167 (   769 PWs)   bands (ev):

    -4.5845   1.2081   4.7383   4.7676

          k = 0.0833-0.0833 0.2500 (   765 PWs)   bands (ev):

    -5.4913   4.1114   5.2563   5.4377

          k =-0.0833 0.4167 0.0833 (   768 PWs)   bands (ev):

    -5.0189   2.9141   4.5159   4.5333

          k =-0.2500 0.5833-0.0833 (   763 PWs)   bands (ev):

    -4.1180   1.0878   3.2121   4.1495

          k = 0.5833-0.2500 0.7500 (   759 PWs)   bands (ev):

    -3.0163  -0.6415   2.6133   3.9254

          k = 0.4167-0.0833 0.5833 (   764 PWs)   bands (ev):

    -3.7283   0.4028   2.5754   4.4060

          k = 0.2500 0.0833 0.4167 (   765 PWs)   bands (ev):

    -4.7959   2.0872   3.9021   5.0661

          k =-0.0833 0.7500 0.0833 (   763 PWs)   bands (ev):

    -3.4132   0.2624   3.1782   3.5135

          k = 0.7500-0.0833 0.9167 (   751 PWs)   bands (ev):

    -2.2305  -1.0661   2.3470   3.1124

          k = 0.5833 0.0833 0.7500 (   750 PWs)   bands (ev):

    -2.6003  -0.7290   1.8680   3.6522

          k = 0.4167 0.2500 0.5833 (   763 PWs)   bands (ev):

    -3.6187  -0.2682   3.5032   4.5023

          k =-0.0833-0.9167 0.0833 (   763 PWs)   bands (ev):

    -2.3202  -1.0735   2.9114   3.2999

          k =-0.2500-0.7500-0.0833 (   762 PWs)   bands (ev):

    -3.2471   0.0419   2.6635   3.4496

          k =-0.0833-0.5833 0.0833 (   760 PWs)   bands (ev):

    -4.3211   1.6183   3.7168   3.9321

          k =-0.2500 0.2500 0.2500 (   769 PWs)   bands (ev):

    -5.0306   2.1382   5.2866   5.2866

          k =-0.4167 0.4167 0.0833 (   761 PWs)   bands (ev):

    -4.3586   1.2062   3.1762   5.1181

          k = 0.4167-0.4167 0.9167 (   763 PWs)   bands (ev):

    -3.1934  -0.2259   2.0819   4.3401

          k = 0.2500-0.2500 0.7500 (   763 PWs)   bands (ev):

    -3.1412  -0.3047   2.5541   3.8632

          k =-0.2500 0.5833 0.2500 (   767 PWs)   bands (ev):

    -3.9394   0.4071   3.6319   4.2329

          k = 0.5833-0.2500 1.0833 (   757 PWs)   bands (ev):

    -2.9485  -0.3417   2.1815   3.4484

          k = 0.4167-0.0833 0.9167 (   753 PWs)   bands (ev):

    -2.1267  -1.0738   2.0217   2.7888

          k =-0.2500-1.0833 0.2500 (   756 PWs)   bands (ev):

    -2.3354  -0.9778   1.8967   3.6705

          k =-0.4167 0.4167 0.4167 (   769 PWs)   bands (ev):

    -3.8531  -0.3648   4.9006   4.9006

          k = 0.4167-0.4167 1.2500 (   761 PWs)   bands (ev):

    -3.2557  -0.6670   3.0822   4.4655

     highest occupied level (ev):     5.8951

!    total energy              =     -19.19334458 Ry
     Harris-Foulkes estimate   =     -19.19334458 Ry
     estimated scf accuracy    <          1.1E-09 Ry

     The total energy is the sum of the following terms:

     one-electron contribution =       4.99406514 Ry
     hartree contribution      =       1.12892411 Ry
     xc contribution           =      -8.60336723 Ry
     ewald contribution        =     -16.71296659 Ry

     convergence has been achieved in   6 iterations

     Writing output data file silicon.10.314.save

     init_run     :      0.35s CPU      0.39s WALL (       1 calls)
     electrons    :      1.51s CPU      2.18s WALL (       1 calls)

     Called by init_run:
     wfcinit      :      0.07s CPU      0.09s WALL (       1 calls)
     potinit      :      0.02s CPU      0.02s WALL (       1 calls)

     Called by electrons:
     c_bands      :      0.92s CPU      1.51s WALL (       7 calls)
     sum_band     :      0.34s CPU      0.40s WALL (       7 calls)
     v_of_rho     :      0.10s CPU      0.11s WALL (       7 calls)
     newd         :      0.16s CPU      0.18s WALL (       7 calls)
     mix_rho      :      0.01s CPU      0.01s WALL (       7 calls)

     Called by c_bands:
     init_us_2    :      0.05s CPU      0.06s WALL (     420 calls)
     cegterg      :      0.80s CPU      1.35s WALL (     196 calls)

     Called by sum_band:
     sum_band:bec :      0.00s CPU      0.00s WALL (     196 calls)
     addusdens    :      0.16s CPU      0.18s WALL (       7 calls)

     Called by *egterg:
     h_psi        :      0.66s CPU      1.07s WALL (     657 calls)
     s_psi        :      0.05s CPU      0.06s WALL (     657 calls)
     g_psi        :      0.00s CPU      0.00s WALL (     433 calls)
     cdiaghg      :      0.04s CPU      0.08s WALL (     601 calls)

     Called by h_psi:
     h_psi:pot    :      0.65s CPU      1.06s WALL (     657 calls)
     h_psi:calbec :      0.07s CPU      0.14s WALL (     657 calls)
     vloc_psi     :      0.53s CPU      0.86s WALL (     657 calls)
     add_vuspsi   :      0.05s CPU      0.06s WALL (     657 calls)

     General routines
     calbec       :      0.09s CPU      0.16s WALL (     853 calls)
     fft          :      0.07s CPU      0.09s WALL (     112 calls)
     ffts         :      0.00s CPU      0.00s WALL (      14 calls)
     fftw         :      0.55s CPU      0.89s WALL (    5724 calls)
     interpolate  :      0.01s CPU      0.01s WALL (      14 calls)
     davcio       :      0.00s CPU      0.00s WALL (      28 calls)

     Parallel routines
     fft_scatter  :      0.30s CPU      0.60s WALL (    5850 calls)

     PWSCF        :     2.07s CPU         2.79s WALL


   This run was terminated on:  10:31: 4  10Nov2017            

=------------------------------------------------------------------------------=
   JOB DONE.
=------------------------------------------------------------------------------=
