
     Program PHONON v.6.1 (svn rev. 13369) starts on 10Nov2017 at 15:52:29 

     This program is part of the open-source Quantum ESPRESSO suite
     for quantum simulation of materials; please cite
         "P. Giannozzi et al., J. Phys.:Condens. Matter 21 395502 (2009);
          URL http://www.quantum-espresso.org", 
     in publications or presentations arising from this work. More details at
     http://www.quantum-espresso.org/quote

     Parallel version (MPI), running on     4 processors
     R & G space division:  proc/nbgrp/npool/nimage =       4

     Reading data from directory:
     ./silicon.10.356.save

   Info: using nr1, nr2, nr3 values from input

   Info: using nr1, nr2, nr3 values from input

     IMPORTANT: XC functional enforced from input :
     Exchange-correlation      = SLA  PW   PBE  PBE ( 1  4  3  4 0 0)
     Any further DFT definition will be discarded
     Please, verify this is what you really want


     Parallelization info
     --------------------
     sticks:   dense  smooth     PW     G-vecs:    dense   smooth      PW
     Min         222     109     37                 4363     1545     284
     Max         223     110     38                 4364     1546     285
     Sum         889     439    151                17453     6183    1139



     Dynamical matrices for ( 4, 4, 4)  uniform grid of q-points
     (   8q-points):
       N         xq(1)         xq(2)         xq(3) 
       1   0.000000000   0.000000000   0.000000000
       2  -0.250000000   0.250000000  -0.250000000
       3   0.500000000  -0.500000000   0.500000000
       4   0.000000000   0.500000000   0.000000000
       5   0.750000000  -0.250000000   0.750000000
       6   0.500000000   0.000000000   0.500000000
       7   0.000000000  -1.000000000   0.000000000
       8  -0.500000000  -1.000000000   0.000000000

     Calculation of q =    0.0000000   0.0000000   0.0000000

                                                                                

     bravais-lattice index     =            2
     lattice parameter (alat)  =      10.3560  a.u.
     unit-cell volume          =     277.6618 (a.u.)^3
     number of atoms/cell      =            2
     number of atomic types    =            1
     kinetic-energy cut-off    =      30.0000  Ry
     charge density cut-off    =     240.0000  Ry
     convergence threshold     =      1.0E-12
     beta                      =       0.7000
     number of iterations used =            4
     Exchange-correlation      = SLA  PW   PBE  PBE ( 1  4  3  4 0 0)


     celldm(1)=   10.35600  celldm(2)=    0.00000  celldm(3)=    0.00000
     celldm(4)=    0.00000  celldm(5)=    0.00000  celldm(6)=    0.00000

     crystal axes: (cart. coord. in units of alat)
               a(1) = ( -0.5000  0.0000  0.5000 )  
               a(2) = (  0.0000  0.5000  0.5000 )  
               a(3) = ( -0.5000  0.5000  0.0000 )  

     reciprocal axes: (cart. coord. in units 2 pi/alat)
               b(1) = ( -1.0000 -1.0000  1.0000 )  
               b(2) = (  1.0000  1.0000  1.0000 )  
               b(3) = ( -1.0000  1.0000 -1.0000 )  


     Atoms inside the unit cell: 

     Cartesian axes

     site n.  atom      mass           positions (alat units)
        1     Si  28.0860   tau(    1) = (    0.00000    0.00000    0.00000  )
        2     Si  28.0860   tau(    2) = (    0.25000    0.25000    0.25000  )

     Computing dynamical matrix for 
                    q = (   0.0000000   0.0000000   0.0000000 )

     49 Sym.Ops. (with q -> -q+G )


     G cutoff =  651.9820  (   4363 G-vectors)     FFT grid: ( 40, 40, 40)
     G cutoff =  325.9910  (   1546 G-vectors)  smooth grid: ( 25, 25, 25)
     number of k points=    10

     PseudoPot. # 1 for Si read from file:
     /home/s1333534/quantum_espresso/qe-6.1/pseudo/si_pbe_v1.uspp.F.UPF.txt
     MD5 check sum: a056efeee980c13900f22a371efd63c1
     Pseudo is Ultrasoft + core correction, Zval =  4.0
     Generated by new atomic code, or converted to UPF format
     Using radial grid of  899 points,  6 beta functions with: 
                l(1) =   0
                l(2) =   0
                l(3) =   1
                l(4) =   1
                l(5) =   2
                l(6) =   2
     Q(r) pseudized with  8 coefficients,  rinner =    0.900   0.900   0.900
                                                       0.900   0.900

     Mode symmetry, O_h (m-3m)  point group:


     Electric field:
     Dielectric constant
     Born effective charges in two ways 


     Atomic displacements:
     There are   2 irreducible representations

     Representation     1      3 modes -T_2g G_25' G_5+  To be done

     Representation     2      3 modes -T_1u G_15  G_4-  To be done



     Alpha used in Ewald sum =   2.5000
     PHONON       :     0.98s CPU         1.31s WALL


     Electric Fields Calculation

      iter #   1 total cpu time :     2.5 secs   av.it.:   5.8
      thresh= 1.000E-02 alpha_mix =  0.700 |ddv_scf|^2 =  9.677E-08

      iter #   2 total cpu time :     3.3 secs   av.it.:  11.9
      thresh= 3.111E-05 alpha_mix =  0.700 |ddv_scf|^2 =  5.757E-09

      iter #   3 total cpu time :     4.2 secs   av.it.:  11.8
      thresh= 7.587E-06 alpha_mix =  0.700 |ddv_scf|^2 =  3.878E-10

      iter #   4 total cpu time :     4.9 secs   av.it.:  10.6
      thresh= 1.969E-06 alpha_mix =  0.700 |ddv_scf|^2 =  2.594E-12

      iter #   5 total cpu time :     5.6 secs   av.it.:  11.2
      thresh= 1.610E-07 alpha_mix =  0.700 |ddv_scf|^2 =  2.597E-15

     End of electric fields calculation

          Dielectric constant in cartesian axis 

          (      14.013061158      -0.000000000      -0.000000000 )
          (      -0.000000000      14.013061158       0.000000000 )
          (       0.000000000       0.000000000      14.013061158 )

          Effective charges (d Force / dE) in cartesian axis

           atom      1   Si 
      Ex  (       -0.03810        0.00000       -0.00000 )
      Ey  (        0.00000       -0.03810       -0.00000 )
      Ez  (        0.00000       -0.00000       -0.03810 )
           atom      2   Si 
      Ex  (       -0.03810        0.00000       -0.00000 )
      Ey  (       -0.00000       -0.03810       -0.00000 )
      Ez  (        0.00000       -0.00000       -0.03810 )


     Representation #  1 modes #   1  2  3

     Self-consistent Calculation

      iter #   1 total cpu time :     7.0 secs   av.it.:   5.1
      thresh= 1.000E-02 alpha_mix =  0.700 |ddv_scf|^2 =  1.712E-08

      iter #   2 total cpu time :     7.8 secs   av.it.:  11.8
      thresh= 1.309E-05 alpha_mix =  0.700 |ddv_scf|^2 =  6.998E-10

      iter #   3 total cpu time :     8.7 secs   av.it.:  11.3
      thresh= 2.645E-06 alpha_mix =  0.700 |ddv_scf|^2 =  4.758E-11

      iter #   4 total cpu time :     9.4 secs   av.it.:  10.4
      thresh= 6.898E-07 alpha_mix =  0.700 |ddv_scf|^2 =  1.181E-13

     End of self-consistent calculation

     Convergence has been achieved 


     Representation #  2 modes #   4  5  6

     Self-consistent Calculation

      iter #   1 total cpu time :    10.3 secs   av.it.:   5.2
      thresh= 1.000E-02 alpha_mix =  0.700 |ddv_scf|^2 =  1.350E-08

      iter #   2 total cpu time :    11.2 secs   av.it.:  11.7
      thresh= 1.162E-05 alpha_mix =  0.700 |ddv_scf|^2 =  7.937E-10

      iter #   3 total cpu time :    12.0 secs   av.it.:  11.4
      thresh= 2.817E-06 alpha_mix =  0.700 |ddv_scf|^2 =  4.928E-11

      iter #   4 total cpu time :    12.7 secs   av.it.:  11.5
      thresh= 7.020E-07 alpha_mix =  0.700 |ddv_scf|^2 =  1.924E-13

     End of self-consistent calculation

     Convergence has been achieved 

     Number of q in the star =    1
     List of q in the star:
          1   0.000000000   0.000000000   0.000000000

          Dielectric constant in cartesian axis 

          (      14.013061158      -0.000000000      -0.000000000 )
          (      -0.000000000      14.013061158       0.000000000 )
          (       0.000000000       0.000000000      14.013061158 )

          Effective charges (d Force / dE) in cartesian axis

           atom      1   Si 
      Ex  (       -0.03810        0.00000       -0.00000 )
      Ey  (        0.00000       -0.03810       -0.00000 )
      Ez  (        0.00000       -0.00000       -0.03810 )
           atom      2   Si 
      Ex  (       -0.03810        0.00000       -0.00000 )
      Ey  (       -0.00000       -0.03810       -0.00000 )
      Ez  (        0.00000       -0.00000       -0.03810 )

          Effective charges (d P / du) in cartesian axis 

           atom      1   Si 
      Px  (       -0.07280       -0.00000       -0.00000 )
      Py  (       -0.00000       -0.07280        0.00000 )
      Pz  (        0.00000        0.00000       -0.07280 )
           atom      2   Si 
      Px  (       -0.07280        0.00000        0.00000 )
      Py  (        0.00000       -0.07280       -0.00000 )
      Pz  (        0.00000       -0.00000       -0.07280 )

     Diagonalizing the dynamical matrix

     q = (    0.000000000   0.000000000   0.000000000 ) 

 **************************************************************************
     freq (    1) =      -0.476564 [THz] =     -15.896450 [cm-1]
     freq (    2) =      -0.476564 [THz] =     -15.896450 [cm-1]
     freq (    3) =      -0.476564 [THz] =     -15.896450 [cm-1]
     freq (    4) =      14.971329 [THz] =     499.389783 [cm-1]
     freq (    5) =      14.971329 [THz] =     499.389783 [cm-1]
     freq (    6) =      14.971329 [THz] =     499.389783 [cm-1]
 **************************************************************************

     Mode symmetry, O_h (m-3m)  point group:

     freq (  1 -  3) =        -15.9  [cm-1]   --> T_1u G_15  G_4- I  
     freq (  4 -  6) =        499.4  [cm-1]   --> T_2g G_25' G_5+ R  

     Calculation of q =   -0.2500000   0.2500000  -0.2500000

   Info: using nr1, nr2, nr3 values from input

   Info: using nr1, nr2, nr3 values from input

     Parallelization info
     --------------------
     sticks:   dense  smooth     PW     G-vecs:    dense   smooth      PW
     Min         222     109     37                 4363     1545     309
     Max         223     110     38                 4364     1546     312
     Sum         889     439    151                17453     6183    1243



     bravais-lattice index     =            2
     lattice parameter (alat)  =      10.3560  a.u.
     unit-cell volume          =     277.6618 (a.u.)^3
     number of atoms/cell      =            2
     number of atomic types    =            1
     number of electrons       =         8.00
     number of Kohn-Sham states=            4
     kinetic-energy cutoff     =      30.0000  Ry
     charge density cutoff     =     240.0000  Ry
     Exchange-correlation      = SLA  PW   PBE  PBE ( 1  4  3  4 0 0)

     celldm(1)=  10.356000  celldm(2)=   0.000000  celldm(3)=   0.000000
     celldm(4)=   0.000000  celldm(5)=   0.000000  celldm(6)=   0.000000

     crystal axes: (cart. coord. in units of alat)
               a(1) = (  -0.500000   0.000000   0.500000 )  
               a(2) = (   0.000000   0.500000   0.500000 )  
               a(3) = (  -0.500000   0.500000   0.000000 )  

     reciprocal axes: (cart. coord. in units 2 pi/alat)
               b(1) = ( -1.000000 -1.000000  1.000000 )  
               b(2) = (  1.000000  1.000000  1.000000 )  
               b(3) = ( -1.000000  1.000000 -1.000000 )  


     PseudoPot. # 1 for Si read from file:
     /home/s1333534/quantum_espresso/qe-6.1/pseudo/si_pbe_v1.uspp.F.UPF.txt
     MD5 check sum: a056efeee980c13900f22a371efd63c1
     Pseudo is Ultrasoft + core correction, Zval =  4.0
     Generated by new atomic code, or converted to UPF format
     Using radial grid of  899 points,  6 beta functions with: 
                l(1) =   0
                l(2) =   0
                l(3) =   1
                l(4) =   1
                l(5) =   2
                l(6) =   2
     Q(r) pseudized with  8 coefficients,  rinner =    0.900   0.900   0.900
                                                       0.900   0.900

     atomic species   valence    mass     pseudopotential
        Si             4.00    28.08600     Si( 1.00)

     48 Sym. Ops., with inversion, found



   Cartesian axes

     site n.     atom                  positions (alat units)
         1           Si  tau(   1) = (   0.0000000   0.0000000   0.0000000  )
         2           Si  tau(   2) = (   0.2500000   0.2500000   0.2500000  )

     number of k points=   120

     Number of k-points >= 100: set verbosity='high' to print them.

     Dense  grid:    17453 G-vectors     FFT dimensions: (  40,  40,  40)

     Smooth grid:     6183 G-vectors     FFT dimensions: (  25,  25,  25)

     Estimated max dynamical RAM per process >       1.79MB

     Estimated total allocated dynamical RAM >       7.17MB

     The potential is recalculated from file :
     ./_ph0/silicon.10.356.save/charge-density.dat

     Starting wfc are    8 atomic wfcs

     Band Structure Calculation
     Davidson diagonalization with overlap

     ethr =  1.25E-10,  avg # of iterations = 12.2

     total cpu time spent up to now is        1.4 secs

     End of band structure calculation

     Number of k-points >= 100: set verbosity='high' to print the bands.

     highest occupied level (ev):     5.6317

     Writing output data file silicon.10.356.save

                                                                                

     bravais-lattice index     =            2
     lattice parameter (alat)  =      10.3560  a.u.
     unit-cell volume          =     277.6618 (a.u.)^3
     number of atoms/cell      =            2
     number of atomic types    =            1
     kinetic-energy cut-off    =      30.0000  Ry
     charge density cut-off    =     240.0000  Ry
     convergence threshold     =      1.0E-12
     beta                      =       0.7000
     number of iterations used =            4
     Exchange-correlation      = SLA  PW   PBE  PBE ( 1  4  3  4 0 0)


     celldm(1)=   10.35600  celldm(2)=    0.00000  celldm(3)=    0.00000
     celldm(4)=    0.00000  celldm(5)=    0.00000  celldm(6)=    0.00000

     crystal axes: (cart. coord. in units of alat)
               a(1) = ( -0.5000  0.0000  0.5000 )  
               a(2) = (  0.0000  0.5000  0.5000 )  
               a(3) = ( -0.5000  0.5000  0.0000 )  

     reciprocal axes: (cart. coord. in units 2 pi/alat)
               b(1) = ( -1.0000 -1.0000  1.0000 )  
               b(2) = (  1.0000  1.0000  1.0000 )  
               b(3) = ( -1.0000  1.0000 -1.0000 )  


     Atoms inside the unit cell: 

     Cartesian axes

     site n.  atom      mass           positions (alat units)
        1     Si  28.0860   tau(    1) = (    0.00000    0.00000    0.00000  )
        2     Si  28.0860   tau(    2) = (    0.25000    0.25000    0.25000  )

     Computing dynamical matrix for 
                    q = (  -0.2500000   0.2500000  -0.2500000 )

      6 Sym.Ops. (no q -> -q+G )


     G cutoff =  651.9820  (   4363 G-vectors)     FFT grid: ( 40, 40, 40)
     G cutoff =  325.9910  (   1546 G-vectors)  smooth grid: ( 25, 25, 25)
     number of k points=   120

     PseudoPot. # 1 for Si read from file:
     /home/s1333534/quantum_espresso/qe-6.1/pseudo/si_pbe_v1.uspp.F.UPF.txt
     MD5 check sum: a056efeee980c13900f22a371efd63c1
     Pseudo is Ultrasoft + core correction, Zval =  4.0
     Generated by new atomic code, or converted to UPF format
     Using radial grid of  899 points,  6 beta functions with: 
                l(1) =   0
                l(2) =   0
                l(3) =   1
                l(4) =   1
                l(5) =   2
                l(6) =   2
     Q(r) pseudized with  8 coefficients,  rinner =    0.900   0.900   0.900
                                                       0.900   0.900

     Mode symmetry, C_3v (3m)   point group:


     Atomic displacements:
     There are   4 irreducible representations

     Representation     1      1 modes -A_1  L_1  To be done

     Representation     2      1 modes -A_1  L_1  To be done

     Representation     3      2 modes -E    L_3  To be done

     Representation     4      2 modes -E    L_3  To be done



     Alpha used in Ewald sum =   2.5000
     PHONON       :    12.19s CPU        15.98s WALL



     Representation #  1 mode #   1

     Self-consistent Calculation

      iter #   1 total cpu time :    16.5 secs   av.it.:   5.9
      thresh= 1.000E-02 alpha_mix =  0.700 |ddv_scf|^2 =  3.088E-04

      iter #   2 total cpu time :    17.7 secs   av.it.:   9.2
      thresh= 1.757E-03 alpha_mix =  0.700 |ddv_scf|^2 =  4.718E-03

      iter #   3 total cpu time :    18.3 secs   av.it.:   7.1
      thresh= 6.869E-03 alpha_mix =  0.700 |ddv_scf|^2 =  1.954E-07

      iter #   4 total cpu time :    18.9 secs   av.it.:   9.7
      thresh= 4.421E-05 alpha_mix =  0.700 |ddv_scf|^2 =  1.303E-08

      iter #   5 total cpu time :    19.6 secs   av.it.:   9.8
      thresh= 1.141E-05 alpha_mix =  0.700 |ddv_scf|^2 =  2.416E-10

      iter #   6 total cpu time :    20.2 secs   av.it.:   9.9
      thresh= 1.554E-06 alpha_mix =  0.700 |ddv_scf|^2 =  6.214E-10

      iter #   7 total cpu time :    20.8 secs   av.it.:   7.8
      thresh= 2.493E-06 alpha_mix =  0.700 |ddv_scf|^2 =  3.804E-11

      iter #   8 total cpu time :    21.4 secs   av.it.:   9.4
      thresh= 6.168E-07 alpha_mix =  0.700 |ddv_scf|^2 =  4.020E-13

     End of self-consistent calculation

     Convergence has been achieved 


     Representation #  2 mode #   2

     Self-consistent Calculation

      iter #   1 total cpu time :    22.0 secs   av.it.:   5.9
      thresh= 1.000E-02 alpha_mix =  0.700 |ddv_scf|^2 =  3.088E-04

      iter #   2 total cpu time :    22.6 secs   av.it.:   9.2
      thresh= 1.757E-03 alpha_mix =  0.700 |ddv_scf|^2 =  4.718E-03

      iter #   3 total cpu time :    23.1 secs   av.it.:   7.1
      thresh= 6.869E-03 alpha_mix =  0.700 |ddv_scf|^2 =  1.954E-07

      iter #   4 total cpu time :    23.8 secs   av.it.:   9.7
      thresh= 4.421E-05 alpha_mix =  0.700 |ddv_scf|^2 =  1.303E-08

      iter #   5 total cpu time :    24.4 secs   av.it.:   9.8
      thresh= 1.141E-05 alpha_mix =  0.700 |ddv_scf|^2 =  2.416E-10

      iter #   6 total cpu time :    25.1 secs   av.it.:   9.9
      thresh= 1.554E-06 alpha_mix =  0.700 |ddv_scf|^2 =  6.214E-10

      iter #   7 total cpu time :    25.7 secs   av.it.:   7.8
      thresh= 2.493E-06 alpha_mix =  0.700 |ddv_scf|^2 =  3.804E-11

      iter #   8 total cpu time :    26.2 secs   av.it.:   9.4
      thresh= 6.168E-07 alpha_mix =  0.700 |ddv_scf|^2 =  4.020E-13

     End of self-consistent calculation

     Convergence has been achieved 


     Representation #  3 modes #   3  4

     Self-consistent Calculation

      iter #   1 total cpu time :    27.2 secs   av.it.:   5.2
      thresh= 1.000E-02 alpha_mix =  0.700 |ddv_scf|^2 =  4.813E-08

      iter #   2 total cpu time :    28.6 secs   av.it.:  11.7
      thresh= 2.194E-05 alpha_mix =  0.700 |ddv_scf|^2 =  3.094E-09

      iter #   3 total cpu time :    29.9 secs   av.it.:  11.2
      thresh= 5.562E-06 alpha_mix =  0.700 |ddv_scf|^2 =  1.633E-10

      iter #   4 total cpu time :    31.2 secs   av.it.:  11.1
      thresh= 1.278E-06 alpha_mix =  0.700 |ddv_scf|^2 =  6.295E-13

     End of self-consistent calculation

     Convergence has been achieved 


     Representation #  4 modes #   5  6

     Self-consistent Calculation

      iter #   1 total cpu time :    32.5 secs   av.it.:   5.2
      thresh= 1.000E-02 alpha_mix =  0.700 |ddv_scf|^2 =  4.814E-08

      iter #   2 total cpu time :    33.8 secs   av.it.:  11.7
      thresh= 2.194E-05 alpha_mix =  0.700 |ddv_scf|^2 =  3.093E-09

      iter #   3 total cpu time :    35.1 secs   av.it.:  11.4
      thresh= 5.561E-06 alpha_mix =  0.700 |ddv_scf|^2 =  1.633E-10

      iter #   4 total cpu time :    36.3 secs   av.it.:  11.2
      thresh= 1.278E-06 alpha_mix =  0.700 |ddv_scf|^2 =  6.327E-13

     End of self-consistent calculation

     Convergence has been achieved 

     Number of q in the star =    8
     List of q in the star:
          1  -0.250000000   0.250000000  -0.250000000
          2   0.250000000  -0.250000000  -0.250000000
          3   0.250000000  -0.250000000   0.250000000
          4   0.250000000   0.250000000   0.250000000
          5  -0.250000000  -0.250000000  -0.250000000
          6  -0.250000000  -0.250000000   0.250000000
          7  -0.250000000   0.250000000   0.250000000
          8   0.250000000   0.250000000  -0.250000000

     Diagonalizing the dynamical matrix

     q = (   -0.250000000   0.250000000  -0.250000000 ) 

 **************************************************************************
     freq (    1) =       2.797694 [THz] =      93.321030 [cm-1]
     freq (    2) =       2.797694 [THz] =      93.321030 [cm-1]
     freq (    3) =       6.685053 [THz] =     222.989369 [cm-1]
     freq (    4) =      14.125684 [THz] =     471.182115 [cm-1]
     freq (    5) =      14.386220 [THz] =     479.872640 [cm-1]
     freq (    6) =      14.386220 [THz] =     479.872640 [cm-1]
 **************************************************************************

     Mode symmetry, C_3v (3m)   point group:

     freq (  1 -  2) =         93.3  [cm-1]   --> E    L_3           
     freq (  3 -  3) =        223.0  [cm-1]   --> A_1  L_1           
     freq (  4 -  4) =        471.2  [cm-1]   --> A_1  L_1           
     freq (  5 -  6) =        479.9  [cm-1]   --> E    L_3           

     Calculation of q =    0.5000000  -0.5000000   0.5000000

   Info: using nr1, nr2, nr3 values from input

   Info: using nr1, nr2, nr3 values from input

     Parallelization info
     --------------------
     sticks:   dense  smooth     PW     G-vecs:    dense   smooth      PW
     Min         222     109     40                 4363     1545     351
     Max         223     110     41                 4364     1546     354
     Sum         889     439    163                17453     6183    1411



     bravais-lattice index     =            2
     lattice parameter (alat)  =      10.3560  a.u.
     unit-cell volume          =     277.6618 (a.u.)^3
     number of atoms/cell      =            2
     number of atomic types    =            1
     number of electrons       =         8.00
     number of Kohn-Sham states=            4
     kinetic-energy cutoff     =      30.0000  Ry
     charge density cutoff     =     240.0000  Ry
     Exchange-correlation      = SLA  PW   PBE  PBE ( 1  4  3  4 0 0)

     celldm(1)=  10.356000  celldm(2)=   0.000000  celldm(3)=   0.000000
     celldm(4)=   0.000000  celldm(5)=   0.000000  celldm(6)=   0.000000

     crystal axes: (cart. coord. in units of alat)
               a(1) = (  -0.500000   0.000000   0.500000 )  
               a(2) = (   0.000000   0.500000   0.500000 )  
               a(3) = (  -0.500000   0.500000   0.000000 )  

     reciprocal axes: (cart. coord. in units 2 pi/alat)
               b(1) = ( -1.000000 -1.000000  1.000000 )  
               b(2) = (  1.000000  1.000000  1.000000 )  
               b(3) = ( -1.000000  1.000000 -1.000000 )  


     PseudoPot. # 1 for Si read from file:
     /home/s1333534/quantum_espresso/qe-6.1/pseudo/si_pbe_v1.uspp.F.UPF.txt
     MD5 check sum: a056efeee980c13900f22a371efd63c1
     Pseudo is Ultrasoft + core correction, Zval =  4.0
     Generated by new atomic code, or converted to UPF format
     Using radial grid of  899 points,  6 beta functions with: 
                l(1) =   0
                l(2) =   0
                l(3) =   1
                l(4) =   1
                l(5) =   2
                l(6) =   2
     Q(r) pseudized with  8 coefficients,  rinner =    0.900   0.900   0.900
                                                       0.900   0.900

     atomic species   valence    mass     pseudopotential
        Si             4.00    28.08600     Si( 1.00)

     48 Sym. Ops., with inversion, found



   Cartesian axes

     site n.     atom                  positions (alat units)
         1           Si  tau(   1) = (   0.0000000   0.0000000   0.0000000  )
         2           Si  tau(   2) = (   0.2500000   0.2500000   0.2500000  )

     number of k points=    60
                       cart. coord. in units 2pi/alat
        k(    1) = (  -0.1250000   0.1250000   0.1250000), wk =   0.0468750
        k(    2) = (   0.3750000  -0.3750000   0.6250000), wk =   0.0000000
        k(    3) = (  -0.3750000   0.3750000  -0.1250000), wk =   0.0468750
        k(    4) = (   0.1250000  -0.1250000   0.3750000), wk =   0.0000000
        k(    5) = (   0.3750000  -0.3750000   0.6250000), wk =   0.0468750
        k(    6) = (   0.8750000  -0.8750000   1.1250000), wk =   0.0000000
        k(    7) = (   0.1250000  -0.1250000   0.3750000), wk =   0.0468750
        k(    8) = (   0.6250000  -0.6250000   0.8750000), wk =   0.0000000
        k(    9) = (  -0.1250000   0.6250000   0.1250000), wk =   0.0937500
        k(   10) = (   0.3750000   0.1250000   0.6250000), wk =   0.0000000
        k(   11) = (   0.6250000  -0.1250000   0.8750000), wk =   0.0937500
        k(   12) = (   1.1250000  -0.6250000   1.3750000), wk =   0.0000000
        k(   13) = (   0.3750000   0.1250000   0.6250000), wk =   0.0937500
        k(   14) = (   0.8750000  -0.3750000   1.1250000), wk =   0.0000000
        k(   15) = (  -0.1250000  -0.8750000   0.1250000), wk =   0.0937500
        k(   16) = (   0.3750000  -1.3750000   0.6250000), wk =   0.0000000
        k(   17) = (  -0.3750000   0.3750000   0.3750000), wk =   0.0468750
        k(   18) = (   0.1250000  -0.1250000   0.8750000), wk =   0.0000000
        k(   19) = (   0.3750000  -0.3750000   1.1250000), wk =   0.0468750
        k(   20) = (   0.8750000  -0.8750000   1.6250000), wk =   0.0000000
        k(   21) = (   0.1250000  -0.1250000   0.1250000), wk =   0.0156250
        k(   22) = (   0.6250000  -0.6250000   0.6250000), wk =   0.0000000
        k(   23) = (  -0.3750000  -0.3750000  -0.1250000), wk =   0.0937500
        k(   24) = (   0.1250000  -0.8750000   0.3750000), wk =   0.0000000
        k(   25) = (  -0.1250000  -0.3750000   0.3750000), wk =   0.0468750
        k(   26) = (   0.3750000  -0.8750000   0.8750000), wk =   0.0000000
        k(   27) = (   0.3750000   0.3750000   0.6250000), wk =   0.0937500
        k(   28) = (   0.8750000  -0.1250000   1.1250000), wk =   0.0000000
        k(   29) = (   0.6250000   0.3750000  -0.3750000), wk =   0.0468750
        k(   30) = (   1.1250000  -0.1250000   0.1250000), wk =   0.0000000
        k(   31) = (   0.1250000   0.1250000   0.3750000), wk =   0.0937500
        k(   32) = (   0.6250000  -0.3750000   0.8750000), wk =   0.0000000
        k(   33) = (   0.3750000   0.1250000  -0.1250000), wk =   0.0468750
        k(   34) = (   0.8750000  -0.3750000   0.3750000), wk =   0.0000000
        k(   35) = (  -0.1250000  -0.6250000  -0.1250000), wk =   0.0468750
        k(   36) = (   0.3750000  -1.1250000   0.3750000), wk =   0.0000000
        k(   37) = (   0.1250000  -0.6250000   0.1250000), wk =   0.0468750
        k(   38) = (   0.6250000  -1.1250000   0.6250000), wk =   0.0000000
        k(   39) = (   0.6250000   0.1250000   0.8750000), wk =   0.0937500
        k(   40) = (   1.1250000  -0.3750000   1.3750000), wk =   0.0000000
        k(   41) = (  -0.8750000   0.1250000   0.6250000), wk =   0.0937500
        k(   42) = (  -0.3750000  -0.3750000   1.1250000), wk =   0.0000000
        k(   43) = (   0.8750000   0.1250000  -0.6250000), wk =   0.0937500
        k(   44) = (   1.3750000  -0.3750000  -0.1250000), wk =   0.0000000
        k(   45) = (   0.3750000  -0.1250000   0.6250000), wk =   0.0937500
        k(   46) = (   0.8750000  -0.6250000   1.1250000), wk =   0.0000000
        k(   47) = (  -0.6250000  -0.1250000   0.3750000), wk =   0.0937500
        k(   48) = (  -0.1250000  -0.6250000   0.8750000), wk =   0.0000000
        k(   49) = (   0.6250000  -0.1250000  -0.3750000), wk =   0.0937500
        k(   50) = (   1.1250000  -0.6250000   0.1250000), wk =   0.0000000
        k(   51) = (  -0.1250000   0.8750000  -0.1250000), wk =   0.0468750
        k(   52) = (   0.3750000   0.3750000   0.3750000), wk =   0.0000000
        k(   53) = (   0.1250000   0.8750000   0.1250000), wk =   0.0468750
        k(   54) = (   0.6250000   0.3750000   0.6250000), wk =   0.0000000
        k(   55) = (   0.3750000  -0.3750000   0.3750000), wk =   0.0156250
        k(   56) = (   0.8750000  -0.8750000   0.8750000), wk =   0.0000000
        k(   57) = (   0.3750000   0.3750000   1.1250000), wk =   0.0937500
        k(   58) = (   0.8750000  -0.1250000   1.6250000), wk =   0.0000000
        k(   59) = (   1.1250000   0.3750000  -0.3750000), wk =   0.0468750
        k(   60) = (   1.6250000  -0.1250000   0.1250000), wk =   0.0000000

     Dense  grid:    17453 G-vectors     FFT dimensions: (  40,  40,  40)

     Smooth grid:     6183 G-vectors     FFT dimensions: (  25,  25,  25)

     Estimated max dynamical RAM per process >       1.79MB

     Estimated total allocated dynamical RAM >       7.17MB

     The potential is recalculated from file :
     ./_ph0/silicon.10.356.save/charge-density.dat

     Starting wfc are    8 atomic wfcs

     Band Structure Calculation
     Davidson diagonalization with overlap

     ethr =  1.25E-10,  avg # of iterations = 12.2

     total cpu time spent up to now is        2.4 secs

     End of band structure calculation

          k =-0.1250 0.1250 0.1250 (   773 PWs)   bands (ev):

    -5.6616   4.3221   5.6317   5.6317

          k = 0.3750-0.3750 0.6250 (   773 PWs)   bands (ev):

    -3.5116  -0.7216   3.6752   4.3876

          k =-0.3750 0.3750-0.1250 (   776 PWs)   bands (ev):

    -4.6417   1.3412   3.6577   5.1533

          k = 0.1250-0.1250 0.3750 (   781 PWs)   bands (ev):

    -5.1371   2.7092   4.6311   4.6911

          k = 0.3750-0.3750 0.6250 (   773 PWs)   bands (ev):

    -3.5116  -0.7216   3.6752   4.3876

          k = 0.8750-0.8750 1.1250 (   773 PWs)   bands (ev):

    -5.6616   4.3221   5.6317   5.6317

          k = 0.1250-0.1250 0.3750 (   781 PWs)   bands (ev):

    -5.1371   2.7092   4.6311   4.6911

          k = 0.6250-0.6250 0.8750 (   776 PWs)   bands (ev):

    -4.6417   1.3412   3.6577   5.1533

          k =-0.1250 0.6250 0.1250 (   775 PWs)   bands (ev):

    -4.1123   1.0013   3.3129   3.7625

          k = 0.3750 0.1250 0.6250 (   770 PWs)   bands (ev):

    -3.7002   0.1373   2.6741   4.0355

          k = 0.6250-0.1250 0.8750 (   762 PWs)   bands (ev):

    -2.4848  -0.9502   1.9704   3.0390

          k = 1.1250-0.6250 1.3750 (   776 PWs)   bands (ev):

    -4.6417   1.3412   3.6577   5.1533

          k = 0.3750 0.1250 0.6250 (   770 PWs)   bands (ev):

    -3.7002   0.1373   2.6741   4.0355

          k = 0.8750-0.3750 1.1250 (   775 PWs)   bands (ev):

    -4.1123   1.0013   3.3129   3.7625

          k =-0.1250-0.8750 0.1250 (   763 PWs)   bands (ev):

    -2.6498  -0.8543   2.5754   3.2983

          k = 0.3750-1.3750 0.6250 (   773 PWs)   bands (ev):

    -3.5116  -0.7216   3.6752   4.3876

          k =-0.3750 0.3750 0.3750 (   769 PWs)   bands (ev):

    -4.2122   0.0618   4.8485   4.8485

          k = 0.1250-0.1250 0.8750 (   763 PWs)   bands (ev):

    -2.6498  -0.8543   2.5754   3.2983

          k = 0.3750-0.3750 1.1250 (   769 PWs)   bands (ev):

    -3.0188  -0.6442   2.0257   4.0731

          k = 0.8750-0.8750 1.6250 (   775 PWs)   bands (ev):

    -4.1123   1.0013   3.3129   3.7625

          k = 0.1250-0.1250 0.1250 (   773 PWs)   bands (ev):

    -5.6616   4.3221   5.6317   5.6317

          k = 0.6250-0.6250 0.6250 (   769 PWs)   bands (ev):

    -4.2122   0.0618   4.8485   4.8485

          k =-0.3750-0.3750-0.1250 (   776 PWs)   bands (ev):

    -4.6417   1.3412   3.6577   5.1533

          k = 0.1250-0.8750 0.3750 (   762 PWs)   bands (ev):

    -2.4848  -0.9502   1.9704   3.0390

          k =-0.1250-0.3750 0.3750 (   776 PWs)   bands (ev):

    -4.6417   1.3412   3.6577   5.1533

          k = 0.3750-0.8750 0.8750 (   775 PWs)   bands (ev):

    -4.1123   1.0013   3.3129   3.7625

          k = 0.3750 0.3750 0.6250 (   773 PWs)   bands (ev):

    -3.5116  -0.7216   3.6752   4.3876

          k = 0.8750-0.1250 1.1250 (   763 PWs)   bands (ev):

    -2.6498  -0.8543   2.5754   3.2983

          k = 0.6250 0.3750-0.3750 (   773 PWs)   bands (ev):

    -3.5116  -0.7216   3.6752   4.3876

          k = 1.1250-0.1250 0.1250 (   763 PWs)   bands (ev):

    -2.6498  -0.8543   2.5754   3.2983

          k = 0.1250 0.1250 0.3750 (   781 PWs)   bands (ev):

    -5.1371   2.7092   4.6311   4.6911

          k = 0.6250-0.3750 0.8750 (   770 PWs)   bands (ev):

    -3.7002   0.1373   2.6741   4.0355

          k = 0.3750 0.1250-0.1250 (   781 PWs)   bands (ev):

    -5.1371   2.7092   4.6311   4.6911

          k = 0.8750-0.3750 0.3750 (   769 PWs)   bands (ev):

    -3.0188  -0.6442   2.0257   4.0731

          k =-0.1250-0.6250-0.1250 (   775 PWs)   bands (ev):

    -4.1123   1.0013   3.3129   3.7625

          k = 0.3750-1.1250 0.3750 (   769 PWs)   bands (ev):

    -3.0188  -0.6442   2.0257   4.0731

          k = 0.1250-0.6250 0.1250 (   775 PWs)   bands (ev):

    -4.1123   1.0013   3.3129   3.7625

          k = 0.6250-1.1250 0.6250 (   776 PWs)   bands (ev):

    -4.6417   1.3412   3.6577   5.1533

          k = 0.6250 0.1250 0.8750 (   762 PWs)   bands (ev):

    -2.4848  -0.9502   1.9704   3.0390

          k = 1.1250-0.3750 1.3750 (   770 PWs)   bands (ev):

    -3.7002   0.1373   2.6741   4.0355

          k =-0.8750 0.1250 0.6250 (   762 PWs)   bands (ev):

    -2.4848  -0.9502   1.9704   3.0390

          k =-0.3750-0.3750 1.1250 (   769 PWs)   bands (ev):

    -3.0188  -0.6442   2.0257   4.0731

          k = 0.8750 0.1250-0.6250 (   762 PWs)   bands (ev):

    -2.4848  -0.9502   1.9704   3.0390

          k = 1.3750-0.3750-0.1250 (   770 PWs)   bands (ev):

    -3.7002   0.1373   2.6741   4.0355

          k = 0.3750-0.1250 0.6250 (   770 PWs)   bands (ev):

    -3.7002   0.1373   2.6741   4.0355

          k = 0.8750-0.6250 1.1250 (   781 PWs)   bands (ev):

    -5.1371   2.7092   4.6311   4.6911

          k =-0.6250-0.1250 0.3750 (   770 PWs)   bands (ev):

    -3.7002   0.1373   2.6741   4.0355

          k =-0.1250-0.6250 0.8750 (   762 PWs)   bands (ev):

    -2.4848  -0.9502   1.9704   3.0390

          k = 0.6250-0.1250-0.3750 (   770 PWs)   bands (ev):

    -3.7002   0.1373   2.6741   4.0355

          k = 1.1250-0.6250 0.1250 (   762 PWs)   bands (ev):

    -2.4848  -0.9502   1.9704   3.0390

          k =-0.1250 0.8750-0.1250 (   763 PWs)   bands (ev):

    -2.6498  -0.8543   2.5754   3.2983

          k = 0.3750 0.3750 0.3750 (   769 PWs)   bands (ev):

    -4.2122   0.0618   4.8485   4.8485

          k = 0.1250 0.8750 0.1250 (   763 PWs)   bands (ev):

    -2.6498  -0.8543   2.5754   3.2983

          k = 0.6250 0.3750 0.6250 (   773 PWs)   bands (ev):

    -3.5116  -0.7216   3.6752   4.3876

          k = 0.3750-0.3750 0.3750 (   769 PWs)   bands (ev):

    -4.2122   0.0618   4.8485   4.8485

          k = 0.8750-0.8750 0.8750 (   773 PWs)   bands (ev):

    -5.6616   4.3221   5.6317   5.6317

          k = 0.3750 0.3750 1.1250 (   769 PWs)   bands (ev):

    -3.0188  -0.6442   2.0257   4.0731

          k = 0.8750-0.1250 1.6250 (   762 PWs)   bands (ev):

    -2.4848  -0.9502   1.9704   3.0390

          k = 1.1250 0.3750-0.3750 (   769 PWs)   bands (ev):

    -3.0188  -0.6442   2.0257   4.0731

          k = 1.6250-0.1250 0.1250 (   781 PWs)   bands (ev):

    -5.1371   2.7092   4.6311   4.6911

     highest occupied level (ev):     5.6317

     Writing output data file silicon.10.356.save

                                                                                

     bravais-lattice index     =            2
     lattice parameter (alat)  =      10.3560  a.u.
     unit-cell volume          =     277.6618 (a.u.)^3
     number of atoms/cell      =            2
     number of atomic types    =            1
     kinetic-energy cut-off    =      30.0000  Ry
     charge density cut-off    =     240.0000  Ry
     convergence threshold     =      1.0E-12
     beta                      =       0.7000
     number of iterations used =            4
     Exchange-correlation      = SLA  PW   PBE  PBE ( 1  4  3  4 0 0)


     celldm(1)=   10.35600  celldm(2)=    0.00000  celldm(3)=    0.00000
     celldm(4)=    0.00000  celldm(5)=    0.00000  celldm(6)=    0.00000

     crystal axes: (cart. coord. in units of alat)
               a(1) = ( -0.5000  0.0000  0.5000 )  
               a(2) = (  0.0000  0.5000  0.5000 )  
               a(3) = ( -0.5000  0.5000  0.0000 )  

     reciprocal axes: (cart. coord. in units 2 pi/alat)
               b(1) = ( -1.0000 -1.0000  1.0000 )  
               b(2) = (  1.0000  1.0000  1.0000 )  
               b(3) = ( -1.0000  1.0000 -1.0000 )  


     Atoms inside the unit cell: 

     Cartesian axes

     site n.  atom      mass           positions (alat units)
        1     Si  28.0860   tau(    1) = (    0.00000    0.00000    0.00000  )
        2     Si  28.0860   tau(    2) = (    0.25000    0.25000    0.25000  )

     Computing dynamical matrix for 
                    q = (   0.5000000  -0.5000000   0.5000000 )

     13 Sym.Ops. (with q -> -q+G )


     G cutoff =  651.9820  (   4363 G-vectors)     FFT grid: ( 40, 40, 40)
     G cutoff =  325.9910  (   1546 G-vectors)  smooth grid: ( 25, 25, 25)
     number of k points=    60

     PseudoPot. # 1 for Si read from file:
     /home/s1333534/quantum_espresso/qe-6.1/pseudo/si_pbe_v1.uspp.F.UPF.txt
     MD5 check sum: a056efeee980c13900f22a371efd63c1
     Pseudo is Ultrasoft + core correction, Zval =  4.0
     Generated by new atomic code, or converted to UPF format
     Using radial grid of  899 points,  6 beta functions with: 
                l(1) =   0
                l(2) =   0
                l(3) =   1
                l(4) =   1
                l(5) =   2
                l(6) =   2
     Q(r) pseudized with  8 coefficients,  rinner =    0.900   0.900   0.900
                                                       0.900   0.900


     Atomic displacements:
     There are   4 irreducible representations

     Representation     1      1 modes -  To be done

     Representation     2      1 modes -  To be done

     Representation     3      2 modes -  To be done

     Representation     4      2 modes -  To be done



     Alpha used in Ewald sum =   2.5000
     PHONON       :    29.94s CPU        38.76s WALL



     Representation #  1 mode #   1

     Self-consistent Calculation

      iter #   1 total cpu time :    39.1 secs   av.it.:   5.0
      thresh= 1.000E-02 alpha_mix =  0.700 |ddv_scf|^2 =  3.027E-06

      iter #   2 total cpu time :    39.6 secs   av.it.:  10.1
      thresh= 1.740E-04 alpha_mix =  0.700 |ddv_scf|^2 =  2.794E-06

      iter #   3 total cpu time :    40.0 secs   av.it.:   9.4
      thresh= 1.672E-04 alpha_mix =  0.700 |ddv_scf|^2 =  1.654E-09

      iter #   4 total cpu time :    40.5 secs   av.it.:   9.6
      thresh= 4.068E-06 alpha_mix =  0.700 |ddv_scf|^2 =  1.553E-11

      iter #   5 total cpu time :    40.9 secs   av.it.:   9.5
      thresh= 3.941E-07 alpha_mix =  0.700 |ddv_scf|^2 =  2.287E-13

     End of self-consistent calculation

     Convergence has been achieved 


     Representation #  2 mode #   2

     Self-consistent Calculation

      iter #   1 total cpu time :    41.4 secs   av.it.:   6.0
      thresh= 1.000E-02 alpha_mix =  0.700 |ddv_scf|^2 =  4.304E-05

      iter #   2 total cpu time :    41.8 secs   av.it.:  10.0
      thresh= 6.561E-04 alpha_mix =  0.700 |ddv_scf|^2 =  1.342E-04

      iter #   3 total cpu time :    42.2 secs   av.it.:   8.9
      thresh= 1.158E-03 alpha_mix =  0.700 |ddv_scf|^2 =  1.012E-08

      iter #   4 total cpu time :    42.7 secs   av.it.:  10.0
      thresh= 1.006E-05 alpha_mix =  0.700 |ddv_scf|^2 =  5.111E-10

      iter #   5 total cpu time :    43.1 secs   av.it.:  10.4
      thresh= 2.261E-06 alpha_mix =  0.700 |ddv_scf|^2 =  1.509E-11

      iter #   6 total cpu time :    43.5 secs   av.it.:   9.9
      thresh= 3.885E-07 alpha_mix =  0.700 |ddv_scf|^2 =  1.120E-13

     End of self-consistent calculation

     Convergence has been achieved 


     Representation #  3 modes #   3  4

     Self-consistent Calculation

      iter #   1 total cpu time :    44.2 secs   av.it.:   5.1
      thresh= 1.000E-02 alpha_mix =  0.700 |ddv_scf|^2 =  1.953E-08

      iter #   2 total cpu time :    45.0 secs   av.it.:  11.1
      thresh= 1.398E-05 alpha_mix =  0.700 |ddv_scf|^2 =  1.149E-09

      iter #   3 total cpu time :    45.8 secs   av.it.:  10.9
      thresh= 3.389E-06 alpha_mix =  0.700 |ddv_scf|^2 =  3.884E-11

      iter #   4 total cpu time :    46.5 secs   av.it.:  10.8
      thresh= 6.232E-07 alpha_mix =  0.700 |ddv_scf|^2 =  3.177E-13

     End of self-consistent calculation

     Convergence has been achieved 


     Representation #  4 modes #   5  6

     Self-consistent Calculation

      iter #   1 total cpu time :    47.2 secs   av.it.:   5.1
      thresh= 1.000E-02 alpha_mix =  0.700 |ddv_scf|^2 =  1.002E-07

      iter #   2 total cpu time :    48.1 secs   av.it.:  11.2
      thresh= 3.166E-05 alpha_mix =  0.700 |ddv_scf|^2 =  8.055E-09

      iter #   3 total cpu time :    49.0 secs   av.it.:  11.2
      thresh= 8.975E-06 alpha_mix =  0.700 |ddv_scf|^2 =  2.112E-10

      iter #   4 total cpu time :    49.7 secs   av.it.:  10.1
      thresh= 1.453E-06 alpha_mix =  0.700 |ddv_scf|^2 =  3.864E-13

     End of self-consistent calculation

     Convergence has been achieved 

     Number of q in the star =    4
     List of q in the star:
          1   0.500000000  -0.500000000   0.500000000
          2   0.500000000   0.500000000   0.500000000
          3  -0.500000000   0.500000000   0.500000000
          4   0.500000000   0.500000000  -0.500000000

     Diagonalizing the dynamical matrix

     q = (    0.500000000  -0.500000000   0.500000000 ) 

 **************************************************************************
     freq (    1) =       3.335009 [THz] =     111.243941 [cm-1]
     freq (    2) =       3.335009 [THz] =     111.243941 [cm-1]
     freq (    3) =      11.070398 [THz] =     369.268718 [cm-1]
     freq (    4) =      11.839544 [THz] =     394.924683 [cm-1]
     freq (    5) =      14.166924 [THz] =     472.557712 [cm-1]
     freq (    6) =      14.166924 [THz] =     472.557712 [cm-1]
 **************************************************************************

     Calculation of q =    0.0000000   0.5000000   0.0000000

   Info: using nr1, nr2, nr3 values from input

   Info: using nr1, nr2, nr3 values from input

     Parallelization info
     --------------------
     sticks:   dense  smooth     PW     G-vecs:    dense   smooth      PW
     Min         222     109     40                 4363     1545     322
     Max         223     110     42                 4364     1547     323
     Sum         889     439    163                17453     6183    1291



     bravais-lattice index     =            2
     lattice parameter (alat)  =      10.3560  a.u.
     unit-cell volume          =     277.6618 (a.u.)^3
     number of atoms/cell      =            2
     number of atomic types    =            1
     number of electrons       =         8.00
     number of Kohn-Sham states=            4
     kinetic-energy cutoff     =      30.0000  Ry
     charge density cutoff     =     240.0000  Ry
     Exchange-correlation      = SLA  PW   PBE  PBE ( 1  4  3  4 0 0)

     celldm(1)=  10.356000  celldm(2)=   0.000000  celldm(3)=   0.000000
     celldm(4)=   0.000000  celldm(5)=   0.000000  celldm(6)=   0.000000

     crystal axes: (cart. coord. in units of alat)
               a(1) = (  -0.500000   0.000000   0.500000 )  
               a(2) = (   0.000000   0.500000   0.500000 )  
               a(3) = (  -0.500000   0.500000   0.000000 )  

     reciprocal axes: (cart. coord. in units 2 pi/alat)
               b(1) = ( -1.000000 -1.000000  1.000000 )  
               b(2) = (  1.000000  1.000000  1.000000 )  
               b(3) = ( -1.000000  1.000000 -1.000000 )  


     PseudoPot. # 1 for Si read from file:
     /home/s1333534/quantum_espresso/qe-6.1/pseudo/si_pbe_v1.uspp.F.UPF.txt
     MD5 check sum: a056efeee980c13900f22a371efd63c1
     Pseudo is Ultrasoft + core correction, Zval =  4.0
     Generated by new atomic code, or converted to UPF format
     Using radial grid of  899 points,  6 beta functions with: 
                l(1) =   0
                l(2) =   0
                l(3) =   1
                l(4) =   1
                l(5) =   2
                l(6) =   2
     Q(r) pseudized with  8 coefficients,  rinner =    0.900   0.900   0.900
                                                       0.900   0.900

     atomic species   valence    mass     pseudopotential
        Si             4.00    28.08600     Si( 1.00)

     48 Sym. Ops., with inversion, found



   Cartesian axes

     site n.     atom                  positions (alat units)
         1           Si  tau(   1) = (   0.0000000   0.0000000   0.0000000  )
         2           Si  tau(   2) = (   0.2500000   0.2500000   0.2500000  )

     number of k points=    80
                       cart. coord. in units 2pi/alat
        k(    1) = (  -0.1250000   0.1250000   0.1250000), wk =   0.0312500
        k(    2) = (  -0.1250000   0.6250000   0.1250000), wk =   0.0000000
        k(    3) = (  -0.3750000   0.3750000  -0.1250000), wk =   0.0625000
        k(    4) = (  -0.3750000   0.8750000  -0.1250000), wk =   0.0000000
        k(    5) = (   0.3750000  -0.3750000   0.6250000), wk =   0.0625000
        k(    6) = (   0.3750000   0.1250000   0.6250000), wk =   0.0000000
        k(    7) = (   0.1250000  -0.1250000   0.3750000), wk =   0.0625000
        k(    8) = (   0.1250000   0.3750000   0.3750000), wk =   0.0000000
        k(    9) = (  -0.1250000   0.6250000   0.1250000), wk =   0.0312500
        k(   10) = (  -0.1250000   1.1250000   0.1250000), wk =   0.0000000
        k(   11) = (   0.6250000  -0.1250000   0.8750000), wk =   0.0625000
        k(   12) = (   0.6250000   0.3750000   0.8750000), wk =   0.0000000
        k(   13) = (   0.3750000   0.1250000   0.6250000), wk =   0.0625000
        k(   14) = (   0.3750000   0.6250000   0.6250000), wk =   0.0000000
        k(   15) = (  -0.1250000  -0.8750000   0.1250000), wk =   0.0312500
        k(   16) = (  -0.1250000  -0.3750000   0.1250000), wk =   0.0000000
        k(   17) = (  -0.3750000   0.3750000   0.3750000), wk =   0.0312500
        k(   18) = (  -0.3750000   0.8750000   0.3750000), wk =   0.0000000
        k(   19) = (   0.3750000  -0.3750000   1.1250000), wk =   0.0625000
        k(   20) = (   0.3750000   0.1250000   1.1250000), wk =   0.0000000
        k(   21) = (  -0.1250000  -0.1250000   0.1250000), wk =   0.0312500
        k(   22) = (  -0.1250000   0.3750000   0.1250000), wk =   0.0000000
        k(   23) = (   0.1250000  -0.3750000   0.3750000), wk =   0.0625000
        k(   24) = (   0.1250000   0.1250000   0.3750000), wk =   0.0000000
        k(   25) = (   0.3750000  -0.1250000   0.3750000), wk =   0.0312500
        k(   26) = (   0.3750000   0.3750000   0.3750000), wk =   0.0000000
        k(   27) = (   0.3750000   0.1250000   0.3750000), wk =   0.0312500
        k(   28) = (   0.3750000   0.6250000   0.3750000), wk =   0.0000000
        k(   29) = (  -0.6250000   0.3750000  -0.3750000), wk =   0.0625000
        k(   30) = (  -0.6250000   0.8750000  -0.3750000), wk =   0.0000000
        k(   31) = (  -0.3750000   0.6250000  -0.3750000), wk =   0.0312500
        k(   32) = (  -0.3750000   1.1250000  -0.3750000), wk =   0.0000000
        k(   33) = (  -0.3750000  -0.6250000  -0.3750000), wk =   0.0312500
        k(   34) = (  -0.3750000  -0.1250000  -0.3750000), wk =   0.0000000
        k(   35) = (  -0.3750000   0.1250000  -0.1250000), wk =   0.0625000
        k(   36) = (  -0.3750000   0.6250000  -0.1250000), wk =   0.0000000
        k(   37) = (  -0.1250000   0.3750000  -0.1250000), wk =   0.0312500
        k(   38) = (  -0.1250000   0.8750000  -0.1250000), wk =   0.0000000
        k(   39) = (  -0.1250000  -0.3750000  -0.1250000), wk =   0.0312500
        k(   40) = (  -0.1250000   0.1250000  -0.1250000), wk =   0.0000000
        k(   41) = (  -0.1250000  -0.6250000   0.1250000), wk =   0.0312500
        k(   42) = (  -0.1250000  -0.1250000   0.1250000), wk =   0.0000000
        k(   43) = (   0.6250000  -0.1250000  -0.1250000), wk =   0.0625000
        k(   44) = (   0.6250000   0.3750000  -0.1250000), wk =   0.0000000
        k(   45) = (   0.6250000   0.1250000   0.1250000), wk =   0.0625000
        k(   46) = (   0.6250000   0.6250000   0.1250000), wk =   0.0000000
        k(   47) = (  -0.8750000   0.1250000  -0.6250000), wk =   0.0625000
        k(   48) = (  -0.8750000   0.6250000  -0.6250000), wk =   0.0000000
        k(   49) = (  -0.1250000   0.6250000  -0.8750000), wk =   0.0625000
        k(   50) = (  -0.1250000   1.1250000  -0.8750000), wk =   0.0000000
        k(   51) = (  -0.1250000   0.8750000  -0.6250000), wk =   0.0625000
        k(   52) = (  -0.1250000   1.3750000  -0.6250000), wk =   0.0000000
        k(   53) = (  -0.1250000  -0.8750000  -0.6250000), wk =   0.0625000
        k(   54) = (  -0.1250000  -0.3750000  -0.6250000), wk =   0.0000000
        k(   55) = (   0.8750000  -0.6250000   0.1250000), wk =   0.0625000
        k(   56) = (   0.8750000  -0.1250000   0.1250000), wk =   0.0000000
        k(   57) = (  -0.6250000  -0.1250000  -0.3750000), wk =   0.0625000
        k(   58) = (  -0.6250000   0.3750000  -0.3750000), wk =   0.0000000
        k(   59) = (   0.1250000   0.3750000  -0.6250000), wk =   0.0625000
        k(   60) = (   0.1250000   0.8750000  -0.6250000), wk =   0.0000000
        k(   61) = (   0.1250000   0.6250000  -0.3750000), wk =   0.0625000
        k(   62) = (   0.1250000   1.1250000  -0.3750000), wk =   0.0000000
        k(   63) = (   0.1250000  -0.6250000  -0.3750000), wk =   0.0625000
        k(   64) = (   0.1250000  -0.1250000  -0.3750000), wk =   0.0000000
        k(   65) = (   0.6250000  -0.3750000  -0.1250000), wk =   0.0625000
        k(   66) = (   0.6250000   0.1250000  -0.1250000), wk =   0.0000000
        k(   67) = (  -0.1250000   0.8750000   0.1250000), wk =   0.0312500
        k(   68) = (  -0.1250000   1.3750000   0.1250000), wk =   0.0000000
        k(   69) = (  -0.8750000  -0.1250000  -0.1250000), wk =   0.0625000
        k(   70) = (  -0.8750000   0.3750000  -0.1250000), wk =   0.0000000
        k(   71) = (  -0.8750000   0.1250000   0.1250000), wk =   0.0625000
        k(   72) = (  -0.8750000   0.6250000   0.1250000), wk =   0.0000000
        k(   73) = (  -0.3750000  -0.3750000   0.3750000), wk =   0.0312500
        k(   74) = (  -0.3750000   0.1250000   0.3750000), wk =   0.0000000
        k(   75) = (  -1.1250000   0.3750000  -0.3750000), wk =   0.0625000
        k(   76) = (  -1.1250000   0.8750000  -0.3750000), wk =   0.0000000
        k(   77) = (  -0.3750000   1.1250000  -0.3750000), wk =   0.0312500
        k(   78) = (  -0.3750000   1.6250000  -0.3750000), wk =   0.0000000
        k(   79) = (  -0.3750000  -1.1250000  -0.3750000), wk =   0.0312500
        k(   80) = (  -0.3750000  -0.6250000  -0.3750000), wk =   0.0000000

     Dense  grid:    17453 G-vectors     FFT dimensions: (  40,  40,  40)

     Smooth grid:     6183 G-vectors     FFT dimensions: (  25,  25,  25)

     Estimated max dynamical RAM per process >       1.79MB

     Estimated total allocated dynamical RAM >       7.17MB

     The potential is recalculated from file :
     ./_ph0/silicon.10.356.save/charge-density.dat

     Starting wfc are    8 atomic wfcs

     Band Structure Calculation
     Davidson diagonalization with overlap

     ethr =  1.25E-10,  avg # of iterations = 12.2

     total cpu time spent up to now is        3.5 secs

     End of band structure calculation

          k =-0.1250 0.1250 0.1250 (   773 PWs)   bands (ev):

    -5.6616   4.3221   5.6317   5.6317

          k =-0.1250 0.6250 0.1250 (   775 PWs)   bands (ev):

    -4.1123   1.0013   3.3129   3.7625

          k =-0.3750 0.3750-0.1250 (   776 PWs)   bands (ev):

    -4.6417   1.3412   3.6577   5.1533

          k =-0.3750 0.8750-0.1250 (   762 PWs)   bands (ev):

    -2.4848  -0.9502   1.9704   3.0390

          k = 0.3750-0.3750 0.6250 (   773 PWs)   bands (ev):

    -3.5116  -0.7216   3.6752   4.3876

          k = 0.3750 0.1250 0.6250 (   770 PWs)   bands (ev):

    -3.7002   0.1373   2.6741   4.0355

          k = 0.1250-0.1250 0.3750 (   781 PWs)   bands (ev):

    -5.1371   2.7092   4.6311   4.6911

          k = 0.1250 0.3750 0.3750 (   776 PWs)   bands (ev):

    -4.6417   1.3412   3.6577   5.1533

          k =-0.1250 0.6250 0.1250 (   775 PWs)   bands (ev):

    -4.1123   1.0013   3.3129   3.7625

          k =-0.1250 1.1250 0.1250 (   763 PWs)   bands (ev):

    -2.6498  -0.8543   2.5754   3.2983

          k = 0.6250-0.1250 0.8750 (   762 PWs)   bands (ev):

    -2.4848  -0.9502   1.9704   3.0390

          k = 0.6250 0.3750 0.8750 (   770 PWs)   bands (ev):

    -3.7002   0.1373   2.6741   4.0355

          k = 0.3750 0.1250 0.6250 (   770 PWs)   bands (ev):

    -3.7002   0.1373   2.6741   4.0355

          k = 0.3750 0.6250 0.6250 (   773 PWs)   bands (ev):

    -3.5116  -0.7216   3.6752   4.3876

          k =-0.1250-0.8750 0.1250 (   763 PWs)   bands (ev):

    -2.6498  -0.8543   2.5754   3.2983

          k =-0.1250-0.3750 0.1250 (   781 PWs)   bands (ev):

    -5.1371   2.7092   4.6311   4.6911

          k =-0.3750 0.3750 0.3750 (   769 PWs)   bands (ev):

    -4.2122   0.0618   4.8485   4.8485

          k =-0.3750 0.8750 0.3750 (   769 PWs)   bands (ev):

    -3.0188  -0.6442   2.0257   4.0731

          k = 0.3750-0.3750 1.1250 (   769 PWs)   bands (ev):

    -3.0188  -0.6442   2.0257   4.0731

          k = 0.3750 0.1250 1.1250 (   762 PWs)   bands (ev):

    -2.4848  -0.9502   1.9704   3.0390

          k =-0.1250-0.1250 0.1250 (   773 PWs)   bands (ev):

    -5.6616   4.3221   5.6317   5.6317

          k =-0.1250 0.3750 0.1250 (   781 PWs)   bands (ev):

    -5.1371   2.7092   4.6311   4.6911

          k = 0.1250-0.3750 0.3750 (   776 PWs)   bands (ev):

    -4.6417   1.3412   3.6577   5.1533

          k = 0.1250 0.1250 0.3750 (   781 PWs)   bands (ev):

    -5.1371   2.7092   4.6311   4.6911

          k = 0.3750-0.1250 0.3750 (   776 PWs)   bands (ev):

    -4.6417   1.3412   3.6577   5.1533

          k = 0.3750 0.3750 0.3750 (   769 PWs)   bands (ev):

    -4.2122   0.0618   4.8485   4.8485

          k = 0.3750 0.1250 0.3750 (   776 PWs)   bands (ev):

    -4.6417   1.3412   3.6577   5.1533

          k = 0.3750 0.6250 0.3750 (   773 PWs)   bands (ev):

    -3.5116  -0.7216   3.6752   4.3876

          k =-0.6250 0.3750-0.3750 (   773 PWs)   bands (ev):

    -3.5116  -0.7216   3.6752   4.3876

          k =-0.6250 0.8750-0.3750 (   770 PWs)   bands (ev):

    -3.7002   0.1373   2.6741   4.0355

          k =-0.3750 0.6250-0.3750 (   773 PWs)   bands (ev):

    -3.5116  -0.7216   3.6752   4.3876

          k =-0.3750 1.1250-0.3750 (   769 PWs)   bands (ev):

    -3.0188  -0.6442   2.0257   4.0731

          k =-0.3750-0.6250-0.3750 (   773 PWs)   bands (ev):

    -3.5116  -0.7216   3.6752   4.3876

          k =-0.3750-0.1250-0.3750 (   776 PWs)   bands (ev):

    -4.6417   1.3412   3.6577   5.1533

          k =-0.3750 0.1250-0.1250 (   781 PWs)   bands (ev):

    -5.1371   2.7092   4.6311   4.6911

          k =-0.3750 0.6250-0.1250 (   770 PWs)   bands (ev):

    -3.7002   0.1373   2.6741   4.0355

          k =-0.1250 0.3750-0.1250 (   781 PWs)   bands (ev):

    -5.1371   2.7092   4.6311   4.6911

          k =-0.1250 0.8750-0.1250 (   763 PWs)   bands (ev):

    -2.6498  -0.8543   2.5754   3.2983

          k =-0.1250-0.3750-0.1250 (   781 PWs)   bands (ev):

    -5.1371   2.7092   4.6311   4.6911

          k =-0.1250 0.1250-0.1250 (   773 PWs)   bands (ev):

    -5.6616   4.3221   5.6317   5.6317

          k =-0.1250-0.6250 0.1250 (   775 PWs)   bands (ev):

    -4.1123   1.0013   3.3129   3.7625

          k =-0.1250-0.1250 0.1250 (   773 PWs)   bands (ev):

    -5.6616   4.3221   5.6317   5.6317

          k = 0.6250-0.1250-0.1250 (   775 PWs)   bands (ev):

    -4.1123   1.0013   3.3129   3.7625

          k = 0.6250 0.3750-0.1250 (   770 PWs)   bands (ev):

    -3.7002   0.1373   2.6741   4.0355

          k = 0.6250 0.1250 0.1250 (   775 PWs)   bands (ev):

    -4.1123   1.0013   3.3129   3.7625

          k = 0.6250 0.6250 0.1250 (   769 PWs)   bands (ev):

    -3.0188  -0.6442   2.0257   4.0731

          k =-0.8750 0.1250-0.6250 (   762 PWs)   bands (ev):

    -2.4848  -0.9502   1.9704   3.0390

          k =-0.8750 0.6250-0.6250 (   776 PWs)   bands (ev):

    -4.6417   1.3412   3.6577   5.1533

          k =-0.1250 0.6250-0.8750 (   762 PWs)   bands (ev):

    -2.4848  -0.9502   1.9704   3.0390

          k =-0.1250 1.1250-0.8750 (   763 PWs)   bands (ev):

    -2.6498  -0.8543   2.5754   3.2983

          k =-0.1250 0.8750-0.6250 (   762 PWs)   bands (ev):

    -2.4848  -0.9502   1.9704   3.0390

          k =-0.1250 1.3750-0.6250 (   769 PWs)   bands (ev):

    -3.0188  -0.6442   2.0257   4.0731

          k =-0.1250-0.8750-0.6250 (   762 PWs)   bands (ev):

    -2.4848  -0.9502   1.9704   3.0390

          k =-0.1250-0.3750-0.6250 (   770 PWs)   bands (ev):

    -3.7002   0.1373   2.6741   4.0355

          k = 0.8750-0.6250 0.1250 (   762 PWs)   bands (ev):

    -2.4848  -0.9502   1.9704   3.0390

          k = 0.8750-0.1250 0.1250 (   763 PWs)   bands (ev):

    -2.6498  -0.8543   2.5754   3.2983

          k =-0.6250-0.1250-0.3750 (   770 PWs)   bands (ev):

    -3.7002   0.1373   2.6741   4.0355

          k =-0.6250 0.3750-0.3750 (   773 PWs)   bands (ev):

    -3.5116  -0.7216   3.6752   4.3876

          k = 0.1250 0.3750-0.6250 (   770 PWs)   bands (ev):

    -3.7002   0.1373   2.6741   4.0355

          k = 0.1250 0.8750-0.6250 (   762 PWs)   bands (ev):

    -2.4848  -0.9502   1.9704   3.0390

          k = 0.1250 0.6250-0.3750 (   770 PWs)   bands (ev):

    -3.7002   0.1373   2.6741   4.0355

          k = 0.1250 1.1250-0.3750 (   762 PWs)   bands (ev):

    -2.4848  -0.9502   1.9704   3.0390

          k = 0.1250-0.6250-0.3750 (   770 PWs)   bands (ev):

    -3.7002   0.1373   2.6741   4.0355

          k = 0.1250-0.1250-0.3750 (   781 PWs)   bands (ev):

    -5.1371   2.7092   4.6311   4.6911

          k = 0.6250-0.3750-0.1250 (   770 PWs)   bands (ev):

    -3.7002   0.1373   2.6741   4.0355

          k = 0.6250 0.1250-0.1250 (   775 PWs)   bands (ev):

    -4.1123   1.0013   3.3129   3.7625

          k =-0.1250 0.8750 0.1250 (   763 PWs)   bands (ev):

    -2.6498  -0.8543   2.5754   3.2983

          k =-0.1250 1.3750 0.1250 (   775 PWs)   bands (ev):

    -4.1123   1.0013   3.3129   3.7625

          k =-0.8750-0.1250-0.1250 (   763 PWs)   bands (ev):

    -2.6498  -0.8543   2.5754   3.2983

          k =-0.8750 0.3750-0.1250 (   762 PWs)   bands (ev):

    -2.4848  -0.9502   1.9704   3.0390

          k =-0.8750 0.1250 0.1250 (   763 PWs)   bands (ev):

    -2.6498  -0.8543   2.5754   3.2983

          k =-0.8750 0.6250 0.1250 (   762 PWs)   bands (ev):

    -2.4848  -0.9502   1.9704   3.0390

          k =-0.3750-0.3750 0.3750 (   769 PWs)   bands (ev):

    -4.2122   0.0618   4.8485   4.8485

          k =-0.3750 0.1250 0.3750 (   776 PWs)   bands (ev):

    -4.6417   1.3412   3.6577   5.1533

          k =-1.1250 0.3750-0.3750 (   769 PWs)   bands (ev):

    -3.0188  -0.6442   2.0257   4.0731

          k =-1.1250 0.8750-0.3750 (   775 PWs)   bands (ev):

    -4.1123   1.0013   3.3129   3.7625

          k =-0.3750 1.1250-0.3750 (   769 PWs)   bands (ev):

    -3.0188  -0.6442   2.0257   4.0731

          k =-0.3750 1.6250-0.3750 (   769 PWs)   bands (ev):

    -4.2122   0.0618   4.8485   4.8485

          k =-0.3750-1.1250-0.3750 (   769 PWs)   bands (ev):

    -3.0188  -0.6442   2.0257   4.0731

          k =-0.3750-0.6250-0.3750 (   773 PWs)   bands (ev):

    -3.5116  -0.7216   3.6752   4.3876

     highest occupied level (ev):     5.6317

     Writing output data file silicon.10.356.save

                                                                                

     bravais-lattice index     =            2
     lattice parameter (alat)  =      10.3560  a.u.
     unit-cell volume          =     277.6618 (a.u.)^3
     number of atoms/cell      =            2
     number of atomic types    =            1
     kinetic-energy cut-off    =      30.0000  Ry
     charge density cut-off    =     240.0000  Ry
     convergence threshold     =      1.0E-12
     beta                      =       0.7000
     number of iterations used =            4
     Exchange-correlation      = SLA  PW   PBE  PBE ( 1  4  3  4 0 0)


     celldm(1)=   10.35600  celldm(2)=    0.00000  celldm(3)=    0.00000
     celldm(4)=    0.00000  celldm(5)=    0.00000  celldm(6)=    0.00000

     crystal axes: (cart. coord. in units of alat)
               a(1) = ( -0.5000  0.0000  0.5000 )  
               a(2) = (  0.0000  0.5000  0.5000 )  
               a(3) = ( -0.5000  0.5000  0.0000 )  

     reciprocal axes: (cart. coord. in units 2 pi/alat)
               b(1) = ( -1.0000 -1.0000  1.0000 )  
               b(2) = (  1.0000  1.0000  1.0000 )  
               b(3) = ( -1.0000  1.0000 -1.0000 )  


     Atoms inside the unit cell: 

     Cartesian axes

     site n.  atom      mass           positions (alat units)
        1     Si  28.0860   tau(    1) = (    0.00000    0.00000    0.00000  )
        2     Si  28.0860   tau(    2) = (    0.25000    0.25000    0.25000  )

     Computing dynamical matrix for 
                    q = (   0.0000000   0.5000000   0.0000000 )

      8 Sym.Ops. (no q -> -q+G )


     G cutoff =  651.9820  (   4363 G-vectors)     FFT grid: ( 40, 40, 40)
     G cutoff =  325.9910  (   1545 G-vectors)  smooth grid: ( 25, 25, 25)
     number of k points=    80

     PseudoPot. # 1 for Si read from file:
     /home/s1333534/quantum_espresso/qe-6.1/pseudo/si_pbe_v1.uspp.F.UPF.txt
     MD5 check sum: a056efeee980c13900f22a371efd63c1
     Pseudo is Ultrasoft + core correction, Zval =  4.0
     Generated by new atomic code, or converted to UPF format
     Using radial grid of  899 points,  6 beta functions with: 
                l(1) =   0
                l(2) =   0
                l(3) =   1
                l(4) =   1
                l(5) =   2
                l(6) =   2
     Q(r) pseudized with  8 coefficients,  rinner =    0.900   0.900   0.900
                                                       0.900   0.900

     Mode symmetry, C_4v (4mm)  point group:


     Atomic displacements:
     There are   4 irreducible representations

     Representation     1      1 modes -A_1  G_1 D_1  To be done

     Representation     2      1 modes -B_2  G_4 D_2'  To be done

     Representation     3      2 modes -E    G_5 D_5  To be done

     Representation     4      2 modes -E    G_5 D_5  To be done



     Alpha used in Ewald sum =   2.5000
     PHONON       :    40.19s CPU        52.17s WALL



     Representation #  1 mode #   1

     Self-consistent Calculation

      iter #   1 total cpu time :    52.5 secs   av.it.:   6.2
      thresh= 1.000E-02 alpha_mix =  0.700 |ddv_scf|^2 =  3.716E-04

      iter #   2 total cpu time :    53.1 secs   av.it.:   9.5
      thresh= 1.928E-03 alpha_mix =  0.700 |ddv_scf|^2 =  4.949E-03

      iter #   3 total cpu time :    53.5 secs   av.it.:   7.5
      thresh= 7.035E-03 alpha_mix =  0.700 |ddv_scf|^2 =  7.300E-09

      iter #   4 total cpu time :    54.0 secs   av.it.:  10.3
      thresh= 8.544E-06 alpha_mix =  0.700 |ddv_scf|^2 =  7.468E-10

      iter #   5 total cpu time :    54.5 secs   av.it.:   9.8
      thresh= 2.733E-06 alpha_mix =  0.700 |ddv_scf|^2 =  8.014E-11

      iter #   6 total cpu time :    55.0 secs   av.it.:   9.5
      thresh= 8.952E-07 alpha_mix =  0.700 |ddv_scf|^2 =  2.201E-13

     End of self-consistent calculation

     Convergence has been achieved 


     Representation #  2 mode #   2

     Self-consistent Calculation

      iter #   1 total cpu time :    55.5 secs   av.it.:   5.1
      thresh= 1.000E-02 alpha_mix =  0.700 |ddv_scf|^2 =  5.894E-07

      iter #   2 total cpu time :    56.1 secs   av.it.:  10.6
      thresh= 7.677E-05 alpha_mix =  0.700 |ddv_scf|^2 =  1.634E-07

      iter #   3 total cpu time :    56.6 secs   av.it.:  10.2
      thresh= 4.043E-05 alpha_mix =  0.700 |ddv_scf|^2 =  1.675E-09

      iter #   4 total cpu time :    57.1 secs   av.it.:  10.3
      thresh= 4.092E-06 alpha_mix =  0.700 |ddv_scf|^2 =  6.677E-11

      iter #   5 total cpu time :    57.6 secs   av.it.:  10.5
      thresh= 8.172E-07 alpha_mix =  0.700 |ddv_scf|^2 =  3.872E-13

     End of self-consistent calculation

     Convergence has been achieved 


     Representation #  3 modes #   3  4

     Self-consistent Calculation

      iter #   1 total cpu time :    58.4 secs   av.it.:   5.2
      thresh= 1.000E-02 alpha_mix =  0.700 |ddv_scf|^2 =  1.043E-07

      iter #   2 total cpu time :    59.4 secs   av.it.:  11.7
      thresh= 3.230E-05 alpha_mix =  0.700 |ddv_scf|^2 =  1.440E-08

      iter #   3 total cpu time :    60.4 secs   av.it.:  11.3
      thresh= 1.200E-05 alpha_mix =  0.700 |ddv_scf|^2 =  2.425E-10

      iter #   4 total cpu time :    61.3 secs   av.it.:  10.8
      thresh= 1.557E-06 alpha_mix =  0.700 |ddv_scf|^2 =  5.752E-13

     End of self-consistent calculation

     Convergence has been achieved 


     Representation #  4 modes #   5  6

     Self-consistent Calculation

      iter #   1 total cpu time :    62.1 secs   av.it.:   5.3
      thresh= 1.000E-02 alpha_mix =  0.700 |ddv_scf|^2 =  9.565E-08

      iter #   2 total cpu time :    63.2 secs   av.it.:  11.6
      thresh= 3.093E-05 alpha_mix =  0.700 |ddv_scf|^2 =  1.286E-08

      iter #   3 total cpu time :    64.2 secs   av.it.:  11.4
      thresh= 1.134E-05 alpha_mix =  0.700 |ddv_scf|^2 =  2.478E-10

      iter #   4 total cpu time :    65.1 secs   av.it.:  11.1
      thresh= 1.574E-06 alpha_mix =  0.700 |ddv_scf|^2 =  6.136E-13

     End of self-consistent calculation

     Convergence has been achieved 

     Number of q in the star =    6
     List of q in the star:
          1   0.000000000   0.500000000   0.000000000
          2   0.000000000  -0.500000000   0.000000000
          3   0.500000000   0.000000000   0.000000000
          4   0.000000000   0.000000000   0.500000000
          5   0.000000000   0.000000000  -0.500000000
          6  -0.500000000   0.000000000   0.000000000

     Diagonalizing the dynamical matrix

     q = (    0.000000000   0.500000000   0.000000000 ) 

 **************************************************************************
     freq (    1) =       3.782847 [THz] =     126.182178 [cm-1]
     freq (    2) =       3.782847 [THz] =     126.182178 [cm-1]
     freq (    3) =       7.009391 [THz] =     233.808105 [cm-1]
     freq (    4) =      13.706287 [THz] =     457.192535 [cm-1]
     freq (    5) =      13.706287 [THz] =     457.192535 [cm-1]
     freq (    6) =      14.363518 [THz] =     479.115378 [cm-1]
 **************************************************************************

     Mode symmetry, C_4v (4mm)  point group:

     freq (  1 -  2) =        126.2  [cm-1]   --> E    G_5 D_5       
     freq (  3 -  3) =        233.8  [cm-1]   --> A_1  G_1 D_1       
     freq (  4 -  5) =        457.2  [cm-1]   --> E    G_5 D_5       
     freq (  6 -  6) =        479.1  [cm-1]   --> B_2  G_4 D_2'      

     Calculation of q =    0.7500000  -0.2500000   0.7500000

   Info: using nr1, nr2, nr3 values from input

   Info: using nr1, nr2, nr3 values from input

     Parallelization info
     --------------------
     sticks:   dense  smooth     PW     G-vecs:    dense   smooth      PW
     Min         222     109     40                 4363     1545     362
     Max         223     110     41                 4364     1546     366
     Sum         889     439    163                17453     6183    1459



     bravais-lattice index     =            2
     lattice parameter (alat)  =      10.3560  a.u.
     unit-cell volume          =     277.6618 (a.u.)^3
     number of atoms/cell      =            2
     number of atomic types    =            1
     number of electrons       =         8.00
     number of Kohn-Sham states=            4
     kinetic-energy cutoff     =      30.0000  Ry
     charge density cutoff     =     240.0000  Ry
     Exchange-correlation      = SLA  PW   PBE  PBE ( 1  4  3  4 0 0)

     celldm(1)=  10.356000  celldm(2)=   0.000000  celldm(3)=   0.000000
     celldm(4)=   0.000000  celldm(5)=   0.000000  celldm(6)=   0.000000

     crystal axes: (cart. coord. in units of alat)
               a(1) = (  -0.500000   0.000000   0.500000 )  
               a(2) = (   0.000000   0.500000   0.500000 )  
               a(3) = (  -0.500000   0.500000   0.000000 )  

     reciprocal axes: (cart. coord. in units 2 pi/alat)
               b(1) = ( -1.000000 -1.000000  1.000000 )  
               b(2) = (  1.000000  1.000000  1.000000 )  
               b(3) = ( -1.000000  1.000000 -1.000000 )  


     PseudoPot. # 1 for Si read from file:
     /home/s1333534/quantum_espresso/qe-6.1/pseudo/si_pbe_v1.uspp.F.UPF.txt
     MD5 check sum: a056efeee980c13900f22a371efd63c1
     Pseudo is Ultrasoft + core correction, Zval =  4.0
     Generated by new atomic code, or converted to UPF format
     Using radial grid of  899 points,  6 beta functions with: 
                l(1) =   0
                l(2) =   0
                l(3) =   1
                l(4) =   1
                l(5) =   2
                l(6) =   2
     Q(r) pseudized with  8 coefficients,  rinner =    0.900   0.900   0.900
                                                       0.900   0.900

     atomic species   valence    mass     pseudopotential
        Si             4.00    28.08600     Si( 1.00)

     48 Sym. Ops., with inversion, found



   Cartesian axes

     site n.     atom                  positions (alat units)
         1           Si  tau(   1) = (   0.0000000   0.0000000   0.0000000  )
         2           Si  tau(   2) = (   0.2500000   0.2500000   0.2500000  )

     number of k points=   288

     Number of k-points >= 100: set verbosity='high' to print them.

     Dense  grid:    17453 G-vectors     FFT dimensions: (  40,  40,  40)

     Smooth grid:     6183 G-vectors     FFT dimensions: (  25,  25,  25)

     Estimated max dynamical RAM per process >       1.79MB

     Estimated total allocated dynamical RAM >       7.17MB

     The potential is recalculated from file :
     ./_ph0/silicon.10.356.save/charge-density.dat

     Starting wfc are    8 atomic wfcs

     Band Structure Calculation
     Davidson diagonalization with overlap

     ethr =  1.25E-10,  avg # of iterations = 12.1

     total cpu time spent up to now is        6.8 secs

     End of band structure calculation

     Number of k-points >= 100: set verbosity='high' to print the bands.

     highest occupied level (ev):     5.6317

     Writing output data file silicon.10.356.save

                                                                                

     bravais-lattice index     =            2
     lattice parameter (alat)  =      10.3560  a.u.
     unit-cell volume          =     277.6618 (a.u.)^3
     number of atoms/cell      =            2
     number of atomic types    =            1
     kinetic-energy cut-off    =      30.0000  Ry
     charge density cut-off    =     240.0000  Ry
     convergence threshold     =      1.0E-12
     beta                      =       0.7000
     number of iterations used =            4
     Exchange-correlation      = SLA  PW   PBE  PBE ( 1  4  3  4 0 0)


     celldm(1)=   10.35600  celldm(2)=    0.00000  celldm(3)=    0.00000
     celldm(4)=    0.00000  celldm(5)=    0.00000  celldm(6)=    0.00000

     crystal axes: (cart. coord. in units of alat)
               a(1) = ( -0.5000  0.0000  0.5000 )  
               a(2) = (  0.0000  0.5000  0.5000 )  
               a(3) = ( -0.5000  0.5000  0.0000 )  

     reciprocal axes: (cart. coord. in units 2 pi/alat)
               b(1) = ( -1.0000 -1.0000  1.0000 )  
               b(2) = (  1.0000  1.0000  1.0000 )  
               b(3) = ( -1.0000  1.0000 -1.0000 )  


     Atoms inside the unit cell: 

     Cartesian axes

     site n.  atom      mass           positions (alat units)
        1     Si  28.0860   tau(    1) = (    0.00000    0.00000    0.00000  )
        2     Si  28.0860   tau(    2) = (    0.25000    0.25000    0.25000  )

     Computing dynamical matrix for 
                    q = (   0.7500000  -0.2500000   0.7500000 )

      2 Sym.Ops. (no q -> -q+G )


     G cutoff =  651.9820  (   4363 G-vectors)     FFT grid: ( 40, 40, 40)
     G cutoff =  325.9910  (   1546 G-vectors)  smooth grid: ( 25, 25, 25)
     number of k points=   288

     PseudoPot. # 1 for Si read from file:
     /home/s1333534/quantum_espresso/qe-6.1/pseudo/si_pbe_v1.uspp.F.UPF.txt
     MD5 check sum: a056efeee980c13900f22a371efd63c1
     Pseudo is Ultrasoft + core correction, Zval =  4.0
     Generated by new atomic code, or converted to UPF format
     Using radial grid of  899 points,  6 beta functions with: 
                l(1) =   0
                l(2) =   0
                l(3) =   1
                l(4) =   1
                l(5) =   2
                l(6) =   2
     Q(r) pseudized with  8 coefficients,  rinner =    0.900   0.900   0.900
                                                       0.900   0.900

     Mode symmetry, C_s (m)     point group:


     Atomic displacements:
     There are   6 irreducible representations

     Representation     1      1 modes -A'  To be done

     Representation     2      1 modes -A'  To be done

     Representation     3      1 modes -A'  To be done

     Representation     4      1 modes -A'  To be done

     Representation     5      1 modes -A''  To be done

     Representation     6      1 modes -A''  To be done



     Alpha used in Ewald sum =   2.5000
     PHONON       :  0m54.77s CPU     1m10.48s WALL



     Representation #  1 mode #   1

     Self-consistent Calculation

      iter #   1 total cpu time :    71.4 secs   av.it.:   5.7
      thresh= 1.000E-02 alpha_mix =  0.700 |ddv_scf|^2 =  7.584E-06

      iter #   2 total cpu time :    72.8 secs   av.it.:  10.7
      thresh= 2.754E-04 alpha_mix =  0.700 |ddv_scf|^2 =  2.034E-05

      iter #   3 total cpu time :    74.1 secs   av.it.:   9.4
      thresh= 4.510E-04 alpha_mix =  0.700 |ddv_scf|^2 =  1.362E-07

      iter #   4 total cpu time :    75.4 secs   av.it.:  10.1
      thresh= 3.691E-05 alpha_mix =  0.700 |ddv_scf|^2 =  2.738E-09

      iter #   5 total cpu time :    76.8 secs   av.it.:  10.6
      thresh= 5.232E-06 alpha_mix =  0.700 |ddv_scf|^2 =  4.658E-10

      iter #   6 total cpu time :    78.2 secs   av.it.:  10.6
      thresh= 2.158E-06 alpha_mix =  0.700 |ddv_scf|^2 =  7.375E-12

      iter #   7 total cpu time :    79.6 secs   av.it.:  10.7
      thresh= 2.716E-07 alpha_mix =  0.700 |ddv_scf|^2 =  2.830E-13

     End of self-consistent calculation

     Convergence has been achieved 


     Representation #  2 mode #   2

     Self-consistent Calculation

      iter #   1 total cpu time :    80.6 secs   av.it.:   5.8
      thresh= 1.000E-02 alpha_mix =  0.700 |ddv_scf|^2 =  1.356E-05

      iter #   2 total cpu time :    82.0 secs   av.it.:  10.6
      thresh= 3.683E-04 alpha_mix =  0.700 |ddv_scf|^2 =  3.943E-05

      iter #   3 total cpu time :    83.2 secs   av.it.:   9.2
      thresh= 6.280E-04 alpha_mix =  0.700 |ddv_scf|^2 =  9.283E-08

      iter #   4 total cpu time :    84.6 secs   av.it.:  10.4
      thresh= 3.047E-05 alpha_mix =  0.700 |ddv_scf|^2 =  3.098E-09

      iter #   5 total cpu time :    85.9 secs   av.it.:  10.6
      thresh= 5.566E-06 alpha_mix =  0.700 |ddv_scf|^2 =  6.304E-10

      iter #   6 total cpu time :    87.3 secs   av.it.:  10.5
      thresh= 2.511E-06 alpha_mix =  0.700 |ddv_scf|^2 =  6.595E-12

      iter #   7 total cpu time :    88.6 secs   av.it.:  10.7
      thresh= 2.568E-07 alpha_mix =  0.700 |ddv_scf|^2 =  2.369E-13

     End of self-consistent calculation

     Convergence has been achieved 


     Representation #  3 mode #   3

     Self-consistent Calculation

      iter #   1 total cpu time :    89.7 secs   av.it.:   5.7
      thresh= 1.000E-02 alpha_mix =  0.700 |ddv_scf|^2 =  1.062E-05

      iter #   2 total cpu time :    91.1 secs   av.it.:  10.7
      thresh= 3.259E-04 alpha_mix =  0.700 |ddv_scf|^2 =  2.899E-05

      iter #   3 total cpu time :    92.3 secs   av.it.:   9.2
      thresh= 5.384E-04 alpha_mix =  0.700 |ddv_scf|^2 =  1.617E-07

      iter #   4 total cpu time :    93.6 secs   av.it.:  10.1
      thresh= 4.022E-05 alpha_mix =  0.700 |ddv_scf|^2 =  3.155E-09

      iter #   5 total cpu time :    95.1 secs   av.it.:  10.7
      thresh= 5.617E-06 alpha_mix =  0.700 |ddv_scf|^2 =  6.187E-10

      iter #   6 total cpu time :    96.6 secs   av.it.:  10.5
      thresh= 2.487E-06 alpha_mix =  0.700 |ddv_scf|^2 =  4.585E-12

      iter #   7 total cpu time :    98.0 secs   av.it.:  10.7
      thresh= 2.141E-07 alpha_mix =  0.700 |ddv_scf|^2 =  1.358E-13

     End of self-consistent calculation

     Convergence has been achieved 


     Representation #  4 mode #   4

     Self-consistent Calculation

      iter #   1 total cpu time :    99.2 secs   av.it.:   5.5
      thresh= 1.000E-02 alpha_mix =  0.700 |ddv_scf|^2 =  4.641E-06

      iter #   2 total cpu time :   100.7 secs   av.it.:  10.9
      thresh= 2.154E-04 alpha_mix =  0.700 |ddv_scf|^2 =  9.883E-06

      iter #   3 total cpu time :   102.2 secs   av.it.:   9.7
      thresh= 3.144E-04 alpha_mix =  0.700 |ddv_scf|^2 =  2.138E-07

      iter #   4 total cpu time :   103.9 secs   av.it.:  10.0
      thresh= 4.624E-05 alpha_mix =  0.700 |ddv_scf|^2 =  2.706E-09

      iter #   5 total cpu time :   106.2 secs   av.it.:  10.7
      thresh= 5.201E-06 alpha_mix =  0.700 |ddv_scf|^2 =  5.058E-10

      iter #   6 total cpu time :   107.9 secs   av.it.:  10.5
      thresh= 2.249E-06 alpha_mix =  0.700 |ddv_scf|^2 =  3.091E-12

      iter #   7 total cpu time :   109.4 secs   av.it.:  10.8
      thresh= 1.758E-07 alpha_mix =  0.700 |ddv_scf|^2 =  1.451E-13

     End of self-consistent calculation

     Convergence has been achieved 


     Representation #  5 mode #   5

     Self-consistent Calculation

      iter #   1 total cpu time :   110.8 secs   av.it.:   5.2
      thresh= 1.000E-02 alpha_mix =  0.700 |ddv_scf|^2 =  4.821E-07

      iter #   2 total cpu time :   112.4 secs   av.it.:  10.4
      thresh= 6.944E-05 alpha_mix =  0.700 |ddv_scf|^2 =  7.872E-08

      iter #   3 total cpu time :   114.0 secs   av.it.:  10.2
      thresh= 2.806E-05 alpha_mix =  0.700 |ddv_scf|^2 =  1.049E-09

      iter #   4 total cpu time :   115.7 secs   av.it.:   9.8
      thresh= 3.239E-06 alpha_mix =  0.700 |ddv_scf|^2 =  2.473E-12

      iter #   5 total cpu time :   117.1 secs   av.it.:  10.3
      thresh= 1.573E-07 alpha_mix =  0.700 |ddv_scf|^2 =  7.008E-14

     End of self-consistent calculation

     Convergence has been achieved 


     Representation #  6 mode #   6

     Self-consistent Calculation

      iter #   1 total cpu time :   118.3 secs   av.it.:   5.2
      thresh= 1.000E-02 alpha_mix =  0.700 |ddv_scf|^2 =  4.821E-07

      iter #   2 total cpu time :   119.9 secs   av.it.:  10.4
[...]
        k(   59) = (  -0.8750000   0.1250000  -0.1250000), wk =   0.0625000
        k(   60) = (  -1.3750000  -0.8750000  -0.1250000), wk =   0.0000000
        k(   61) = (  -1.1250000   0.3750000  -0.3750000), wk =   0.0625000
        k(   62) = (  -1.6250000  -0.6250000  -0.3750000), wk =   0.0000000
        k(   63) = (  -0.3750000   0.3750000   1.1250000), wk =   0.0625000
        k(   64) = (  -0.8750000  -0.6250000   1.1250000), wk =   0.0000000

     Dense  grid:    17453 G-vectors     FFT dimensions: (  40,  40,  40)

     Smooth grid:     6183 G-vectors     FFT dimensions: (  25,  25,  25)

     Estimated max dynamical RAM per process >       1.79MB

     Estimated total allocated dynamical RAM >       7.17MB

     The potential is recalculated from file :
     ./_ph0/silicon.10.356.save/charge-density.dat

     Starting wfc are    8 atomic wfcs

     Band Structure Calculation
     Davidson diagonalization with overlap

     ethr =  1.25E-10,  avg # of iterations = 12.1

     total cpu time spent up to now is       10.9 secs

     End of band structure calculation

          k =-0.1250 0.1250 0.1250 (   773 PWs)   bands (ev):

    -5.6616   4.3221   5.6317   5.6317

          k =-0.6250-0.8750 0.1250 (   762 PWs)   bands (ev):

    -2.4848  -0.9502   1.9704   3.0390

          k =-0.3750 0.3750-0.1250 (   776 PWs)   bands (ev):

    -4.6417   1.3412   3.6577   5.1533

          k =-0.8750-0.6250-0.1250 (   762 PWs)   bands (ev):

    -2.4848  -0.9502   1.9704   3.0390

          k = 0.3750-0.3750 0.6250 (   773 PWs)   bands (ev):

    -3.5116  -0.7216   3.6752   4.3876

          k =-0.1250-1.3750 0.6250 (   769 PWs)   bands (ev):

    -3.0188  -0.6442   2.0257   4.0731

          k = 0.1250-0.1250 0.3750 (   781 PWs)   bands (ev):

    -5.1371   2.7092   4.6311   4.6911

          k =-0.3750-1.1250 0.3750 (   769 PWs)   bands (ev):

    -3.0188  -0.6442   2.0257   4.0731

          k =-0.1250 0.6250 0.1250 (   775 PWs)   bands (ev):

    -4.1123   1.0013   3.3129   3.7625

          k =-0.6250-0.3750 0.1250 (   770 PWs)   bands (ev):

    -3.7002   0.1373   2.6741   4.0355

          k = 0.6250-0.1250 0.8750 (   762 PWs)   bands (ev):

    -2.4848  -0.9502   1.9704   3.0390

          k = 0.1250-1.1250 0.8750 (   763 PWs)   bands (ev):

    -2.6498  -0.8543   2.5754   3.2983

          k = 0.3750 0.1250 0.6250 (   770 PWs)   bands (ev):

    -3.7002   0.1373   2.6741   4.0355

          k =-0.1250-0.8750 0.6250 (   762 PWs)   bands (ev):

    -2.4848  -0.9502   1.9704   3.0390

          k =-0.1250-0.8750 0.1250 (   763 PWs)   bands (ev):

    -2.6498  -0.8543   2.5754   3.2983

          k =-0.6250-1.8750 0.1250 (   775 PWs)   bands (ev):

    -4.1123   1.0013   3.3129   3.7625

          k =-0.3750 0.3750 0.3750 (   769 PWs)   bands (ev):

    -4.2122   0.0618   4.8485   4.8485

          k =-0.8750-0.6250 0.3750 (   770 PWs)   bands (ev):

    -3.7002   0.1373   2.6741   4.0355

          k = 0.3750-0.3750 1.1250 (   769 PWs)   bands (ev):

    -3.0188  -0.6442   2.0257   4.0731

          k =-0.1250-1.3750 1.1250 (   762 PWs)   bands (ev):

    -2.4848  -0.9502   1.9704   3.0390

          k = 0.1250-0.3750 0.3750 (   776 PWs)   bands (ev):

    -4.6417   1.3412   3.6577   5.1533

          k =-0.3750-1.3750 0.3750 (   773 PWs)   bands (ev):

    -3.5116  -0.7216   3.6752   4.3876

          k = 0.3750-0.3750-0.1250 (   776 PWs)   bands (ev):

    -4.6417   1.3412   3.6577   5.1533

          k =-0.1250-1.3750-0.1250 (   775 PWs)   bands (ev):

    -4.1123   1.0013   3.3129   3.7625

          k =-0.6250 0.3750-0.3750 (   773 PWs)   bands (ev):

    -3.5116  -0.7216   3.6752   4.3876

          k =-1.1250-0.6250-0.3750 (   770 PWs)   bands (ev):

    -3.7002   0.1373   2.6741   4.0355

          k =-0.3750 0.3750 0.6250 (   773 PWs)   bands (ev):

    -3.5116  -0.7216   3.6752   4.3876

          k =-0.8750-0.6250 0.6250 (   776 PWs)   bands (ev):

    -4.6417   1.3412   3.6577   5.1533

          k =-0.3750 0.1250-0.1250 (   781 PWs)   bands (ev):

    -5.1371   2.7092   4.6311   4.6911

          k =-0.8750-0.8750-0.1250 (   763 PWs)   bands (ev):

    -2.6498  -0.8543   2.5754   3.2983

          k =-0.1250 0.1250 0.3750 (   781 PWs)   bands (ev):

    -5.1371   2.7092   4.6311   4.6911

          k =-0.6250-0.8750 0.3750 (   770 PWs)   bands (ev):

    -3.7002   0.1373   2.6741   4.0355

          k = 0.1250 0.6250-0.1250 (   775 PWs)   bands (ev):

    -4.1123   1.0013   3.3129   3.7625

          k =-0.3750-0.3750-0.1250 (   776 PWs)   bands (ev):

    -4.6417   1.3412   3.6577   5.1533

          k = 0.6250 0.1250-0.1250 (   775 PWs)   bands (ev):

    -4.1123   1.0013   3.3129   3.7625

          k = 0.1250-0.8750-0.1250 (   763 PWs)   bands (ev):

    -2.6498  -0.8543   2.5754   3.2983

          k =-0.8750 0.1250-0.6250 (   762 PWs)   bands (ev):

    -2.4848  -0.9502   1.9704   3.0390

          k =-1.3750-0.8750-0.6250 (   776 PWs)   bands (ev):

    -4.6417   1.3412   3.6577   5.1533

          k = 0.8750-0.1250 0.6250 (   762 PWs)   bands (ev):

    -2.4848  -0.9502   1.9704   3.0390

          k = 0.3750-1.1250 0.6250 (   770 PWs)   bands (ev):

    -3.7002   0.1373   2.6741   4.0355

          k =-0.6250 0.1250 0.8750 (   762 PWs)   bands (ev):

    -2.4848  -0.9502   1.9704   3.0390

          k =-1.1250-0.8750 0.8750 (   773 PWs)   bands (ev):

    -5.6616   4.3221   5.6317   5.6317

          k =-0.1250 0.8750 0.6250 (   762 PWs)   bands (ev):

    -2.4848  -0.9502   1.9704   3.0390

          k =-0.6250-0.1250 0.6250 (   769 PWs)   bands (ev):

    -3.0188  -0.6442   2.0257   4.0731

          k = 0.1250 0.8750-0.6250 (   762 PWs)   bands (ev):

    -2.4848  -0.9502   1.9704   3.0390

          k =-0.3750-0.1250-0.6250 (   770 PWs)   bands (ev):

    -3.7002   0.1373   2.6741   4.0355

          k =-0.6250-0.1250-0.3750 (   770 PWs)   bands (ev):

    -3.7002   0.1373   2.6741   4.0355

          k =-1.1250-1.1250-0.3750 (   775 PWs)   bands (ev):

    -4.1123   1.0013   3.3129   3.7625

          k = 0.6250 0.1250 0.3750 (   770 PWs)   bands (ev):

    -3.7002   0.1373   2.6741   4.0355

          k = 0.1250-0.8750 0.3750 (   762 PWs)   bands (ev):

    -2.4848  -0.9502   1.9704   3.0390

          k =-0.3750-0.1250 0.6250 (   770 PWs)   bands (ev):

    -3.7002   0.1373   2.6741   4.0355

          k =-0.8750-1.1250 0.6250 (   781 PWs)   bands (ev):

    -5.1371   2.7092   4.6311   4.6911

          k = 0.1250 0.6250 0.3750 (   770 PWs)   bands (ev):

    -3.7002   0.1373   2.6741   4.0355

          k =-0.3750-0.3750 0.3750 (   769 PWs)   bands (ev):

    -4.2122   0.0618   4.8485   4.8485

          k =-0.1250 0.6250-0.3750 (   770 PWs)   bands (ev):

    -3.7002   0.1373   2.6741   4.0355

          k =-0.6250-0.3750-0.3750 (   773 PWs)   bands (ev):

    -3.5116  -0.7216   3.6752   4.3876

          k = 0.1250-0.8750-0.1250 (   763 PWs)   bands (ev):

    -2.6498  -0.8543   2.5754   3.2983

          k =-0.3750-1.8750-0.1250 (   781 PWs)   bands (ev):

    -5.1371   2.7092   4.6311   4.6911

          k =-0.8750 0.1250-0.1250 (   763 PWs)   bands (ev):

    -2.6498  -0.8543   2.5754   3.2983

          k =-1.3750-0.8750-0.1250 (   762 PWs)   bands (ev):

    -2.4848  -0.9502   1.9704   3.0390

          k =-1.1250 0.3750-0.3750 (   769 PWs)   bands (ev):

    -3.0188  -0.6442   2.0257   4.0731

          k =-1.6250-0.6250-0.3750 (   773 PWs)   bands (ev):

    -3.5116  -0.7216   3.6752   4.3876

          k =-0.3750 0.3750 1.1250 (   769 PWs)   bands (ev):

    -3.0188  -0.6442   2.0257   4.0731

          k =-0.8750-0.6250 1.1250 (   781 PWs)   bands (ev):

    -5.1371   2.7092   4.6311   4.6911

     highest occupied level (ev):     5.6317

     Writing output data file silicon.10.356.save

                                                                                

     bravais-lattice index     =            2
     lattice parameter (alat)  =      10.3560  a.u.
     unit-cell volume          =     277.6618 (a.u.)^3
     number of atoms/cell      =            2
     number of atomic types    =            1
     kinetic-energy cut-off    =      30.0000  Ry
     charge density cut-off    =     240.0000  Ry
     convergence threshold     =      1.0E-12
     beta                      =       0.7000
     number of iterations used =            4
     Exchange-correlation      = SLA  PW   PBE  PBE ( 1  4  3  4 0 0)


     celldm(1)=   10.35600  celldm(2)=    0.00000  celldm(3)=    0.00000
     celldm(4)=    0.00000  celldm(5)=    0.00000  celldm(6)=    0.00000

     crystal axes: (cart. coord. in units of alat)
               a(1) = ( -0.5000  0.0000  0.5000 )  
               a(2) = (  0.0000  0.5000  0.5000 )  
               a(3) = ( -0.5000  0.5000  0.0000 )  

     reciprocal axes: (cart. coord. in units 2 pi/alat)
               b(1) = ( -1.0000 -1.0000  1.0000 )  
               b(2) = (  1.0000  1.0000  1.0000 )  
               b(3) = ( -1.0000  1.0000 -1.0000 )  


     Atoms inside the unit cell: 

     Cartesian axes

     site n.  atom      mass           positions (alat units)
        1     Si  28.0860   tau(    1) = (    0.00000    0.00000    0.00000  )
        2     Si  28.0860   tau(    2) = (    0.25000    0.25000    0.25000  )

     Computing dynamical matrix for 
                    q = (  -0.5000000  -1.0000000   0.0000000 )

      8 Sym.Ops. (no q -> -q+G )


     G cutoff =  651.9820  (   4363 G-vectors)     FFT grid: ( 40, 40, 40)
     G cutoff =  325.9910  (   1546 G-vectors)  smooth grid: ( 25, 25, 25)
     number of k points=    64

     PseudoPot. # 1 for Si read from file:
     /home/s1333534/quantum_espresso/qe-6.1/pseudo/si_pbe_v1.uspp.F.UPF.txt
     MD5 check sum: a056efeee980c13900f22a371efd63c1
     Pseudo is Ultrasoft + core correction, Zval =  4.0
     Generated by new atomic code, or converted to UPF format
     Using radial grid of  899 points,  6 beta functions with: 
                l(1) =   0
                l(2) =   0
                l(3) =   1
                l(4) =   1
                l(5) =   2
                l(6) =   2
     Q(r) pseudized with  8 coefficients,  rinner =    0.900   0.900   0.900
                                                       0.900   0.900


     Atomic displacements:
     There are   3 irreducible representations

     Representation     1      2 modes -  To be done

     Representation     2      2 modes -  To be done

     Representation     3      2 modes -  To be done



     Alpha used in Ewald sum =   2.5000
     PHONON       :  2m 8.54s CPU     2m47.89s WALL



     Representation #  1 modes #   1  2

     Self-consistent Calculation

      iter #   1 total cpu time :   168.7 secs   av.it.:   5.7
      thresh= 1.000E-02 alpha_mix =  0.700 |ddv_scf|^2 =  7.830E-07

      iter #   2 total cpu time :   169.6 secs   av.it.:  11.8
      thresh= 8.849E-05 alpha_mix =  0.700 |ddv_scf|^2 =  4.427E-07

      iter #   3 total cpu time :   170.4 secs   av.it.:  11.2
      thresh= 6.653E-05 alpha_mix =  0.700 |ddv_scf|^2 =  4.277E-10

      iter #   4 total cpu time :   171.3 secs   av.it.:  11.1
      thresh= 2.068E-06 alpha_mix =  0.700 |ddv_scf|^2 =  1.925E-12

      iter #   5 total cpu time :   172.1 secs   av.it.:  11.3
      thresh= 1.388E-07 alpha_mix =  0.700 |ddv_scf|^2 =  5.057E-14

     End of self-consistent calculation

     Convergence has been achieved 


     Representation #  2 modes #   3  4

     Self-consistent Calculation

      iter #   1 total cpu time :   172.8 secs   av.it.:   5.6
      thresh= 1.000E-02 alpha_mix =  0.700 |ddv_scf|^2 =  1.218E-06

      iter #   2 total cpu time :   173.7 secs   av.it.:  11.8
      thresh= 1.104E-04 alpha_mix =  0.700 |ddv_scf|^2 =  1.664E-06

      iter #   3 total cpu time :   174.6 secs   av.it.:  11.0
      thresh= 1.290E-04 alpha_mix =  0.700 |ddv_scf|^2 =  5.103E-10

      iter #   4 total cpu time :   175.5 secs   av.it.:  11.0
      thresh= 2.259E-06 alpha_mix =  0.700 |ddv_scf|^2 =  8.240E-12

      iter #   5 total cpu time :   176.3 secs   av.it.:  11.3
      thresh= 2.870E-07 alpha_mix =  0.700 |ddv_scf|^2 =  1.334E-13

     End of self-consistent calculation

     Convergence has been achieved 


     Representation #  3 modes #   5  6

     Self-consistent Calculation

      iter #   1 total cpu time :   177.0 secs   av.it.:   5.3
      thresh= 1.000E-02 alpha_mix =  0.700 |ddv_scf|^2 =  3.183E-07

      iter #   2 total cpu time :   177.9 secs   av.it.:  11.8
      thresh= 5.642E-05 alpha_mix =  0.700 |ddv_scf|^2 =  1.858E-07

      iter #   3 total cpu time :   178.8 secs   av.it.:  11.2
      thresh= 4.310E-05 alpha_mix =  0.700 |ddv_scf|^2 =  3.704E-10

      iter #   4 total cpu time :   179.7 secs   av.it.:  11.1
      thresh= 1.925E-06 alpha_mix =  0.700 |ddv_scf|^2 =  4.439E-12

      iter #   5 total cpu time :   180.8 secs   av.it.:  11.2
      thresh= 2.107E-07 alpha_mix =  0.700 |ddv_scf|^2 =  6.044E-14

     End of self-consistent calculation

     Convergence has been achieved 

     Number of q in the star =    6
     List of q in the star:
          1  -0.500000000  -1.000000000   0.000000000
          2   0.000000000   1.000000000   0.500000000
          3   0.000000000  -1.000000000  -0.500000000
          4   0.500000000   1.000000000   0.000000000
          5  -1.000000000  -0.500000000   0.000000000
          6   0.000000000  -0.500000000  -1.000000000

     Diagonalizing the dynamical matrix

     q = (   -0.500000000  -1.000000000   0.000000000 ) 

 **************************************************************************
     freq (    1) =       6.036306 [THz] =     201.349501 [cm-1]
     freq (    2) =       6.036306 [THz] =     201.349501 [cm-1]
     freq (    3) =      10.245391 [THz] =     341.749443 [cm-1]
     freq (    4) =      10.245391 [THz] =     341.749443 [cm-1]
     freq (    5) =      13.424768 [THz] =     447.802056 [cm-1]
     freq (    6) =      13.424768 [THz] =     447.802056 [cm-1]
 **************************************************************************

     init_run     :      1.30s CPU      1.36s WALL (       7 calls)
     electrons    :      7.37s CPU      7.99s WALL (       7 calls)

     Called by init_run:
     wfcinit      :      0.00s CPU      0.04s WALL (       7 calls)
     potinit      :      0.10s CPU      0.12s WALL (       7 calls)

     Called by electrons:
     c_bands      :      7.37s CPU      7.99s WALL (       7 calls)
     v_of_rho     :      0.09s CPU      0.09s WALL (       8 calls)
     newd         :      0.12s CPU      0.13s WALL (       8 calls)

     Called by c_bands:
     init_us_2    :      1.63s CPU      1.58s WALL (   15896 calls)
     cegterg      :      6.18s CPU      6.67s WALL (     796 calls)

     Called by sum_band:

     Called by *egterg:
     h_psi        :     71.06s CPU     76.12s WALL (  154731 calls)
     s_psi        :      5.91s CPU      7.01s WALL (  311720 calls)
     g_psi        :      0.05s CPU      0.07s WALL (    9666 calls)
     cdiaghg      :      0.57s CPU      0.57s WALL (   10462 calls)

     Called by h_psi:
     h_psi:pot    :     70.63s CPU     75.60s WALL (  154731 calls)
     h_psi:calbec :      3.51s CPU      4.06s WALL (  154731 calls)
     vloc_psi     :     62.52s CPU     67.38s WALL (  154731 calls)
     add_vuspsi   :      4.25s CPU      3.68s WALL (  154731 calls)

     General routines
     calbec       :      8.51s CPU      8.95s WALL (  346028 calls)
     fft          :      1.82s CPU      1.91s WALL (    5233 calls)
     ffts         :      0.21s CPU      0.23s WALL (    3316 calls)
     fftw         :     64.22s CPU     67.99s WALL ( 1384714 calls)
     interpolate  :      0.26s CPU      0.29s WALL (     568 calls)
     davcio       :      0.35s CPU      1.20s WALL (   69130 calls)

     Parallel routines
     fft_scatter  :     15.43s CPU     19.87s WALL ( 1393263 calls)

     PHONON       :  2m18.30s CPU     3m 1.13s WALL

     INITIALIZATION: 
     phq_setup    :      0.29s CPU      0.49s WALL (       8 calls)
     phq_init     :      7.24s CPU      7.88s WALL (       8 calls)

     phq_init     :      7.24s CPU      7.88s WALL (       8 calls)
     set_drhoc    :      1.84s CPU      1.86s WALL (      24 calls)
     init_vloc    :      0.03s CPU      0.03s WALL (       8 calls)
     init_us_1    :      0.99s CPU      1.00s WALL (       8 calls)
     newd         :      0.12s CPU      0.13s WALL (       8 calls)
     dvanqq       :      1.21s CPU      1.22s WALL (       8 calls)
     drho         :      2.63s CPU      2.70s WALL (       8 calls)

     DYNAMICAL MATRIX:
     dynmat0      :      1.80s CPU      1.96s WALL (       8 calls)
     phqscf       :    116.88s CPU    152.67s WALL (       8 calls)
     dynmatrix    :      0.01s CPU      0.34s WALL (       8 calls)

     phqscf       :    116.88s CPU    152.67s WALL (       8 calls)
     solve_linter :    115.98s CPU    149.80s WALL (      32 calls)
     drhodv       :      0.61s CPU      0.64s WALL (      32 calls)

     dynmat0      :      1.80s CPU      1.96s WALL (       8 calls)
     dynmat_us    :      0.39s CPU      0.39s WALL (       8 calls)
     d2ionq       :      0.04s CPU      0.04s WALL (       8 calls)
     dynmatcc     :      1.34s CPU      1.35s WALL (       8 calls)

     dynmat_us    :      0.39s CPU      0.39s WALL (       8 calls)
     addusdynmat  :      0.00s CPU      0.00s WALL (       8 calls)

     phqscf       :    116.88s CPU    152.67s WALL (       8 calls)
     solve_linter :    115.98s CPU    149.80s WALL (      32 calls)

     solve_linter :    115.98s CPU    149.80s WALL (      32 calls)
     dvqpsi_us    :      2.13s CPU      2.29s WALL (    2508 calls)
     ortho        :      1.07s CPU      1.20s WALL (   13486 calls)
     cgsolve      :     78.63s CPU     85.37s WALL (   13486 calls)
     incdrhoscf   :      6.21s CPU      6.76s WALL (   13486 calls)
     addusddens   :      7.14s CPU      7.20s WALL (     200 calls)
     vpsifft      :      4.44s CPU      4.84s WALL (   10858 calls)
     dv_of_drho   :      1.77s CPU      1.83s WALL (     254 calls)
     mix_pot      :      0.41s CPU     13.64s WALL (     173 calls)
     psymdvscf    :      5.97s CPU      6.04s WALL (     168 calls)
     newdq        :      7.68s CPU      7.70s WALL (     173 calls)
     adddvscf     :      0.48s CPU      0.44s WALL (   10978 calls)
     drhodvus     :      0.01s CPU      0.02s WALL (      32 calls)

     dvqpsi_us    :      2.13s CPU      2.29s WALL (    2508 calls)
     dvqpsi_us_on :      0.90s CPU      0.94s WALL (    2508 calls)

     cgsolve      :     78.63s CPU     85.37s WALL (   13486 calls)
     ch_psi       :     77.51s CPU     83.57s WALL (  143473 calls)

     ch_psi       :     77.51s CPU     83.57s WALL (  143473 calls)
     h_psi        :     71.06s CPU     76.12s WALL (  154731 calls)
     last         :      9.06s CPU      9.23s WALL (  143473 calls)

     h_psi        :     71.06s CPU     76.12s WALL (  154731 calls)
     add_vuspsi   :      4.25s CPU      3.68s WALL (  154731 calls)

     incdrhoscf   :      6.21s CPU      6.76s WALL (   13486 calls)
     addusdbec    :      0.47s CPU      0.51s WALL (   15934 calls)

     drhodvus     :      0.01s CPU      0.02s WALL (      32 calls)

      General routines
     calbec       :      8.51s CPU      8.95s WALL (  346028 calls)
     fft          :      1.82s CPU      1.91s WALL (    5233 calls)
     ffts         :      0.21s CPU      0.23s WALL (    3316 calls)
     fftw         :     64.22s CPU     67.99s WALL ( 1384714 calls)
     davcio       :      0.35s CPU      1.20s WALL (   69130 calls)
     write_rec    :      0.24s CPU     14.63s WALL (     205 calls)


     PHONON       :  2m18.30s CPU     3m 1.13s WALL


   This run was terminated on:  15:55:30  10Nov2017            

=------------------------------------------------------------------------------=
   JOB DONE.
=------------------------------------------------------------------------------=
