
     Program PHONON v.6.1 (svn rev. 13369) starts on  9Nov2017 at 12: 6:57 

     This program is part of the open-source Quantum ESPRESSO suite
     for quantum simulation of materials; please cite
         "P. Giannozzi et al., J. Phys.:Condens. Matter 21 395502 (2009);
          URL http://www.quantum-espresso.org", 
     in publications or presentations arising from this work. More details at
     http://www.quantum-espresso.org/quote

     Parallel version (MPI), running on     4 processors
     R & G space division:  proc/nbgrp/npool/nimage =       4

     Reading data from directory:
     ./silicon.10.324.save

   Info: using nr1, nr2, nr3 values from input

   Info: using nr1, nr2, nr3 values from input

     IMPORTANT: XC functional enforced from input :
     Exchange-correlation      = SLA  PW   PBE  PBE ( 1  4  3  4 0 0)
     Any further DFT definition will be discarded
     Please, verify this is what you really want


     Parallelization info
     --------------------
     sticks:   dense  smooth     PW     G-vecs:    dense   smooth      PW
     Min          63      63     22                  684      684     140
     Max          64      64     23                  688      688     141
     Sum         253     253     91                 2741     2741     561


     Check: negative/imaginary core charge=   -0.000005    0.000000


     Dynamical matrices for ( 4, 4, 4)  uniform grid of q-points
     (   8q-points):
       N         xq(1)         xq(2)         xq(3) 
       1   0.000000000   0.000000000   0.000000000
       2  -0.250000000   0.250000000  -0.250000000
       3   0.500000000  -0.500000000   0.500000000
       4   0.000000000   0.500000000   0.000000000
       5   0.750000000  -0.250000000   0.750000000
       6   0.500000000   0.000000000   0.500000000
       7   0.000000000  -1.000000000   0.000000000
       8  -0.500000000  -1.000000000   0.000000000

     Calculation of q =    0.0000000   0.0000000   0.0000000

                                                                                

     bravais-lattice index     =            2
     lattice parameter (alat)  =      10.3240  a.u.
     unit-cell volume          =     275.0958 (a.u.)^3
     number of atoms/cell      =            2
     number of atomic types    =            1
     kinetic-energy cut-off    =      18.0000  Ry
     charge density cut-off    =      72.0000  Ry
     convergence threshold     =      1.0E-12
     beta                      =       0.7000
     number of iterations used =            4
     Exchange-correlation      = SLA  PW   PBE  PBE ( 1  4  3  4 0 0)


     celldm(1)=   10.32400  celldm(2)=    0.00000  celldm(3)=    0.00000
     celldm(4)=    0.00000  celldm(5)=    0.00000  celldm(6)=    0.00000

     crystal axes: (cart. coord. in units of alat)
               a(1) = ( -0.5000  0.0000  0.5000 )  
               a(2) = (  0.0000  0.5000  0.5000 )  
               a(3) = ( -0.5000  0.5000  0.0000 )  

     reciprocal axes: (cart. coord. in units 2 pi/alat)
               b(1) = ( -1.0000 -1.0000  1.0000 )  
               b(2) = (  1.0000  1.0000  1.0000 )  
               b(3) = ( -1.0000  1.0000 -1.0000 )  


     Atoms inside the unit cell: 

     Cartesian axes

     site n.  atom      mass           positions (alat units)
        1     Si  28.0860   tau(    1) = (    0.00000    0.00000    0.00000  )
        2     Si  28.0860   tau(    2) = (    0.25000    0.25000    0.25000  )

     Computing dynamical matrix for 
                    q = (   0.0000000   0.0000000   0.0000000 )

     49 Sym.Ops. (with q -> -q+G )


     G cutoff =  194.3877  (    685 G-vectors)     FFT grid: ( 20, 20, 20)
     number of k points=    10

     PseudoPot. # 1 for Si read from file:
     /home/max/quantum_espresso/qe-6.1/pseudo/si_pbe_v1.uspp.F.UPF.txt
     MD5 check sum: a056efeee980c13900f22a371efd63c1
     Pseudo is Ultrasoft + core correction, Zval =  4.0
     Generated by new atomic code, or converted to UPF format
     Using radial grid of  899 points,  6 beta functions with: 
                l(1) =   0
                l(2) =   0
                l(3) =   1
                l(4) =   1
                l(5) =   2
                l(6) =   2
     Q(r) pseudized with  8 coefficients,  rinner =    0.900   0.900   0.900
                                                       0.900   0.900

     Mode symmetry, O_h (m-3m)  point group:


     Electric field:
     Dielectric constant
     Born effective charges in two ways 


     Atomic displacements:
     There are   2 irreducible representations

     Representation     1      3 modes -T_2g G_25' G_5+  To be done

     Representation     2      3 modes -T_1u G_15  G_4-  To be done



     Alpha used in Ewald sum =   0.7000
     PHONON       :     0.42s CPU         0.43s WALL


     Electric Fields Calculation

      iter #   1 total cpu time :     0.9 secs   av.it.:   5.6
      thresh= 1.000E-02 alpha_mix =  0.700 |ddv_scf|^2 =  9.055E-07

      iter #   2 total cpu time :     1.1 secs   av.it.:   9.9
      thresh= 9.516E-05 alpha_mix =  0.700 |ddv_scf|^2 =  5.559E-08

      iter #   3 total cpu time :     1.3 secs   av.it.:   9.8
      thresh= 2.358E-05 alpha_mix =  0.700 |ddv_scf|^2 =  4.221E-09

      iter #   4 total cpu time :     1.6 secs   av.it.:   9.0
      thresh= 6.497E-06 alpha_mix =  0.700 |ddv_scf|^2 =  2.477E-11

      iter #   5 total cpu time :     1.8 secs   av.it.:   9.1
      thresh= 4.977E-07 alpha_mix =  0.700 |ddv_scf|^2 =  1.320E-14

     End of electric fields calculation

          Dielectric constant in cartesian axis 

          (      13.852224458      -0.000000000      -0.000000000 )
          (      -0.000000000      13.852224458       0.000000000 )
          (      -0.000000000      -0.000000000      13.852224458 )

          Effective charges (d Force / dE) in cartesian axis

           atom      1   Si 
      Ex  (       -0.03123        0.00000        0.00000 )
      Ey  (        0.00000       -0.03123       -0.00000 )
      Ez  (        0.00000        0.00000       -0.03123 )
           atom      2   Si 
      Ex  (       -0.03123        0.00000       -0.00000 )
      Ey  (        0.00000       -0.03123        0.00000 )
      Ez  (       -0.00000        0.00000       -0.03123 )


     Representation #  1 modes #   1  2  3

     Self-consistent Calculation

      iter #   1 total cpu time :     2.2 secs   av.it.:   4.9
      thresh= 1.000E-02 alpha_mix =  0.700 |ddv_scf|^2 =  2.242E-07

      iter #   2 total cpu time :     2.4 secs   av.it.:   9.7
      thresh= 4.735E-05 alpha_mix =  0.700 |ddv_scf|^2 =  1.385E-08

      iter #   3 total cpu time :     2.6 secs   av.it.:   9.3
      thresh= 1.177E-05 alpha_mix =  0.700 |ddv_scf|^2 =  8.555E-10

      iter #   4 total cpu time :     2.8 secs   av.it.:   9.0
      thresh= 2.925E-06 alpha_mix =  0.700 |ddv_scf|^2 =  1.878E-12

      iter #   5 total cpu time :     3.0 secs   av.it.:   9.4
      thresh= 1.371E-07 alpha_mix =  0.700 |ddv_scf|^2 =  1.226E-14

     End of self-consistent calculation

     Convergence has been achieved 


     Representation #  2 modes #   4  5  6

     Self-consistent Calculation

      iter #   1 total cpu time :     3.3 secs   av.it.:   5.0
      thresh= 1.000E-02 alpha_mix =  0.700 |ddv_scf|^2 =  1.702E-07

      iter #   2 total cpu time :     3.7 secs   av.it.:   9.6
      thresh= 4.126E-05 alpha_mix =  0.700 |ddv_scf|^2 =  1.327E-08

      iter #   3 total cpu time :     3.9 secs   av.it.:   9.3
      thresh= 1.152E-05 alpha_mix =  0.700 |ddv_scf|^2 =  8.453E-10

      iter #   4 total cpu time :     4.1 secs   av.it.:   9.5
      thresh= 2.907E-06 alpha_mix =  0.700 |ddv_scf|^2 =  5.067E-12

      iter #   5 total cpu time :     4.3 secs   av.it.:   9.0
      thresh= 2.251E-07 alpha_mix =  0.700 |ddv_scf|^2 =  4.411E-15

     End of self-consistent calculation

     Convergence has been achieved 

     Number of q in the star =    1
     List of q in the star:
          1   0.000000000   0.000000000   0.000000000

          Dielectric constant in cartesian axis 

          (      13.852224458      -0.000000000      -0.000000000 )
          (      -0.000000000      13.852224458       0.000000000 )
          (      -0.000000000      -0.000000000      13.852224458 )

          Effective charges (d Force / dE) in cartesian axis

           atom      1   Si 
      Ex  (       -0.03123        0.00000        0.00000 )
      Ey  (        0.00000       -0.03123       -0.00000 )
      Ez  (        0.00000        0.00000       -0.03123 )
           atom      2   Si 
      Ex  (       -0.03123        0.00000       -0.00000 )
      Ey  (        0.00000       -0.03123        0.00000 )
      Ez  (       -0.00000        0.00000       -0.03123 )

          Effective charges (d P / du) in cartesian axis 

           atom      1   Si 
      Px  (       -0.07219        0.00000        0.00000 )
      Py  (        0.00000       -0.07219        0.00000 )
      Pz  (        0.00000        0.00000       -0.07219 )
           atom      2   Si 
      Px  (       -0.07219       -0.00000        0.00000 )
      Py  (       -0.00000       -0.07219        0.00000 )
      Pz  (        0.00000        0.00000       -0.07219 )

     Diagonalizing the dynamical matrix

     q = (    0.000000000   0.000000000   0.000000000 ) 

 **************************************************************************
     freq (    1) =       1.944528 [THz] =      64.862456 [cm-1]
     freq (    2) =       1.944528 [THz] =      64.862456 [cm-1]
     freq (    3) =       1.944528 [THz] =      64.862456 [cm-1]
     freq (    4) =      15.054560 [THz] =     502.166077 [cm-1]
     freq (    5) =      15.054560 [THz] =     502.166077 [cm-1]
     freq (    6) =      15.054560 [THz] =     502.166077 [cm-1]
 **************************************************************************

     Mode symmetry, O_h (m-3m)  point group:

     freq (  1 -  3) =         64.9  [cm-1]   --> T_1u G_15  G_4- I  
     freq (  4 -  6) =        502.2  [cm-1]   --> T_2g G_25' G_5+ R  

     Calculation of q =   -0.2500000   0.2500000  -0.2500000

   Info: using nr1, nr2, nr3 values from input

   Info: using nr1, nr2, nr3 values from input

     Parallelization info
     --------------------
     sticks:   dense  smooth     PW     G-vecs:    dense   smooth      PW
     Min          63      63     24                  684      684     161
     Max          64      64     25                  688      688     162
     Sum         253     253     97                 2741     2741     645



     bravais-lattice index     =            2
     lattice parameter (alat)  =      10.3240  a.u.
     unit-cell volume          =     275.0958 (a.u.)^3
     number of atoms/cell      =            2
     number of atomic types    =            1
     number of electrons       =         8.00
     number of Kohn-Sham states=            4
     kinetic-energy cutoff     =      18.0000  Ry
     charge density cutoff     =      72.0000  Ry
     Exchange-correlation      = SLA  PW   PBE  PBE ( 1  4  3  4 0 0)

     celldm(1)=  10.324000  celldm(2)=   0.000000  celldm(3)=   0.000000
     celldm(4)=   0.000000  celldm(5)=   0.000000  celldm(6)=   0.000000

     crystal axes: (cart. coord. in units of alat)
               a(1) = (  -0.500000   0.000000   0.500000 )  
               a(2) = (   0.000000   0.500000   0.500000 )  
               a(3) = (  -0.500000   0.500000   0.000000 )  

     reciprocal axes: (cart. coord. in units 2 pi/alat)
               b(1) = ( -1.000000 -1.000000  1.000000 )  
               b(2) = (  1.000000  1.000000  1.000000 )  
               b(3) = ( -1.000000  1.000000 -1.000000 )  


     PseudoPot. # 1 for Si read from file:
     /home/max/quantum_espresso/qe-6.1/pseudo/si_pbe_v1.uspp.F.UPF.txt
     MD5 check sum: a056efeee980c13900f22a371efd63c1
     Pseudo is Ultrasoft + core correction, Zval =  4.0
     Generated by new atomic code, or converted to UPF format
     Using radial grid of  899 points,  6 beta functions with: 
                l(1) =   0
                l(2) =   0
                l(3) =   1
                l(4) =   1
                l(5) =   2
                l(6) =   2
     Q(r) pseudized with  8 coefficients,  rinner =    0.900   0.900   0.900
                                                       0.900   0.900

     atomic species   valence    mass     pseudopotential
        Si             4.00    28.08600     Si( 1.00)

     48 Sym. Ops., with inversion, found



   Cartesian axes

     site n.     atom                  positions (alat units)
         1           Si  tau(   1) = (   0.0000000   0.0000000   0.0000000  )
         2           Si  tau(   2) = (   0.2500000   0.2500000   0.2500000  )

     number of k points=   120

     Number of k-points >= 100: set verbosity='high' to print them.

     Dense  grid:     2741 G-vectors     FFT dimensions: (  20,  20,  20)

     Estimated max dynamical RAM per process >       0.33MB

     Estimated total allocated dynamical RAM >       1.30MB

     Check: negative/imaginary core charge=   -0.000005    0.000000

     The potential is recalculated from file :
     ./_ph0/silicon.10.324.save/charge-density.dat

     Starting wfc are    8 atomic wfcs

     Band Structure Calculation
     Davidson diagonalization with overlap

     ethr =  1.25E-10,  avg # of iterations = 11.7

     total cpu time spent up to now is        0.9 secs

     End of band structure calculation

     Number of k-points >= 100: set verbosity='high' to print the bands.

     highest occupied level (ev):     5.7277

     Writing output data file silicon.10.324.save

                                                                                

     bravais-lattice index     =            2
     lattice parameter (alat)  =      10.3240  a.u.
     unit-cell volume          =     275.0958 (a.u.)^3
     number of atoms/cell      =            2
     number of atomic types    =            1
     kinetic-energy cut-off    =      18.0000  Ry
     charge density cut-off    =      72.0000  Ry
     convergence threshold     =      1.0E-12
     beta                      =       0.7000
     number of iterations used =            4
     Exchange-correlation      = SLA  PW   PBE  PBE ( 1  4  3  4 0 0)


     celldm(1)=   10.32400  celldm(2)=    0.00000  celldm(3)=    0.00000
     celldm(4)=    0.00000  celldm(5)=    0.00000  celldm(6)=    0.00000

     crystal axes: (cart. coord. in units of alat)
               a(1) = ( -0.5000  0.0000  0.5000 )  
               a(2) = (  0.0000  0.5000  0.5000 )  
               a(3) = ( -0.5000  0.5000  0.0000 )  

     reciprocal axes: (cart. coord. in units 2 pi/alat)
               b(1) = ( -1.0000 -1.0000  1.0000 )  
               b(2) = (  1.0000  1.0000  1.0000 )  
               b(3) = ( -1.0000  1.0000 -1.0000 )  


     Atoms inside the unit cell: 

     Cartesian axes

     site n.  atom      mass           positions (alat units)
        1     Si  28.0860   tau(    1) = (    0.00000    0.00000    0.00000  )
        2     Si  28.0860   tau(    2) = (    0.25000    0.25000    0.25000  )

     Computing dynamical matrix for 
                    q = (  -0.2500000   0.2500000  -0.2500000 )

      6 Sym.Ops. (no q -> -q+G )


     G cutoff =  194.3877  (    685 G-vectors)     FFT grid: ( 20, 20, 20)
     number of k points=   120

     PseudoPot. # 1 for Si read from file:
     /home/max/quantum_espresso/qe-6.1/pseudo/si_pbe_v1.uspp.F.UPF.txt
     MD5 check sum: a056efeee980c13900f22a371efd63c1
     Pseudo is Ultrasoft + core correction, Zval =  4.0
     Generated by new atomic code, or converted to UPF format
     Using radial grid of  899 points,  6 beta functions with: 
                l(1) =   0
                l(2) =   0
                l(3) =   1
                l(4) =   1
                l(5) =   2
                l(6) =   2
     Q(r) pseudized with  8 coefficients,  rinner =    0.900   0.900   0.900
                                                       0.900   0.900

     Mode symmetry, C_3v (3m)   point group:


     Atomic displacements:
     There are   4 irreducible representations

     Representation     1      1 modes -A_1  L_1  To be done

     Representation     2      1 modes -A_1  L_1  To be done

     Representation     3      2 modes -E    L_3  To be done

     Representation     4      2 modes -E    L_3  To be done



     Alpha used in Ewald sum =   0.7000
     PHONON       :     5.24s CPU         5.85s WALL



     Representation #  1 mode #   1

     Self-consistent Calculation

      iter #   1 total cpu time :     6.1 secs   av.it.:   5.5
      thresh= 1.000E-02 alpha_mix =  0.700 |ddv_scf|^2 =  2.477E-03

      iter #   2 total cpu time :     6.4 secs   av.it.:   7.5
      thresh= 4.977E-03 alpha_mix =  0.700 |ddv_scf|^2 =  3.734E-02

      iter #   3 total cpu time :     6.7 secs   av.it.:   6.3
      thresh= 1.000E-02 alpha_mix =  0.700 |ddv_scf|^2 =  1.714E-06

      iter #   4 total cpu time :     7.0 secs   av.it.:   8.1
      thresh= 1.309E-04 alpha_mix =  0.700 |ddv_scf|^2 =  1.146E-07

      iter #   5 total cpu time :     7.3 secs   av.it.:   8.1
      thresh= 3.385E-05 alpha_mix =  0.700 |ddv_scf|^2 =  4.366E-09

      iter #   6 total cpu time :     7.7 secs   av.it.:   8.0
      thresh= 6.608E-06 alpha_mix =  0.700 |ddv_scf|^2 =  4.667E-09

      iter #   7 total cpu time :     8.0 secs   av.it.:   6.0
      thresh= 6.831E-06 alpha_mix =  0.700 |ddv_scf|^2 =  4.130E-10

      iter #   8 total cpu time :     8.3 secs   av.it.:   7.3
      thresh= 2.032E-06 alpha_mix =  0.700 |ddv_scf|^2 =  3.958E-12

      iter #   9 total cpu time :     8.5 secs   av.it.:   7.2
      thresh= 1.989E-07 alpha_mix =  0.700 |ddv_scf|^2 =  1.413E-13

     End of self-consistent calculation

     Convergence has been achieved 


     Representation #  2 mode #   2

     Self-consistent Calculation

      iter #   1 total cpu time :     8.8 secs   av.it.:   5.5
      thresh= 1.000E-02 alpha_mix =  0.700 |ddv_scf|^2 =  2.477E-03

      iter #   2 total cpu time :     9.1 secs   av.it.:   7.5
      thresh= 4.977E-03 alpha_mix =  0.700 |ddv_scf|^2 =  3.734E-02

      iter #   3 total cpu time :     9.4 secs   av.it.:   6.3
      thresh= 1.000E-02 alpha_mix =  0.700 |ddv_scf|^2 =  1.714E-06

      iter #   4 total cpu time :     9.9 secs   av.it.:   8.1
      thresh= 1.309E-04 alpha_mix =  0.700 |ddv_scf|^2 =  1.146E-07

      iter #   5 total cpu time :    10.2 secs   av.it.:   8.1
      thresh= 3.385E-05 alpha_mix =  0.700 |ddv_scf|^2 =  4.366E-09

      iter #   6 total cpu time :    10.5 secs   av.it.:   8.0
      thresh= 6.608E-06 alpha_mix =  0.700 |ddv_scf|^2 =  4.667E-09

      iter #   7 total cpu time :    10.7 secs   av.it.:   6.0
      thresh= 6.831E-06 alpha_mix =  0.700 |ddv_scf|^2 =  4.130E-10

      iter #   8 total cpu time :    11.0 secs   av.it.:   7.3
      thresh= 2.032E-06 alpha_mix =  0.700 |ddv_scf|^2 =  3.958E-12

      iter #   9 total cpu time :    11.3 secs   av.it.:   7.2
      thresh= 1.989E-07 alpha_mix =  0.700 |ddv_scf|^2 =  1.413E-13

     End of self-consistent calculation

     Convergence has been achieved 


     Representation #  3 modes #   3  4

     Self-consistent Calculation

      iter #   1 total cpu time :    11.9 secs   av.it.:   5.0
      thresh= 1.000E-02 alpha_mix =  0.700 |ddv_scf|^2 =  5.548E-07

      iter #   2 total cpu time :    12.6 secs   av.it.:   9.4
      thresh= 7.448E-05 alpha_mix =  0.700 |ddv_scf|^2 =  4.092E-08

      iter #   3 total cpu time :    13.3 secs   av.it.:   9.3
      thresh= 2.023E-05 alpha_mix =  0.700 |ddv_scf|^2 =  3.508E-09

      iter #   4 total cpu time :    14.1 secs   av.it.:   9.0
      thresh= 5.923E-06 alpha_mix =  0.700 |ddv_scf|^2 =  1.080E-11

      iter #   5 total cpu time :    14.8 secs   av.it.:   9.2
      thresh= 3.286E-07 alpha_mix =  0.700 |ddv_scf|^2 =  4.929E-13

     End of self-consistent calculation

     Convergence has been achieved 


     Representation #  4 modes #   5  6

     Self-consistent Calculation

      iter #   1 total cpu time :    15.3 secs   av.it.:   5.0
      thresh= 1.000E-02 alpha_mix =  0.700 |ddv_scf|^2 =  5.547E-07

      iter #   2 total cpu time :    16.1 secs   av.it.:   9.6
      thresh= 7.447E-05 alpha_mix =  0.700 |ddv_scf|^2 =  4.088E-08

      iter #   3 total cpu time :    16.8 secs   av.it.:   9.4
      thresh= 2.022E-05 alpha_mix =  0.700 |ddv_scf|^2 =  3.506E-09

      iter #   4 total cpu time :    17.6 secs   av.it.:   9.1
      thresh= 5.921E-06 alpha_mix =  0.700 |ddv_scf|^2 =  1.081E-11

      iter #   5 total cpu time :    18.3 secs   av.it.:   9.3
      thresh= 3.287E-07 alpha_mix =  0.700 |ddv_scf|^2 =  4.934E-13

     End of self-consistent calculation

     Convergence has been achieved 

     Number of q in the star =    8
     List of q in the star:
          1  -0.250000000   0.250000000  -0.250000000
          2   0.250000000  -0.250000000  -0.250000000
          3   0.250000000  -0.250000000   0.250000000
          4   0.250000000   0.250000000   0.250000000
          5  -0.250000000  -0.250000000  -0.250000000
          6  -0.250000000  -0.250000000   0.250000000
          7  -0.250000000   0.250000000   0.250000000
          8   0.250000000   0.250000000  -0.250000000

     Diagonalizing the dynamical matrix

     q = (   -0.250000000   0.250000000  -0.250000000 ) 

 **************************************************************************
     freq (    1) =       3.385292 [THz] =     112.921194 [cm-1]
     freq (    2) =       3.385292 [THz] =     112.921194 [cm-1]
     freq (    3) =       6.952322 [THz] =     231.904487 [cm-1]
     freq (    4) =      14.127544 [THz] =     471.244134 [cm-1]
     freq (    5) =      14.444280 [THz] =     481.809318 [cm-1]
     freq (    6) =      14.444280 [THz] =     481.809318 [cm-1]
 **************************************************************************

     Mode symmetry, C_3v (3m)   point group:

     freq (  1 -  2) =        112.9  [cm-1]   --> E    L_3           
     freq (  3 -  3) =        231.9  [cm-1]   --> A_1  L_1           
     freq (  4 -  4) =        471.2  [cm-1]   --> A_1  L_1           
     freq (  5 -  6) =        481.8  [cm-1]   --> E    L_3           

     Calculation of q =    0.5000000  -0.5000000   0.5000000

   Info: using nr1, nr2, nr3 values from input

   Info: using nr1, nr2, nr3 values from input

     Parallelization info
     --------------------
     sticks:   dense  smooth     PW     G-vecs:    dense   smooth      PW
     Min          63      63     27                  684      684     186
     Max          64      64     28                  688      688     189
     Sum         253     253    109                 2741     2741     749



     bravais-lattice index     =            2
     lattice parameter (alat)  =      10.3240  a.u.
     unit-cell volume          =     275.0958 (a.u.)^3
     number of atoms/cell      =            2
     number of atomic types    =            1
     number of electrons       =         8.00
     number of Kohn-Sham states=            4
     kinetic-energy cutoff     =      18.0000  Ry
     charge density cutoff     =      72.0000  Ry
     Exchange-correlation      = SLA  PW   PBE  PBE ( 1  4  3  4 0 0)

     celldm(1)=  10.324000  celldm(2)=   0.000000  celldm(3)=   0.000000
     celldm(4)=   0.000000  celldm(5)=   0.000000  celldm(6)=   0.000000

     crystal axes: (cart. coord. in units of alat)
               a(1) = (  -0.500000   0.000000   0.500000 )  
               a(2) = (   0.000000   0.500000   0.500000 )  
               a(3) = (  -0.500000   0.500000   0.000000 )  

     reciprocal axes: (cart. coord. in units 2 pi/alat)
               b(1) = ( -1.000000 -1.000000  1.000000 )  
               b(2) = (  1.000000  1.000000  1.000000 )  
               b(3) = ( -1.000000  1.000000 -1.000000 )  


     PseudoPot. # 1 for Si read from file:
     /home/max/quantum_espresso/qe-6.1/pseudo/si_pbe_v1.uspp.F.UPF.txt
     MD5 check sum: a056efeee980c13900f22a371efd63c1
     Pseudo is Ultrasoft + core correction, Zval =  4.0
     Generated by new atomic code, or converted to UPF format
     Using radial grid of  899 points,  6 beta functions with: 
                l(1) =   0
                l(2) =   0
                l(3) =   1
                l(4) =   1
                l(5) =   2
                l(6) =   2
     Q(r) pseudized with  8 coefficients,  rinner =    0.900   0.900   0.900
                                                       0.900   0.900

     atomic species   valence    mass     pseudopotential
        Si             4.00    28.08600     Si( 1.00)

     48 Sym. Ops., with inversion, found



   Cartesian axes

     site n.     atom                  positions (alat units)
         1           Si  tau(   1) = (   0.0000000   0.0000000   0.0000000  )
         2           Si  tau(   2) = (   0.2500000   0.2500000   0.2500000  )

     number of k points=    60
                       cart. coord. in units 2pi/alat
        k(    1) = (  -0.1250000   0.1250000   0.1250000), wk =   0.0468750
        k(    2) = (   0.3750000  -0.3750000   0.6250000), wk =   0.0000000
        k(    3) = (  -0.3750000   0.3750000  -0.1250000), wk =   0.0468750
        k(    4) = (   0.1250000  -0.1250000   0.3750000), wk =   0.0000000
        k(    5) = (   0.3750000  -0.3750000   0.6250000), wk =   0.0468750
        k(    6) = (   0.8750000  -0.8750000   1.1250000), wk =   0.0000000
        k(    7) = (   0.1250000  -0.1250000   0.3750000), wk =   0.0468750
        k(    8) = (   0.6250000  -0.6250000   0.8750000), wk =   0.0000000
        k(    9) = (  -0.1250000   0.6250000   0.1250000), wk =   0.0937500
        k(   10) = (   0.3750000   0.1250000   0.6250000), wk =   0.0000000
        k(   11) = (   0.6250000  -0.1250000   0.8750000), wk =   0.0937500
        k(   12) = (   1.1250000  -0.6250000   1.3750000), wk =   0.0000000
        k(   13) = (   0.3750000   0.1250000   0.6250000), wk =   0.0937500
        k(   14) = (   0.8750000  -0.3750000   1.1250000), wk =   0.0000000
        k(   15) = (  -0.1250000  -0.8750000   0.1250000), wk =   0.0937500
        k(   16) = (   0.3750000  -1.3750000   0.6250000), wk =   0.0000000
        k(   17) = (  -0.3750000   0.3750000   0.3750000), wk =   0.0468750
        k(   18) = (   0.1250000  -0.1250000   0.8750000), wk =   0.0000000
        k(   19) = (   0.3750000  -0.3750000   1.1250000), wk =   0.0468750
        k(   20) = (   0.8750000  -0.8750000   1.6250000), wk =   0.0000000
        k(   21) = (   0.1250000  -0.1250000   0.1250000), wk =   0.0156250
        k(   22) = (   0.6250000  -0.6250000   0.6250000), wk =   0.0000000
        k(   23) = (  -0.3750000  -0.3750000  -0.1250000), wk =   0.0937500
        k(   24) = (   0.1250000  -0.8750000   0.3750000), wk =   0.0000000
        k(   25) = (  -0.1250000  -0.3750000   0.3750000), wk =   0.0468750
        k(   26) = (   0.3750000  -0.8750000   0.8750000), wk =   0.0000000
        k(   27) = (   0.3750000   0.3750000   0.6250000), wk =   0.0937500
        k(   28) = (   0.8750000  -0.1250000   1.1250000), wk =   0.0000000
        k(   29) = (   0.6250000   0.3750000  -0.3750000), wk =   0.0468750
        k(   30) = (   1.1250000  -0.1250000   0.1250000), wk =   0.0000000
        k(   31) = (   0.1250000   0.1250000   0.3750000), wk =   0.0937500
        k(   32) = (   0.6250000  -0.3750000   0.8750000), wk =   0.0000000
        k(   33) = (   0.3750000   0.1250000  -0.1250000), wk =   0.0468750
        k(   34) = (   0.8750000  -0.3750000   0.3750000), wk =   0.0000000
        k(   35) = (  -0.1250000  -0.6250000  -0.1250000), wk =   0.0468750
        k(   36) = (   0.3750000  -1.1250000   0.3750000), wk =   0.0000000
        k(   37) = (   0.1250000  -0.6250000   0.1250000), wk =   0.0468750
        k(   38) = (   0.6250000  -1.1250000   0.6250000), wk =   0.0000000
        k(   39) = (   0.6250000   0.1250000   0.8750000), wk =   0.0937500
        k(   40) = (   1.1250000  -0.3750000   1.3750000), wk =   0.0000000
        k(   41) = (  -0.8750000   0.1250000   0.6250000), wk =   0.0937500
        k(   42) = (  -0.3750000  -0.3750000   1.1250000), wk =   0.0000000
        k(   43) = (   0.8750000   0.1250000  -0.6250000), wk =   0.0937500
        k(   44) = (   1.3750000  -0.3750000  -0.1250000), wk =   0.0000000
        k(   45) = (   0.3750000  -0.1250000   0.6250000), wk =   0.0937500
        k(   46) = (   0.8750000  -0.6250000   1.1250000), wk =   0.0000000
        k(   47) = (  -0.6250000  -0.1250000   0.3750000), wk =   0.0937500
        k(   48) = (  -0.1250000  -0.6250000   0.8750000), wk =   0.0000000
        k(   49) = (   0.6250000  -0.1250000  -0.3750000), wk =   0.0937500
        k(   50) = (   1.1250000  -0.6250000   0.1250000), wk =   0.0000000
        k(   51) = (  -0.1250000   0.8750000  -0.1250000), wk =   0.0468750
        k(   52) = (   0.3750000   0.3750000   0.3750000), wk =   0.0000000
        k(   53) = (   0.1250000   0.8750000   0.1250000), wk =   0.0468750
        k(   54) = (   0.6250000   0.3750000   0.6250000), wk =   0.0000000
        k(   55) = (   0.3750000  -0.3750000   0.3750000), wk =   0.0156250
        k(   56) = (   0.8750000  -0.8750000   0.8750000), wk =   0.0000000
        k(   57) = (   0.3750000   0.3750000   1.1250000), wk =   0.0937500
        k(   58) = (   0.8750000  -0.1250000   1.6250000), wk =   0.0000000
        k(   59) = (   1.1250000   0.3750000  -0.3750000), wk =   0.0468750
        k(   60) = (   1.6250000  -0.1250000   0.1250000), wk =   0.0000000

     Dense  grid:     2741 G-vectors     FFT dimensions: (  20,  20,  20)

     Estimated max dynamical RAM per process >       0.33MB

     Estimated total allocated dynamical RAM >       1.30MB

     Check: negative/imaginary core charge=   -0.000005    0.000000

     The potential is recalculated from file :
     ./_ph0/silicon.10.324.save/charge-density.dat

     Starting wfc are    8 atomic wfcs

     Band Structure Calculation
     Davidson diagonalization with overlap

     ethr =  1.25E-10,  avg # of iterations = 11.7

     total cpu time spent up to now is        1.6 secs

     End of band structure calculation

          k =-0.1250 0.1250 0.1250 (   338 PWs)   bands (ev):

    -5.6205   4.4190   5.7277   5.7277

          k = 0.3750-0.3750 0.6250 (   359 PWs)   bands (ev):

    -3.4549  -0.6563   3.7618   4.4730

          k =-0.3750 0.3750-0.1250 (   352 PWs)   bands (ev):

    -4.5941   1.4221   3.7421   5.2451

          k = 0.1250-0.1250 0.3750 (   349 PWs)   bands (ev):

    -5.0929   2.7997   4.7180   4.7835

          k = 0.3750-0.3750 0.6250 (   359 PWs)   bands (ev):

    -3.4549  -0.6563   3.7618   4.4730

          k = 0.8750-0.8750 1.1250 (   338 PWs)   bands (ev):

    -5.6205   4.4190   5.7277   5.7277

          k = 0.1250-0.1250 0.3750 (   349 PWs)   bands (ev):

    -5.0929   2.7997   4.7180   4.7835

          k = 0.6250-0.6250 0.8750 (   352 PWs)   bands (ev):

    -4.5941   1.4221   3.7421   5.2451

          k =-0.1250 0.6250 0.1250 (   349 PWs)   bands (ev):

    -4.0610   1.0865   3.3932   3.8427

          k = 0.3750 0.1250 0.6250 (   357 PWs)   bands (ev):

    -3.6459   0.2132   2.7523   4.1189

          k = 0.6250-0.1250 0.8750 (   359 PWs)   bands (ev):

    -2.4209  -0.8785   2.0407   3.1151

          k = 1.1250-0.6250 1.3750 (   352 PWs)   bands (ev):

    -4.5941   1.4221   3.7421   5.2451

          k = 0.3750 0.1250 0.6250 (   357 PWs)   bands (ev):

    -3.6459   0.2132   2.7523   4.1189

          k = 0.8750-0.3750 1.1250 (   349 PWs)   bands (ev):

    -4.0610   1.0865   3.3932   3.8427

          k =-0.1250-0.8750 0.1250 (   358 PWs)   bands (ev):

    -2.5884  -0.7810   2.6485   3.3752

          k = 0.3750-1.3750 0.6250 (   359 PWs)   bands (ev):

    -3.4549  -0.6563   3.7618   4.4730

          k =-0.3750 0.3750 0.3750 (   353 PWs)   bands (ev):

    -4.1617   0.1325   4.9381   4.9381

          k = 0.1250-0.1250 0.8750 (   358 PWs)   bands (ev):

    -2.5884  -0.7810   2.6485   3.3752

          k = 0.3750-0.3750 1.1250 (   361 PWs)   bands (ev):

    -2.9588  -0.5738   2.0987   4.1563

          k = 0.8750-0.8750 1.6250 (   349 PWs)   bands (ev):

    -4.0610   1.0865   3.3932   3.8427

          k = 0.1250-0.1250 0.1250 (   338 PWs)   bands (ev):

    -5.6205   4.4190   5.7277   5.7277

          k = 0.6250-0.6250 0.6250 (   353 PWs)   bands (ev):

    -4.1617   0.1325   4.9381   4.9381

          k =-0.3750-0.3750-0.1250 (   352 PWs)   bands (ev):

    -4.5941   1.4221   3.7421   5.2451

          k = 0.1250-0.8750 0.3750 (   359 PWs)   bands (ev):

    -2.4209  -0.8785   2.0407   3.1151

          k =-0.1250-0.3750 0.3750 (   352 PWs)   bands (ev):

    -4.5941   1.4221   3.7421   5.2451

          k = 0.3750-0.8750 0.8750 (   349 PWs)   bands (ev):

    -4.0610   1.0865   3.3932   3.8427

          k = 0.3750 0.3750 0.6250 (   359 PWs)   bands (ev):

    -3.4549  -0.6563   3.7618   4.4730

          k = 0.8750-0.1250 1.1250 (   358 PWs)   bands (ev):

    -2.5884  -0.7810   2.6485   3.3752

          k = 0.6250 0.3750-0.3750 (   359 PWs)   bands (ev):

    -3.4549  -0.6563   3.7618   4.4730

          k = 1.1250-0.1250 0.1250 (   358 PWs)   bands (ev):

    -2.5884  -0.7810   2.6485   3.3752

          k = 0.1250 0.1250 0.3750 (   349 PWs)   bands (ev):

    -5.0929   2.7997   4.7180   4.7835

          k = 0.6250-0.3750 0.8750 (   357 PWs)   bands (ev):

    -3.6459   0.2132   2.7523   4.1189

          k = 0.3750 0.1250-0.1250 (   349 PWs)   bands (ev):

    -5.0929   2.7997   4.7180   4.7835

          k = 0.8750-0.3750 0.3750 (   361 PWs)   bands (ev):

    -2.9588  -0.5738   2.0987   4.1563

          k =-0.1250-0.6250-0.1250 (   349 PWs)   bands (ev):

    -4.0610   1.0865   3.3932   3.8427

          k = 0.3750-1.1250 0.3750 (   361 PWs)   bands (ev):

    -2.9588  -0.5738   2.0987   4.1563

          k = 0.1250-0.6250 0.1250 (   349 PWs)   bands (ev):

    -4.0610   1.0865   3.3932   3.8427

          k = 0.6250-1.1250 0.6250 (   352 PWs)   bands (ev):

    -4.5941   1.4221   3.7421   5.2451

          k = 0.6250 0.1250 0.8750 (   359 PWs)   bands (ev):

    -2.4209  -0.8785   2.0407   3.1151

          k = 1.1250-0.3750 1.3750 (   357 PWs)   bands (ev):

    -3.6459   0.2132   2.7523   4.1189

          k =-0.8750 0.1250 0.6250 (   359 PWs)   bands (ev):

    -2.4209  -0.8785   2.0407   3.1151

          k =-0.3750-0.3750 1.1250 (   361 PWs)   bands (ev):

    -2.9588  -0.5738   2.0987   4.1563

          k = 0.8750 0.1250-0.6250 (   359 PWs)   bands (ev):

    -2.4209  -0.8785   2.0407   3.1151

          k = 1.3750-0.3750-0.1250 (   357 PWs)   bands (ev):

    -3.6459   0.2132   2.7523   4.1189

          k = 0.3750-0.1250 0.6250 (   357 PWs)   bands (ev):

    -3.6459   0.2132   2.7523   4.1189

          k = 0.8750-0.6250 1.1250 (   349 PWs)   bands (ev):

    -5.0929   2.7997   4.7180   4.7835

          k =-0.6250-0.1250 0.3750 (   357 PWs)   bands (ev):

    -3.6459   0.2132   2.7523   4.1189

          k =-0.1250-0.6250 0.8750 (   359 PWs)   bands (ev):

    -2.4209  -0.8785   2.0407   3.1151

          k = 0.6250-0.1250-0.3750 (   357 PWs)   bands (ev):

    -3.6459   0.2132   2.7523   4.1189

          k = 1.1250-0.6250 0.1250 (   359 PWs)   bands (ev):

    -2.4209  -0.8785   2.0407   3.1151

          k =-0.1250 0.8750-0.1250 (   358 PWs)   bands (ev):

    -2.5884  -0.7810   2.6485   3.3752

          k = 0.3750 0.3750 0.3750 (   353 PWs)   bands (ev):

    -4.1617   0.1325   4.9381   4.9381

          k = 0.1250 0.8750 0.1250 (   358 PWs)   bands (ev):

    -2.5884  -0.7810   2.6485   3.3752

          k = 0.6250 0.3750 0.6250 (   359 PWs)   bands (ev):

    -3.4549  -0.6563   3.7618   4.4730

          k = 0.3750-0.3750 0.3750 (   353 PWs)   bands (ev):

    -4.1617   0.1325   4.9381   4.9381

          k = 0.8750-0.8750 0.8750 (   338 PWs)   bands (ev):

    -5.6205   4.4190   5.7277   5.7277

          k = 0.3750 0.3750 1.1250 (   361 PWs)   bands (ev):

    -2.9588  -0.5738   2.0987   4.1563

          k = 0.8750-0.1250 1.6250 (   359 PWs)   bands (ev):

    -2.4209  -0.8785   2.0407   3.1151

          k = 1.1250 0.3750-0.3750 (   361 PWs)   bands (ev):

    -2.9588  -0.5738   2.0987   4.1563

          k = 1.6250-0.1250 0.1250 (   349 PWs)   bands (ev):

    -5.0929   2.7997   4.7180   4.7835

     highest occupied level (ev):     5.7277

     Writing output data file silicon.10.324.save

                                                                                

     bravais-lattice index     =            2
     lattice parameter (alat)  =      10.3240  a.u.
     unit-cell volume          =     275.0958 (a.u.)^3
     number of atoms/cell      =            2
     number of atomic types    =            1
     kinetic-energy cut-off    =      18.0000  Ry
     charge density cut-off    =      72.0000  Ry
     convergence threshold     =      1.0E-12
     beta                      =       0.7000
     number of iterations used =            4
     Exchange-correlation      = SLA  PW   PBE  PBE ( 1  4  3  4 0 0)


     celldm(1)=   10.32400  celldm(2)=    0.00000  celldm(3)=    0.00000
     celldm(4)=    0.00000  celldm(5)=    0.00000  celldm(6)=    0.00000

     crystal axes: (cart. coord. in units of alat)
               a(1) = ( -0.5000  0.0000  0.5000 )  
               a(2) = (  0.0000  0.5000  0.5000 )  
               a(3) = ( -0.5000  0.5000  0.0000 )  

     reciprocal axes: (cart. coord. in units 2 pi/alat)
               b(1) = ( -1.0000 -1.0000  1.0000 )  
               b(2) = (  1.0000  1.0000  1.0000 )  
               b(3) = ( -1.0000  1.0000 -1.0000 )  


     Atoms inside the unit cell: 

     Cartesian axes

     site n.  atom      mass           positions (alat units)
        1     Si  28.0860   tau(    1) = (    0.00000    0.00000    0.00000  )
        2     Si  28.0860   tau(    2) = (    0.25000    0.25000    0.25000  )

     Computing dynamical matrix for 
                    q = (   0.5000000  -0.5000000   0.5000000 )

     13 Sym.Ops. (with q -> -q+G )


     G cutoff =  194.3877  (    685 G-vectors)     FFT grid: ( 20, 20, 20)
     number of k points=    60

     PseudoPot. # 1 for Si read from file:
     /home/max/quantum_espresso/qe-6.1/pseudo/si_pbe_v1.uspp.F.UPF.txt
     MD5 check sum: a056efeee980c13900f22a371efd63c1
     Pseudo is Ultrasoft + core correction, Zval =  4.0
     Generated by new atomic code, or converted to UPF format
     Using radial grid of  899 points,  6 beta functions with: 
                l(1) =   0
                l(2) =   0
                l(3) =   1
                l(4) =   1
                l(5) =   2
                l(6) =   2
     Q(r) pseudized with  8 coefficients,  rinner =    0.900   0.900   0.900
                                                       0.900   0.900


     Atomic displacements:
     There are   4 irreducible representations

     Representation     1      1 modes -  To be done

     Representation     2      1 modes -  To be done

     Representation     3      2 modes -  To be done

     Representation     4      2 modes -  To be done



     Alpha used in Ewald sum =   0.7000
     PHONON       :    16.79s CPU        19.10s WALL



     Representation #  1 mode #   1

     Self-consistent Calculation

      iter #   1 total cpu time :    19.2 secs   av.it.:   4.8
      thresh= 1.000E-02 alpha_mix =  0.700 |ddv_scf|^2 =  2.487E-05

      iter #   2 total cpu time :    19.5 secs   av.it.:   8.3
      thresh= 4.987E-04 alpha_mix =  0.700 |ddv_scf|^2 =  2.211E-05

      iter #   3 total cpu time :    19.8 secs   av.it.:   7.5
      thresh= 4.702E-04 alpha_mix =  0.700 |ddv_scf|^2 =  4.178E-08

      iter #   4 total cpu time :    19.9 secs   av.it.:   7.5
      thresh= 2.044E-05 alpha_mix =  0.700 |ddv_scf|^2 =  1.417E-10

      iter #   5 total cpu time :    20.1 secs   av.it.:   7.9
      thresh= 1.190E-06 alpha_mix =  0.700 |ddv_scf|^2 =  3.599E-12

      iter #   6 total cpu time :    20.2 secs   av.it.:   7.9
      thresh= 1.897E-07 alpha_mix =  0.700 |ddv_scf|^2 =  5.572E-14

     End of self-consistent calculation

     Convergence has been achieved 


     Representation #  2 mode #   2

     Self-consistent Calculation

      iter #   1 total cpu time :    20.4 secs   av.it.:   5.6
      thresh= 1.000E-02 alpha_mix =  0.700 |ddv_scf|^2 =  3.457E-04

      iter #   2 total cpu time :    20.6 secs   av.it.:   8.3
      thresh= 1.859E-03 alpha_mix =  0.700 |ddv_scf|^2 =  1.065E-03

      iter #   3 total cpu time :    20.7 secs   av.it.:   7.1
      thresh= 3.263E-03 alpha_mix =  0.700 |ddv_scf|^2 =  1.129E-07

      iter #   4 total cpu time :    20.9 secs   av.it.:   8.2
      thresh= 3.360E-05 alpha_mix =  0.700 |ddv_scf|^2 =  7.229E-09

      iter #   5 total cpu time :    21.1 secs   av.it.:   8.5
      thresh= 8.502E-06 alpha_mix =  0.700 |ddv_scf|^2 =  1.295E-10

      iter #   6 total cpu time :    21.2 secs   av.it.:   8.2
      thresh= 1.138E-06 alpha_mix =  0.700 |ddv_scf|^2 =  2.067E-12

      iter #   7 total cpu time :    21.4 secs   av.it.:   7.8
      thresh= 1.438E-07 alpha_mix =  0.700 |ddv_scf|^2 =  3.209E-15

     End of self-consistent calculation

     Convergence has been achieved 


     Representation #  3 modes #   3  4

     Self-consistent Calculation

      iter #   1 total cpu time :    21.8 secs   av.it.:   4.7
      thresh= 1.000E-02 alpha_mix =  0.700 |ddv_scf|^2 =  3.025E-07

      iter #   2 total cpu time :    22.2 secs   av.it.:   9.1
      thresh= 5.500E-05 alpha_mix =  0.700 |ddv_scf|^2 =  2.493E-08

      iter #   3 total cpu time :    22.5 secs   av.it.:   8.4
      thresh= 1.579E-05 alpha_mix =  0.700 |ddv_scf|^2 =  4.920E-10

      iter #   4 total cpu time :    22.9 secs   av.it.:   8.9
      thresh= 2.218E-06 alpha_mix =  0.700 |ddv_scf|^2 =  6.194E-12

      iter #   5 total cpu time :    23.2 secs   av.it.:   8.7
      thresh= 2.489E-07 alpha_mix =  0.700 |ddv_scf|^2 =  3.214E-14

     End of self-consistent calculation

     Convergence has been achieved 


     Representation #  4 modes #   5  6

     Self-consistent Calculation

      iter #   1 total cpu time :    23.7 secs   av.it.:   5.0
      thresh= 1.000E-02 alpha_mix =  0.700 |ddv_scf|^2 =  9.783E-07

      iter #   2 total cpu time :    24.0 secs   av.it.:   9.5
      thresh= 9.891E-05 alpha_mix =  0.700 |ddv_scf|^2 =  7.653E-08

      iter #   3 total cpu time :    24.4 secs   av.it.:   9.3
      thresh= 2.766E-05 alpha_mix =  0.700 |ddv_scf|^2 =  4.886E-09

      iter #   4 total cpu time :    24.7 secs   av.it.:   8.4
      thresh= 6.990E-06 alpha_mix =  0.700 |ddv_scf|^2 =  6.572E-12

      iter #   5 total cpu time :    25.1 secs   av.it.:   8.8
      thresh= 2.564E-07 alpha_mix =  0.700 |ddv_scf|^2 =  2.286E-14

     End of self-consistent calculation

     Convergence has been achieved 

     Number of q in the star =    4
     List of q in the star:
          1   0.500000000  -0.500000000   0.500000000
          2   0.500000000   0.500000000   0.500000000
          3  -0.500000000   0.500000000   0.500000000
          4   0.500000000   0.500000000  -0.500000000

     Diagonalizing the dynamical matrix

     q = (    0.500000000  -0.500000000   0.500000000 ) 

 **************************************************************************
     freq (    1) =       4.534570 [THz] =     151.256974 [cm-1]
     freq (    2) =       4.534570 [THz] =     151.256974 [cm-1]
     freq (    3) =      11.552986 [THz] =     385.366137 [cm-1]
     freq (    4) =      12.179308 [THz] =     406.257987 [cm-1]
     freq (    5) =      14.458345 [THz] =     482.278464 [cm-1]
     freq (    6) =      14.458345 [THz] =     482.278464 [cm-1]
 **************************************************************************

     Calculation of q =    0.0000000   0.5000000   0.0000000

   Info: using nr1, nr2, nr3 values from input

   Info: using nr1, nr2, nr3 values from input

     Parallelization info
     --------------------
     sticks:   dense  smooth     PW     G-vecs:    dense   smooth      PW
     Min          63      63     27                  684      684     175
     Max          64      64     28                  688      688     176
     Sum         253     253    109                 2741     2741     701



     bravais-lattice index     =            2
     lattice parameter (alat)  =      10.3240  a.u.
     unit-cell volume          =     275.0958 (a.u.)^3
     number of atoms/cell      =            2
     number of atomic types    =            1
     number of electrons       =         8.00
     number of Kohn-Sham states=            4
     kinetic-energy cutoff     =      18.0000  Ry
     charge density cutoff     =      72.0000  Ry
     Exchange-correlation      = SLA  PW   PBE  PBE ( 1  4  3  4 0 0)

     celldm(1)=  10.324000  celldm(2)=   0.000000  celldm(3)=   0.000000
     celldm(4)=   0.000000  celldm(5)=   0.000000  celldm(6)=   0.000000

     crystal axes: (cart. coord. in units of alat)
               a(1) = (  -0.500000   0.000000   0.500000 )  
               a(2) = (   0.000000   0.500000   0.500000 )  
               a(3) = (  -0.500000   0.500000   0.000000 )  

     reciprocal axes: (cart. coord. in units 2 pi/alat)
               b(1) = ( -1.000000 -1.000000  1.000000 )  
               b(2) = (  1.000000  1.000000  1.000000 )  
               b(3) = ( -1.000000  1.000000 -1.000000 )  


     PseudoPot. # 1 for Si read from file:
     /home/max/quantum_espresso/qe-6.1/pseudo/si_pbe_v1.uspp.F.UPF.txt
     MD5 check sum: a056efeee980c13900f22a371efd63c1
     Pseudo is Ultrasoft + core correction, Zval =  4.0
     Generated by new atomic code, or converted to UPF format
     Using radial grid of  899 points,  6 beta functions with: 
                l(1) =   0
                l(2) =   0
                l(3) =   1
                l(4) =   1
                l(5) =   2
                l(6) =   2
     Q(r) pseudized with  8 coefficients,  rinner =    0.900   0.900   0.900
                                                       0.900   0.900

     atomic species   valence    mass     pseudopotential
        Si             4.00    28.08600     Si( 1.00)

     48 Sym. Ops., with inversion, found



   Cartesian axes

     site n.     atom                  positions (alat units)
         1           Si  tau(   1) = (   0.0000000   0.0000000   0.0000000  )
         2           Si  tau(   2) = (   0.2500000   0.2500000   0.2500000  )

     number of k points=    80
                       cart. coord. in units 2pi/alat
        k(    1) = (  -0.1250000   0.1250000   0.1250000), wk =   0.0312500
        k(    2) = (  -0.1250000   0.6250000   0.1250000), wk =   0.0000000
        k(    3) = (  -0.3750000   0.3750000  -0.1250000), wk =   0.0625000
        k(    4) = (  -0.3750000   0.8750000  -0.1250000), wk =   0.0000000
        k(    5) = (   0.3750000  -0.3750000   0.6250000), wk =   0.0625000
        k(    6) = (   0.3750000   0.1250000   0.6250000), wk =   0.0000000
        k(    7) = (   0.1250000  -0.1250000   0.3750000), wk =   0.0625000
        k(    8) = (   0.1250000   0.3750000   0.3750000), wk =   0.0000000
        k(    9) = (  -0.1250000   0.6250000   0.1250000), wk =   0.0312500
        k(   10) = (  -0.1250000   1.1250000   0.1250000), wk =   0.0000000
        k(   11) = (   0.6250000  -0.1250000   0.8750000), wk =   0.0625000
        k(   12) = (   0.6250000   0.3750000   0.8750000), wk =   0.0000000
        k(   13) = (   0.3750000   0.1250000   0.6250000), wk =   0.0625000
        k(   14) = (   0.3750000   0.6250000   0.6250000), wk =   0.0000000
        k(   15) = (  -0.1250000  -0.8750000   0.1250000), wk =   0.0312500
        k(   16) = (  -0.1250000  -0.3750000   0.1250000), wk =   0.0000000
        k(   17) = (  -0.3750000   0.3750000   0.3750000), wk =   0.0312500
        k(   18) = (  -0.3750000   0.8750000   0.3750000), wk =   0.0000000
        k(   19) = (   0.3750000  -0.3750000   1.1250000), wk =   0.0625000
        k(   20) = (   0.3750000   0.1250000   1.1250000), wk =   0.0000000
        k(   21) = (  -0.1250000  -0.1250000   0.1250000), wk =   0.0312500
        k(   22) = (  -0.1250000   0.3750000   0.1250000), wk =   0.0000000
        k(   23) = (   0.1250000  -0.3750000   0.3750000), wk =   0.0625000
        k(   24) = (   0.1250000   0.1250000   0.3750000), wk =   0.0000000
        k(   25) = (   0.3750000  -0.1250000   0.3750000), wk =   0.0312500
        k(   26) = (   0.3750000   0.3750000   0.3750000), wk =   0.0000000
        k(   27) = (   0.3750000   0.1250000   0.3750000), wk =   0.0312500
        k(   28) = (   0.3750000   0.6250000   0.3750000), wk =   0.0000000
        k(   29) = (  -0.6250000   0.3750000  -0.3750000), wk =   0.0625000
        k(   30) = (  -0.6250000   0.8750000  -0.3750000), wk =   0.0000000
        k(   31) = (  -0.3750000   0.6250000  -0.3750000), wk =   0.0312500
        k(   32) = (  -0.3750000   1.1250000  -0.3750000), wk =   0.0000000
        k(   33) = (  -0.3750000  -0.6250000  -0.3750000), wk =   0.0312500
        k(   34) = (  -0.3750000  -0.1250000  -0.3750000), wk =   0.0000000
        k(   35) = (  -0.3750000   0.1250000  -0.1250000), wk =   0.0625000
        k(   36) = (  -0.3750000   0.6250000  -0.1250000), wk =   0.0000000
        k(   37) = (  -0.1250000   0.3750000  -0.1250000), wk =   0.0312500
        k(   38) = (  -0.1250000   0.8750000  -0.1250000), wk =   0.0000000
        k(   39) = (  -0.1250000  -0.3750000  -0.1250000), wk =   0.0312500
        k(   40) = (  -0.1250000   0.1250000  -0.1250000), wk =   0.0000000
        k(   41) = (  -0.1250000  -0.6250000   0.1250000), wk =   0.0312500
        k(   42) = (  -0.1250000  -0.1250000   0.1250000), wk =   0.0000000
        k(   43) = (   0.6250000  -0.1250000  -0.1250000), wk =   0.0625000
        k(   44) = (   0.6250000   0.3750000  -0.1250000), wk =   0.0000000
        k(   45) = (   0.6250000   0.1250000   0.1250000), wk =   0.0625000
        k(   46) = (   0.6250000   0.6250000   0.1250000), wk =   0.0000000
        k(   47) = (  -0.8750000   0.1250000  -0.6250000), wk =   0.0625000
        k(   48) = (  -0.8750000   0.6250000  -0.6250000), wk =   0.0000000
        k(   49) = (  -0.1250000   0.6250000  -0.8750000), wk =   0.0625000
        k(   50) = (  -0.1250000   1.1250000  -0.8750000), wk =   0.0000000
        k(   51) = (  -0.1250000   0.8750000  -0.6250000), wk =   0.0625000
        k(   52) = (  -0.1250000   1.3750000  -0.6250000), wk =   0.0000000
        k(   53) = (  -0.1250000  -0.8750000  -0.6250000), wk =   0.0625000
        k(   54) = (  -0.1250000  -0.3750000  -0.6250000), wk =   0.0000000
        k(   55) = (   0.8750000  -0.6250000   0.1250000), wk =   0.0625000
        k(   56) = (   0.8750000  -0.1250000   0.1250000), wk =   0.0000000
        k(   57) = (  -0.6250000  -0.1250000  -0.3750000), wk =   0.0625000
        k(   58) = (  -0.6250000   0.3750000  -0.3750000), wk =   0.0000000
        k(   59) = (   0.1250000   0.3750000  -0.6250000), wk =   0.0625000
        k(   60) = (   0.1250000   0.8750000  -0.6250000), wk =   0.0000000
        k(   61) = (   0.1250000   0.6250000  -0.3750000), wk =   0.0625000
        k(   62) = (   0.1250000   1.1250000  -0.3750000), wk =   0.0000000
        k(   63) = (   0.1250000  -0.6250000  -0.3750000), wk =   0.0625000
        k(   64) = (   0.1250000  -0.1250000  -0.3750000), wk =   0.0000000
        k(   65) = (   0.6250000  -0.3750000  -0.1250000), wk =   0.0625000
        k(   66) = (   0.6250000   0.1250000  -0.1250000), wk =   0.0000000
        k(   67) = (  -0.1250000   0.8750000   0.1250000), wk =   0.0312500
        k(   68) = (  -0.1250000   1.3750000   0.1250000), wk =   0.0000000
        k(   69) = (  -0.8750000  -0.1250000  -0.1250000), wk =   0.0625000
        k(   70) = (  -0.8750000   0.3750000  -0.1250000), wk =   0.0000000
        k(   71) = (  -0.8750000   0.1250000   0.1250000), wk =   0.0625000
        k(   72) = (  -0.8750000   0.6250000   0.1250000), wk =   0.0000000
        k(   73) = (  -0.3750000  -0.3750000   0.3750000), wk =   0.0312500
        k(   74) = (  -0.3750000   0.1250000   0.3750000), wk =   0.0000000
        k(   75) = (  -1.1250000   0.3750000  -0.3750000), wk =   0.0625000
        k(   76) = (  -1.1250000   0.8750000  -0.3750000), wk =   0.0000000
        k(   77) = (  -0.3750000   1.1250000  -0.3750000), wk =   0.0312500
        k(   78) = (  -0.3750000   1.6250000  -0.3750000), wk =   0.0000000
        k(   79) = (  -0.3750000  -1.1250000  -0.3750000), wk =   0.0312500
        k(   80) = (  -0.3750000  -0.6250000  -0.3750000), wk =   0.0000000

     Dense  grid:     2741 G-vectors     FFT dimensions: (  20,  20,  20)

     Estimated max dynamical RAM per process >       0.33MB

     Estimated total allocated dynamical RAM >       1.30MB

     Check: negative/imaginary core charge=   -0.000005    0.000000

     The potential is recalculated from file :
     ./_ph0/silicon.10.324.save/charge-density.dat

     Starting wfc are    8 atomic wfcs

     Band Structure Calculation
     Davidson diagonalization with overlap

     ethr =  1.25E-10,  avg # of iterations = 11.7

     total cpu time spent up to now is        2.5 secs

     End of band structure calculation

          k =-0.1250 0.1250 0.1250 (   338 PWs)   bands (ev):

    -5.6205   4.4190   5.7277   5.7277

          k =-0.1250 0.6250 0.1250 (   349 PWs)   bands (ev):

    -4.0610   1.0865   3.3932   3.8427

          k =-0.3750 0.3750-0.1250 (   352 PWs)   bands (ev):

    -4.5941   1.4221   3.7421   5.2451

          k =-0.3750 0.8750-0.1250 (   359 PWs)   bands (ev):

    -2.4209  -0.8785   2.0407   3.1151

          k = 0.3750-0.3750 0.6250 (   359 PWs)   bands (ev):

    -3.4549  -0.6563   3.7618   4.4730

          k = 0.3750 0.1250 0.6250 (   357 PWs)   bands (ev):

    -3.6459   0.2132   2.7523   4.1189

          k = 0.1250-0.1250 0.3750 (   349 PWs)   bands (ev):

    -5.0929   2.7997   4.7180   4.7835

          k = 0.1250 0.3750 0.3750 (   352 PWs)   bands (ev):

    -4.5941   1.4221   3.7421   5.2451

          k =-0.1250 0.6250 0.1250 (   349 PWs)   bands (ev):

    -4.0610   1.0865   3.3932   3.8427

          k =-0.1250 1.1250 0.1250 (   358 PWs)   bands (ev):

    -2.5884  -0.7810   2.6485   3.3752

          k = 0.6250-0.1250 0.8750 (   359 PWs)   bands (ev):

    -2.4209  -0.8785   2.0407   3.1151

          k = 0.6250 0.3750 0.8750 (   357 PWs)   bands (ev):

    -3.6459   0.2132   2.7523   4.1189

          k = 0.3750 0.1250 0.6250 (   357 PWs)   bands (ev):

    -3.6459   0.2132   2.7523   4.1189

          k = 0.3750 0.6250 0.6250 (   359 PWs)   bands (ev):

    -3.4549  -0.6563   3.7618   4.4730

          k =-0.1250-0.8750 0.1250 (   358 PWs)   bands (ev):

    -2.5884  -0.7810   2.6485   3.3752

          k =-0.1250-0.3750 0.1250 (   349 PWs)   bands (ev):

    -5.0929   2.7997   4.7180   4.7835

          k =-0.3750 0.3750 0.3750 (   353 PWs)   bands (ev):

    -4.1617   0.1325   4.9381   4.9381

          k =-0.3750 0.8750 0.3750 (   361 PWs)   bands (ev):

    -2.9588  -0.5738   2.0987   4.1563

          k = 0.3750-0.3750 1.1250 (   361 PWs)   bands (ev):

    -2.9588  -0.5738   2.0987   4.1563

          k = 0.3750 0.1250 1.1250 (   359 PWs)   bands (ev):

    -2.4209  -0.8785   2.0407   3.1151

          k =-0.1250-0.1250 0.1250 (   338 PWs)   bands (ev):

    -5.6205   4.4190   5.7277   5.7277

          k =-0.1250 0.3750 0.1250 (   349 PWs)   bands (ev):

    -5.0929   2.7997   4.7180   4.7835

          k = 0.1250-0.3750 0.3750 (   352 PWs)   bands (ev):

    -4.5941   1.4221   3.7421   5.2451

          k = 0.1250 0.1250 0.3750 (   349 PWs)   bands (ev):

    -5.0929   2.7997   4.7180   4.7835

          k = 0.3750-0.1250 0.3750 (   352 PWs)   bands (ev):

    -4.5941   1.4221   3.7421   5.2451

          k = 0.3750 0.3750 0.3750 (   353 PWs)   bands (ev):

    -4.1617   0.1325   4.9381   4.9381

          k = 0.3750 0.1250 0.3750 (   352 PWs)   bands (ev):

    -4.5941   1.4221   3.7421   5.2451

          k = 0.3750 0.6250 0.3750 (   359 PWs)   bands (ev):

    -3.4549  -0.6563   3.7618   4.4730

          k =-0.6250 0.3750-0.3750 (   359 PWs)   bands (ev):

    -3.4549  -0.6563   3.7618   4.4730

          k =-0.6250 0.8750-0.3750 (   357 PWs)   bands (ev):

    -3.6459   0.2132   2.7523   4.1189

          k =-0.3750 0.6250-0.3750 (   359 PWs)   bands (ev):

    -3.4549  -0.6563   3.7618   4.4730

          k =-0.3750 1.1250-0.3750 (   361 PWs)   bands (ev):

    -2.9588  -0.5738   2.0987   4.1563

          k =-0.3750-0.6250-0.3750 (   359 PWs)   bands (ev):

    -3.4549  -0.6563   3.7618   4.4730

          k =-0.3750-0.1250-0.3750 (   352 PWs)   bands (ev):

    -4.5941   1.4221   3.7421   5.2451

          k =-0.3750 0.1250-0.1250 (   349 PWs)   bands (ev):

    -5.0929   2.7997   4.7180   4.7835

          k =-0.3750 0.6250-0.1250 (   357 PWs)   bands (ev):

    -3.6459   0.2132   2.7523   4.1189

          k =-0.1250 0.3750-0.1250 (   349 PWs)   bands (ev):

    -5.0929   2.7997   4.7180   4.7835

          k =-0.1250 0.8750-0.1250 (   358 PWs)   bands (ev):

    -2.5884  -0.7810   2.6485   3.3752

          k =-0.1250-0.3750-0.1250 (   349 PWs)   bands (ev):

    -5.0929   2.7997   4.7180   4.7835

          k =-0.1250 0.1250-0.1250 (   338 PWs)   bands (ev):

    -5.6205   4.4190   5.7277   5.7277

          k =-0.1250-0.6250 0.1250 (   349 PWs)   bands (ev):

    -4.0610   1.0865   3.3932   3.8427

          k =-0.1250-0.1250 0.1250 (   338 PWs)   bands (ev):

    -5.6205   4.4190   5.7277   5.7277

          k = 0.6250-0.1250-0.1250 (   349 PWs)   bands (ev):

    -4.0610   1.0865   3.3932   3.8427

          k = 0.6250 0.3750-0.1250 (   357 PWs)   bands (ev):

    -3.6459   0.2132   2.7523   4.1189

          k = 0.6250 0.1250 0.1250 (   349 PWs)   bands (ev):

    -4.0610   1.0865   3.3932   3.8427

          k = 0.6250 0.6250 0.1250 (   361 PWs)   bands (ev):

    -2.9588  -0.5738   2.0987   4.1563

          k =-0.8750 0.1250-0.6250 (   359 PWs)   bands (ev):

    -2.4209  -0.8785   2.0407   3.1151

          k =-0.8750 0.6250-0.6250 (   352 PWs)   bands (ev):

    -4.5941   1.4221   3.7421   5.2451

          k =-0.1250 0.6250-0.8750 (   359 PWs)   bands (ev):

    -2.4209  -0.8785   2.0407   3.1151

          k =-0.1250 1.1250-0.8750 (   358 PWs)   bands (ev):

    -2.5884  -0.7810   2.6485   3.3752

          k =-0.1250 0.8750-0.6250 (   359 PWs)   bands (ev):

    -2.4209  -0.8785   2.0407   3.1151

          k =-0.1250 1.3750-0.6250 (   361 PWs)   bands (ev):

    -2.9588  -0.5738   2.0987   4.1563

          k =-0.1250-0.8750-0.6250 (   359 PWs)   bands (ev):

    -2.4209  -0.8785   2.0407   3.1151

          k =-0.1250-0.3750-0.6250 (   357 PWs)   bands (ev):

    -3.6459   0.2132   2.7523   4.1189

          k = 0.8750-0.6250 0.1250 (   359 PWs)   bands (ev):

    -2.4209  -0.8785   2.0407   3.1151

          k = 0.8750-0.1250 0.1250 (   358 PWs)   bands (ev):

    -2.5884  -0.7810   2.6485   3.3752

          k =-0.6250-0.1250-0.3750 (   357 PWs)   bands (ev):

    -3.6459   0.2132   2.7523   4.1189

          k =-0.6250 0.3750-0.3750 (   359 PWs)   bands (ev):

    -3.4549  -0.6563   3.7618   4.4730

          k = 0.1250 0.3750-0.6250 (   357 PWs)   bands (ev):

    -3.6459   0.2132   2.7523   4.1189

          k = 0.1250 0.8750-0.6250 (   359 PWs)   bands (ev):

    -2.4209  -0.8785   2.0407   3.1151

          k = 0.1250 0.6250-0.3750 (   357 PWs)   bands (ev):

    -3.6459   0.2132   2.7523   4.1189

          k = 0.1250 1.1250-0.3750 (   359 PWs)   bands (ev):

    -2.4209  -0.8785   2.0407   3.1151

          k = 0.1250-0.6250-0.3750 (   357 PWs)   bands (ev):

    -3.6459   0.2132   2.7523   4.1189

          k = 0.1250-0.1250-0.3750 (   349 PWs)   bands (ev):

    -5.0929   2.7997   4.7180   4.7835

          k = 0.6250-0.3750-0.1250 (   357 PWs)   bands (ev):

    -3.6459   0.2132   2.7523   4.1189

          k = 0.6250 0.1250-0.1250 (   349 PWs)   bands (ev):

    -4.0610   1.0865   3.3932   3.8427

          k =-0.1250 0.8750 0.1250 (   358 PWs)   bands (ev):

    -2.5884  -0.7810   2.6485   3.3752

          k =-0.1250 1.3750 0.1250 (   349 PWs)   bands (ev):

    -4.0610   1.0865   3.3932   3.8427

          k =-0.8750-0.1250-0.1250 (   358 PWs)   bands (ev):

    -2.5884  -0.7810   2.6485   3.3752

          k =-0.8750 0.3750-0.1250 (   359 PWs)   bands (ev):

    -2.4209  -0.8785   2.0407   3.1151

          k =-0.8750 0.1250 0.1250 (   358 PWs)   bands (ev):

    -2.5884  -0.7810   2.6485   3.3752

          k =-0.8750 0.6250 0.1250 (   359 PWs)   bands (ev):

    -2.4209  -0.8785   2.0407   3.1151

          k =-0.3750-0.3750 0.3750 (   353 PWs)   bands (ev):

    -4.1617   0.1325   4.9381   4.9381

          k =-0.3750 0.1250 0.3750 (   352 PWs)   bands (ev):

    -4.5941   1.4221   3.7421   5.2451

          k =-1.1250 0.3750-0.3750 (   361 PWs)   bands (ev):

    -2.9588  -0.5738   2.0987   4.1563

          k =-1.1250 0.8750-0.3750 (   349 PWs)   bands (ev):

    -4.0610   1.0865   3.3932   3.8427

          k =-0.3750 1.1250-0.3750 (   361 PWs)   bands (ev):

    -2.9588  -0.5738   2.0987   4.1563

          k =-0.3750 1.6250-0.3750 (   353 PWs)   bands (ev):

    -4.1617   0.1325   4.9381   4.9381

          k =-0.3750-1.1250-0.3750 (   361 PWs)   bands (ev):

    -2.9588  -0.5738   2.0987   4.1563

          k =-0.3750-0.6250-0.3750 (   359 PWs)   bands (ev):

    -3.4549  -0.6563   3.7618   4.4730

     highest occupied level (ev):     5.7277

     Writing output data file silicon.10.324.save

                                                                                

     bravais-lattice index     =            2
     lattice parameter (alat)  =      10.3240  a.u.
     unit-cell volume          =     275.0958 (a.u.)^3
     number of atoms/cell      =            2
     number of atomic types    =            1
     kinetic-energy cut-off    =      18.0000  Ry
     charge density cut-off    =      72.0000  Ry
     convergence threshold     =      1.0E-12
     beta                      =       0.7000
     number of iterations used =            4
     Exchange-correlation      = SLA  PW   PBE  PBE ( 1  4  3  4 0 0)


     celldm(1)=   10.32400  celldm(2)=    0.00000  celldm(3)=    0.00000
     celldm(4)=    0.00000  celldm(5)=    0.00000  celldm(6)=    0.00000

     crystal axes: (cart. coord. in units of alat)
               a(1) = ( -0.5000  0.0000  0.5000 )  
               a(2) = (  0.0000  0.5000  0.5000 )  
               a(3) = ( -0.5000  0.5000  0.0000 )  

     reciprocal axes: (cart. coord. in units 2 pi/alat)
               b(1) = ( -1.0000 -1.0000  1.0000 )  
               b(2) = (  1.0000  1.0000  1.0000 )  
               b(3) = ( -1.0000  1.0000 -1.0000 )  


     Atoms inside the unit cell: 

     Cartesian axes

     site n.  atom      mass           positions (alat units)
        1     Si  28.0860   tau(    1) = (    0.00000    0.00000    0.00000  )
        2     Si  28.0860   tau(    2) = (    0.25000    0.25000    0.25000  )

     Computing dynamical matrix for 
                    q = (   0.0000000   0.5000000   0.0000000 )

      8 Sym.Ops. (no q -> -q+G )


     G cutoff =  194.3877  (    685 G-vectors)     FFT grid: ( 20, 20, 20)
     number of k points=    80

     PseudoPot. # 1 for Si read from file:
     /home/max/quantum_espresso/qe-6.1/pseudo/si_pbe_v1.uspp.F.UPF.txt
     MD5 check sum: a056efeee980c13900f22a371efd63c1
     Pseudo is Ultrasoft + core correction, Zval =  4.0
     Generated by new atomic code, or converted to UPF format
     Using radial grid of  899 points,  6 beta functions with: 
                l(1) =   0
                l(2) =   0
                l(3) =   1
                l(4) =   1
                l(5) =   2
                l(6) =   2
     Q(r) pseudized with  8 coefficients,  rinner =    0.900   0.900   0.900
                                                       0.900   0.900

     Mode symmetry, C_4v (4mm)  point group:


     Atomic displacements:
     There are   4 irreducible representations

     Representation     1      1 modes -A_1  G_1 D_1  To be done

     Representation     2      1 modes -B_2  G_4 D_2'  To be done

     Representation     3      2 modes -E    G_5 D_5  To be done

     Representation     4      2 modes -E    G_5 D_5  To be done



     Alpha used in Ewald sum =   0.7000
     PHONON       :    22.70s CPU        26.25s WALL



     Representation #  1 mode #   1

     Self-consistent Calculation

      iter #   1 total cpu time :    26.4 secs   av.it.:   5.8
      thresh= 1.000E-02 alpha_mix =  0.700 |ddv_scf|^2 =  2.979E-03

      iter #   2 total cpu time :    26.6 secs   av.it.:   7.7
      thresh= 5.458E-03 alpha_mix =  0.700 |ddv_scf|^2 =  3.913E-02

      iter #   3 total cpu time :    26.8 secs   av.it.:   6.7
      thresh= 1.000E-02 alpha_mix =  0.700 |ddv_scf|^2 =  1.374E-07

      iter #   4 total cpu time :    27.0 secs   av.it.:   8.2
      thresh= 3.706E-05 alpha_mix =  0.700 |ddv_scf|^2 =  1.251E-08

      iter #   5 total cpu time :    27.2 secs   av.it.:   7.8
      thresh= 1.118E-05 alpha_mix =  0.700 |ddv_scf|^2 =  7.370E-10

      iter #   6 total cpu time :    27.5 secs   av.it.:   7.8
      thresh= 2.715E-06 alpha_mix =  0.700 |ddv_scf|^2 =  2.574E-12

      iter #   7 total cpu time :    27.8 secs   av.it.:   8.0
      thresh= 1.604E-07 alpha_mix =  0.700 |ddv_scf|^2 =  5.129E-13

     End of self-consistent calculation

     Convergence has been achieved 


     Representation #  2 mode #   2

     Self-consistent Calculation

      iter #   1 total cpu time :    28.0 secs   av.it.:   4.9
      thresh= 1.000E-02 alpha_mix =  0.700 |ddv_scf|^2 =  5.508E-06

      iter #   2 total cpu time :    28.2 secs   av.it.:   8.7
      thresh= 2.347E-04 alpha_mix =  0.700 |ddv_scf|^2 =  1.329E-06

      iter #   3 total cpu time :    28.4 secs   av.it.:   8.5
      thresh= 1.153E-04 alpha_mix =  0.700 |ddv_scf|^2 =  4.226E-08

      iter #   4 total cpu time :    28.6 secs   av.it.:   8.2
      thresh= 2.056E-05 alpha_mix =  0.700 |ddv_scf|^2 =  6.862E-10

      iter #   5 total cpu time :    28.8 secs   av.it.:   8.5
      thresh= 2.620E-06 alpha_mix =  0.700 |ddv_scf|^2 =  6.843E-12

      iter #   6 total cpu time :    29.0 secs   av.it.:   7.9
      thresh= 2.616E-07 alpha_mix =  0.700 |ddv_scf|^2 =  6.955E-14

     End of self-consistent calculation

     Convergence has been achieved 


     Representation #  3 modes #   3  4

     Self-consistent Calculation

      iter #   1 total cpu time :    29.3 secs   av.it.:   5.0
      thresh= 1.000E-02 alpha_mix =  0.700 |ddv_scf|^2 =  1.024E-06

      iter #   2 total cpu time :    30.0 secs   av.it.:   9.7
      thresh= 1.012E-04 alpha_mix =  0.700 |ddv_scf|^2 =  1.268E-07

      iter #   3 total cpu time :    30.4 secs   av.it.:   9.5
      thresh= 3.560E-05 alpha_mix =  0.700 |ddv_scf|^2 =  6.649E-09

      iter #   4 total cpu time :    30.8 secs   av.it.:   8.8
      thresh= 8.154E-06 alpha_mix =  0.700 |ddv_scf|^2 =  9.332E-12

      iter #   5 total cpu time :    31.3 secs   av.it.:   9.1
      thresh= 3.055E-07 alpha_mix =  0.700 |ddv_scf|^2 =  2.842E-13

     End of self-consistent calculation

     Convergence has been achieved 


     Representation #  4 modes #   5  6

     Self-consistent Calculation

      iter #   1 total cpu time :    31.7 secs   av.it.:   5.0
      thresh= 1.000E-02 alpha_mix =  0.700 |ddv_scf|^2 =  9.080E-07

      iter #   2 total cpu time :    32.2 secs   av.it.:   9.8
      thresh= 9.529E-05 alpha_mix =  0.700 |ddv_scf|^2 =  1.150E-07

      iter #   3 total cpu time :    32.6 secs   av.it.:   9.4
      thresh= 3.391E-05 alpha_mix =  0.700 |ddv_scf|^2 =  6.118E-09

      iter #   4 total cpu time :    33.0 secs   av.it.:   8.9
      thresh= 7.821E-06 alpha_mix =  0.700 |ddv_scf|^2 =  1.400E-11

      iter #   5 total cpu time :    33.7 secs   av.it.:   9.2
      thresh= 3.742E-07 alpha_mix =  0.700 |ddv_scf|^2 =  4.292E-14

     End of self-consistent calculation

     Convergence has been achieved 

     Number of q in the star =    6
     List of q in the star:
          1   0.000000000   0.500000000   0.000000000
          2   0.000000000  -0.500000000   0.000000000
          3   0.500000000   0.000000000   0.000000000
          4   0.000000000   0.000000000   0.500000000
          5   0.000000000   0.000000000  -0.500000000
          6  -0.500000000   0.000000000   0.000000000

     Diagonalizing the dynamical matrix

     q = (    0.000000000   0.500000000   0.000000000 ) 

 **************************************************************************
     freq (    1) =       4.211147 [THz] =     140.468731 [cm-1]
     freq (    2) =       4.211147 [THz] =     140.468731 [cm-1]
     freq (    3) =       7.203158 [THz] =     240.271501 [cm-1]
     freq (    4) =      13.757551 [THz] =     458.902507 [cm-1]
     freq (    5) =      13.757551 [THz] =     458.902507 [cm-1]
     freq (    6) =      14.360621 [THz] =     479.018763 [cm-1]
 **************************************************************************

     Mode symmetry, C_4v (4mm)  point group:

     freq (  1 -  2) =        140.5  [cm-1]   --> E    G_5 D_5       
     freq (  3 -  3) =        240.3  [cm-1]   --> A_1  G_1 D_1       
     freq (  4 -  5) =        458.9  [cm-1]   --> E    G_5 D_5       
     freq (  6 -  6) =        479.0  [cm-1]   --> B_2  G_4 D_2'      

     Calculation of q =    0.7500000  -0.2500000   0.7500000

   Info: using nr1, nr2, nr3 values from input

   Info: using nr1, nr2, nr3 values from input

     Parallelization info
     --------------------
     sticks:   dense  smooth     PW     G-vecs:    dense   smooth      PW
     Min          63      63     30                  684      684     216
     Max          64      64     31                  688      688     218
     Sum         253     253    121                 2741     2741     869



     bravais-lattice index     =            2
     lattice parameter (alat)  =      10.3240  a.u.
     unit-cell volume          =     275.0958 (a.u.)^3
     number of atoms/cell      =            2
     number of atomic types    =            1
     number of electrons       =         8.00
     number of Kohn-Sham states=            4
     kinetic-energy cutoff     =      18.0000  Ry
     charge density cutoff     =      72.0000  Ry
     Exchange-correlation      = SLA  PW   PBE  PBE ( 1  4  3  4 0 0)

     celldm(1)=  10.324000  celldm(2)=   0.000000  celldm(3)=   0.000000
     celldm(4)=   0.000000  celldm(5)=   0.000000  celldm(6)=   0.000000

     crystal axes: (cart. coord. in units of alat)
               a(1) = (  -0.500000   0.000000   0.500000 )  
               a(2) = (   0.000000   0.500000   0.500000 )  
               a(3) = (  -0.500000   0.500000   0.000000 )  

     reciprocal axes: (cart. coord. in units 2 pi/alat)
               b(1) = ( -1.000000 -1.000000  1.000000 )  
               b(2) = (  1.000000  1.000000  1.000000 )  
               b(3) = ( -1.000000  1.000000 -1.000000 )  


     PseudoPot. # 1 for Si read from file:
     /home/max/quantum_espresso/qe-6.1/pseudo/si_pbe_v1.uspp.F.UPF.txt
     MD5 check sum: a056efeee980c13900f22a371efd63c1
     Pseudo is Ultrasoft + core correction, Zval =  4.0
     Generated by new atomic code, or converted to UPF format
     Using radial grid of  899 points,  6 beta functions with: 
                l(1) =   0
                l(2) =   0
                l(3) =   1
                l(4) =   1
                l(5) =   2
                l(6) =   2
     Q(r) pseudized with  8 coefficients,  rinner =    0.900   0.900   0.900
                                                       0.900   0.900

     atomic species   valence    mass     pseudopotential
        Si             4.00    28.08600     Si( 1.00)

     48 Sym. Ops., with inversion, found



   Cartesian axes

     site n.     atom                  positions (alat units)
         1           Si  tau(   1) = (   0.0000000   0.0000000   0.0000000  )
         2           Si  tau(   2) = (   0.2500000   0.2500000   0.2500000  )

     number of k points=   288

     Number of k-points >= 100: set verbosity='high' to print them.

     Dense  grid:     2741 G-vectors     FFT dimensions: (  20,  20,  20)

     Estimated max dynamical RAM per process >       0.33MB

     Estimated total allocated dynamical RAM >       1.30MB

     Check: negative/imaginary core charge=   -0.000005    0.000000

     The potential is recalculated from file :
     ./_ph0/silicon.10.324.save/charge-density.dat

     Starting wfc are    8 atomic wfcs

     Band Structure Calculation
     Davidson diagonalization with overlap

     ethr =  1.25E-10,  avg # of iterations = 11.6

     total cpu time spent up to now is        4.7 secs

     End of band structure calculation

     Number of k-points >= 100: set verbosity='high' to print the bands.

     highest occupied level (ev):     5.7277

     Writing output data file silicon.10.324.save

                                                                                

     bravais-lattice index     =            2
     lattice parameter (alat)  =      10.3240  a.u.
     unit-cell volume          =     275.0958 (a.u.)^3
     number of atoms/cell      =            2
     number of atomic types    =            1
     kinetic-energy cut-off    =      18.0000  Ry
     charge density cut-off    =      72.0000  Ry
     convergence threshold     =      1.0E-12
     beta                      =       0.7000
     number of iterations used =            4
     Exchange-correlation      = SLA  PW   PBE  PBE ( 1  4  3  4 0 0)


     celldm(1)=   10.32400  celldm(2)=    0.00000  celldm(3)=    0.00000
     celldm(4)=    0.00000  celldm(5)=    0.00000  celldm(6)=    0.00000

     crystal axes: (cart. coord. in units of alat)
               a(1) = ( -0.5000  0.0000  0.5000 )  
               a(2) = (  0.0000  0.5000  0.5000 )  
               a(3) = ( -0.5000  0.5000  0.0000 )  

     reciprocal axes: (cart. coord. in units 2 pi/alat)
               b(1) = ( -1.0000 -1.0000  1.0000 )  
               b(2) = (  1.0000  1.0000  1.0000 )  
               b(3) = ( -1.0000  1.0000 -1.0000 )  


     Atoms inside the unit cell: 

     Cartesian axes

     site n.  atom      mass           positions (alat units)
        1     Si  28.0860   tau(    1) = (    0.00000    0.00000    0.00000  )
        2     Si  28.0860   tau(    2) = (    0.25000    0.25000    0.25000  )

     Computing dynamical matrix for 
                    q = (   0.7500000  -0.2500000   0.7500000 )

      2 Sym.Ops. (no q -> -q+G )


     G cutoff =  194.3877  (    685 G-vectors)     FFT grid: ( 20, 20, 20)
     number of k points=   288

     PseudoPot. # 1 for Si read from file:
     /home/max/quantum_espresso/qe-6.1/pseudo/si_pbe_v1.uspp.F.UPF.txt
     MD5 check sum: a056efeee980c13900f22a371efd63c1
     Pseudo is Ultrasoft + core correction, Zval =  4.0
     Generated by new atomic code, or converted to UPF format
     Using radial grid of  899 points,  6 beta functions with: 
                l(1) =   0
                l(2) =   0
                l(3) =   1
                l(4) =   1
                l(5) =   2
                l(6) =   2
     Q(r) pseudized with  8 coefficients,  rinner =    0.900   0.900   0.900
                                                       0.900   0.900

     Mode symmetry, C_s (m)     point group:


     Atomic displacements:
     There are   6 irreducible representations

     Representation     1      1 modes -A'  To be done

     Representation     2      1 modes -A'  To be done

     Representation     3      1 modes -A'  To be done

     Representation     4      1 modes -A'  To be done

     Representation     5      1 modes -A''  To be done

     Representation     6      1 modes -A''  To be done



     Alpha used in Ewald sum =   0.7000
     PHONON       :    32.11s CPU        36.70s WALL



     Representation #  1 mode #   1

     Self-consistent Calculation

      iter #   1 total cpu time :    37.3 secs   av.it.:   5.3
      thresh= 1.000E-02 alpha_mix =  0.700 |ddv_scf|^2 =  6.131E-05

      iter #   2 total cpu time :    38.3 secs   av.it.:   8.9
      thresh= 7.830E-04 alpha_mix =  0.700 |ddv_scf|^2 =  1.602E-04

      iter #   3 total cpu time :    39.0 secs   av.it.:   7.6
      thresh= 1.266E-03 alpha_mix =  0.700 |ddv_scf|^2 =  1.141E-06

      iter #   4 total cpu time :    39.9 secs   av.it.:   8.4
      thresh= 1.068E-04 alpha_mix =  0.700 |ddv_scf|^2 =  5.590E-08

      iter #   5 total cpu time :    40.7 secs   av.it.:   8.3
      thresh= 2.364E-05 alpha_mix =  0.700 |ddv_scf|^2 =  7.236E-09

      iter #   6 total cpu time :    41.7 secs   av.it.:   8.5
      thresh= 8.506E-06 alpha_mix =  0.700 |ddv_scf|^2 =  7.859E-11

      iter #   7 total cpu time :    42.5 secs   av.it.:   8.8
      thresh= 8.865E-07 alpha_mix =  0.700 |ddv_scf|^2 =  2.845E-12

      iter #   8 total cpu time :    43.2 secs   av.it.:   8.6
      thresh= 1.687E-07 alpha_mix =  0.700 |ddv_scf|^2 =  1.942E-13

     End of self-consistent calculation

     Convergence has been achieved 


     Representation #  2 mode #   2

     Self-consistent Calculation

      iter #   1 total cpu time :    44.1 secs   av.it.:   5.4
      thresh= 1.000E-02 alpha_mix =  0.700 |ddv_scf|^2 =  1.092E-04

      iter #   2 total cpu time :    44.8 secs   av.it.:   8.7
      thresh= 1.045E-03 alpha_mix =  0.700 |ddv_scf|^2 =  3.110E-04

      iter #   3 total cpu time :    45.7 secs   av.it.:   7.4
      thresh= 1.763E-03 alpha_mix =  0.700 |ddv_scf|^2 =  7.804E-07

      iter #   4 total cpu time :    46.5 secs   av.it.:   8.6
      thresh= 8.834E-05 alpha_mix =  0.700 |ddv_scf|^2 =  5.550E-08

      iter #   5 total cpu time :    47.2 secs   av.it.:   8.2
      thresh= 2.356E-05 alpha_mix =  0.700 |ddv_scf|^2 =  1.017E-08

      iter #   6 total cpu time :    48.1 secs   av.it.:   8.5
      thresh= 1.008E-05 alpha_mix =  0.700 |ddv_scf|^2 =  7.837E-11

      iter #   7 total cpu time :    48.9 secs   av.it.:   8.8
      thresh= 8.853E-07 alpha_mix =  0.700 |ddv_scf|^2 =  2.527E-12

      iter #   8 total cpu time :    49.9 secs   av.it.:   8.7
      thresh= 1.590E-07 alpha_mix =  0.700 |ddv_scf|^2 =  6.585E-13

     End of self-consistent calculation

     Convergence has been achieved 


     Representation #  3 mode #   3

     Self-consistent Calculation

      iter #   1 total cpu time :    50.5 secs   av.it.:   5.3
      thresh= 1.000E-02 alpha_mix =  0.700 |ddv_scf|^2 =  8.564E-05

      iter #   2 total cpu time :    51.3 secs   av.it.:   8.8
      thresh= 9.254E-04 alpha_mix =  0.700 |ddv_scf|^2 =  2.283E-04

      iter #   3 total cpu time :    52.2 secs   av.it.:   7.4
      thresh= 1.511E-03 alpha_mix =  0.700 |ddv_scf|^2 =  1.334E-06

      iter #   4 total cpu time :    52.9 secs   av.it.:   8.2
      thresh= 1.155E-04 alpha_mix =  0.700 |ddv_scf|^2 =  5.656E-08

      iter #   5 total cpu time :    53.8 secs   av.it.:   8.4
      thresh= 2.378E-05 alpha_mix =  0.700 |ddv_scf|^2 =  1.041E-08

      iter #   6 total cpu time :    54.5 secs   av.it.:   8.5
      thresh= 1.020E-05 alpha_mix =  0.700 |ddv_scf|^2 =  4.609E-11

      iter #   7 total cpu time :    55.3 secs   av.it.:   8.7
      thresh= 6.789E-07 alpha_mix =  0.700 |ddv_scf|^2 =  1.565E-12

      iter #   8 total cpu time :    56.2 secs   av.it.:   8.8
      thresh= 1.251E-07 alpha_mix =  0.700 |ddv_scf|^2 =  2.184E-13

     End of self-consistent calculation

     Convergence has been achieved 


     Representation #  4 mode #   4

     Self-consistent Calculation

      iter #   1 total cpu time :    56.8 secs   av.it.:   5.2
      thresh= 1.000E-02 alpha_mix =  0.700 |ddv_scf|^2 =  3.777E-05

      iter #   2 total cpu time :    57.8 secs   av.it.:   8.9
[...]
        k(   59) = (  -0.8750000   0.1250000  -0.1250000), wk =   0.0625000
        k(   60) = (  -1.3750000  -0.8750000  -0.1250000), wk =   0.0000000
        k(   61) = (  -1.1250000   0.3750000  -0.3750000), wk =   0.0625000
        k(   62) = (  -1.6250000  -0.6250000  -0.3750000), wk =   0.0000000
        k(   63) = (  -0.3750000   0.3750000   1.1250000), wk =   0.0625000
        k(   64) = (  -0.8750000  -0.6250000   1.1250000), wk =   0.0000000

     Dense  grid:     2741 G-vectors     FFT dimensions: (  20,  20,  20)

     Estimated max dynamical RAM per process >       0.33MB

     Estimated total allocated dynamical RAM >       1.30MB

     Check: negative/imaginary core charge=   -0.000005    0.000000

     The potential is recalculated from file :
     ./_ph0/silicon.10.324.save/charge-density.dat

     Starting wfc are    8 atomic wfcs

     Band Structure Calculation
     Davidson diagonalization with overlap

     ethr =  1.25E-10,  avg # of iterations = 11.6

     total cpu time spent up to now is        7.3 secs

     End of band structure calculation

          k =-0.1250 0.1250 0.1250 (   338 PWs)   bands (ev):

    -5.6205   4.4190   5.7277   5.7277

          k =-0.6250-0.8750 0.1250 (   359 PWs)   bands (ev):

    -2.4209  -0.8785   2.0407   3.1151

          k =-0.3750 0.3750-0.1250 (   352 PWs)   bands (ev):

    -4.5941   1.4221   3.7421   5.2451

          k =-0.8750-0.6250-0.1250 (   359 PWs)   bands (ev):

    -2.4209  -0.8785   2.0407   3.1151

          k = 0.3750-0.3750 0.6250 (   359 PWs)   bands (ev):

    -3.4549  -0.6563   3.7618   4.4730

          k =-0.1250-1.3750 0.6250 (   361 PWs)   bands (ev):

    -2.9588  -0.5738   2.0987   4.1563

          k = 0.1250-0.1250 0.3750 (   349 PWs)   bands (ev):

    -5.0929   2.7997   4.7180   4.7835

          k =-0.3750-1.1250 0.3750 (   361 PWs)   bands (ev):

    -2.9588  -0.5738   2.0987   4.1563

          k =-0.1250 0.6250 0.1250 (   349 PWs)   bands (ev):

    -4.0610   1.0865   3.3932   3.8427

          k =-0.6250-0.3750 0.1250 (   357 PWs)   bands (ev):

    -3.6459   0.2132   2.7523   4.1189

          k = 0.6250-0.1250 0.8750 (   359 PWs)   bands (ev):

    -2.4209  -0.8785   2.0407   3.1151

          k = 0.1250-1.1250 0.8750 (   358 PWs)   bands (ev):

    -2.5884  -0.7810   2.6485   3.3752

          k = 0.3750 0.1250 0.6250 (   357 PWs)   bands (ev):

    -3.6459   0.2132   2.7523   4.1189

          k =-0.1250-0.8750 0.6250 (   359 PWs)   bands (ev):

    -2.4209  -0.8785   2.0407   3.1151

          k =-0.1250-0.8750 0.1250 (   358 PWs)   bands (ev):

    -2.5884  -0.7810   2.6485   3.3752

          k =-0.6250-1.8750 0.1250 (   349 PWs)   bands (ev):

    -4.0610   1.0865   3.3932   3.8427

          k =-0.3750 0.3750 0.3750 (   353 PWs)   bands (ev):

    -4.1617   0.1325   4.9381   4.9381

          k =-0.8750-0.6250 0.3750 (   357 PWs)   bands (ev):

    -3.6459   0.2132   2.7523   4.1189

          k = 0.3750-0.3750 1.1250 (   361 PWs)   bands (ev):

    -2.9588  -0.5738   2.0987   4.1563

          k =-0.1250-1.3750 1.1250 (   359 PWs)   bands (ev):

    -2.4209  -0.8785   2.0407   3.1151

          k = 0.1250-0.3750 0.3750 (   352 PWs)   bands (ev):

    -4.5941   1.4221   3.7421   5.2451

          k =-0.3750-1.3750 0.3750 (   359 PWs)   bands (ev):

    -3.4549  -0.6563   3.7618   4.4730

          k = 0.3750-0.3750-0.1250 (   352 PWs)   bands (ev):

    -4.5941   1.4221   3.7421   5.2451

          k =-0.1250-1.3750-0.1250 (   349 PWs)   bands (ev):

    -4.0610   1.0865   3.3932   3.8427

          k =-0.6250 0.3750-0.3750 (   359 PWs)   bands (ev):

    -3.4549  -0.6563   3.7618   4.4730

          k =-1.1250-0.6250-0.3750 (   357 PWs)   bands (ev):

    -3.6459   0.2132   2.7523   4.1189

          k =-0.3750 0.3750 0.6250 (   359 PWs)   bands (ev):

    -3.4549  -0.6563   3.7618   4.4730

          k =-0.8750-0.6250 0.6250 (   352 PWs)   bands (ev):

    -4.5941   1.4221   3.7421   5.2451

          k =-0.3750 0.1250-0.1250 (   349 PWs)   bands (ev):

    -5.0929   2.7997   4.7180   4.7835

          k =-0.8750-0.8750-0.1250 (   358 PWs)   bands (ev):

    -2.5884  -0.7810   2.6485   3.3752

          k =-0.1250 0.1250 0.3750 (   349 PWs)   bands (ev):

    -5.0929   2.7997   4.7180   4.7835

          k =-0.6250-0.8750 0.3750 (   357 PWs)   bands (ev):

    -3.6459   0.2132   2.7523   4.1189

          k = 0.1250 0.6250-0.1250 (   349 PWs)   bands (ev):

    -4.0610   1.0865   3.3932   3.8427

          k =-0.3750-0.3750-0.1250 (   352 PWs)   bands (ev):

    -4.5941   1.4221   3.7421   5.2451

          k = 0.6250 0.1250-0.1250 (   349 PWs)   bands (ev):

    -4.0610   1.0865   3.3932   3.8427

          k = 0.1250-0.8750-0.1250 (   358 PWs)   bands (ev):

    -2.5884  -0.7810   2.6485   3.3752

          k =-0.8750 0.1250-0.6250 (   359 PWs)   bands (ev):

    -2.4209  -0.8785   2.0407   3.1151

          k =-1.3750-0.8750-0.6250 (   352 PWs)   bands (ev):

    -4.5941   1.4221   3.7421   5.2451

          k = 0.8750-0.1250 0.6250 (   359 PWs)   bands (ev):

    -2.4209  -0.8785   2.0407   3.1151

          k = 0.3750-1.1250 0.6250 (   357 PWs)   bands (ev):

    -3.6459   0.2132   2.7523   4.1189

          k =-0.6250 0.1250 0.8750 (   359 PWs)   bands (ev):

    -2.4209  -0.8785   2.0407   3.1151

          k =-1.1250-0.8750 0.8750 (   338 PWs)   bands (ev):

    -5.6205   4.4190   5.7277   5.7277

          k =-0.1250 0.8750 0.6250 (   359 PWs)   bands (ev):

    -2.4209  -0.8785   2.0407   3.1151

          k =-0.6250-0.1250 0.6250 (   361 PWs)   bands (ev):

    -2.9588  -0.5738   2.0987   4.1563

          k = 0.1250 0.8750-0.6250 (   359 PWs)   bands (ev):

    -2.4209  -0.8785   2.0407   3.1151

          k =-0.3750-0.1250-0.6250 (   357 PWs)   bands (ev):

    -3.6459   0.2132   2.7523   4.1189

          k =-0.6250-0.1250-0.3750 (   357 PWs)   bands (ev):

    -3.6459   0.2132   2.7523   4.1189

          k =-1.1250-1.1250-0.3750 (   349 PWs)   bands (ev):

    -4.0610   1.0865   3.3932   3.8427

          k = 0.6250 0.1250 0.3750 (   357 PWs)   bands (ev):

    -3.6459   0.2132   2.7523   4.1189

          k = 0.1250-0.8750 0.3750 (   359 PWs)   bands (ev):

    -2.4209  -0.8785   2.0407   3.1151

          k =-0.3750-0.1250 0.6250 (   357 PWs)   bands (ev):

    -3.6459   0.2132   2.7523   4.1189

          k =-0.8750-1.1250 0.6250 (   349 PWs)   bands (ev):

    -5.0929   2.7997   4.7180   4.7835

          k = 0.1250 0.6250 0.3750 (   357 PWs)   bands (ev):

    -3.6459   0.2132   2.7523   4.1189

          k =-0.3750-0.3750 0.3750 (   353 PWs)   bands (ev):

    -4.1617   0.1325   4.9381   4.9381

          k =-0.1250 0.6250-0.3750 (   357 PWs)   bands (ev):

    -3.6459   0.2132   2.7523   4.1189

          k =-0.6250-0.3750-0.3750 (   359 PWs)   bands (ev):

    -3.4549  -0.6563   3.7618   4.4730

          k = 0.1250-0.8750-0.1250 (   358 PWs)   bands (ev):

    -2.5884  -0.7810   2.6485   3.3752

          k =-0.3750-1.8750-0.1250 (   349 PWs)   bands (ev):

    -5.0929   2.7997   4.7180   4.7835

          k =-0.8750 0.1250-0.1250 (   358 PWs)   bands (ev):

    -2.5884  -0.7810   2.6485   3.3752

          k =-1.3750-0.8750-0.1250 (   359 PWs)   bands (ev):

    -2.4209  -0.8785   2.0407   3.1151

          k =-1.1250 0.3750-0.3750 (   361 PWs)   bands (ev):

    -2.9588  -0.5738   2.0987   4.1563

          k =-1.6250-0.6250-0.3750 (   359 PWs)   bands (ev):

    -3.4549  -0.6563   3.7618   4.4730

          k =-0.3750 0.3750 1.1250 (   361 PWs)   bands (ev):

    -2.9588  -0.5738   2.0987   4.1563

          k =-0.8750-0.6250 1.1250 (   349 PWs)   bands (ev):

    -5.0929   2.7997   4.7180   4.7835

     highest occupied level (ev):     5.7277

     Writing output data file silicon.10.324.save

                                                                                

     bravais-lattice index     =            2
     lattice parameter (alat)  =      10.3240  a.u.
     unit-cell volume          =     275.0958 (a.u.)^3
     number of atoms/cell      =            2
     number of atomic types    =            1
     kinetic-energy cut-off    =      18.0000  Ry
     charge density cut-off    =      72.0000  Ry
     convergence threshold     =      1.0E-12
     beta                      =       0.7000
     number of iterations used =            4
     Exchange-correlation      = SLA  PW   PBE  PBE ( 1  4  3  4 0 0)


     celldm(1)=   10.32400  celldm(2)=    0.00000  celldm(3)=    0.00000
     celldm(4)=    0.00000  celldm(5)=    0.00000  celldm(6)=    0.00000

     crystal axes: (cart. coord. in units of alat)
               a(1) = ( -0.5000  0.0000  0.5000 )  
               a(2) = (  0.0000  0.5000  0.5000 )  
               a(3) = ( -0.5000  0.5000  0.0000 )  

     reciprocal axes: (cart. coord. in units 2 pi/alat)
               b(1) = ( -1.0000 -1.0000  1.0000 )  
               b(2) = (  1.0000  1.0000  1.0000 )  
               b(3) = ( -1.0000  1.0000 -1.0000 )  


     Atoms inside the unit cell: 

     Cartesian axes

     site n.  atom      mass           positions (alat units)
        1     Si  28.0860   tau(    1) = (    0.00000    0.00000    0.00000  )
        2     Si  28.0860   tau(    2) = (    0.25000    0.25000    0.25000  )

     Computing dynamical matrix for 
                    q = (  -0.5000000  -1.0000000   0.0000000 )

      8 Sym.Ops. (no q -> -q+G )


     G cutoff =  194.3877  (    685 G-vectors)     FFT grid: ( 20, 20, 20)
     number of k points=    64

     PseudoPot. # 1 for Si read from file:
     /home/max/quantum_espresso/qe-6.1/pseudo/si_pbe_v1.uspp.F.UPF.txt
     MD5 check sum: a056efeee980c13900f22a371efd63c1
     Pseudo is Ultrasoft + core correction, Zval =  4.0
     Generated by new atomic code, or converted to UPF format
     Using radial grid of  899 points,  6 beta functions with: 
                l(1) =   0
                l(2) =   0
                l(3) =   1
                l(4) =   1
                l(5) =   2
                l(6) =   2
     Q(r) pseudized with  8 coefficients,  rinner =    0.900   0.900   0.900
                                                       0.900   0.900


     Atomic displacements:
     There are   3 irreducible representations

     Representation     1      2 modes -  To be done

     Representation     2      2 modes -  To be done

     Representation     3      2 modes -  To be done



     Alpha used in Ewald sum =   0.7000
     PHONON       :  1m23.84s CPU     1m32.92s WALL



     Representation #  1 modes #   1  2

     Self-consistent Calculation

      iter #   1 total cpu time :    93.2 secs   av.it.:   5.3
      thresh= 1.000E-02 alpha_mix =  0.700 |ddv_scf|^2 =  6.350E-06

      iter #   2 total cpu time :    93.8 secs   av.it.:   9.9
      thresh= 2.520E-04 alpha_mix =  0.700 |ddv_scf|^2 =  3.441E-06

      iter #   3 total cpu time :    94.1 secs   av.it.:   9.2
      thresh= 1.855E-04 alpha_mix =  0.700 |ddv_scf|^2 =  8.397E-09

      iter #   4 total cpu time :    94.5 secs   av.it.:   9.1
      thresh= 9.164E-06 alpha_mix =  0.700 |ddv_scf|^2 =  1.911E-11

      iter #   5 total cpu time :    94.9 secs   av.it.:   9.2
      thresh= 4.371E-07 alpha_mix =  0.700 |ddv_scf|^2 =  5.277E-13

     End of self-consistent calculation

     Convergence has been achieved 


     Representation #  2 modes #   3  4

     Self-consistent Calculation

      iter #   1 total cpu time :    95.2 secs   av.it.:   5.2
      thresh= 1.000E-02 alpha_mix =  0.700 |ddv_scf|^2 =  9.831E-06

      iter #   2 total cpu time :    95.7 secs   av.it.:   9.9
      thresh= 3.135E-04 alpha_mix =  0.700 |ddv_scf|^2 =  1.304E-05

      iter #   3 total cpu time :    96.1 secs   av.it.:   9.1
      thresh= 3.611E-04 alpha_mix =  0.700 |ddv_scf|^2 =  9.863E-09

      iter #   4 total cpu time :    96.5 secs   av.it.:   8.9
      thresh= 9.931E-06 alpha_mix =  0.700 |ddv_scf|^2 =  7.960E-11

      iter #   5 total cpu time :    96.8 secs   av.it.:   9.4
      thresh= 8.922E-07 alpha_mix =  0.700 |ddv_scf|^2 =  1.721E-12

      iter #   6 total cpu time :    97.2 secs   av.it.:   9.1
      thresh= 1.312E-07 alpha_mix =  0.700 |ddv_scf|^2 =  1.438E-14

     End of self-consistent calculation

     Convergence has been achieved 


     Representation #  3 modes #   5  6

     Self-consistent Calculation

      iter #   1 total cpu time :    97.6 secs   av.it.:   5.1
      thresh= 1.000E-02 alpha_mix =  0.700 |ddv_scf|^2 =  2.657E-06

      iter #   2 total cpu time :    98.0 secs   av.it.:   9.7
      thresh= 1.630E-04 alpha_mix =  0.700 |ddv_scf|^2 =  1.452E-06

      iter #   3 total cpu time :    98.4 secs   av.it.:   9.1
      thresh= 1.205E-04 alpha_mix =  0.700 |ddv_scf|^2 =  8.273E-09

      iter #   4 total cpu time :    98.7 secs   av.it.:   8.8
      thresh= 9.095E-06 alpha_mix =  0.700 |ddv_scf|^2 =  4.262E-11

      iter #   5 total cpu time :    99.1 secs   av.it.:   9.1
      thresh= 6.528E-07 alpha_mix =  0.700 |ddv_scf|^2 =  6.996E-13

     End of self-consistent calculation

     Convergence has been achieved 

     Number of q in the star =    6
     List of q in the star:
          1  -0.500000000  -1.000000000   0.000000000
          2   0.000000000   1.000000000   0.500000000
          3   0.000000000  -1.000000000  -0.500000000
          4   0.500000000   1.000000000   0.000000000
          5  -1.000000000  -0.500000000   0.000000000
          6   0.000000000  -0.500000000  -1.000000000

     Diagonalizing the dynamical matrix

     q = (   -0.500000000  -1.000000000   0.000000000 ) 

 **************************************************************************
     freq (    1) =       6.980562 [THz] =     232.846475 [cm-1]
     freq (    2) =       6.980562 [THz] =     232.846475 [cm-1]
     freq (    3) =      10.806727 [THz] =     360.473604 [cm-1]
     freq (    4) =      10.806727 [THz] =     360.473604 [cm-1]
     freq (    5) =      13.832432 [THz] =     461.400273 [cm-1]
     freq (    6) =      13.832432 [THz] =     461.400273 [cm-1]
 **************************************************************************

     init_run     :      0.56s CPU      0.59s WALL (       7 calls)
     electrons    :      5.38s CPU      5.88s WALL (       7 calls)

     Called by init_run:
     wfcinit      :      0.00s CPU      0.00s WALL (       7 calls)
     potinit      :      0.02s CPU      0.02s WALL (       7 calls)

     Called by electrons:
     c_bands      :      5.37s CPU      5.87s WALL (       7 calls)
     v_of_rho     :      0.01s CPU      0.01s WALL (       8 calls)
     newd         :      0.02s CPU      0.03s WALL (       8 calls)

     Called by c_bands:
     init_us_2    :      0.68s CPU      0.74s WALL (   17588 calls)
     cegterg      :      4.54s CPU      4.96s WALL (     796 calls)

     Called by sum_band:

     Called by *egterg:
     h_psi        :     49.36s CPU     54.89s WALL (  152200 calls)
     s_psi        :      5.82s CPU      6.37s WALL (  309120 calls)
     g_psi        :      0.03s CPU      0.03s WALL (    9268 calls)
     cdiaghg      :      0.53s CPU      0.57s WALL (   10064 calls)

     Called by h_psi:
     h_psi:pot    :     49.17s CPU     54.68s WALL (  152200 calls)
     h_psi:calbec :      5.35s CPU      6.09s WALL (  152200 calls)
     vloc_psi     :     40.67s CPU     45.10s WALL (  152200 calls)
     add_vuspsi   :      2.91s CPU      3.23s WALL (  152200 calls)

     General routines
     calbec       :     11.32s CPU     12.70s WALL (  345492 calls)
     fft          :      0.59s CPU      0.65s WALL (    5239 calls)
     ffts         :      0.15s CPU      0.18s WALL (    2748 calls)
     fftw         :     47.57s CPU     52.77s WALL ( 1378292 calls)
     davcio       :      0.30s CPU      0.36s WALL (   79045 calls)

     Parallel routines
     fft_scatter  :     15.34s CPU     17.42s WALL ( 1386279 calls)

     PHONON       :  1m29.39s CPU     1m39.13s WALL

     INITIALIZATION: 
     phq_setup    :      0.08s CPU      0.09s WALL (       8 calls)
     phq_init     :      2.15s CPU      2.20s WALL (       8 calls)

     phq_init     :      2.15s CPU      2.20s WALL (       8 calls)
     set_drhoc    :      0.28s CPU      0.28s WALL (      24 calls)
     init_vloc    :      0.01s CPU      0.01s WALL (       8 calls)
     init_us_1    :      0.53s CPU      0.54s WALL (       8 calls)
     newd         :      0.02s CPU      0.03s WALL (       8 calls)
     dvanqq       :      0.25s CPU      0.26s WALL (       8 calls)
     drho         :      1.12s CPU      1.15s WALL (       8 calls)

     DYNAMICAL MATRIX:
     dynmat0      :      0.53s CPU      0.54s WALL (       8 calls)
     phqscf       :     78.56s CPU     87.48s WALL (       8 calls)
     dynmatrix    :      0.01s CPU      0.01s WALL (       8 calls)

     phqscf       :     78.56s CPU     87.48s WALL (       8 calls)
     solve_linter :     77.75s CPU     86.58s WALL (      32 calls)
     drhodv       :      0.58s CPU      0.62s WALL (      32 calls)

     dynmat0      :      0.53s CPU      0.54s WALL (       8 calls)
     dynmat_us    :      0.29s CPU      0.30s WALL (       8 calls)
     d2ionq       :      0.01s CPU      0.01s WALL (       8 calls)
     dynmatcc     :      0.21s CPU      0.21s WALL (       8 calls)

     dynmat_us    :      0.29s CPU      0.30s WALL (       8 calls)
     addusdynmat  :      0.00s CPU      0.00s WALL (       8 calls)

     phqscf       :     78.56s CPU     87.48s WALL (       8 calls)
     solve_linter :     77.75s CPU     86.58s WALL (      32 calls)

     solve_linter :     77.75s CPU     86.58s WALL (      32 calls)
     dvqpsi_us    :      1.75s CPU      1.95s WALL (    2508 calls)
     ortho        :      1.39s CPU      1.61s WALL (   15550 calls)
     cgsolve      :     61.15s CPU     68.11s WALL (   15550 calls)
     incdrhoscf   :      5.46s CPU      6.12s WALL (   15550 calls)
     addusddens   :      1.17s CPU      1.25s WALL (     228 calls)
     vpsifft      :      3.86s CPU      4.23s WALL (   12922 calls)
     dv_of_drho   :      0.24s CPU      0.27s WALL (     295 calls)
     mix_pot      :      0.05s CPU      0.06s WALL (     201 calls)
     psymdvscf    :      0.80s CPU      0.87s WALL (     196 calls)
     newdq        :      1.27s CPU      1.40s WALL (     201 calls)
     adddvscf     :      0.47s CPU      0.52s WALL (   13042 calls)
     drhodvus     :      0.01s CPU      0.02s WALL (      32 calls)

     dvqpsi_us    :      1.75s CPU      1.95s WALL (    2508 calls)
     dvqpsi_us_on :      0.82s CPU      0.91s WALL (    2508 calls)

     cgsolve      :     61.15s CPU     68.11s WALL (   15550 calls)
     ch_psi       :     58.50s CPU     64.99s WALL (  141340 calls)

     ch_psi       :     58.50s CPU     64.99s WALL (  141340 calls)
     h_psi        :     49.36s CPU     54.89s WALL (  152200 calls)
     last         :      9.79s CPU     10.85s WALL (  141340 calls)

     h_psi        :     49.36s CPU     54.89s WALL (  152200 calls)
     add_vuspsi   :      2.91s CPU      3.23s WALL (  152200 calls)

     incdrhoscf   :      5.46s CPU      6.12s WALL (   15550 calls)
     addusdbec    :      0.76s CPU      0.85s WALL (   17998 calls)

     drhodvus     :      0.01s CPU      0.02s WALL (      32 calls)

      General routines
     calbec       :     11.32s CPU     12.70s WALL (  345492 calls)
     fft          :      0.59s CPU      0.65s WALL (    5239 calls)
     ffts         :      0.15s CPU      0.18s WALL (    2748 calls)
     fftw         :     47.57s CPU     52.77s WALL ( 1378292 calls)
     davcio       :      0.30s CPU      0.36s WALL (   79045 calls)
     write_rec    :      0.22s CPU      0.26s WALL (     233 calls)


     PHONON       :  1m29.39s CPU     1m39.13s WALL


   This run was terminated on:  12: 8:36   9Nov2017            

=------------------------------------------------------------------------------=
   JOB DONE.
=------------------------------------------------------------------------------=
