
     Program PWSCF v.6.1 (svn rev. 13369) starts on 10Nov2017 at 10:27:59 

     This program is part of the open-source Quantum ESPRESSO suite
     for quantum simulation of materials; please cite
         "P. Giannozzi et al., J. Phys.:Condens. Matter 21 395502 (2009);
          URL http://www.quantum-espresso.org", 
     in publications or presentations arising from this work. More details at
     http://www.quantum-espresso.org/quote

     Parallel version (MPI), running on     4 processors
     R & G space division:  proc/nbgrp/npool/nimage =       4
     Waiting for input...
     Reading input from standard input
     Message from routine read_cards :
     DEPRECATED: no units specified in ATOMIC_POSITIONS card
     Message from routine read_cards :
     ATOMIC_POSITIONS: units set to alat

     Current dimensions of program PWSCF are:
     Max number of different atomic species (ntypx) = 10
     Max number of k-points (npk) =  40000
     Max angular momentum in pseudopotentials (lmaxx) =  3

     Subspace diagonalization in iterative solution of the eigenvalue problem:
     a serial algorithm will be used


     Parallelization info
     --------------------
     sticks:   dense  smooth     PW     G-vecs:    dense   smooth      PW
     Min         211     105     37                 4088     1441     284
     Max         212     106     38                 4091     1445     285
     Sum         847     421    151                16361     5769    1139



     bravais-lattice index     =            2
     lattice parameter (alat)  =      10.1300  a.u.
     unit-cell volume          =     259.8773 (a.u.)^3
     number of atoms/cell      =            2
     number of atomic types    =            1
     number of electrons       =         8.00
     number of Kohn-Sham states=            4
     kinetic-energy cutoff     =      30.0000  Ry
     charge density cutoff     =     240.0000  Ry
     convergence threshold     =      1.0E-08
     mixing beta               =       0.7000
     number of iterations used =            8  plain     mixing
     Exchange-correlation      = SLA  PW   PBE  PBE ( 1  4  3  4 0 0)

     celldm(1)=  10.130000  celldm(2)=   0.000000  celldm(3)=   0.000000
     celldm(4)=   0.000000  celldm(5)=   0.000000  celldm(6)=   0.000000

     crystal axes: (cart. coord. in units of alat)
               a(1) = (  -0.500000   0.000000   0.500000 )  
               a(2) = (   0.000000   0.500000   0.500000 )  
               a(3) = (  -0.500000   0.500000   0.000000 )  

     reciprocal axes: (cart. coord. in units 2 pi/alat)
               b(1) = ( -1.000000 -1.000000  1.000000 )  
               b(2) = (  1.000000  1.000000  1.000000 )  
               b(3) = ( -1.000000  1.000000 -1.000000 )  


     PseudoPot. # 1 for Si read from file:
     /home/max/quantum_espresso/qe-6.1/pseudo/si_pbe_v1.uspp.F.UPF.txt
     MD5 check sum: a056efeee980c13900f22a371efd63c1
     Pseudo is Ultrasoft + core correction, Zval =  4.0
     Generated by new atomic code, or converted to UPF format
     Using radial grid of  899 points,  6 beta functions with: 
                l(1) =   0
                l(2) =   0
                l(3) =   1
                l(4) =   1
                l(5) =   2
                l(6) =   2
     Q(r) pseudized with  8 coefficients,  rinner =    0.900   0.900   0.900
                                                       0.900   0.900

     atomic species   valence    mass     pseudopotential
        Si             4.00    28.08600     Si( 1.00)

     48 Sym. Ops., with inversion, found (24 have fractional translation)



   Cartesian axes

     site n.     atom                  positions (alat units)
         1           Si  tau(   1) = (   0.0000000   0.0000000   0.0000000  )
         2           Si  tau(   2) = (   0.2500000   0.2500000   0.2500000  )

     number of k points=    28
                       cart. coord. in units 2pi/alat
        k(    1) = (  -0.0833333   0.0833333   0.0833333), wk =   0.0185185
        k(    2) = (  -0.2500000   0.2500000  -0.0833333), wk =   0.0555556
        k(    3) = (  -0.4166667   0.4166667  -0.2500000), wk =   0.0555556
        k(    4) = (   0.4166667  -0.4166667   0.5833333), wk =   0.0555556
        k(    5) = (   0.2500000  -0.2500000   0.4166667), wk =   0.0555556
        k(    6) = (   0.0833333  -0.0833333   0.2500000), wk =   0.0555556
        k(    7) = (  -0.0833333   0.4166667   0.0833333), wk =   0.0555556
        k(    8) = (  -0.2500000   0.5833333  -0.0833333), wk =   0.1111111
        k(    9) = (   0.5833333  -0.2500000   0.7500000), wk =   0.1111111
        k(   10) = (   0.4166667  -0.0833333   0.5833333), wk =   0.1111111
        k(   11) = (   0.2500000   0.0833333   0.4166667), wk =   0.1111111
        k(   12) = (  -0.0833333   0.7500000   0.0833333), wk =   0.0555556
        k(   13) = (   0.7500000  -0.0833333   0.9166667), wk =   0.1111111
        k(   14) = (   0.5833333   0.0833333   0.7500000), wk =   0.1111111
        k(   15) = (   0.4166667   0.2500000   0.5833333), wk =   0.1111111
        k(   16) = (  -0.0833333  -0.9166667   0.0833333), wk =   0.0555556
        k(   17) = (  -0.2500000  -0.7500000  -0.0833333), wk =   0.1111111
        k(   18) = (  -0.0833333  -0.5833333   0.0833333), wk =   0.0555556
        k(   19) = (  -0.2500000   0.2500000   0.2500000), wk =   0.0185185
        k(   20) = (  -0.4166667   0.4166667   0.0833333), wk =   0.0555556
        k(   21) = (   0.4166667  -0.4166667   0.9166667), wk =   0.0555556
        k(   22) = (   0.2500000  -0.2500000   0.7500000), wk =   0.0555556
        k(   23) = (  -0.2500000   0.5833333   0.2500000), wk =   0.0555556
        k(   24) = (   0.5833333  -0.2500000   1.0833333), wk =   0.1111111
        k(   25) = (   0.4166667  -0.0833333   0.9166667), wk =   0.1111111
        k(   26) = (  -0.2500000  -1.0833333   0.2500000), wk =   0.0555556
        k(   27) = (  -0.4166667   0.4166667   0.4166667), wk =   0.0185185
        k(   28) = (   0.4166667  -0.4166667   1.2500000), wk =   0.0555556

     Dense  grid:    16361 G-vectors     FFT dimensions: (  36,  36,  36)

     Smooth grid:     5769 G-vectors     FFT dimensions: (  25,  25,  25)

     Estimated max dynamical RAM per process >       2.93MB

     Estimated total allocated dynamical RAM >      11.73MB

     Initial potential from superposition of free atoms

     starting charge    7.99866, renormalised to    8.00000
     Starting wfc are    8 randomized atomic wfcs

     total cpu time spent up to now is        0.9 secs

     per-process dynamical memory:     9.8 Mb

     Self-consistent Calculation

     iteration #  1     ecut=    30.00 Ry     beta=0.70
     Davidson diagonalization with overlap
     ethr =  1.00E-02,  avg # of iterations =  2.0

     Threshold (ethr) on eigenvalues was too large:
     Diagonalizing with lowered threshold

     Davidson diagonalization with overlap
     ethr =  7.47E-04,  avg # of iterations =  1.0

     total cpu time spent up to now is        1.3 secs

     total energy              =     -19.18762614 Ry
     Harris-Foulkes estimate   =     -19.20264906 Ry
     estimated scf accuracy    <       0.05907810 Ry

     iteration #  2     ecut=    30.00 Ry     beta=0.70
     Davidson diagonalization with overlap
     ethr =  7.38E-04,  avg # of iterations =  1.0

     total cpu time spent up to now is        1.4 secs

     total energy              =     -19.18984552 Ry
     Harris-Foulkes estimate   =     -19.19001110 Ry
     estimated scf accuracy    <       0.00242997 Ry

     iteration #  3     ecut=    30.00 Ry     beta=0.70
     Davidson diagonalization with overlap
     ethr =  3.04E-05,  avg # of iterations =  2.3

     total cpu time spent up to now is        1.7 secs

     total energy              =     -19.19024670 Ry
     Harris-Foulkes estimate   =     -19.19026434 Ry
     estimated scf accuracy    <       0.00005248 Ry

     iteration #  4     ecut=    30.00 Ry     beta=0.70
     Davidson diagonalization with overlap
     ethr =  6.56E-07,  avg # of iterations =  3.4

     total cpu time spent up to now is        1.9 secs

     total energy              =     -19.19028804 Ry
     Harris-Foulkes estimate   =     -19.19028989 Ry
     estimated scf accuracy    <       0.00000576 Ry

     iteration #  5     ecut=    30.00 Ry     beta=0.70
     Davidson diagonalization with overlap
     ethr =  7.20E-08,  avg # of iterations =  2.0

     total cpu time spent up to now is        2.2 secs

     total energy              =     -19.19028885 Ry
     Harris-Foulkes estimate   =     -19.19028885 Ry
     estimated scf accuracy    <       0.00000003 Ry

     iteration #  6     ecut=    30.00 Ry     beta=0.70
     Davidson diagonalization with overlap
     ethr =  3.26E-10,  avg # of iterations =  3.8

     total cpu time spent up to now is        2.9 secs

     End of self-consistent calculation

          k =-0.0833 0.0833 0.0833 (   722 PWs)   bands (ev):

    -5.5314   5.7448   6.4566   6.4566

          k =-0.2500 0.2500-0.0833 (   720 PWs)   bands (ev):

    -5.0367   3.6271   5.1689   6.2456

          k =-0.4167 0.4167-0.2500 (   732 PWs)   bands (ev):

    -3.8976   0.7629   4.7029   5.5848

          k = 0.4167-0.4167 0.5833 (   725 PWs)   bands (ev):

    -3.1578  -0.4373   4.7811   5.1863

          k = 0.2500-0.2500 0.4167 (   724 PWs)   bands (ev):

    -4.3285   1.6427   5.2415   5.2998

          k = 0.0833-0.0833 0.2500 (   715 PWs)   bands (ev):

    -5.2817   4.6696   5.7781   5.9932

          k =-0.0833 0.4167 0.0833 (   713 PWs)   bands (ev):

    -4.7866   3.4700   5.0183   5.0189

          k =-0.2500 0.5833-0.0833 (   725 PWs)   bands (ev):

    -3.8399   1.5770   3.6350   4.6198

          k = 0.5833-0.2500 0.7500 (   721 PWs)   bands (ev):

    -2.6642  -0.2673   3.0253   4.3780

          k = 0.4167-0.0833 0.5833 (   720 PWs)   bands (ev):

    -3.4264   0.8499   2.9637   4.8914

          k = 0.2500 0.0833 0.4167 (   720 PWs)   bands (ev):

    -4.5519   2.5866   4.3622   5.5977

          k =-0.0833 0.7500 0.0833 (   724 PWs)   bands (ev):

    -3.1027   0.7496   3.5894   3.9522

          k = 0.7500-0.0833 0.9167 (   728 PWs)   bands (ev):

    -1.8541  -0.6366   2.6982   3.5191

          k = 0.5833 0.0833 0.7500 (   720 PWs)   bands (ev):

    -2.2284  -0.3118   2.1987   4.0897

          k = 0.4167 0.2500 0.5833 (   723 PWs)   bands (ev):

    -3.3042   0.1019   3.9719   4.9964

          k =-0.0833-0.9167 0.0833 (   720 PWs)   bands (ev):

    -1.9553  -0.6478   3.3078   3.7294

          k =-0.2500-0.7500-0.0833 (   722 PWs)   bands (ev):

    -2.9242   0.5133   3.0443   3.8728

          k =-0.0833-0.5833 0.0833 (   716 PWs)   bands (ev):

    -4.0551   2.1540   4.1625   4.3893

          k =-0.2500 0.2500 0.2500 (   721 PWs)   bands (ev):

    -4.7979   2.6048   5.8213   5.8213

          k =-0.4167 0.4167 0.0833 (   727 PWs)   bands (ev):

    -4.0913   1.6711   3.5988   5.6497

          k = 0.4167-0.4167 0.9167 (   716 PWs)   bands (ev):

    -2.8577   0.1964   2.4370   4.8260

          k = 0.2500-0.2500 0.7500 (   713 PWs)   bands (ev):

    -2.8059   0.1154   2.9452   4.3213

          k =-0.2500 0.5833 0.2500 (   718 PWs)   bands (ev):

    -3.6487   0.8265   4.1077   4.7094

          k = 0.5833-0.2500 1.0833 (   723 PWs)   bands (ev):

    -2.6027   0.0990   2.5380   3.8651

          k = 0.4167-0.0833 0.9167 (   719 PWs)   bands (ev):

    -1.7349  -0.6446   2.3508   3.1627

          k =-0.2500-1.0833 0.2500 (   720 PWs)   bands (ev):

    -1.9525  -0.5605   2.2194   4.1192

          k =-0.4167 0.4167 0.4167 (   724 PWs)   bands (ev):

    -3.5492  -0.0188   5.4237   5.4237

          k = 0.4167-0.4167 1.2500 (   720 PWs)   bands (ev):

    -2.9140  -0.3189   3.5263   4.9597

     highest occupied level (ev):     6.4566

!    total energy              =     -19.19028890 Ry
     Harris-Foulkes estimate   =     -19.19028890 Ry
     estimated scf accuracy    <          2.2E-09 Ry

     The total energy is the sum of the following terms:

     one-electron contribution =       5.41273936 Ry
     hartree contribution      =       1.08191222 Ry
     xc contribution           =      -8.66840175 Ry
     ewald contribution        =     -17.01653874 Ry

     convergence has been achieved in   6 iterations

     Writing output data file silicon.10.13.save

     init_run     :      0.38s CPU      0.76s WALL (       1 calls)
     electrons    :      1.36s CPU      2.00s WALL (       1 calls)

     Called by init_run:
     wfcinit      :      0.09s CPU      0.13s WALL (       1 calls)
     potinit      :      0.03s CPU      0.09s WALL (       1 calls)

     Called by electrons:
     c_bands      :      0.80s CPU      1.25s WALL (       7 calls)
     sum_band     :      0.31s CPU      0.43s WALL (       7 calls)
     v_of_rho     :      0.10s CPU      0.17s WALL (       7 calls)
     newd         :      0.15s CPU      0.23s WALL (       7 calls)
     mix_rho      :      0.01s CPU      0.01s WALL (       7 calls)

     Called by c_bands:
     init_us_2    :      0.05s CPU      0.06s WALL (     420 calls)
     cegterg      :      0.69s CPU      1.10s WALL (     196 calls)

     Called by sum_band:
     sum_band:bec :      0.00s CPU      0.00s WALL (     196 calls)
     addusdens    :      0.14s CPU      0.20s WALL (       7 calls)

     Called by *egterg:
     h_psi        :      0.59s CPU      0.94s WALL (     656 calls)
     s_psi        :      0.05s CPU      0.05s WALL (     656 calls)
     g_psi        :      0.00s CPU      0.00s WALL (     432 calls)
     cdiaghg      :      0.04s CPU      0.07s WALL (     600 calls)

     Called by h_psi:
     h_psi:pot    :      0.59s CPU      0.94s WALL (     656 calls)
     h_psi:calbec :      0.07s CPU      0.12s WALL (     656 calls)
     vloc_psi     :      0.47s CPU      0.76s WALL (     656 calls)
     add_vuspsi   :      0.05s CPU      0.06s WALL (     656 calls)

     General routines
     calbec       :      0.09s CPU      0.15s WALL (     852 calls)
     fft          :      0.10s CPU      0.22s WALL (     112 calls)
     ffts         :      0.00s CPU      0.00s WALL (      14 calls)
     fftw         :      0.48s CPU      0.79s WALL (    5656 calls)
     interpolate  :      0.01s CPU      0.02s WALL (      14 calls)
     davcio       :      0.00s CPU      0.00s WALL (      28 calls)

     Parallel routines
     fft_scatter  :      0.25s CPU      0.63s WALL (    5782 calls)

     PWSCF        :     1.94s CPU         3.00s WALL


   This run was terminated on:  10:28: 2  10Nov2017            

=------------------------------------------------------------------------------=
   JOB DONE.
=------------------------------------------------------------------------------=
