
     Program PWSCF v.6.1 (svn rev. 13369) starts on 10Nov2017 at 10:31:52 

     This program is part of the open-source Quantum ESPRESSO suite
     for quantum simulation of materials; please cite
         "P. Giannozzi et al., J. Phys.:Condens. Matter 21 395502 (2009);
          URL http://www.quantum-espresso.org", 
     in publications or presentations arising from this work. More details at
     http://www.quantum-espresso.org/quote

     Parallel version (MPI), running on     4 processors
     R & G space division:  proc/nbgrp/npool/nimage =       4
     Waiting for input...
     Reading input from standard input
     Message from routine read_cards :
     DEPRECATED: no units specified in ATOMIC_POSITIONS card
     Message from routine read_cards :
     ATOMIC_POSITIONS: units set to alat

     Current dimensions of program PWSCF are:
     Max number of different atomic species (ntypx) = 10
     Max number of k-points (npk) =  40000
     Max angular momentum in pseudopotentials (lmaxx) =  3

     Subspace diagonalization in iterative solution of the eigenvalue problem:
     a serial algorithm will be used


     Parallelization info
     --------------------
     sticks:   dense  smooth     PW     G-vecs:    dense   smooth      PW
     Min         222     109     37                 4363     1545     309
     Max         223     110     38                 4364     1546     312
     Sum         889     439    151                17453     6183    1243



     bravais-lattice index     =            2
     lattice parameter (alat)  =      10.3500  a.u.
     unit-cell volume          =     277.1795 (a.u.)^3
     number of atoms/cell      =            2
     number of atomic types    =            1
     number of electrons       =         8.00
     number of Kohn-Sham states=            4
     kinetic-energy cutoff     =      30.0000  Ry
     charge density cutoff     =     240.0000  Ry
     convergence threshold     =      1.0E-08
     mixing beta               =       0.7000
     number of iterations used =            8  plain     mixing
     Exchange-correlation      = SLA  PW   PBE  PBE ( 1  4  3  4 0 0)

     celldm(1)=  10.350000  celldm(2)=   0.000000  celldm(3)=   0.000000
     celldm(4)=   0.000000  celldm(5)=   0.000000  celldm(6)=   0.000000

     crystal axes: (cart. coord. in units of alat)
               a(1) = (  -0.500000   0.000000   0.500000 )  
               a(2) = (   0.000000   0.500000   0.500000 )  
               a(3) = (  -0.500000   0.500000   0.000000 )  

     reciprocal axes: (cart. coord. in units 2 pi/alat)
               b(1) = ( -1.000000 -1.000000  1.000000 )  
               b(2) = (  1.000000  1.000000  1.000000 )  
               b(3) = ( -1.000000  1.000000 -1.000000 )  


     PseudoPot. # 1 for Si read from file:
     /home/max/quantum_espresso/qe-6.1/pseudo/si_pbe_v1.uspp.F.UPF.txt
     MD5 check sum: a056efeee980c13900f22a371efd63c1
     Pseudo is Ultrasoft + core correction, Zval =  4.0
     Generated by new atomic code, or converted to UPF format
     Using radial grid of  899 points,  6 beta functions with: 
                l(1) =   0
                l(2) =   0
                l(3) =   1
                l(4) =   1
                l(5) =   2
                l(6) =   2
     Q(r) pseudized with  8 coefficients,  rinner =    0.900   0.900   0.900
                                                       0.900   0.900

     atomic species   valence    mass     pseudopotential
        Si             4.00    28.08600     Si( 1.00)

     48 Sym. Ops., with inversion, found (24 have fractional translation)



   Cartesian axes

     site n.     atom                  positions (alat units)
         1           Si  tau(   1) = (   0.0000000   0.0000000   0.0000000  )
         2           Si  tau(   2) = (   0.2500000   0.2500000   0.2500000  )

     number of k points=    28
                       cart. coord. in units 2pi/alat
        k(    1) = (  -0.0833333   0.0833333   0.0833333), wk =   0.0185185
        k(    2) = (  -0.2500000   0.2500000  -0.0833333), wk =   0.0555556
        k(    3) = (  -0.4166667   0.4166667  -0.2500000), wk =   0.0555556
        k(    4) = (   0.4166667  -0.4166667   0.5833333), wk =   0.0555556
        k(    5) = (   0.2500000  -0.2500000   0.4166667), wk =   0.0555556
        k(    6) = (   0.0833333  -0.0833333   0.2500000), wk =   0.0555556
        k(    7) = (  -0.0833333   0.4166667   0.0833333), wk =   0.0555556
        k(    8) = (  -0.2500000   0.5833333  -0.0833333), wk =   0.1111111
        k(    9) = (   0.5833333  -0.2500000   0.7500000), wk =   0.1111111
        k(   10) = (   0.4166667  -0.0833333   0.5833333), wk =   0.1111111
        k(   11) = (   0.2500000   0.0833333   0.4166667), wk =   0.1111111
        k(   12) = (  -0.0833333   0.7500000   0.0833333), wk =   0.0555556
        k(   13) = (   0.7500000  -0.0833333   0.9166667), wk =   0.1111111
        k(   14) = (   0.5833333   0.0833333   0.7500000), wk =   0.1111111
        k(   15) = (   0.4166667   0.2500000   0.5833333), wk =   0.1111111
        k(   16) = (  -0.0833333  -0.9166667   0.0833333), wk =   0.0555556
        k(   17) = (  -0.2500000  -0.7500000  -0.0833333), wk =   0.1111111
        k(   18) = (  -0.0833333  -0.5833333   0.0833333), wk =   0.0555556
        k(   19) = (  -0.2500000   0.2500000   0.2500000), wk =   0.0185185
        k(   20) = (  -0.4166667   0.4166667   0.0833333), wk =   0.0555556
        k(   21) = (   0.4166667  -0.4166667   0.9166667), wk =   0.0555556
        k(   22) = (   0.2500000  -0.2500000   0.7500000), wk =   0.0555556
        k(   23) = (  -0.2500000   0.5833333   0.2500000), wk =   0.0555556
        k(   24) = (   0.5833333  -0.2500000   1.0833333), wk =   0.1111111
        k(   25) = (   0.4166667  -0.0833333   0.9166667), wk =   0.1111111
        k(   26) = (  -0.2500000  -1.0833333   0.2500000), wk =   0.0555556
        k(   27) = (  -0.4166667   0.4166667   0.4166667), wk =   0.0185185
        k(   28) = (   0.4166667  -0.4166667   1.2500000), wk =   0.0555556

     Dense  grid:    17453 G-vectors     FFT dimensions: (  40,  40,  40)

     Smooth grid:     6183 G-vectors     FFT dimensions: (  25,  25,  25)

     Estimated max dynamical RAM per process >       3.37MB

     Estimated total allocated dynamical RAM >      13.50MB

     Initial potential from superposition of free atoms

     starting charge    7.99866, renormalised to    8.00000
     Starting wfc are    8 randomized atomic wfcs

     total cpu time spent up to now is        0.5 secs

     per-process dynamical memory:     9.8 Mb

     Self-consistent Calculation

     iteration #  1     ecut=    30.00 Ry     beta=0.70
     Davidson diagonalization with overlap
     ethr =  1.00E-02,  avg # of iterations =  2.0

     Threshold (ethr) on eigenvalues was too large:
     Diagonalizing with lowered threshold

     Davidson diagonalization with overlap
     ethr =  6.71E-04,  avg # of iterations =  1.0

     total cpu time spent up to now is        0.9 secs

     total energy              =     -19.19122834 Ry
     Harris-Foulkes estimate   =     -19.20348827 Ry
     estimated scf accuracy    <       0.05323483 Ry

     iteration #  2     ecut=    30.00 Ry     beta=0.70
     Davidson diagonalization with overlap
     ethr =  6.65E-04,  avg # of iterations =  1.0

     total cpu time spent up to now is        1.3 secs

     total energy              =     -19.19297155 Ry
     Harris-Foulkes estimate   =     -19.19313970 Ry
     estimated scf accuracy    <       0.00244898 Ry

     iteration #  3     ecut=    30.00 Ry     beta=0.70
     Davidson diagonalization with overlap
     ethr =  3.06E-05,  avg # of iterations =  2.1

     total cpu time spent up to now is        1.8 secs

     total energy              =     -19.19331221 Ry
     Harris-Foulkes estimate   =     -19.19332427 Ry
     estimated scf accuracy    <       0.00004021 Ry

     iteration #  4     ecut=    30.00 Ry     beta=0.70
     Davidson diagonalization with overlap
     ethr =  5.03E-07,  avg # of iterations =  3.4

     total cpu time spent up to now is        2.1 secs

     total energy              =     -19.19334881 Ry
     Harris-Foulkes estimate   =     -19.19334948 Ry
     estimated scf accuracy    <       0.00000267 Ry

     iteration #  5     ecut=    30.00 Ry     beta=0.70
     Davidson diagonalization with overlap
     ethr =  3.33E-08,  avg # of iterations =  2.0

     total cpu time spent up to now is        2.4 secs

     End of self-consistent calculation

          k =-0.0833 0.0833 0.0833 (   752 PWs)   bands (ev):

    -5.7666   5.0708   5.7899   5.7899

          k =-0.2500 0.2500-0.0833 (   774 PWs)   bands (ev):

    -5.2991   3.0085   4.5786   5.5808

          k =-0.4167 0.4167-0.2500 (   769 PWs)   bands (ev):

    -4.2300   0.2952   4.1161   4.9550

          k = 0.4167-0.4167 0.5833 (   771 PWs)   bands (ev):

    -3.5513  -0.8223   4.1778   4.5825

          k = 0.2500-0.2500 0.4167 (   774 PWs)   bands (ev):

    -4.6324   1.1257   4.6441   4.6680

          k = 0.0833-0.0833 0.2500 (   781 PWs)   bands (ev):

    -5.5305   4.0053   5.1584   5.3338

          k =-0.0833 0.4167 0.0833 (   775 PWs)   bands (ev):

    -5.0623   2.8086   4.4221   4.4424

          k =-0.2500 0.5833-0.0833 (   773 PWs)   bands (ev):

    -4.1702   0.9952   3.1332   4.0614

          k = 0.5833-0.2500 0.7500 (   765 PWs)   bands (ev):

    -3.0822  -0.7126   2.5366   3.8405

          k = 0.4167-0.0833 0.5833 (   771 PWs)   bands (ev):

    -3.7850   0.3181   2.5030   4.3151

          k = 0.2500 0.0833 0.4167 (   775 PWs)   bands (ev):

    -4.8416   1.9925   3.8161   4.9666

          k =-0.0833 0.7500 0.0833 (   773 PWs)   bands (ev):

    -3.4715   0.1706   3.1012   3.4314

          k = 0.7500-0.0833 0.9167 (   760 PWs)   bands (ev):

    -2.3012  -1.1468   2.2812   3.0363

          k = 0.5833 0.0833 0.7500 (   763 PWs)   bands (ev):

    -2.6700  -0.8078   1.8062   3.5703

          k = 0.4167 0.2500 0.5833 (   772 PWs)   bands (ev):

    -3.6776  -0.3385   3.4156   4.4098

          k =-0.0833-0.9167 0.0833 (   765 PWs)   bands (ev):

    -2.3887  -1.1536   2.8372   3.2197

          k =-0.2500-0.7500-0.0833 (   767 PWs)   bands (ev):

    -3.3077  -0.0469   2.5923   3.3703

          k =-0.0833-0.5833 0.0833 (   775 PWs)   bands (ev):

    -4.3710   1.5171   3.6335   3.8466

          k =-0.2500 0.2500 0.2500 (   778 PWs)   bands (ev):

    -5.0742   2.0497   5.1865   5.1865

          k =-0.4167 0.4167 0.0833 (   779 PWs)   bands (ev):

    -4.4088   1.1180   3.0973   5.0186

          k = 0.4167-0.4167 0.9167 (   769 PWs)   bands (ev):

    -3.2563  -0.3059   2.0157   4.2492

          k = 0.2500-0.2500 0.7500 (   768 PWs)   bands (ev):

    -3.2041  -0.3843   2.4812   3.7775

          k =-0.2500 0.5833 0.2500 (   775 PWs)   bands (ev):

    -3.9939   0.3275   3.5432   4.1437

          k = 0.5833-0.2500 1.0833 (   763 PWs)   bands (ev):

    -3.0134  -0.4249   2.1150   3.3702

          k = 0.4167-0.0833 0.9167 (   759 PWs)   bands (ev):

    -2.2001  -1.1545   1.9600   2.7187

          k =-0.2500-1.0833 0.2500 (   762 PWs)   bands (ev):

    -2.4072  -1.0564   1.8362   3.5865

          k =-0.4167 0.4167 0.4167 (   769 PWs)   bands (ev):

    -3.9100  -0.4303   4.8027   4.8027

          k = 0.4167-0.4167 1.2500 (   768 PWs)   bands (ev):

    -3.3197  -0.7332   2.9993   4.3730

     highest occupied level (ev):     5.7899

!    total energy              =     -19.19334918 Ry
     Harris-Foulkes estimate   =     -19.19334917 Ry
     estimated scf accuracy    <          9.6E-09 Ry

     The total energy is the sum of the following terms:

     one-electron contribution =       4.91444547 Ry
     hartree contribution      =       1.13808149 Ry
     xc contribution           =      -8.59104160 Ry
     ewald contribution        =     -16.65483454 Ry

     convergence has been achieved in   5 iterations

     Writing output data file silicon.10.350.save

     init_run     :      0.35s CPU      0.40s WALL (       1 calls)
     electrons    :      1.32s CPU      1.88s WALL (       1 calls)

     Called by init_run:
     wfcinit      :      0.07s CPU      0.09s WALL (       1 calls)
     potinit      :      0.03s CPU      0.03s WALL (       1 calls)

     Called by electrons:
     c_bands      :      0.80s CPU      1.13s WALL (       6 calls)
     sum_band     :      0.31s CPU      0.42s WALL (       6 calls)
     v_of_rho     :      0.11s CPU      0.18s WALL (       6 calls)
     newd         :      0.13s CPU      0.16s WALL (       6 calls)
     mix_rho      :      0.01s CPU      0.01s WALL (       6 calls)

     Called by c_bands:
     init_us_2    :      0.05s CPU      0.06s WALL (     364 calls)
     cegterg      :      0.68s CPU      0.98s WALL (     168 calls)

     Called by sum_band:
     sum_band:bec :      0.00s CPU      0.00s WALL (     168 calls)
     addusdens    :      0.14s CPU      0.17s WALL (       6 calls)

     Called by *egterg:
     h_psi        :      0.57s CPU      0.83s WALL (     520 calls)
     s_psi        :      0.04s CPU      0.05s WALL (     520 calls)
     g_psi        :      0.00s CPU      0.00s WALL (     324 calls)
     cdiaghg      :      0.04s CPU      0.05s WALL (     464 calls)

     Called by h_psi:
     h_psi:pot    :      0.57s CPU      0.82s WALL (     520 calls)
     h_psi:calbec :      0.06s CPU      0.09s WALL (     520 calls)
     vloc_psi     :      0.46s CPU      0.68s WALL (     520 calls)
     add_vuspsi   :      0.04s CPU      0.05s WALL (     520 calls)

     General routines
     calbec       :      0.08s CPU      0.12s WALL (     688 calls)
     fft          :      0.09s CPU      0.17s WALL (      96 calls)
     ffts         :      0.00s CPU      0.01s WALL (      12 calls)
     fftw         :      0.47s CPU      0.72s WALL (    4618 calls)
     interpolate  :      0.01s CPU      0.02s WALL (      12 calls)
     davcio       :      0.00s CPU      0.00s WALL (      28 calls)

     Parallel routines
     fft_scatter  :      0.27s CPU      0.55s WALL (    4726 calls)

     PWSCF        :     1.88s CPU         2.52s WALL


   This run was terminated on:  10:31:55  10Nov2017            

=------------------------------------------------------------------------------=
   JOB DONE.
=------------------------------------------------------------------------------=
