
     Program PHONON v.6.1 (svn rev. 13369) starts on 10Nov2017 at 15:49:21 

     This program is part of the open-source Quantum ESPRESSO suite
     for quantum simulation of materials; please cite
         "P. Giannozzi et al., J. Phys.:Condens. Matter 21 395502 (2009);
          URL http://www.quantum-espresso.org", 
     in publications or presentations arising from this work. More details at
     http://www.quantum-espresso.org/quote

     Parallel version (MPI), running on     4 processors
     R & G space division:  proc/nbgrp/npool/nimage =       4

     Reading data from directory:
     ./silicon.10.292.save

   Info: using nr1, nr2, nr3 values from input

   Info: using nr1, nr2, nr3 values from input

     IMPORTANT: XC functional enforced from input :
     Exchange-correlation      = SLA  PW   PBE  PBE ( 1  4  3  4 0 0)
     Any further DFT definition will be discarded
     Please, verify this is what you really want


     Parallelization info
     --------------------
     sticks:   dense  smooth     PW     G-vecs:    dense   smooth      PW
     Min         217     108     37                 4240     1495     284
     Max         219     109     38                 4241     1498     285
     Sum         871     433    151                16961     5985    1139



     Dynamical matrices for ( 4, 4, 4)  uniform grid of q-points
     (   8q-points):
       N         xq(1)         xq(2)         xq(3) 
       1   0.000000000   0.000000000   0.000000000
       2  -0.250000000   0.250000000  -0.250000000
       3   0.500000000  -0.500000000   0.500000000
       4   0.000000000   0.500000000   0.000000000
       5   0.750000000  -0.250000000   0.750000000
       6   0.500000000   0.000000000   0.500000000
       7   0.000000000  -1.000000000   0.000000000
       8  -0.500000000  -1.000000000   0.000000000

     Calculation of q =    0.0000000   0.0000000   0.0000000

                                                                                

     bravais-lattice index     =            2
     lattice parameter (alat)  =      10.2920  a.u.
     unit-cell volume          =     272.5457 (a.u.)^3
     number of atoms/cell      =            2
     number of atomic types    =            1
     kinetic-energy cut-off    =      30.0000  Ry
     charge density cut-off    =     240.0000  Ry
     convergence threshold     =      1.0E-12
     beta                      =       0.7000
     number of iterations used =            4
     Exchange-correlation      = SLA  PW   PBE  PBE ( 1  4  3  4 0 0)


     celldm(1)=   10.29200  celldm(2)=    0.00000  celldm(3)=    0.00000
     celldm(4)=    0.00000  celldm(5)=    0.00000  celldm(6)=    0.00000

     crystal axes: (cart. coord. in units of alat)
               a(1) = ( -0.5000  0.0000  0.5000 )  
               a(2) = (  0.0000  0.5000  0.5000 )  
               a(3) = ( -0.5000  0.5000  0.0000 )  

     reciprocal axes: (cart. coord. in units 2 pi/alat)
               b(1) = ( -1.0000 -1.0000  1.0000 )  
               b(2) = (  1.0000  1.0000  1.0000 )  
               b(3) = ( -1.0000  1.0000 -1.0000 )  


     Atoms inside the unit cell: 

     Cartesian axes

     site n.  atom      mass           positions (alat units)
        1     Si  28.0860   tau(    1) = (    0.00000    0.00000    0.00000  )
        2     Si  28.0860   tau(    2) = (    0.25000    0.25000    0.25000  )

     Computing dynamical matrix for 
                    q = (   0.0000000   0.0000000   0.0000000 )

     49 Sym.Ops. (with q -> -q+G )


     G cutoff =  643.9484  (   4241 G-vectors)     FFT grid: ( 36, 36, 36)
     G cutoff =  321.9742  (   1497 G-vectors)  smooth grid: ( 25, 25, 25)
     number of k points=    10

     PseudoPot. # 1 for Si read from file:
     /home/s1333534/quantum_espresso/qe-6.1/pseudo/si_pbe_v1.uspp.F.UPF.txt
     MD5 check sum: a056efeee980c13900f22a371efd63c1
     Pseudo is Ultrasoft + core correction, Zval =  4.0
     Generated by new atomic code, or converted to UPF format
     Using radial grid of  899 points,  6 beta functions with: 
                l(1) =   0
                l(2) =   0
                l(3) =   1
                l(4) =   1
                l(5) =   2
                l(6) =   2
     Q(r) pseudized with  8 coefficients,  rinner =    0.900   0.900   0.900
                                                       0.900   0.900

     Mode symmetry, O_h (m-3m)  point group:


     Electric field:
     Dielectric constant
     Born effective charges in two ways 


     Atomic displacements:
     There are   2 irreducible representations

     Representation     1      3 modes -T_2g G_25' G_5+  To be done

     Representation     2      3 modes -T_1u G_15  G_4-  To be done



     Alpha used in Ewald sum =   2.5000
     PHONON       :     0.94s CPU         1.62s WALL


     Electric Fields Calculation

      iter #   1 total cpu time :     2.7 secs   av.it.:   5.7
      thresh= 1.000E-02 alpha_mix =  0.700 |ddv_scf|^2 =  1.338E-07

      iter #   2 total cpu time :     3.5 secs   av.it.:  11.7
      thresh= 3.657E-05 alpha_mix =  0.700 |ddv_scf|^2 =  7.749E-09

      iter #   3 total cpu time :     4.4 secs   av.it.:  11.4
      thresh= 8.803E-06 alpha_mix =  0.700 |ddv_scf|^2 =  5.100E-10

      iter #   4 total cpu time :     5.3 secs   av.it.:  10.3
      thresh= 2.258E-06 alpha_mix =  0.700 |ddv_scf|^2 =  3.280E-12

      iter #   5 total cpu time :     6.2 secs   av.it.:  11.1
      thresh= 1.811E-07 alpha_mix =  0.700 |ddv_scf|^2 =  3.264E-15

     End of electric fields calculation

          Dielectric constant in cartesian axis 

          (      13.887303181      -0.000000000      -0.000000000 )
          (      -0.000000000      13.887303181       0.000000000 )
          (      -0.000000000       0.000000000      13.887303181 )

          Effective charges (d Force / dE) in cartesian axis

           atom      1   Si 
      Ex  (       -0.03930        0.00000        0.00000 )
      Ey  (        0.00000       -0.03930        0.00000 )
      Ez  (        0.00000       -0.00000       -0.03930 )
           atom      2   Si 
      Ex  (       -0.03930       -0.00000       -0.00000 )
      Ey  (       -0.00000       -0.03930        0.00000 )
      Ez  (       -0.00000        0.00000       -0.03930 )


     Representation #  1 modes #   1  2  3

     Self-consistent Calculation

      iter #   1 total cpu time :     7.7 secs   av.it.:   5.1
      thresh= 1.000E-02 alpha_mix =  0.700 |ddv_scf|^2 =  2.356E-08

      iter #   2 total cpu time :     8.5 secs   av.it.:  11.5
      thresh= 1.535E-05 alpha_mix =  0.700 |ddv_scf|^2 =  9.665E-10

      iter #   3 total cpu time :     9.2 secs   av.it.:  11.1
      thresh= 3.109E-06 alpha_mix =  0.700 |ddv_scf|^2 =  6.575E-11

      iter #   4 total cpu time :     9.8 secs   av.it.:  10.1
      thresh= 8.108E-07 alpha_mix =  0.700 |ddv_scf|^2 =  1.602E-13

     End of self-consistent calculation

     Convergence has been achieved 


     Representation #  2 modes #   4  5  6

     Self-consistent Calculation

      iter #   1 total cpu time :    10.7 secs   av.it.:   5.2
      thresh= 1.000E-02 alpha_mix =  0.700 |ddv_scf|^2 =  1.860E-08

      iter #   2 total cpu time :    11.3 secs   av.it.:  11.6
      thresh= 1.364E-05 alpha_mix =  0.700 |ddv_scf|^2 =  1.097E-09

      iter #   3 total cpu time :    12.0 secs   av.it.:  11.1
      thresh= 3.313E-06 alpha_mix =  0.700 |ddv_scf|^2 =  6.790E-11

      iter #   4 total cpu time :    12.6 secs   av.it.:  11.3
      thresh= 8.240E-07 alpha_mix =  0.700 |ddv_scf|^2 =  2.621E-13

     End of self-consistent calculation

     Convergence has been achieved 

     Number of q in the star =    1
     List of q in the star:
          1   0.000000000   0.000000000   0.000000000

          Dielectric constant in cartesian axis 

          (      13.887303181      -0.000000000      -0.000000000 )
          (      -0.000000000      13.887303181       0.000000000 )
          (      -0.000000000       0.000000000      13.887303181 )

          Effective charges (d Force / dE) in cartesian axis

           atom      1   Si 
      Ex  (       -0.03930        0.00000        0.00000 )
      Ey  (        0.00000       -0.03930        0.00000 )
      Ez  (        0.00000       -0.00000       -0.03930 )
           atom      2   Si 
      Ex  (       -0.03930       -0.00000       -0.00000 )
      Ey  (       -0.00000       -0.03930        0.00000 )
      Ez  (       -0.00000        0.00000       -0.03930 )

          Effective charges (d P / du) in cartesian axis 

           atom      1   Si 
      Px  (       -0.07203        0.00000        0.00000 )
      Py  (        0.00000       -0.07203       -0.00000 )
      Pz  (        0.00000       -0.00000       -0.07203 )
           atom      2   Si 
      Px  (       -0.07203        0.00000        0.00000 )
      Py  (        0.00000       -0.07203       -0.00000 )
      Pz  (        0.00000       -0.00000       -0.07203 )

     Diagonalizing the dynamical matrix

     q = (    0.000000000   0.000000000   0.000000000 ) 

 **************************************************************************
     freq (    1) =      -0.472970 [THz] =     -15.776569 [cm-1]
     freq (    2) =      -0.472970 [THz] =     -15.776569 [cm-1]
     freq (    3) =      -0.472970 [THz] =     -15.776569 [cm-1]
     freq (    4) =      15.247808 [THz] =     508.612113 [cm-1]
     freq (    5) =      15.247808 [THz] =     508.612113 [cm-1]
     freq (    6) =      15.247808 [THz] =     508.612113 [cm-1]
 **************************************************************************

     Mode symmetry, O_h (m-3m)  point group:

     freq (  1 -  3) =        -15.8  [cm-1]   --> T_1u G_15  G_4- I  
     freq (  4 -  6) =        508.6  [cm-1]   --> T_2g G_25' G_5+ R  

     Calculation of q =   -0.2500000   0.2500000  -0.2500000

   Info: using nr1, nr2, nr3 values from input

   Info: using nr1, nr2, nr3 values from input

     Parallelization info
     --------------------
     sticks:   dense  smooth     PW     G-vecs:    dense   smooth      PW
     Min         217     108     37                 4240     1495     309
     Max         219     109     38                 4241     1498     312
     Sum         871     433    151                16961     5985    1243



     bravais-lattice index     =            2
     lattice parameter (alat)  =      10.2920  a.u.
     unit-cell volume          =     272.5457 (a.u.)^3
     number of atoms/cell      =            2
     number of atomic types    =            1
     number of electrons       =         8.00
     number of Kohn-Sham states=            4
     kinetic-energy cutoff     =      30.0000  Ry
     charge density cutoff     =     240.0000  Ry
     Exchange-correlation      = SLA  PW   PBE  PBE ( 1  4  3  4 0 0)

     celldm(1)=  10.292000  celldm(2)=   0.000000  celldm(3)=   0.000000
     celldm(4)=   0.000000  celldm(5)=   0.000000  celldm(6)=   0.000000

     crystal axes: (cart. coord. in units of alat)
               a(1) = (  -0.500000   0.000000   0.500000 )  
               a(2) = (   0.000000   0.500000   0.500000 )  
               a(3) = (  -0.500000   0.500000   0.000000 )  

     reciprocal axes: (cart. coord. in units 2 pi/alat)
               b(1) = ( -1.000000 -1.000000  1.000000 )  
               b(2) = (  1.000000  1.000000  1.000000 )  
               b(3) = ( -1.000000  1.000000 -1.000000 )  


     PseudoPot. # 1 for Si read from file:
     /home/s1333534/quantum_espresso/qe-6.1/pseudo/si_pbe_v1.uspp.F.UPF.txt
     MD5 check sum: a056efeee980c13900f22a371efd63c1
     Pseudo is Ultrasoft + core correction, Zval =  4.0
     Generated by new atomic code, or converted to UPF format
     Using radial grid of  899 points,  6 beta functions with: 
                l(1) =   0
                l(2) =   0
                l(3) =   1
                l(4) =   1
                l(5) =   2
                l(6) =   2
     Q(r) pseudized with  8 coefficients,  rinner =    0.900   0.900   0.900
                                                       0.900   0.900

     atomic species   valence    mass     pseudopotential
        Si             4.00    28.08600     Si( 1.00)

     48 Sym. Ops., with inversion, found



   Cartesian axes

     site n.     atom                  positions (alat units)
         1           Si  tau(   1) = (   0.0000000   0.0000000   0.0000000  )
         2           Si  tau(   2) = (   0.2500000   0.2500000   0.2500000  )

     number of k points=   120

     Number of k-points >= 100: set verbosity='high' to print them.

     Dense  grid:    16961 G-vectors     FFT dimensions: (  36,  36,  36)

     Smooth grid:     5985 G-vectors     FFT dimensions: (  25,  25,  25)

     Estimated max dynamical RAM per process >       1.51MB

     Estimated total allocated dynamical RAM >       6.03MB

     The potential is recalculated from file :
     ./_ph0/silicon.10.292.save/charge-density.dat

     Starting wfc are    8 atomic wfcs

     Band Structure Calculation
     Davidson diagonalization with overlap

     ethr =  1.25E-10,  avg # of iterations = 12.2

     total cpu time spent up to now is        1.4 secs

     End of band structure calculation

     Number of k-points >= 100: set verbosity='high' to print the bands.

     highest occupied level (ev):     5.8173

     Writing output data file silicon.10.292.save

                                                                                

     bravais-lattice index     =            2
     lattice parameter (alat)  =      10.2920  a.u.
     unit-cell volume          =     272.5457 (a.u.)^3
     number of atoms/cell      =            2
     number of atomic types    =            1
     kinetic-energy cut-off    =      30.0000  Ry
     charge density cut-off    =     240.0000  Ry
     convergence threshold     =      1.0E-12
     beta                      =       0.7000
     number of iterations used =            4
     Exchange-correlation      = SLA  PW   PBE  PBE ( 1  4  3  4 0 0)


     celldm(1)=   10.29200  celldm(2)=    0.00000  celldm(3)=    0.00000
     celldm(4)=    0.00000  celldm(5)=    0.00000  celldm(6)=    0.00000

     crystal axes: (cart. coord. in units of alat)
               a(1) = ( -0.5000  0.0000  0.5000 )  
               a(2) = (  0.0000  0.5000  0.5000 )  
               a(3) = ( -0.5000  0.5000  0.0000 )  

     reciprocal axes: (cart. coord. in units 2 pi/alat)
               b(1) = ( -1.0000 -1.0000  1.0000 )  
               b(2) = (  1.0000  1.0000  1.0000 )  
               b(3) = ( -1.0000  1.0000 -1.0000 )  


     Atoms inside the unit cell: 

     Cartesian axes

     site n.  atom      mass           positions (alat units)
        1     Si  28.0860   tau(    1) = (    0.00000    0.00000    0.00000  )
        2     Si  28.0860   tau(    2) = (    0.25000    0.25000    0.25000  )

     Computing dynamical matrix for 
                    q = (  -0.2500000   0.2500000  -0.2500000 )

      6 Sym.Ops. (no q -> -q+G )


     G cutoff =  643.9484  (   4241 G-vectors)     FFT grid: ( 36, 36, 36)
     G cutoff =  321.9742  (   1496 G-vectors)  smooth grid: ( 25, 25, 25)
     number of k points=   120

     PseudoPot. # 1 for Si read from file:
     /home/s1333534/quantum_espresso/qe-6.1/pseudo/si_pbe_v1.uspp.F.UPF.txt
     MD5 check sum: a056efeee980c13900f22a371efd63c1
     Pseudo is Ultrasoft + core correction, Zval =  4.0
     Generated by new atomic code, or converted to UPF format
     Using radial grid of  899 points,  6 beta functions with: 
                l(1) =   0
                l(2) =   0
                l(3) =   1
                l(4) =   1
                l(5) =   2
                l(6) =   2
     Q(r) pseudized with  8 coefficients,  rinner =    0.900   0.900   0.900
                                                       0.900   0.900

     Mode symmetry, C_3v (3m)   point group:


     Atomic displacements:
     There are   4 irreducible representations

     Representation     1      1 modes -A_1  L_1  To be done

     Representation     2      1 modes -A_1  L_1  To be done

     Representation     3      2 modes -E    L_3  To be done

     Representation     4      2 modes -E    L_3  To be done



     Alpha used in Ewald sum =   2.5000
     PHONON       :    10.70s CPU        15.99s WALL



     Representation #  1 mode #   1

     Self-consistent Calculation

      iter #   1 total cpu time :    16.4 secs   av.it.:   5.9
      thresh= 1.000E-02 alpha_mix =  0.700 |ddv_scf|^2 =  4.313E-04

      iter #   2 total cpu time :    17.0 secs   av.it.:   9.0
      thresh= 2.077E-03 alpha_mix =  0.700 |ddv_scf|^2 =  6.545E-03

      iter #   3 total cpu time :    17.6 secs   av.it.:   7.0
      thresh= 8.090E-03 alpha_mix =  0.700 |ddv_scf|^2 =  2.720E-07

      iter #   4 total cpu time :    18.3 secs   av.it.:   9.6
      thresh= 5.215E-05 alpha_mix =  0.700 |ddv_scf|^2 =  1.777E-08

      iter #   5 total cpu time :    18.9 secs   av.it.:   9.5
      thresh= 1.333E-05 alpha_mix =  0.700 |ddv_scf|^2 =  3.330E-10

      iter #   6 total cpu time :    19.5 secs   av.it.:   9.7
      thresh= 1.825E-06 alpha_mix =  0.700 |ddv_scf|^2 =  1.062E-09

      iter #   7 total cpu time :    20.0 secs   av.it.:   7.6
      thresh= 3.259E-06 alpha_mix =  0.700 |ddv_scf|^2 =  3.769E-11

      iter #   8 total cpu time :    20.6 secs   av.it.:   9.3
      thresh= 6.140E-07 alpha_mix =  0.700 |ddv_scf|^2 =  5.063E-13

     End of self-consistent calculation

     Convergence has been achieved 


     Representation #  2 mode #   2

     Self-consistent Calculation

      iter #   1 total cpu time :    21.1 secs   av.it.:   5.9
      thresh= 1.000E-02 alpha_mix =  0.700 |ddv_scf|^2 =  4.313E-04

      iter #   2 total cpu time :    21.7 secs   av.it.:   9.0
      thresh= 2.077E-03 alpha_mix =  0.700 |ddv_scf|^2 =  6.545E-03

      iter #   3 total cpu time :    22.2 secs   av.it.:   7.0
      thresh= 8.090E-03 alpha_mix =  0.700 |ddv_scf|^2 =  2.720E-07

      iter #   4 total cpu time :    22.9 secs   av.it.:   9.6
      thresh= 5.215E-05 alpha_mix =  0.700 |ddv_scf|^2 =  1.777E-08

      iter #   5 total cpu time :    23.5 secs   av.it.:   9.5
      thresh= 1.333E-05 alpha_mix =  0.700 |ddv_scf|^2 =  3.330E-10

      iter #   6 total cpu time :    24.1 secs   av.it.:   9.7
      thresh= 1.825E-06 alpha_mix =  0.700 |ddv_scf|^2 =  1.062E-09

      iter #   7 total cpu time :    24.6 secs   av.it.:   7.6
      thresh= 3.259E-06 alpha_mix =  0.700 |ddv_scf|^2 =  3.769E-11

      iter #   8 total cpu time :    25.2 secs   av.it.:   9.3
      thresh= 6.140E-07 alpha_mix =  0.700 |ddv_scf|^2 =  5.063E-13

     End of self-consistent calculation

     Convergence has been achieved 


     Representation #  3 modes #   3  4

     Self-consistent Calculation

      iter #   1 total cpu time :    26.4 secs   av.it.:   5.2
      thresh= 1.000E-02 alpha_mix =  0.700 |ddv_scf|^2 =  6.638E-08

      iter #   2 total cpu time :    27.9 secs   av.it.:  11.4
      thresh= 2.576E-05 alpha_mix =  0.700 |ddv_scf|^2 =  4.266E-09

      iter #   3 total cpu time :    29.4 secs   av.it.:  11.1
      thresh= 6.532E-06 alpha_mix =  0.700 |ddv_scf|^2 =  2.261E-10

      iter #   4 total cpu time :    30.5 secs   av.it.:  11.0
      thresh= 1.504E-06 alpha_mix =  0.700 |ddv_scf|^2 =  8.538E-13

     End of self-consistent calculation

     Convergence has been achieved 


     Representation #  4 modes #   5  6

     Self-consistent Calculation

      iter #   1 total cpu time :    31.5 secs   av.it.:   5.2
      thresh= 1.000E-02 alpha_mix =  0.700 |ddv_scf|^2 =  6.639E-08

      iter #   2 total cpu time :    32.8 secs   av.it.:  11.4
      thresh= 2.577E-05 alpha_mix =  0.700 |ddv_scf|^2 =  4.266E-09

      iter #   3 total cpu time :    34.1 secs   av.it.:  11.2
      thresh= 6.531E-06 alpha_mix =  0.700 |ddv_scf|^2 =  2.260E-10

      iter #   4 total cpu time :    35.2 secs   av.it.:  11.0
      thresh= 1.503E-06 alpha_mix =  0.700 |ddv_scf|^2 =  8.574E-13

     End of self-consistent calculation

     Convergence has been achieved 

     Number of q in the star =    8
     List of q in the star:
          1  -0.250000000   0.250000000  -0.250000000
          2   0.250000000  -0.250000000  -0.250000000
          3   0.250000000  -0.250000000   0.250000000
          4   0.250000000   0.250000000   0.250000000
          5  -0.250000000  -0.250000000  -0.250000000
          6  -0.250000000  -0.250000000   0.250000000
          7  -0.250000000   0.250000000   0.250000000
          8   0.250000000   0.250000000  -0.250000000

     Diagonalizing the dynamical matrix

     q = (   -0.250000000   0.250000000  -0.250000000 ) 

 **************************************************************************
     freq (    1) =       2.761684 [THz] =      92.119850 [cm-1]
     freq (    2) =       2.761684 [THz] =      92.119850 [cm-1]
     freq (    3) =       6.814108 [THz] =     227.294164 [cm-1]
     freq (    4) =      14.395605 [THz] =     480.185686 [cm-1]
     freq (    5) =      14.689984 [THz] =     490.005117 [cm-1]
     freq (    6) =      14.689984 [THz] =     490.005117 [cm-1]
 **************************************************************************

     Mode symmetry, C_3v (3m)   point group:

     freq (  1 -  2) =         92.1  [cm-1]   --> E    L_3           
     freq (  3 -  3) =        227.3  [cm-1]   --> A_1  L_1           
     freq (  4 -  4) =        480.2  [cm-1]   --> A_1  L_1           
     freq (  5 -  6) =        490.0  [cm-1]   --> E    L_3           

     Calculation of q =    0.5000000  -0.5000000   0.5000000

   Info: using nr1, nr2, nr3 values from input

   Info: using nr1, nr2, nr3 values from input

     Parallelization info
     --------------------
     sticks:   dense  smooth     PW     G-vecs:    dense   smooth      PW
     Min         217     108     40                 4240     1495     351
     Max         219     109     41                 4241     1498     354
     Sum         871     433    163                16961     5985    1411



     bravais-lattice index     =            2
     lattice parameter (alat)  =      10.2920  a.u.
     unit-cell volume          =     272.5457 (a.u.)^3
     number of atoms/cell      =            2
     number of atomic types    =            1
     number of electrons       =         8.00
     number of Kohn-Sham states=            4
     kinetic-energy cutoff     =      30.0000  Ry
     charge density cutoff     =     240.0000  Ry
     Exchange-correlation      = SLA  PW   PBE  PBE ( 1  4  3  4 0 0)

     celldm(1)=  10.292000  celldm(2)=   0.000000  celldm(3)=   0.000000
     celldm(4)=   0.000000  celldm(5)=   0.000000  celldm(6)=   0.000000

     crystal axes: (cart. coord. in units of alat)
               a(1) = (  -0.500000   0.000000   0.500000 )  
               a(2) = (   0.000000   0.500000   0.500000 )  
               a(3) = (  -0.500000   0.500000   0.000000 )  

     reciprocal axes: (cart. coord. in units 2 pi/alat)
               b(1) = ( -1.000000 -1.000000  1.000000 )  
               b(2) = (  1.000000  1.000000  1.000000 )  
               b(3) = ( -1.000000  1.000000 -1.000000 )  


     PseudoPot. # 1 for Si read from file:
     /home/s1333534/quantum_espresso/qe-6.1/pseudo/si_pbe_v1.uspp.F.UPF.txt
     MD5 check sum: a056efeee980c13900f22a371efd63c1
     Pseudo is Ultrasoft + core correction, Zval =  4.0
     Generated by new atomic code, or converted to UPF format
     Using radial grid of  899 points,  6 beta functions with: 
                l(1) =   0
                l(2) =   0
                l(3) =   1
                l(4) =   1
                l(5) =   2
                l(6) =   2
     Q(r) pseudized with  8 coefficients,  rinner =    0.900   0.900   0.900
                                                       0.900   0.900

     atomic species   valence    mass     pseudopotential
        Si             4.00    28.08600     Si( 1.00)

     48 Sym. Ops., with inversion, found



   Cartesian axes

     site n.     atom                  positions (alat units)
         1           Si  tau(   1) = (   0.0000000   0.0000000   0.0000000  )
         2           Si  tau(   2) = (   0.2500000   0.2500000   0.2500000  )

     number of k points=    60
                       cart. coord. in units 2pi/alat
        k(    1) = (  -0.1250000   0.1250000   0.1250000), wk =   0.0468750
        k(    2) = (   0.3750000  -0.3750000   0.6250000), wk =   0.0000000
        k(    3) = (  -0.3750000   0.3750000  -0.1250000), wk =   0.0468750
        k(    4) = (   0.1250000  -0.1250000   0.3750000), wk =   0.0000000
        k(    5) = (   0.3750000  -0.3750000   0.6250000), wk =   0.0468750
        k(    6) = (   0.8750000  -0.8750000   1.1250000), wk =   0.0000000
        k(    7) = (   0.1250000  -0.1250000   0.3750000), wk =   0.0468750
        k(    8) = (   0.6250000  -0.6250000   0.8750000), wk =   0.0000000
        k(    9) = (  -0.1250000   0.6250000   0.1250000), wk =   0.0937500
        k(   10) = (   0.3750000   0.1250000   0.6250000), wk =   0.0000000
        k(   11) = (   0.6250000  -0.1250000   0.8750000), wk =   0.0937500
        k(   12) = (   1.1250000  -0.6250000   1.3750000), wk =   0.0000000
        k(   13) = (   0.3750000   0.1250000   0.6250000), wk =   0.0937500
        k(   14) = (   0.8750000  -0.3750000   1.1250000), wk =   0.0000000
        k(   15) = (  -0.1250000  -0.8750000   0.1250000), wk =   0.0937500
        k(   16) = (   0.3750000  -1.3750000   0.6250000), wk =   0.0000000
        k(   17) = (  -0.3750000   0.3750000   0.3750000), wk =   0.0468750
        k(   18) = (   0.1250000  -0.1250000   0.8750000), wk =   0.0000000
        k(   19) = (   0.3750000  -0.3750000   1.1250000), wk =   0.0468750
        k(   20) = (   0.8750000  -0.8750000   1.6250000), wk =   0.0000000
        k(   21) = (   0.1250000  -0.1250000   0.1250000), wk =   0.0156250
        k(   22) = (   0.6250000  -0.6250000   0.6250000), wk =   0.0000000
        k(   23) = (  -0.3750000  -0.3750000  -0.1250000), wk =   0.0937500
        k(   24) = (   0.1250000  -0.8750000   0.3750000), wk =   0.0000000
        k(   25) = (  -0.1250000  -0.3750000   0.3750000), wk =   0.0468750
        k(   26) = (   0.3750000  -0.8750000   0.8750000), wk =   0.0000000
        k(   27) = (   0.3750000   0.3750000   0.6250000), wk =   0.0937500
        k(   28) = (   0.8750000  -0.1250000   1.1250000), wk =   0.0000000
        k(   29) = (   0.6250000   0.3750000  -0.3750000), wk =   0.0468750
        k(   30) = (   1.1250000  -0.1250000   0.1250000), wk =   0.0000000
        k(   31) = (   0.1250000   0.1250000   0.3750000), wk =   0.0937500
        k(   32) = (   0.6250000  -0.3750000   0.8750000), wk =   0.0000000
        k(   33) = (   0.3750000   0.1250000  -0.1250000), wk =   0.0468750
        k(   34) = (   0.8750000  -0.3750000   0.3750000), wk =   0.0000000
        k(   35) = (  -0.1250000  -0.6250000  -0.1250000), wk =   0.0468750
        k(   36) = (   0.3750000  -1.1250000   0.3750000), wk =   0.0000000
        k(   37) = (   0.1250000  -0.6250000   0.1250000), wk =   0.0468750
        k(   38) = (   0.6250000  -1.1250000   0.6250000), wk =   0.0000000
        k(   39) = (   0.6250000   0.1250000   0.8750000), wk =   0.0937500
        k(   40) = (   1.1250000  -0.3750000   1.3750000), wk =   0.0000000
        k(   41) = (  -0.8750000   0.1250000   0.6250000), wk =   0.0937500
        k(   42) = (  -0.3750000  -0.3750000   1.1250000), wk =   0.0000000
        k(   43) = (   0.8750000   0.1250000  -0.6250000), wk =   0.0937500
        k(   44) = (   1.3750000  -0.3750000  -0.1250000), wk =   0.0000000
        k(   45) = (   0.3750000  -0.1250000   0.6250000), wk =   0.0937500
        k(   46) = (   0.8750000  -0.6250000   1.1250000), wk =   0.0000000
        k(   47) = (  -0.6250000  -0.1250000   0.3750000), wk =   0.0937500
        k(   48) = (  -0.1250000  -0.6250000   0.8750000), wk =   0.0000000
        k(   49) = (   0.6250000  -0.1250000  -0.3750000), wk =   0.0937500
        k(   50) = (   1.1250000  -0.6250000   0.1250000), wk =   0.0000000
        k(   51) = (  -0.1250000   0.8750000  -0.1250000), wk =   0.0468750
        k(   52) = (   0.3750000   0.3750000   0.3750000), wk =   0.0000000
        k(   53) = (   0.1250000   0.8750000   0.1250000), wk =   0.0468750
        k(   54) = (   0.6250000   0.3750000   0.6250000), wk =   0.0000000
        k(   55) = (   0.3750000  -0.3750000   0.3750000), wk =   0.0156250
        k(   56) = (   0.8750000  -0.8750000   0.8750000), wk =   0.0000000
        k(   57) = (   0.3750000   0.3750000   1.1250000), wk =   0.0937500
        k(   58) = (   0.8750000  -0.1250000   1.6250000), wk =   0.0000000
        k(   59) = (   1.1250000   0.3750000  -0.3750000), wk =   0.0468750
        k(   60) = (   1.6250000  -0.1250000   0.1250000), wk =   0.0000000

     Dense  grid:    16961 G-vectors     FFT dimensions: (  36,  36,  36)

     Smooth grid:     5985 G-vectors     FFT dimensions: (  25,  25,  25)

     Estimated max dynamical RAM per process >       1.51MB

     Estimated total allocated dynamical RAM >       6.03MB

     The potential is recalculated from file :
     ./_ph0/silicon.10.292.save/charge-density.dat

     Starting wfc are    8 atomic wfcs

     Band Structure Calculation
     Davidson diagonalization with overlap

     ethr =  1.25E-10,  avg # of iterations = 12.2

     total cpu time spent up to now is        2.4 secs

     End of band structure calculation

          k =-0.1250 0.1250 0.1250 (   746 PWs)   bands (ev):

    -5.5935   4.5082   5.8173   5.8173

          k = 0.3750-0.3750 0.6250 (   759 PWs)   bands (ev):

    -3.4006  -0.6066   3.8380   4.5535

          k =-0.3750 0.3750-0.1250 (   757 PWs)   bands (ev):

    -4.5560   1.4965   3.8117   5.3342

          k = 0.1250-0.1250 0.3750 (   765 PWs)   bands (ev):

    -5.0603   2.8869   4.7973   4.8682

          k = 0.3750-0.3750 0.6250 (   759 PWs)   bands (ev):

    -3.4006  -0.6066   3.8380   4.5535

          k = 0.8750-0.8750 1.1250 (   746 PWs)   bands (ev):

    -5.5935   4.5082   5.8173   5.8173

          k = 0.1250-0.1250 0.3750 (   765 PWs)   bands (ev):

    -5.0603   2.8869   4.7973   4.8682

          k = 0.6250-0.6250 0.8750 (   757 PWs)   bands (ev):

    -4.5560   1.4965   3.8117   5.3342

          k =-0.1250 0.6250 0.1250 (   760 PWs)   bands (ev):

    -4.0182   1.1728   3.4568   3.9146

          k = 0.3750 0.1250 0.6250 (   756 PWs)   bands (ev):

    -3.5970   0.2843   2.8103   4.1918

          k = 0.6250-0.1250 0.8750 (   751 PWs)   bands (ev):

    -2.3583  -0.8057   2.0829   3.1726

          k = 1.1250-0.6250 1.3750 (   757 PWs)   bands (ev):

    -4.5560   1.4965   3.8117   5.3342

          k = 0.3750 0.1250 0.6250 (   756 PWs)   bands (ev):

    -3.5970   0.2843   2.8103   4.1918

          k = 0.8750-0.3750 1.1250 (   760 PWs)   bands (ev):

    -4.0182   1.1728   3.4568   3.9146

          k =-0.1250-0.8750 0.1250 (   757 PWs)   bands (ev):

    -2.5307  -0.7058   2.7009   3.4434

          k = 0.3750-1.3750 0.6250 (   759 PWs)   bands (ev):

    -3.4006  -0.6066   3.8380   4.5535

          k =-0.3750 0.3750 0.3750 (   763 PWs)   bands (ev):

    -4.1173   0.1887   5.0240   5.0240

          k = 0.1250-0.1250 0.8750 (   757 PWs)   bands (ev):

    -2.5307  -0.7058   2.7009   3.4434

          k = 0.3750-0.3750 1.1250 (   757 PWs)   bands (ev):

    -2.9001  -0.5094   2.1464   4.2325

          k = 0.8750-0.8750 1.6250 (   760 PWs)   bands (ev):

    -4.0182   1.1728   3.4568   3.9146

          k = 0.1250-0.1250 0.1250 (   746 PWs)   bands (ev):

    -5.5935   4.5082   5.8173   5.8173

          k = 0.6250-0.6250 0.6250 (   763 PWs)   bands (ev):

    -4.1173   0.1887   5.0240   5.0240

          k =-0.3750-0.3750-0.1250 (   757 PWs)   bands (ev):

    -4.5560   1.4965   3.8117   5.3342

          k = 0.1250-0.8750 0.3750 (   751 PWs)   bands (ev):

    -2.3583  -0.8057   2.0829   3.1726

          k =-0.1250-0.3750 0.3750 (   757 PWs)   bands (ev):

    -4.5560   1.4965   3.8117   5.3342

          k = 0.3750-0.8750 0.8750 (   760 PWs)   bands (ev):

    -4.0182   1.1728   3.4568   3.9146

          k = 0.3750 0.3750 0.6250 (   759 PWs)   bands (ev):

    -3.4006  -0.6066   3.8380   4.5535

          k = 0.8750-0.1250 1.1250 (   757 PWs)   bands (ev):

    -2.5307  -0.7058   2.7009   3.4434

          k = 0.6250 0.3750-0.3750 (   759 PWs)   bands (ev):

    -3.4006  -0.6066   3.8380   4.5535

          k = 1.1250-0.1250 0.1250 (   757 PWs)   bands (ev):

    -2.5307  -0.7058   2.7009   3.4434

          k = 0.1250 0.1250 0.3750 (   765 PWs)   bands (ev):

    -5.0603   2.8869   4.7973   4.8682

          k = 0.6250-0.3750 0.8750 (   756 PWs)   bands (ev):

    -3.5970   0.2843   2.8103   4.1918

          k = 0.3750 0.1250-0.1250 (   765 PWs)   bands (ev):

    -5.0603   2.8869   4.7973   4.8682

          k = 0.8750-0.3750 0.3750 (   757 PWs)   bands (ev):

    -2.9001  -0.5094   2.1464   4.2325

          k =-0.1250-0.6250-0.1250 (   760 PWs)   bands (ev):

    -4.0182   1.1728   3.4568   3.9146

          k = 0.3750-1.1250 0.3750 (   757 PWs)   bands (ev):

    -2.9001  -0.5094   2.1464   4.2325

          k = 0.1250-0.6250 0.1250 (   760 PWs)   bands (ev):

    -4.0182   1.1728   3.4568   3.9146

          k = 0.6250-1.1250 0.6250 (   757 PWs)   bands (ev):

    -4.5560   1.4965   3.8117   5.3342

          k = 0.6250 0.1250 0.8750 (   751 PWs)   bands (ev):

    -2.3583  -0.8057   2.0829   3.1726

          k = 1.1250-0.3750 1.3750 (   756 PWs)   bands (ev):

    -3.5970   0.2843   2.8103   4.1918

          k =-0.8750 0.1250 0.6250 (   751 PWs)   bands (ev):

    -2.3583  -0.8057   2.0829   3.1726

          k =-0.3750-0.3750 1.1250 (   757 PWs)   bands (ev):

    -2.9001  -0.5094   2.1464   4.2325

          k = 0.8750 0.1250-0.6250 (   751 PWs)   bands (ev):

    -2.3583  -0.8057   2.0829   3.1726

          k = 1.3750-0.3750-0.1250 (   756 PWs)   bands (ev):

    -3.5970   0.2843   2.8103   4.1918

          k = 0.3750-0.1250 0.6250 (   756 PWs)   bands (ev):

    -3.5970   0.2843   2.8103   4.1918

          k = 0.8750-0.6250 1.1250 (   765 PWs)   bands (ev):

    -5.0603   2.8869   4.7973   4.8682

          k =-0.6250-0.1250 0.3750 (   756 PWs)   bands (ev):

    -3.5970   0.2843   2.8103   4.1918

          k =-0.1250-0.6250 0.8750 (   751 PWs)   bands (ev):

    -2.3583  -0.8057   2.0829   3.1726

          k = 0.6250-0.1250-0.3750 (   756 PWs)   bands (ev):

    -3.5970   0.2843   2.8103   4.1918

          k = 1.1250-0.6250 0.1250 (   751 PWs)   bands (ev):

    -2.3583  -0.8057   2.0829   3.1726

          k =-0.1250 0.8750-0.1250 (   757 PWs)   bands (ev):

    -2.5307  -0.7058   2.7009   3.4434

          k = 0.3750 0.3750 0.3750 (   763 PWs)   bands (ev):

    -4.1173   0.1887   5.0240   5.0240

          k = 0.1250 0.8750 0.1250 (   757 PWs)   bands (ev):

    -2.5307  -0.7058   2.7009   3.4434

          k = 0.6250 0.3750 0.6250 (   759 PWs)   bands (ev):

    -3.4006  -0.6066   3.8380   4.5535

          k = 0.3750-0.3750 0.3750 (   763 PWs)   bands (ev):

    -4.1173   0.1887   5.0240   5.0240

          k = 0.8750-0.8750 0.8750 (   746 PWs)   bands (ev):

    -5.5935   4.5082   5.8173   5.8173

          k = 0.3750 0.3750 1.1250 (   757 PWs)   bands (ev):

    -2.9001  -0.5094   2.1464   4.2325

          k = 0.8750-0.1250 1.6250 (   751 PWs)   bands (ev):

    -2.3583  -0.8057   2.0829   3.1726

          k = 1.1250 0.3750-0.3750 (   757 PWs)   bands (ev):

    -2.9001  -0.5094   2.1464   4.2325

          k = 1.6250-0.1250 0.1250 (   765 PWs)   bands (ev):

    -5.0603   2.8869   4.7973   4.8682

     highest occupied level (ev):     5.8173

     Writing output data file silicon.10.292.save

                                                                                

     bravais-lattice index     =            2
     lattice parameter (alat)  =      10.2920  a.u.
     unit-cell volume          =     272.5457 (a.u.)^3
     number of atoms/cell      =            2
     number of atomic types    =            1
     kinetic-energy cut-off    =      30.0000  Ry
     charge density cut-off    =     240.0000  Ry
     convergence threshold     =      1.0E-12
     beta                      =       0.7000
     number of iterations used =            4
     Exchange-correlation      = SLA  PW   PBE  PBE ( 1  4  3  4 0 0)


     celldm(1)=   10.29200  celldm(2)=    0.00000  celldm(3)=    0.00000
     celldm(4)=    0.00000  celldm(5)=    0.00000  celldm(6)=    0.00000

     crystal axes: (cart. coord. in units of alat)
               a(1) = ( -0.5000  0.0000  0.5000 )  
               a(2) = (  0.0000  0.5000  0.5000 )  
               a(3) = ( -0.5000  0.5000  0.0000 )  

     reciprocal axes: (cart. coord. in units 2 pi/alat)
               b(1) = ( -1.0000 -1.0000  1.0000 )  
               b(2) = (  1.0000  1.0000  1.0000 )  
               b(3) = ( -1.0000  1.0000 -1.0000 )  


     Atoms inside the unit cell: 

     Cartesian axes

     site n.  atom      mass           positions (alat units)
        1     Si  28.0860   tau(    1) = (    0.00000    0.00000    0.00000  )
        2     Si  28.0860   tau(    2) = (    0.25000    0.25000    0.25000  )

     Computing dynamical matrix for 
                    q = (   0.5000000  -0.5000000   0.5000000 )

     13 Sym.Ops. (with q -> -q+G )


     G cutoff =  643.9484  (   4241 G-vectors)     FFT grid: ( 36, 36, 36)
     G cutoff =  321.9742  (   1497 G-vectors)  smooth grid: ( 25, 25, 25)
     number of k points=    60

     PseudoPot. # 1 for Si read from file:
     /home/s1333534/quantum_espresso/qe-6.1/pseudo/si_pbe_v1.uspp.F.UPF.txt
     MD5 check sum: a056efeee980c13900f22a371efd63c1
     Pseudo is Ultrasoft + core correction, Zval =  4.0
     Generated by new atomic code, or converted to UPF format
     Using radial grid of  899 points,  6 beta functions with: 
                l(1) =   0
                l(2) =   0
                l(3) =   1
                l(4) =   1
                l(5) =   2
                l(6) =   2
     Q(r) pseudized with  8 coefficients,  rinner =    0.900   0.900   0.900
                                                       0.900   0.900


     Atomic displacements:
     There are   4 irreducible representations

     Representation     1      1 modes -  To be done

     Representation     2      1 modes -  To be done

     Representation     3      2 modes -  To be done

     Representation     4      2 modes -  To be done



     Alpha used in Ewald sum =   2.5000
     PHONON       :    27.60s CPU        37.43s WALL



     Representation #  1 mode #   1

     Self-consistent Calculation

      iter #   1 total cpu time :    37.7 secs   av.it.:   5.1
      thresh= 1.000E-02 alpha_mix =  0.700 |ddv_scf|^2 =  4.230E-06

      iter #   2 total cpu time :    38.1 secs   av.it.:   9.9
      thresh= 2.057E-04 alpha_mix =  0.700 |ddv_scf|^2 =  3.843E-06

      iter #   3 total cpu time :    38.5 secs   av.it.:   9.2
      thresh= 1.960E-04 alpha_mix =  0.700 |ddv_scf|^2 =  2.340E-09

      iter #   4 total cpu time :    38.9 secs   av.it.:   9.4
      thresh= 4.837E-06 alpha_mix =  0.700 |ddv_scf|^2 =  2.254E-11

      iter #   5 total cpu time :    39.3 secs   av.it.:   9.3
      thresh= 4.748E-07 alpha_mix =  0.700 |ddv_scf|^2 =  3.054E-13

     End of self-consistent calculation

     Convergence has been achieved 


     Representation #  2 mode #   2

     Self-consistent Calculation

      iter #   1 total cpu time :    39.8 secs   av.it.:   6.0
      thresh= 1.000E-02 alpha_mix =  0.700 |ddv_scf|^2 =  6.019E-05

      iter #   2 total cpu time :    40.2 secs   av.it.:   9.8
      thresh= 7.758E-04 alpha_mix =  0.700 |ddv_scf|^2 =  1.868E-04

      iter #   3 total cpu time :    40.6 secs   av.it.:   8.6
      thresh= 1.367E-03 alpha_mix =  0.700 |ddv_scf|^2 =  1.278E-08

      iter #   4 total cpu time :    41.0 secs   av.it.:   9.8
      thresh= 1.131E-05 alpha_mix =  0.700 |ddv_scf|^2 =  6.460E-10

      iter #   5 total cpu time :    41.5 secs   av.it.:  10.2
      thresh= 2.542E-06 alpha_mix =  0.700 |ddv_scf|^2 =  1.991E-11

      iter #   6 total cpu time :    41.8 secs   av.it.:   9.7
      thresh= 4.462E-07 alpha_mix =  0.700 |ddv_scf|^2 =  1.511E-13

     End of self-consistent calculation

     Convergence has been achieved 


     Representation #  3 modes #   3  4

     Self-consistent Calculation

      iter #   1 total cpu time :    42.5 secs   av.it.:   5.1
      thresh= 1.000E-02 alpha_mix =  0.700 |ddv_scf|^2 =  2.706E-08

      iter #   2 total cpu time :    43.3 secs   av.it.:  10.9
      thresh= 1.645E-05 alpha_mix =  0.700 |ddv_scf|^2 =  1.600E-09

      iter #   3 total cpu time :    44.0 secs   av.it.:  10.7
      thresh= 4.000E-06 alpha_mix =  0.700 |ddv_scf|^2 =  5.302E-11

      iter #   4 total cpu time :    44.7 secs   av.it.:  10.7
      thresh= 7.282E-07 alpha_mix =  0.700 |ddv_scf|^2 =  4.352E-13

     End of self-consistent calculation

     Convergence has been achieved 


     Representation #  4 modes #   5  6

     Self-consistent Calculation

      iter #   1 total cpu time :    45.4 secs   av.it.:   5.1
      thresh= 1.000E-02 alpha_mix =  0.700 |ddv_scf|^2 =  1.383E-07

      iter #   2 total cpu time :    46.2 secs   av.it.:  11.1
      thresh= 3.719E-05 alpha_mix =  0.700 |ddv_scf|^2 =  1.109E-08

      iter #   3 total cpu time :    47.0 secs   av.it.:  10.9
      thresh= 1.053E-05 alpha_mix =  0.700 |ddv_scf|^2 =  2.921E-10

      iter #   4 total cpu time :    47.7 secs   av.it.:   9.9
      thresh= 1.709E-06 alpha_mix =  0.700 |ddv_scf|^2 =  5.211E-13

     End of self-consistent calculation

     Convergence has been achieved 

     Number of q in the star =    4
     List of q in the star:
          1   0.500000000  -0.500000000   0.500000000
          2   0.500000000   0.500000000   0.500000000
          3  -0.500000000   0.500000000   0.500000000
          4   0.500000000   0.500000000  -0.500000000

     Diagonalizing the dynamical matrix

     q = (    0.500000000  -0.500000000   0.500000000 ) 

 **************************************************************************
     freq (    1) =       3.237770 [THz] =     108.000371 [cm-1]
     freq (    2) =       3.237770 [THz] =     108.000371 [cm-1]
     freq (    3) =      11.145232 [THz] =     371.764912 [cm-1]
     freq (    4) =      12.202039 [THz] =     407.016205 [cm-1]
     freq (    5) =      14.494427 [THz] =     483.482028 [cm-1]
     freq (    6) =      14.494427 [THz] =     483.482028 [cm-1]
 **************************************************************************

     Calculation of q =    0.0000000   0.5000000   0.0000000

   Info: using nr1, nr2, nr3 values from input

   Info: using nr1, nr2, nr3 values from input

     Parallelization info
     --------------------
     sticks:   dense  smooth     PW     G-vecs:    dense   smooth      PW
     Min         217     108     37                 4240     1495     309
     Max         219     109     38                 4241     1498     312
     Sum         871     433    151                16961     5985    1243



     bravais-lattice index     =            2
     lattice parameter (alat)  =      10.2920  a.u.
     unit-cell volume          =     272.5457 (a.u.)^3
     number of atoms/cell      =            2
     number of atomic types    =            1
     number of electrons       =         8.00
     number of Kohn-Sham states=            4
     kinetic-energy cutoff     =      30.0000  Ry
     charge density cutoff     =     240.0000  Ry
     Exchange-correlation      = SLA  PW   PBE  PBE ( 1  4  3  4 0 0)

     celldm(1)=  10.292000  celldm(2)=   0.000000  celldm(3)=   0.000000
     celldm(4)=   0.000000  celldm(5)=   0.000000  celldm(6)=   0.000000

     crystal axes: (cart. coord. in units of alat)
               a(1) = (  -0.500000   0.000000   0.500000 )  
               a(2) = (   0.000000   0.500000   0.500000 )  
               a(3) = (  -0.500000   0.500000   0.000000 )  

     reciprocal axes: (cart. coord. in units 2 pi/alat)
               b(1) = ( -1.000000 -1.000000  1.000000 )  
               b(2) = (  1.000000  1.000000  1.000000 )  
               b(3) = ( -1.000000  1.000000 -1.000000 )  


     PseudoPot. # 1 for Si read from file:
     /home/s1333534/quantum_espresso/qe-6.1/pseudo/si_pbe_v1.uspp.F.UPF.txt
     MD5 check sum: a056efeee980c13900f22a371efd63c1
     Pseudo is Ultrasoft + core correction, Zval =  4.0
     Generated by new atomic code, or converted to UPF format
     Using radial grid of  899 points,  6 beta functions with: 
                l(1) =   0
                l(2) =   0
                l(3) =   1
                l(4) =   1
                l(5) =   2
                l(6) =   2
     Q(r) pseudized with  8 coefficients,  rinner =    0.900   0.900   0.900
                                                       0.900   0.900

     atomic species   valence    mass     pseudopotential
        Si             4.00    28.08600     Si( 1.00)

     48 Sym. Ops., with inversion, found



   Cartesian axes

     site n.     atom                  positions (alat units)
         1           Si  tau(   1) = (   0.0000000   0.0000000   0.0000000  )
         2           Si  tau(   2) = (   0.2500000   0.2500000   0.2500000  )

     number of k points=    80
                       cart. coord. in units 2pi/alat
        k(    1) = (  -0.1250000   0.1250000   0.1250000), wk =   0.0312500
        k(    2) = (  -0.1250000   0.6250000   0.1250000), wk =   0.0000000
        k(    3) = (  -0.3750000   0.3750000  -0.1250000), wk =   0.0625000
        k(    4) = (  -0.3750000   0.8750000  -0.1250000), wk =   0.0000000
        k(    5) = (   0.3750000  -0.3750000   0.6250000), wk =   0.0625000
        k(    6) = (   0.3750000   0.1250000   0.6250000), wk =   0.0000000
        k(    7) = (   0.1250000  -0.1250000   0.3750000), wk =   0.0625000
        k(    8) = (   0.1250000   0.3750000   0.3750000), wk =   0.0000000
        k(    9) = (  -0.1250000   0.6250000   0.1250000), wk =   0.0312500
        k(   10) = (  -0.1250000   1.1250000   0.1250000), wk =   0.0000000
        k(   11) = (   0.6250000  -0.1250000   0.8750000), wk =   0.0625000
        k(   12) = (   0.6250000   0.3750000   0.8750000), wk =   0.0000000
        k(   13) = (   0.3750000   0.1250000   0.6250000), wk =   0.0625000
        k(   14) = (   0.3750000   0.6250000   0.6250000), wk =   0.0000000
        k(   15) = (  -0.1250000  -0.8750000   0.1250000), wk =   0.0312500
        k(   16) = (  -0.1250000  -0.3750000   0.1250000), wk =   0.0000000
        k(   17) = (  -0.3750000   0.3750000   0.3750000), wk =   0.0312500
        k(   18) = (  -0.3750000   0.8750000   0.3750000), wk =   0.0000000
        k(   19) = (   0.3750000  -0.3750000   1.1250000), wk =   0.0625000
        k(   20) = (   0.3750000   0.1250000   1.1250000), wk =   0.0000000
        k(   21) = (  -0.1250000  -0.1250000   0.1250000), wk =   0.0312500
        k(   22) = (  -0.1250000   0.3750000   0.1250000), wk =   0.0000000
        k(   23) = (   0.1250000  -0.3750000   0.3750000), wk =   0.0625000
        k(   24) = (   0.1250000   0.1250000   0.3750000), wk =   0.0000000
        k(   25) = (   0.3750000  -0.1250000   0.3750000), wk =   0.0312500
        k(   26) = (   0.3750000   0.3750000   0.3750000), wk =   0.0000000
        k(   27) = (   0.3750000   0.1250000   0.3750000), wk =   0.0312500
        k(   28) = (   0.3750000   0.6250000   0.3750000), wk =   0.0000000
        k(   29) = (  -0.6250000   0.3750000  -0.3750000), wk =   0.0625000
        k(   30) = (  -0.6250000   0.8750000  -0.3750000), wk =   0.0000000
        k(   31) = (  -0.3750000   0.6250000  -0.3750000), wk =   0.0312500
        k(   32) = (  -0.3750000   1.1250000  -0.3750000), wk =   0.0000000
        k(   33) = (  -0.3750000  -0.6250000  -0.3750000), wk =   0.0312500
        k(   34) = (  -0.3750000  -0.1250000  -0.3750000), wk =   0.0000000
        k(   35) = (  -0.3750000   0.1250000  -0.1250000), wk =   0.0625000
        k(   36) = (  -0.3750000   0.6250000  -0.1250000), wk =   0.0000000
        k(   37) = (  -0.1250000   0.3750000  -0.1250000), wk =   0.0312500
        k(   38) = (  -0.1250000   0.8750000  -0.1250000), wk =   0.0000000
        k(   39) = (  -0.1250000  -0.3750000  -0.1250000), wk =   0.0312500
        k(   40) = (  -0.1250000   0.1250000  -0.1250000), wk =   0.0000000
        k(   41) = (  -0.1250000  -0.6250000   0.1250000), wk =   0.0312500
        k(   42) = (  -0.1250000  -0.1250000   0.1250000), wk =   0.0000000
        k(   43) = (   0.6250000  -0.1250000  -0.1250000), wk =   0.0625000
        k(   44) = (   0.6250000   0.3750000  -0.1250000), wk =   0.0000000
        k(   45) = (   0.6250000   0.1250000   0.1250000), wk =   0.0625000
        k(   46) = (   0.6250000   0.6250000   0.1250000), wk =   0.0000000
        k(   47) = (  -0.8750000   0.1250000  -0.6250000), wk =   0.0625000
        k(   48) = (  -0.8750000   0.6250000  -0.6250000), wk =   0.0000000
        k(   49) = (  -0.1250000   0.6250000  -0.8750000), wk =   0.0625000
        k(   50) = (  -0.1250000   1.1250000  -0.8750000), wk =   0.0000000
        k(   51) = (  -0.1250000   0.8750000  -0.6250000), wk =   0.0625000
        k(   52) = (  -0.1250000   1.3750000  -0.6250000), wk =   0.0000000
        k(   53) = (  -0.1250000  -0.8750000  -0.6250000), wk =   0.0625000
        k(   54) = (  -0.1250000  -0.3750000  -0.6250000), wk =   0.0000000
        k(   55) = (   0.8750000  -0.6250000   0.1250000), wk =   0.0625000
        k(   56) = (   0.8750000  -0.1250000   0.1250000), wk =   0.0000000
        k(   57) = (  -0.6250000  -0.1250000  -0.3750000), wk =   0.0625000
        k(   58) = (  -0.6250000   0.3750000  -0.3750000), wk =   0.0000000
        k(   59) = (   0.1250000   0.3750000  -0.6250000), wk =   0.0625000
        k(   60) = (   0.1250000   0.8750000  -0.6250000), wk =   0.0000000
        k(   61) = (   0.1250000   0.6250000  -0.3750000), wk =   0.0625000
        k(   62) = (   0.1250000   1.1250000  -0.3750000), wk =   0.0000000
        k(   63) = (   0.1250000  -0.6250000  -0.3750000), wk =   0.0625000
        k(   64) = (   0.1250000  -0.1250000  -0.3750000), wk =   0.0000000
        k(   65) = (   0.6250000  -0.3750000  -0.1250000), wk =   0.0625000
        k(   66) = (   0.6250000   0.1250000  -0.1250000), wk =   0.0000000
        k(   67) = (  -0.1250000   0.8750000   0.1250000), wk =   0.0312500
        k(   68) = (  -0.1250000   1.3750000   0.1250000), wk =   0.0000000
        k(   69) = (  -0.8750000  -0.1250000  -0.1250000), wk =   0.0625000
        k(   70) = (  -0.8750000   0.3750000  -0.1250000), wk =   0.0000000
        k(   71) = (  -0.8750000   0.1250000   0.1250000), wk =   0.0625000
        k(   72) = (  -0.8750000   0.6250000   0.1250000), wk =   0.0000000
        k(   73) = (  -0.3750000  -0.3750000   0.3750000), wk =   0.0312500
        k(   74) = (  -0.3750000   0.1250000   0.3750000), wk =   0.0000000
        k(   75) = (  -1.1250000   0.3750000  -0.3750000), wk =   0.0625000
        k(   76) = (  -1.1250000   0.8750000  -0.3750000), wk =   0.0000000
        k(   77) = (  -0.3750000   1.1250000  -0.3750000), wk =   0.0312500
        k(   78) = (  -0.3750000   1.6250000  -0.3750000), wk =   0.0000000
        k(   79) = (  -0.3750000  -1.1250000  -0.3750000), wk =   0.0312500
        k(   80) = (  -0.3750000  -0.6250000  -0.3750000), wk =   0.0000000

     Dense  grid:    16961 G-vectors     FFT dimensions: (  36,  36,  36)

     Smooth grid:     5985 G-vectors     FFT dimensions: (  25,  25,  25)

     Estimated max dynamical RAM per process >       1.51MB

     Estimated total allocated dynamical RAM >       6.03MB

     The potential is recalculated from file :
     ./_ph0/silicon.10.292.save/charge-density.dat

     Starting wfc are    8 atomic wfcs

     Band Structure Calculation
     Davidson diagonalization with overlap

     ethr =  1.25E-10,  avg # of iterations = 12.2

     total cpu time spent up to now is        3.5 secs

     End of band structure calculation

          k =-0.1250 0.1250 0.1250 (   746 PWs)   bands (ev):

    -5.5935   4.5082   5.8173   5.8173

          k =-0.1250 0.6250 0.1250 (   760 PWs)   bands (ev):

    -4.0182   1.1728   3.4568   3.9146

          k =-0.3750 0.3750-0.1250 (   757 PWs)   bands (ev):

    -4.5560   1.4965   3.8117   5.3342

          k =-0.3750 0.8750-0.1250 (   751 PWs)   bands (ev):

    -2.3583  -0.8057   2.0829   3.1726

          k = 0.3750-0.3750 0.6250 (   759 PWs)   bands (ev):

    -3.4006  -0.6066   3.8380   4.5535

          k = 0.3750 0.1250 0.6250 (   756 PWs)   bands (ev):

    -3.5970   0.2843   2.8103   4.1918

          k = 0.1250-0.1250 0.3750 (   765 PWs)   bands (ev):

    -5.0603   2.8869   4.7973   4.8682

          k = 0.1250 0.3750 0.3750 (   757 PWs)   bands (ev):

    -4.5560   1.4965   3.8117   5.3342

          k =-0.1250 0.6250 0.1250 (   760 PWs)   bands (ev):

    -4.0182   1.1728   3.4568   3.9146

          k =-0.1250 1.1250 0.1250 (   757 PWs)   bands (ev):

    -2.5307  -0.7058   2.7009   3.4434

          k = 0.6250-0.1250 0.8750 (   751 PWs)   bands (ev):

    -2.3583  -0.8057   2.0829   3.1726

          k = 0.6250 0.3750 0.8750 (   756 PWs)   bands (ev):

    -3.5970   0.2843   2.8103   4.1918

          k = 0.3750 0.1250 0.6250 (   756 PWs)   bands (ev):

    -3.5970   0.2843   2.8103   4.1918

          k = 0.3750 0.6250 0.6250 (   759 PWs)   bands (ev):

    -3.4006  -0.6066   3.8380   4.5535

          k =-0.1250-0.8750 0.1250 (   757 PWs)   bands (ev):

    -2.5307  -0.7058   2.7009   3.4434

          k =-0.1250-0.3750 0.1250 (   765 PWs)   bands (ev):

    -5.0603   2.8869   4.7973   4.8682

          k =-0.3750 0.3750 0.3750 (   763 PWs)   bands (ev):

    -4.1173   0.1887   5.0240   5.0240

          k =-0.3750 0.8750 0.3750 (   757 PWs)   bands (ev):

    -2.9001  -0.5094   2.1464   4.2325

          k = 0.3750-0.3750 1.1250 (   757 PWs)   bands (ev):

    -2.9001  -0.5094   2.1464   4.2325

          k = 0.3750 0.1250 1.1250 (   751 PWs)   bands (ev):

    -2.3583  -0.8057   2.0829   3.1726

          k =-0.1250-0.1250 0.1250 (   746 PWs)   bands (ev):

    -5.5935   4.5082   5.8173   5.8173

          k =-0.1250 0.3750 0.1250 (   765 PWs)   bands (ev):

    -5.0603   2.8869   4.7973   4.8682

          k = 0.1250-0.3750 0.3750 (   757 PWs)   bands (ev):

    -4.5560   1.4965   3.8117   5.3342

          k = 0.1250 0.1250 0.3750 (   765 PWs)   bands (ev):

    -5.0603   2.8869   4.7973   4.8682

          k = 0.3750-0.1250 0.3750 (   757 PWs)   bands (ev):

    -4.5560   1.4965   3.8117   5.3342

          k = 0.3750 0.3750 0.3750 (   763 PWs)   bands (ev):

    -4.1173   0.1887   5.0240   5.0240

          k = 0.3750 0.1250 0.3750 (   757 PWs)   bands (ev):

    -4.5560   1.4965   3.8117   5.3342

          k = 0.3750 0.6250 0.3750 (   759 PWs)   bands (ev):

    -3.4006  -0.6066   3.8380   4.5535

          k =-0.6250 0.3750-0.3750 (   759 PWs)   bands (ev):

    -3.4006  -0.6066   3.8380   4.5535

          k =-0.6250 0.8750-0.3750 (   756 PWs)   bands (ev):

    -3.5970   0.2843   2.8103   4.1918

          k =-0.3750 0.6250-0.3750 (   759 PWs)   bands (ev):

    -3.4006  -0.6066   3.8380   4.5535

          k =-0.3750 1.1250-0.3750 (   757 PWs)   bands (ev):

    -2.9001  -0.5094   2.1464   4.2325

          k =-0.3750-0.6250-0.3750 (   759 PWs)   bands (ev):

    -3.4006  -0.6066   3.8380   4.5535

          k =-0.3750-0.1250-0.3750 (   757 PWs)   bands (ev):

    -4.5560   1.4965   3.8117   5.3342

          k =-0.3750 0.1250-0.1250 (   765 PWs)   bands (ev):

    -5.0603   2.8869   4.7973   4.8682

          k =-0.3750 0.6250-0.1250 (   756 PWs)   bands (ev):

    -3.5970   0.2843   2.8103   4.1918

          k =-0.1250 0.3750-0.1250 (   765 PWs)   bands (ev):

    -5.0603   2.8869   4.7973   4.8682

          k =-0.1250 0.8750-0.1250 (   757 PWs)   bands (ev):

    -2.5307  -0.7058   2.7009   3.4434

          k =-0.1250-0.3750-0.1250 (   765 PWs)   bands (ev):

    -5.0603   2.8869   4.7973   4.8682

          k =-0.1250 0.1250-0.1250 (   746 PWs)   bands (ev):

    -5.5935   4.5082   5.8173   5.8173

          k =-0.1250-0.6250 0.1250 (   760 PWs)   bands (ev):

    -4.0182   1.1728   3.4568   3.9146

          k =-0.1250-0.1250 0.1250 (   746 PWs)   bands (ev):

    -5.5935   4.5082   5.8173   5.8173

          k = 0.6250-0.1250-0.1250 (   760 PWs)   bands (ev):

    -4.0182   1.1728   3.4568   3.9146

          k = 0.6250 0.3750-0.1250 (   756 PWs)   bands (ev):

    -3.5970   0.2843   2.8103   4.1918

          k = 0.6250 0.1250 0.1250 (   760 PWs)   bands (ev):

    -4.0182   1.1728   3.4568   3.9146

          k = 0.6250 0.6250 0.1250 (   757 PWs)   bands (ev):

    -2.9001  -0.5094   2.1464   4.2325

          k =-0.8750 0.1250-0.6250 (   751 PWs)   bands (ev):

    -2.3583  -0.8057   2.0829   3.1726

          k =-0.8750 0.6250-0.6250 (   757 PWs)   bands (ev):

    -4.5560   1.4965   3.8117   5.3342

          k =-0.1250 0.6250-0.8750 (   751 PWs)   bands (ev):

    -2.3583  -0.8057   2.0829   3.1726

          k =-0.1250 1.1250-0.8750 (   757 PWs)   bands (ev):

    -2.5307  -0.7058   2.7009   3.4434

          k =-0.1250 0.8750-0.6250 (   751 PWs)   bands (ev):

    -2.3583  -0.8057   2.0829   3.1726

          k =-0.1250 1.3750-0.6250 (   757 PWs)   bands (ev):

    -2.9001  -0.5094   2.1464   4.2325

          k =-0.1250-0.8750-0.6250 (   751 PWs)   bands (ev):

    -2.3583  -0.8057   2.0829   3.1726

          k =-0.1250-0.3750-0.6250 (   756 PWs)   bands (ev):

    -3.5970   0.2843   2.8103   4.1918

          k = 0.8750-0.6250 0.1250 (   751 PWs)   bands (ev):

    -2.3583  -0.8057   2.0829   3.1726

          k = 0.8750-0.1250 0.1250 (   757 PWs)   bands (ev):

    -2.5307  -0.7058   2.7009   3.4434

          k =-0.6250-0.1250-0.3750 (   756 PWs)   bands (ev):

    -3.5970   0.2843   2.8103   4.1918

          k =-0.6250 0.3750-0.3750 (   759 PWs)   bands (ev):

    -3.4006  -0.6066   3.8380   4.5535

          k = 0.1250 0.3750-0.6250 (   756 PWs)   bands (ev):

    -3.5970   0.2843   2.8103   4.1918

          k = 0.1250 0.8750-0.6250 (   751 PWs)   bands (ev):

    -2.3583  -0.8057   2.0829   3.1726

          k = 0.1250 0.6250-0.3750 (   756 PWs)   bands (ev):

    -3.5970   0.2843   2.8103   4.1918

          k = 0.1250 1.1250-0.3750 (   751 PWs)   bands (ev):

    -2.3583  -0.8057   2.0829   3.1726

          k = 0.1250-0.6250-0.3750 (   756 PWs)   bands (ev):

    -3.5970   0.2843   2.8103   4.1918

          k = 0.1250-0.1250-0.3750 (   765 PWs)   bands (ev):

    -5.0603   2.8869   4.7973   4.8682

          k = 0.6250-0.3750-0.1250 (   756 PWs)   bands (ev):

    -3.5970   0.2843   2.8103   4.1918

          k = 0.6250 0.1250-0.1250 (   760 PWs)   bands (ev):

    -4.0182   1.1728   3.4568   3.9146

          k =-0.1250 0.8750 0.1250 (   757 PWs)   bands (ev):

    -2.5307  -0.7058   2.7009   3.4434

          k =-0.1250 1.3750 0.1250 (   760 PWs)   bands (ev):

    -4.0182   1.1728   3.4568   3.9146

          k =-0.8750-0.1250-0.1250 (   757 PWs)   bands (ev):

    -2.5307  -0.7058   2.7009   3.4434

          k =-0.8750 0.3750-0.1250 (   751 PWs)   bands (ev):

    -2.3583  -0.8057   2.0829   3.1726

          k =-0.8750 0.1250 0.1250 (   757 PWs)   bands (ev):

    -2.5307  -0.7058   2.7009   3.4434

          k =-0.8750 0.6250 0.1250 (   751 PWs)   bands (ev):

    -2.3583  -0.8057   2.0829   3.1726

          k =-0.3750-0.3750 0.3750 (   763 PWs)   bands (ev):

    -4.1173   0.1887   5.0240   5.0240

          k =-0.3750 0.1250 0.3750 (   757 PWs)   bands (ev):

    -4.5560   1.4965   3.8117   5.3342

          k =-1.1250 0.3750-0.3750 (   757 PWs)   bands (ev):

    -2.9001  -0.5094   2.1464   4.2325

          k =-1.1250 0.8750-0.3750 (   760 PWs)   bands (ev):

    -4.0182   1.1728   3.4568   3.9146

          k =-0.3750 1.1250-0.3750 (   757 PWs)   bands (ev):

    -2.9001  -0.5094   2.1464   4.2325

          k =-0.3750 1.6250-0.3750 (   763 PWs)   bands (ev):

    -4.1173   0.1887   5.0240   5.0240

          k =-0.3750-1.1250-0.3750 (   757 PWs)   bands (ev):

    -2.9001  -0.5094   2.1464   4.2325

          k =-0.3750-0.6250-0.3750 (   759 PWs)   bands (ev):

    -3.4006  -0.6066   3.8380   4.5535

     highest occupied level (ev):     5.8173

     Writing output data file silicon.10.292.save

                                                                                

     bravais-lattice index     =            2
     lattice parameter (alat)  =      10.2920  a.u.
     unit-cell volume          =     272.5457 (a.u.)^3
     number of atoms/cell      =            2
     number of atomic types    =            1
     kinetic-energy cut-off    =      30.0000  Ry
     charge density cut-off    =     240.0000  Ry
     convergence threshold     =      1.0E-12
     beta                      =       0.7000
     number of iterations used =            4
     Exchange-correlation      = SLA  PW   PBE  PBE ( 1  4  3  4 0 0)


     celldm(1)=   10.29200  celldm(2)=    0.00000  celldm(3)=    0.00000
     celldm(4)=    0.00000  celldm(5)=    0.00000  celldm(6)=    0.00000

     crystal axes: (cart. coord. in units of alat)
               a(1) = ( -0.5000  0.0000  0.5000 )  
               a(2) = (  0.0000  0.5000  0.5000 )  
               a(3) = ( -0.5000  0.5000  0.0000 )  

     reciprocal axes: (cart. coord. in units 2 pi/alat)
               b(1) = ( -1.0000 -1.0000  1.0000 )  
               b(2) = (  1.0000  1.0000  1.0000 )  
               b(3) = ( -1.0000  1.0000 -1.0000 )  


     Atoms inside the unit cell: 

     Cartesian axes

     site n.  atom      mass           positions (alat units)
        1     Si  28.0860   tau(    1) = (    0.00000    0.00000    0.00000  )
        2     Si  28.0860   tau(    2) = (    0.25000    0.25000    0.25000  )

     Computing dynamical matrix for 
                    q = (   0.0000000   0.5000000   0.0000000 )

      8 Sym.Ops. (no q -> -q+G )


     G cutoff =  643.9484  (   4241 G-vectors)     FFT grid: ( 36, 36, 36)
     G cutoff =  321.9742  (   1496 G-vectors)  smooth grid: ( 25, 25, 25)
     number of k points=    80

     PseudoPot. # 1 for Si read from file:
     /home/s1333534/quantum_espresso/qe-6.1/pseudo/si_pbe_v1.uspp.F.UPF.txt
     MD5 check sum: a056efeee980c13900f22a371efd63c1
     Pseudo is Ultrasoft + core correction, Zval =  4.0
     Generated by new atomic code, or converted to UPF format
     Using radial grid of  899 points,  6 beta functions with: 
                l(1) =   0
                l(2) =   0
                l(3) =   1
                l(4) =   1
                l(5) =   2
                l(6) =   2
     Q(r) pseudized with  8 coefficients,  rinner =    0.900   0.900   0.900
                                                       0.900   0.900

     Mode symmetry, C_4v (4mm)  point group:


     Atomic displacements:
     There are   4 irreducible representations

     Representation     1      1 modes -A_1  G_1 D_1  To be done

     Representation     2      1 modes -B_2  G_4 D_2'  To be done

     Representation     3      2 modes -E    G_5 D_5  To be done

     Representation     4      2 modes -E    G_5 D_5  To be done



     Alpha used in Ewald sum =   2.5000
     PHONON       :    37.36s CPU        50.14s WALL



     Representation #  1 mode #   1

     Self-consistent Calculation

      iter #   1 total cpu time :    50.5 secs   av.it.:   6.2
      thresh= 1.000E-02 alpha_mix =  0.700 |ddv_scf|^2 =  5.184E-04

      iter #   2 total cpu time :    50.9 secs   av.it.:   9.2
      thresh= 2.277E-03 alpha_mix =  0.700 |ddv_scf|^2 =  6.844E-03

      iter #   3 total cpu time :    51.3 secs   av.it.:   7.3
      thresh= 8.273E-03 alpha_mix =  0.700 |ddv_scf|^2 =  1.046E-08

      iter #   4 total cpu time :    51.8 secs   av.it.:  10.1
      thresh= 1.023E-05 alpha_mix =  0.700 |ddv_scf|^2 =  9.886E-10

      iter #   5 total cpu time :    52.3 secs   av.it.:   9.6
      thresh= 3.144E-06 alpha_mix =  0.700 |ddv_scf|^2 =  1.167E-10

      iter #   6 total cpu time :    52.7 secs   av.it.:   9.3
      thresh= 1.080E-06 alpha_mix =  0.700 |ddv_scf|^2 =  3.376E-13

     End of self-consistent calculation

     Convergence has been achieved 


     Representation #  2 mode #   2

     Self-consistent Calculation

      iter #   1 total cpu time :    53.2 secs   av.it.:   5.1
      thresh= 1.000E-02 alpha_mix =  0.700 |ddv_scf|^2 =  8.143E-07

      iter #   2 total cpu time :    53.6 secs   av.it.:  10.4
      thresh= 9.024E-05 alpha_mix =  0.700 |ddv_scf|^2 =  2.190E-07

      iter #   3 total cpu time :    54.1 secs   av.it.:   9.9
      thresh= 4.679E-05 alpha_mix =  0.700 |ddv_scf|^2 =  2.218E-09

      iter #   4 total cpu time :    54.5 secs   av.it.:  10.1
      thresh= 4.710E-06 alpha_mix =  0.700 |ddv_scf|^2 =  8.474E-11

      iter #   5 total cpu time :    55.0 secs   av.it.:  10.3
      thresh= 9.205E-07 alpha_mix =  0.700 |ddv_scf|^2 =  5.158E-13

     End of self-consistent calculation

     Convergence has been achieved 


     Representation #  3 modes #   3  4

     Self-consistent Calculation

      iter #   1 total cpu time :    55.7 secs   av.it.:   5.2
      thresh= 1.000E-02 alpha_mix =  0.700 |ddv_scf|^2 =  1.445E-07

      iter #   2 total cpu time :    56.6 secs   av.it.:  11.5
      thresh= 3.802E-05 alpha_mix =  0.700 |ddv_scf|^2 =  1.991E-08

      iter #   3 total cpu time :    57.5 secs   av.it.:  11.1
      thresh= 1.411E-05 alpha_mix =  0.700 |ddv_scf|^2 =  3.353E-10

      iter #   4 total cpu time :    58.3 secs   av.it.:  10.7
      thresh= 1.831E-06 alpha_mix =  0.700 |ddv_scf|^2 =  7.781E-13

     End of self-consistent calculation

     Convergence has been achieved 


     Representation #  4 modes #   5  6

     Self-consistent Calculation

      iter #   1 total cpu time :    59.1 secs   av.it.:   5.3
      thresh= 1.000E-02 alpha_mix =  0.700 |ddv_scf|^2 =  1.325E-07

      iter #   2 total cpu time :    60.0 secs   av.it.:  11.4
      thresh= 3.640E-05 alpha_mix =  0.700 |ddv_scf|^2 =  1.776E-08

      iter #   3 total cpu time :    60.9 secs   av.it.:  11.2
      thresh= 1.333E-05 alpha_mix =  0.700 |ddv_scf|^2 =  3.437E-10

      iter #   4 total cpu time :    61.8 secs   av.it.:  11.0
      thresh= 1.854E-06 alpha_mix =  0.700 |ddv_scf|^2 =  8.396E-13

     End of self-consistent calculation

     Convergence has been achieved 

     Number of q in the star =    6
     List of q in the star:
          1   0.000000000   0.500000000   0.000000000
          2   0.000000000  -0.500000000   0.000000000
          3   0.500000000   0.000000000   0.000000000
          4   0.000000000   0.000000000   0.500000000
          5   0.000000000   0.000000000  -0.500000000
          6  -0.500000000   0.000000000   0.000000000

     Diagonalizing the dynamical matrix

     q = (    0.000000000   0.500000000   0.000000000 ) 

 **************************************************************************
     freq (    1) =       3.741803 [THz] =     124.813126 [cm-1]
     freq (    2) =       3.741803 [THz] =     124.813126 [cm-1]
     freq (    3) =       7.150251 [THz] =     238.506696 [cm-1]
     freq (    4) =      14.034727 [THz] =     468.148089 [cm-1]
     freq (    5) =      14.034727 [THz] =     468.148089 [cm-1]
     freq (    6) =      14.627907 [THz] =     487.934444 [cm-1]
 **************************************************************************

     Mode symmetry, C_4v (4mm)  point group:

     freq (  1 -  2) =        124.8  [cm-1]   --> E    G_5 D_5       
     freq (  3 -  3) =        238.5  [cm-1]   --> A_1  G_1 D_1       
     freq (  4 -  5) =        468.1  [cm-1]   --> E    G_5 D_5       
     freq (  6 -  6) =        487.9  [cm-1]   --> B_2  G_4 D_2'      

     Calculation of q =    0.7500000  -0.2500000   0.7500000

   Info: using nr1, nr2, nr3 values from input

   Info: using nr1, nr2, nr3 values from input

     Parallelization info
     --------------------
     sticks:   dense  smooth     PW     G-vecs:    dense   smooth      PW
     Min         217     108     40                 4240     1495     362
     Max         219     109     41                 4241     1498     366
     Sum         871     433    163                16961     5985    1459



     bravais-lattice index     =            2
     lattice parameter (alat)  =      10.2920  a.u.
     unit-cell volume          =     272.5457 (a.u.)^3
     number of atoms/cell      =            2
     number of atomic types    =            1
     number of electrons       =         8.00
     number of Kohn-Sham states=            4
     kinetic-energy cutoff     =      30.0000  Ry
     charge density cutoff     =     240.0000  Ry
     Exchange-correlation      = SLA  PW   PBE  PBE ( 1  4  3  4 0 0)

     celldm(1)=  10.292000  celldm(2)=   0.000000  celldm(3)=   0.000000
     celldm(4)=   0.000000  celldm(5)=   0.000000  celldm(6)=   0.000000

     crystal axes: (cart. coord. in units of alat)
               a(1) = (  -0.500000   0.000000   0.500000 )  
               a(2) = (   0.000000   0.500000   0.500000 )  
               a(3) = (  -0.500000   0.500000   0.000000 )  

     reciprocal axes: (cart. coord. in units 2 pi/alat)
               b(1) = ( -1.000000 -1.000000  1.000000 )  
               b(2) = (  1.000000  1.000000  1.000000 )  
               b(3) = ( -1.000000  1.000000 -1.000000 )  


     PseudoPot. # 1 for Si read from file:
     /home/s1333534/quantum_espresso/qe-6.1/pseudo/si_pbe_v1.uspp.F.UPF.txt
     MD5 check sum: a056efeee980c13900f22a371efd63c1
     Pseudo is Ultrasoft + core correction, Zval =  4.0
     Generated by new atomic code, or converted to UPF format
     Using radial grid of  899 points,  6 beta functions with: 
                l(1) =   0
                l(2) =   0
                l(3) =   1
                l(4) =   1
                l(5) =   2
                l(6) =   2
     Q(r) pseudized with  8 coefficients,  rinner =    0.900   0.900   0.900
                                                       0.900   0.900

     atomic species   valence    mass     pseudopotential
        Si             4.00    28.08600     Si( 1.00)

     48 Sym. Ops., with inversion, found



   Cartesian axes

     site n.     atom                  positions (alat units)
         1           Si  tau(   1) = (   0.0000000   0.0000000   0.0000000  )
         2           Si  tau(   2) = (   0.2500000   0.2500000   0.2500000  )

     number of k points=   288

     Number of k-points >= 100: set verbosity='high' to print them.

     Dense  grid:    16961 G-vectors     FFT dimensions: (  36,  36,  36)

     Smooth grid:     5985 G-vectors     FFT dimensions: (  25,  25,  25)

     Estimated max dynamical RAM per process >       1.51MB

     Estimated total allocated dynamical RAM >       6.03MB

     The potential is recalculated from file :
     ./_ph0/silicon.10.292.save/charge-density.dat

     Starting wfc are    8 atomic wfcs

     Band Structure Calculation
     Davidson diagonalization with overlap

     ethr =  1.25E-10,  avg # of iterations = 12.1

     total cpu time spent up to now is        6.7 secs

     End of band structure calculation

     Number of k-points >= 100: set verbosity='high' to print the bands.

     highest occupied level (ev):     5.8173

     Writing output data file silicon.10.292.save

                                                                                

     bravais-lattice index     =            2
     lattice parameter (alat)  =      10.2920  a.u.
     unit-cell volume          =     272.5457 (a.u.)^3
     number of atoms/cell      =            2
     number of atomic types    =            1
     kinetic-energy cut-off    =      30.0000  Ry
     charge density cut-off    =     240.0000  Ry
     convergence threshold     =      1.0E-12
     beta                      =       0.7000
     number of iterations used =            4
     Exchange-correlation      = SLA  PW   PBE  PBE ( 1  4  3  4 0 0)


     celldm(1)=   10.29200  celldm(2)=    0.00000  celldm(3)=    0.00000
     celldm(4)=    0.00000  celldm(5)=    0.00000  celldm(6)=    0.00000

     crystal axes: (cart. coord. in units of alat)
               a(1) = ( -0.5000  0.0000  0.5000 )  
               a(2) = (  0.0000  0.5000  0.5000 )  
               a(3) = ( -0.5000  0.5000  0.0000 )  

     reciprocal axes: (cart. coord. in units 2 pi/alat)
               b(1) = ( -1.0000 -1.0000  1.0000 )  
               b(2) = (  1.0000  1.0000  1.0000 )  
               b(3) = ( -1.0000  1.0000 -1.0000 )  


     Atoms inside the unit cell: 

     Cartesian axes

     site n.  atom      mass           positions (alat units)
        1     Si  28.0860   tau(    1) = (    0.00000    0.00000    0.00000  )
        2     Si  28.0860   tau(    2) = (    0.25000    0.25000    0.25000  )

     Computing dynamical matrix for 
                    q = (   0.7500000  -0.2500000   0.7500000 )

      2 Sym.Ops. (no q -> -q+G )


     G cutoff =  643.9484  (   4241 G-vectors)     FFT grid: ( 36, 36, 36)
     G cutoff =  321.9742  (   1497 G-vectors)  smooth grid: ( 25, 25, 25)
     number of k points=   288

     PseudoPot. # 1 for Si read from file:
     /home/s1333534/quantum_espresso/qe-6.1/pseudo/si_pbe_v1.uspp.F.UPF.txt
     MD5 check sum: a056efeee980c13900f22a371efd63c1
     Pseudo is Ultrasoft + core correction, Zval =  4.0
     Generated by new atomic code, or converted to UPF format
     Using radial grid of  899 points,  6 beta functions with: 
                l(1) =   0
                l(2) =   0
                l(3) =   1
                l(4) =   1
                l(5) =   2
                l(6) =   2
     Q(r) pseudized with  8 coefficients,  rinner =    0.900   0.900   0.900
                                                       0.900   0.900

     Mode symmetry, C_s (m)     point group:


     Atomic displacements:
     There are   6 irreducible representations

     Representation     1      1 modes -A'  To be done

     Representation     2      1 modes -A'  To be done

     Representation     3      1 modes -A'  To be done

     Representation     4      1 modes -A'  To be done

     Representation     5      1 modes -A''  To be done

     Representation     6      1 modes -A''  To be done



     Alpha used in Ewald sum =   2.5000
     PHONON       :  0m51.13s CPU     1m 7.09s WALL



     Representation #  1 mode #   1

     Self-consistent Calculation

      iter #   1 total cpu time :    68.0 secs   av.it.:   5.7
      thresh= 1.000E-02 alpha_mix =  0.700 |ddv_scf|^2 =  1.056E-05

      iter #   2 total cpu time :    69.3 secs   av.it.:  10.6
      thresh= 3.250E-04 alpha_mix =  0.700 |ddv_scf|^2 =  2.803E-05

      iter #   3 total cpu time :    70.5 secs   av.it.:   9.2
      thresh= 5.295E-04 alpha_mix =  0.700 |ddv_scf|^2 =  1.884E-07

      iter #   4 total cpu time :    71.8 secs   av.it.:   9.9
      thresh= 4.341E-05 alpha_mix =  0.700 |ddv_scf|^2 =  3.681E-09

      iter #   5 total cpu time :    73.1 secs   av.it.:  10.4
      thresh= 6.067E-06 alpha_mix =  0.700 |ddv_scf|^2 =  6.396E-10

      iter #   6 total cpu time :    74.4 secs   av.it.:  10.3
      thresh= 2.529E-06 alpha_mix =  0.700 |ddv_scf|^2 =  9.313E-12

      iter #   7 total cpu time :    75.7 secs   av.it.:  10.6
      thresh= 3.052E-07 alpha_mix =  0.700 |ddv_scf|^2 =  3.449E-13

     End of self-consistent calculation

     Convergence has been achieved 


     Representation #  2 mode #   2

     Self-consistent Calculation

      iter #   1 total cpu time :    76.7 secs   av.it.:   5.9
      thresh= 1.000E-02 alpha_mix =  0.700 |ddv_scf|^2 =  1.895E-05

      iter #   2 total cpu time :    78.1 secs   av.it.:  10.4
      thresh= 4.353E-04 alpha_mix =  0.700 |ddv_scf|^2 =  5.470E-05

      iter #   3 total cpu time :    79.4 secs   av.it.:   9.0
      thresh= 7.396E-04 alpha_mix =  0.700 |ddv_scf|^2 =  1.255E-07

      iter #   4 total cpu time :    80.7 secs   av.it.:  10.2
      thresh= 3.543E-05 alpha_mix =  0.700 |ddv_scf|^2 =  4.156E-09

      iter #   5 total cpu time :    82.0 secs   av.it.:  10.4
      thresh= 6.446E-06 alpha_mix =  0.700 |ddv_scf|^2 =  8.480E-10

      iter #   6 total cpu time :    83.3 secs   av.it.:  10.3
      thresh= 2.912E-06 alpha_mix =  0.700 |ddv_scf|^2 =  8.683E-12

      iter #   7 total cpu time :    84.6 secs   av.it.:  10.6
      thresh= 2.947E-07 alpha_mix =  0.700 |ddv_scf|^2 =  3.009E-13

     End of self-consistent calculation

     Convergence has been achieved 


     Representation #  3 mode #   3

     Self-consistent Calculation

      iter #   1 total cpu time :    85.6 secs   av.it.:   5.7
      thresh= 1.000E-02 alpha_mix =  0.700 |ddv_scf|^2 =  1.486E-05

      iter #   2 total cpu time :    86.9 secs   av.it.:  10.4
      thresh= 3.854E-04 alpha_mix =  0.700 |ddv_scf|^2 =  4.030E-05

      iter #   3 total cpu time :    88.1 secs   av.it.:   9.0
      thresh= 6.349E-04 alpha_mix =  0.700 |ddv_scf|^2 =  2.196E-07

      iter #   4 total cpu time :    89.4 secs   av.it.:   9.9
      thresh= 4.686E-05 alpha_mix =  0.700 |ddv_scf|^2 =  4.235E-09

      iter #   5 total cpu time :    91.0 secs   av.it.:  10.4
      thresh= 6.508E-06 alpha_mix =  0.700 |ddv_scf|^2 =  8.245E-10

      iter #   6 total cpu time :    92.3 secs   av.it.:  10.3
      thresh= 2.871E-06 alpha_mix =  0.700 |ddv_scf|^2 =  6.077E-12

      iter #   7 total cpu time :    93.5 secs   av.it.:  10.5
      thresh= 2.465E-07 alpha_mix =  0.700 |ddv_scf|^2 =  1.764E-13

     End of self-consistent calculation

     Convergence has been achieved 


     Representation #  4 mode #   4

     Self-consistent Calculation

      iter #   1 total cpu time :    94.5 secs   av.it.:   5.5
      thresh= 1.000E-02 alpha_mix =  0.700 |ddv_scf|^2 =  6.463E-06

      iter #   2 total cpu time :    95.9 secs   av.it.:  10.7
      thresh= 2.542E-04 alpha_mix =  0.700 |ddv_scf|^2 =  1.362E-05

      iter #   3 total cpu time :    97.1 secs   av.it.:   9.5
      thresh= 3.691E-04 alpha_mix =  0.700 |ddv_scf|^2 =  2.951E-07

      iter #   4 total cpu time :    98.3 secs   av.it.:   9.8
      thresh= 5.433E-05 alpha_mix =  0.700 |ddv_scf|^2 =  3.626E-09

      iter #   5 total cpu time :    99.9 secs   av.it.:  10.5
      thresh= 6.022E-06 alpha_mix =  0.700 |ddv_scf|^2 =  6.794E-10

      iter #   6 total cpu time :   101.1 secs   av.it.:  10.4
      thresh= 2.607E-06 alpha_mix =  0.700 |ddv_scf|^2 =  3.938E-12

      iter #   7 total cpu time :   102.4 secs   av.it.:  10.6
      thresh= 1.985E-07 alpha_mix =  0.700 |ddv_scf|^2 =  1.769E-13

     End of self-consistent calculation

     Convergence has been achieved 


     Representation #  5 mode #   5

     Self-consistent Calculation

      iter #   1 total cpu time :   103.4 secs   av.it.:   5.2
      thresh= 1.000E-02 alpha_mix =  0.700 |ddv_scf|^2 =  6.684E-07

      iter #   2 total cpu time :   104.8 secs   av.it.:  10.4
      thresh= 8.176E-05 alpha_mix =  0.700 |ddv_scf|^2 =  1.089E-07

      iter #   3 total cpu time :   106.0 secs   av.it.:  10.1
      thresh= 3.300E-05 alpha_mix =  0.700 |ddv_scf|^2 =  1.453E-09

      iter #   4 total cpu time :   107.3 secs   av.it.:   9.6
      thresh= 3.811E-06 alpha_mix =  0.700 |ddv_scf|^2 =  3.373E-12

      iter #   5 total cpu time :   108.5 secs   av.it.:  10.0
      thresh= 1.836E-07 alpha_mix =  0.700 |ddv_scf|^2 =  9.394E-14

     End of self-consistent calculation

     Convergence has been achieved 


     Representation #  6 mode #   6

     Self-consistent Calculation

      iter #   1 total cpu time :   109.5 secs   av.it.:   5.2
      thresh= 1.000E-02 alpha_mix =  0.700 |ddv_scf|^2 =  6.684E-07

      iter #   2 total cpu time :   110.8 secs   av.it.:  10.4
[...]
        k(   59) = (  -0.8750000   0.1250000  -0.1250000), wk =   0.0625000
        k(   60) = (  -1.3750000  -0.8750000  -0.1250000), wk =   0.0000000
        k(   61) = (  -1.1250000   0.3750000  -0.3750000), wk =   0.0625000
        k(   62) = (  -1.6250000  -0.6250000  -0.3750000), wk =   0.0000000
        k(   63) = (  -0.3750000   0.3750000   1.1250000), wk =   0.0625000
        k(   64) = (  -0.8750000  -0.6250000   1.1250000), wk =   0.0000000

     Dense  grid:    16961 G-vectors     FFT dimensions: (  36,  36,  36)

     Smooth grid:     5985 G-vectors     FFT dimensions: (  25,  25,  25)

     Estimated max dynamical RAM per process >       1.51MB

     Estimated total allocated dynamical RAM >       6.03MB

     The potential is recalculated from file :
     ./_ph0/silicon.10.292.save/charge-density.dat

     Starting wfc are    8 atomic wfcs

     Band Structure Calculation
     Davidson diagonalization with overlap

     ethr =  1.25E-10,  avg # of iterations = 12.1

     total cpu time spent up to now is       10.6 secs

     End of band structure calculation

          k =-0.1250 0.1250 0.1250 (   746 PWs)   bands (ev):

    -5.5935   4.5082   5.8173   5.8173

          k =-0.6250-0.8750 0.1250 (   751 PWs)   bands (ev):

    -2.3583  -0.8057   2.0829   3.1726

          k =-0.3750 0.3750-0.1250 (   757 PWs)   bands (ev):

    -4.5560   1.4965   3.8117   5.3342

          k =-0.8750-0.6250-0.1250 (   751 PWs)   bands (ev):

    -2.3583  -0.8057   2.0829   3.1726

          k = 0.3750-0.3750 0.6250 (   759 PWs)   bands (ev):

    -3.4006  -0.6066   3.8380   4.5535

          k =-0.1250-1.3750 0.6250 (   757 PWs)   bands (ev):

    -2.9001  -0.5094   2.1464   4.2325

          k = 0.1250-0.1250 0.3750 (   765 PWs)   bands (ev):

    -5.0603   2.8869   4.7973   4.8682

          k =-0.3750-1.1250 0.3750 (   757 PWs)   bands (ev):

    -2.9001  -0.5094   2.1464   4.2325

          k =-0.1250 0.6250 0.1250 (   760 PWs)   bands (ev):

    -4.0182   1.1728   3.4568   3.9146

          k =-0.6250-0.3750 0.1250 (   756 PWs)   bands (ev):

    -3.5970   0.2843   2.8103   4.1918

          k = 0.6250-0.1250 0.8750 (   751 PWs)   bands (ev):

    -2.3583  -0.8057   2.0829   3.1726

          k = 0.1250-1.1250 0.8750 (   757 PWs)   bands (ev):

    -2.5307  -0.7058   2.7009   3.4434

          k = 0.3750 0.1250 0.6250 (   756 PWs)   bands (ev):

    -3.5970   0.2843   2.8103   4.1918

          k =-0.1250-0.8750 0.6250 (   751 PWs)   bands (ev):

    -2.3583  -0.8057   2.0829   3.1726

          k =-0.1250-0.8750 0.1250 (   757 PWs)   bands (ev):

    -2.5307  -0.7058   2.7009   3.4434

          k =-0.6250-1.8750 0.1250 (   760 PWs)   bands (ev):

    -4.0182   1.1728   3.4568   3.9146

          k =-0.3750 0.3750 0.3750 (   763 PWs)   bands (ev):

    -4.1173   0.1887   5.0240   5.0240

          k =-0.8750-0.6250 0.3750 (   756 PWs)   bands (ev):

    -3.5970   0.2843   2.8103   4.1918

          k = 0.3750-0.3750 1.1250 (   757 PWs)   bands (ev):

    -2.9001  -0.5094   2.1464   4.2325

          k =-0.1250-1.3750 1.1250 (   751 PWs)   bands (ev):

    -2.3583  -0.8057   2.0829   3.1726

          k = 0.1250-0.3750 0.3750 (   757 PWs)   bands (ev):

    -4.5560   1.4965   3.8117   5.3342

          k =-0.3750-1.3750 0.3750 (   759 PWs)   bands (ev):

    -3.4006  -0.6066   3.8380   4.5535

          k = 0.3750-0.3750-0.1250 (   757 PWs)   bands (ev):

    -4.5560   1.4965   3.8117   5.3342

          k =-0.1250-1.3750-0.1250 (   760 PWs)   bands (ev):

    -4.0182   1.1728   3.4568   3.9146

          k =-0.6250 0.3750-0.3750 (   759 PWs)   bands (ev):

    -3.4006  -0.6066   3.8380   4.5535

          k =-1.1250-0.6250-0.3750 (   756 PWs)   bands (ev):

    -3.5970   0.2843   2.8103   4.1918

          k =-0.3750 0.3750 0.6250 (   759 PWs)   bands (ev):

    -3.4006  -0.6066   3.8380   4.5535

          k =-0.8750-0.6250 0.6250 (   757 PWs)   bands (ev):

    -4.5560   1.4965   3.8117   5.3342

          k =-0.3750 0.1250-0.1250 (   765 PWs)   bands (ev):

    -5.0603   2.8869   4.7973   4.8682

          k =-0.8750-0.8750-0.1250 (   757 PWs)   bands (ev):

    -2.5307  -0.7058   2.7009   3.4434

          k =-0.1250 0.1250 0.3750 (   765 PWs)   bands (ev):

    -5.0603   2.8869   4.7973   4.8682

          k =-0.6250-0.8750 0.3750 (   756 PWs)   bands (ev):

    -3.5970   0.2843   2.8103   4.1918

          k = 0.1250 0.6250-0.1250 (   760 PWs)   bands (ev):

    -4.0182   1.1728   3.4568   3.9146

          k =-0.3750-0.3750-0.1250 (   757 PWs)   bands (ev):

    -4.5560   1.4965   3.8117   5.3342

          k = 0.6250 0.1250-0.1250 (   760 PWs)   bands (ev):

    -4.0182   1.1728   3.4568   3.9146

          k = 0.1250-0.8750-0.1250 (   757 PWs)   bands (ev):

    -2.5307  -0.7058   2.7009   3.4434

          k =-0.8750 0.1250-0.6250 (   751 PWs)   bands (ev):

    -2.3583  -0.8057   2.0829   3.1726

          k =-1.3750-0.8750-0.6250 (   757 PWs)   bands (ev):

    -4.5560   1.4965   3.8117   5.3342

          k = 0.8750-0.1250 0.6250 (   751 PWs)   bands (ev):

    -2.3583  -0.8057   2.0829   3.1726

          k = 0.3750-1.1250 0.6250 (   756 PWs)   bands (ev):

    -3.5970   0.2843   2.8103   4.1918

          k =-0.6250 0.1250 0.8750 (   751 PWs)   bands (ev):

    -2.3583  -0.8057   2.0829   3.1726

          k =-1.1250-0.8750 0.8750 (   746 PWs)   bands (ev):

    -5.5935   4.5082   5.8173   5.8173

          k =-0.1250 0.8750 0.6250 (   751 PWs)   bands (ev):

    -2.3583  -0.8057   2.0829   3.1726

          k =-0.6250-0.1250 0.6250 (   757 PWs)   bands (ev):

    -2.9001  -0.5094   2.1464   4.2325

          k = 0.1250 0.8750-0.6250 (   751 PWs)   bands (ev):

    -2.3583  -0.8057   2.0829   3.1726

          k =-0.3750-0.1250-0.6250 (   756 PWs)   bands (ev):

    -3.5970   0.2843   2.8103   4.1918

          k =-0.6250-0.1250-0.3750 (   756 PWs)   bands (ev):

    -3.5970   0.2843   2.8103   4.1918

          k =-1.1250-1.1250-0.3750 (   760 PWs)   bands (ev):

    -4.0182   1.1728   3.4568   3.9146

          k = 0.6250 0.1250 0.3750 (   756 PWs)   bands (ev):

    -3.5970   0.2843   2.8103   4.1918

          k = 0.1250-0.8750 0.3750 (   751 PWs)   bands (ev):

    -2.3583  -0.8057   2.0829   3.1726

          k =-0.3750-0.1250 0.6250 (   756 PWs)   bands (ev):

    -3.5970   0.2843   2.8103   4.1918

          k =-0.8750-1.1250 0.6250 (   765 PWs)   bands (ev):

    -5.0603   2.8869   4.7973   4.8682

          k = 0.1250 0.6250 0.3750 (   756 PWs)   bands (ev):

    -3.5970   0.2843   2.8103   4.1918

          k =-0.3750-0.3750 0.3750 (   763 PWs)   bands (ev):

    -4.1173   0.1887   5.0240   5.0240

          k =-0.1250 0.6250-0.3750 (   756 PWs)   bands (ev):

    -3.5970   0.2843   2.8103   4.1918

          k =-0.6250-0.3750-0.3750 (   759 PWs)   bands (ev):

    -3.4006  -0.6066   3.8380   4.5535

          k = 0.1250-0.8750-0.1250 (   757 PWs)   bands (ev):

    -2.5307  -0.7058   2.7009   3.4434

          k =-0.3750-1.8750-0.1250 (   765 PWs)   bands (ev):

    -5.0603   2.8869   4.7973   4.8682

          k =-0.8750 0.1250-0.1250 (   757 PWs)   bands (ev):

    -2.5307  -0.7058   2.7009   3.4434

          k =-1.3750-0.8750-0.1250 (   751 PWs)   bands (ev):

    -2.3583  -0.8057   2.0829   3.1726

          k =-1.1250 0.3750-0.3750 (   757 PWs)   bands (ev):

    -2.9001  -0.5094   2.1464   4.2325

          k =-1.6250-0.6250-0.3750 (   759 PWs)   bands (ev):

    -3.4006  -0.6066   3.8380   4.5535

          k =-0.3750 0.3750 1.1250 (   757 PWs)   bands (ev):

    -2.9001  -0.5094   2.1464   4.2325

          k =-0.8750-0.6250 1.1250 (   765 PWs)   bands (ev):

    -5.0603   2.8869   4.7973   4.8682

     highest occupied level (ev):     5.8173

     Writing output data file silicon.10.292.save

                                                                                

     bravais-lattice index     =            2
     lattice parameter (alat)  =      10.2920  a.u.
     unit-cell volume          =     272.5457 (a.u.)^3
     number of atoms/cell      =            2
     number of atomic types    =            1
     kinetic-energy cut-off    =      30.0000  Ry
     charge density cut-off    =     240.0000  Ry
     convergence threshold     =      1.0E-12
     beta                      =       0.7000
     number of iterations used =            4
     Exchange-correlation      = SLA  PW   PBE  PBE ( 1  4  3  4 0 0)


     celldm(1)=   10.29200  celldm(2)=    0.00000  celldm(3)=    0.00000
     celldm(4)=    0.00000  celldm(5)=    0.00000  celldm(6)=    0.00000

     crystal axes: (cart. coord. in units of alat)
               a(1) = ( -0.5000  0.0000  0.5000 )  
               a(2) = (  0.0000  0.5000  0.5000 )  
               a(3) = ( -0.5000  0.5000  0.0000 )  

     reciprocal axes: (cart. coord. in units 2 pi/alat)
               b(1) = ( -1.0000 -1.0000  1.0000 )  
               b(2) = (  1.0000  1.0000  1.0000 )  
               b(3) = ( -1.0000  1.0000 -1.0000 )  


     Atoms inside the unit cell: 

     Cartesian axes

     site n.  atom      mass           positions (alat units)
        1     Si  28.0860   tau(    1) = (    0.00000    0.00000    0.00000  )
        2     Si  28.0860   tau(    2) = (    0.25000    0.25000    0.25000  )

     Computing dynamical matrix for 
                    q = (  -0.5000000  -1.0000000   0.0000000 )

      8 Sym.Ops. (no q -> -q+G )


     G cutoff =  643.9484  (   4241 G-vectors)     FFT grid: ( 36, 36, 36)
     G cutoff =  321.9742  (   1497 G-vectors)  smooth grid: ( 25, 25, 25)
     number of k points=    64

     PseudoPot. # 1 for Si read from file:
     /home/s1333534/quantum_espresso/qe-6.1/pseudo/si_pbe_v1.uspp.F.UPF.txt
     MD5 check sum: a056efeee980c13900f22a371efd63c1
     Pseudo is Ultrasoft + core correction, Zval =  4.0
     Generated by new atomic code, or converted to UPF format
     Using radial grid of  899 points,  6 beta functions with: 
                l(1) =   0
                l(2) =   0
                l(3) =   1
                l(4) =   1
                l(5) =   2
                l(6) =   2
     Q(r) pseudized with  8 coefficients,  rinner =    0.900   0.900   0.900
                                                       0.900   0.900


     Atomic displacements:
     There are   3 irreducible representations

     Representation     1      2 modes -  To be done

     Representation     2      2 modes -  To be done

     Representation     3      2 modes -  To be done



     Alpha used in Ewald sum =   2.5000
     PHONON       :  2m 2.03s CPU     2m33.05s WALL



     Representation #  1 modes #   1  2

     Self-consistent Calculation

      iter #   1 total cpu time :   153.9 secs   av.it.:   5.7
      thresh= 1.000E-02 alpha_mix =  0.700 |ddv_scf|^2 =  1.095E-06

      iter #   2 total cpu time :   154.7 secs   av.it.:  11.6
      thresh= 1.046E-04 alpha_mix =  0.700 |ddv_scf|^2 =  6.209E-07

      iter #   3 total cpu time :   155.6 secs   av.it.:  11.1
      thresh= 7.880E-05 alpha_mix =  0.700 |ddv_scf|^2 =  5.918E-10

      iter #   4 total cpu time :   156.5 secs   av.it.:  11.0
      thresh= 2.433E-06 alpha_mix =  0.700 |ddv_scf|^2 =  2.620E-12

      iter #   5 total cpu time :   157.2 secs   av.it.:  11.1
      thresh= 1.619E-07 alpha_mix =  0.700 |ddv_scf|^2 =  6.914E-14

     End of self-consistent calculation

     Convergence has been achieved 


     Representation #  2 modes #   3  4

     Self-consistent Calculation

      iter #   1 total cpu time :   157.9 secs   av.it.:   5.6
      thresh= 1.000E-02 alpha_mix =  0.700 |ddv_scf|^2 =  1.691E-06

      iter #   2 total cpu time :   158.7 secs   av.it.:  11.6
      thresh= 1.300E-04 alpha_mix =  0.700 |ddv_scf|^2 =  2.267E-06

      iter #   3 total cpu time :   159.5 secs   av.it.:  10.9
      thresh= 1.506E-04 alpha_mix =  0.700 |ddv_scf|^2 =  6.963E-10

      iter #   4 total cpu time :   160.3 secs   av.it.:  11.0
      thresh= 2.639E-06 alpha_mix =  0.700 |ddv_scf|^2 =  1.010E-11

      iter #   5 total cpu time :   161.0 secs   av.it.:  11.1
      thresh= 3.178E-07 alpha_mix =  0.700 |ddv_scf|^2 =  1.735E-13

     End of self-consistent calculation

     Convergence has been achieved 


     Representation #  3 modes #   5  6

     Self-consistent Calculation

      iter #   1 total cpu time :   161.7 secs   av.it.:   5.3
      thresh= 1.000E-02 alpha_mix =  0.700 |ddv_scf|^2 =  4.445E-07

      iter #   2 total cpu time :   162.5 secs   av.it.:  11.6
      thresh= 6.667E-05 alpha_mix =  0.700 |ddv_scf|^2 =  2.600E-07

      iter #   3 total cpu time :   163.3 secs   av.it.:  11.1
      thresh= 5.099E-05 alpha_mix =  0.700 |ddv_scf|^2 =  5.159E-10

      iter #   4 total cpu time :   164.1 secs   av.it.:  11.1
      thresh= 2.271E-06 alpha_mix =  0.700 |ddv_scf|^2 =  5.936E-12

      iter #   5 total cpu time :   164.8 secs   av.it.:  11.1
      thresh= 2.436E-07 alpha_mix =  0.700 |ddv_scf|^2 =  8.325E-14

     End of self-consistent calculation

     Convergence has been achieved 

     Number of q in the star =    6
     List of q in the star:
          1  -0.500000000  -1.000000000   0.000000000
          2   0.000000000   1.000000000   0.500000000
          3   0.000000000  -1.000000000  -0.500000000
          4   0.500000000   1.000000000   0.000000000
          5  -1.000000000  -0.500000000   0.000000000
          6   0.000000000  -0.500000000  -1.000000000

     Diagonalizing the dynamical matrix

     q = (   -0.500000000  -1.000000000   0.000000000 ) 

 **************************************************************************
     freq (    1) =       5.984943 [THz] =     199.636202 [cm-1]
     freq (    2) =       5.984943 [THz] =     199.636202 [cm-1]
     freq (    3) =      10.471020 [THz] =     349.275615 [cm-1]
     freq (    4) =      10.471020 [THz] =     349.275615 [cm-1]
     freq (    5) =      13.800571 [THz] =     460.337503 [cm-1]
     freq (    6) =      13.800571 [THz] =     460.337503 [cm-1]
 **************************************************************************

     init_run     :      1.23s CPU      1.27s WALL (       7 calls)
     electrons    :      7.18s CPU      7.77s WALL (       7 calls)

     Called by init_run:
     wfcinit      :      0.00s CPU      0.02s WALL (       7 calls)
     potinit      :      0.07s CPU      0.09s WALL (       7 calls)

     Called by electrons:
     c_bands      :      7.18s CPU      7.76s WALL (       7 calls)
     v_of_rho     :      0.07s CPU      0.07s WALL (       8 calls)
     newd         :      0.11s CPU      0.12s WALL (       8 calls)

     Called by c_bands:
     init_us_2    :      1.63s CPU      1.57s WALL (   16040 calls)
     cegterg      :      6.02s CPU      6.50s WALL (     796 calls)

     Called by sum_band:

     Called by *egterg:
     h_psi        :     68.39s CPU     73.36s WALL (  154417 calls)
     s_psi        :      5.66s CPU      6.92s WALL (  311236 calls)
     g_psi        :      0.05s CPU      0.07s WALL (    9666 calls)
     cdiaghg      :      0.57s CPU      0.56s WALL (   10462 calls)

     Called by h_psi:
     h_psi:pot    :     67.98s CPU     72.85s WALL (  154417 calls)
     h_psi:calbec :      3.48s CPU      3.99s WALL (  154417 calls)
     vloc_psi     :     59.92s CPU     64.75s WALL (  154417 calls)
     add_vuspsi   :      4.25s CPU      3.64s WALL (  154417 calls)

     General routines
     calbec       :      8.13s CPU      8.58s WALL (  345688 calls)
     fft          :      1.25s CPU      1.31s WALL (    5265 calls)
     ffts         :      0.21s CPU      0.22s WALL (    3320 calls)
     fftw         :     63.32s CPU     67.41s WALL ( 1383470 calls)
     interpolate  :      0.21s CPU      0.22s WALL (     572 calls)
     davcio       :      0.31s CPU      1.08s WALL (   69876 calls)

     Parallel routines
     fft_scatter  :     15.82s CPU     19.19s WALL ( 1392055 calls)

     PHONON       :  2m11.15s CPU     2m45.30s WALL

     INITIALIZATION: 
     phq_setup    :      0.22s CPU      0.40s WALL (       8 calls)
     phq_init     :      6.76s CPU      7.10s WALL (       8 calls)

     phq_init     :      6.76s CPU      7.10s WALL (       8 calls)
     set_drhoc    :      1.80s CPU      1.82s WALL (      24 calls)
     init_vloc    :      0.03s CPU      0.03s WALL (       8 calls)
     init_us_1    :      0.97s CPU      0.98s WALL (       8 calls)
     newd         :      0.11s CPU      0.12s WALL (       8 calls)
     dvanqq       :      1.14s CPU      1.15s WALL (       8 calls)
     drho         :      2.58s CPU      2.65s WALL (       8 calls)

     DYNAMICAL MATRIX:
     dynmat0      :      1.68s CPU      1.78s WALL (       8 calls)
     phqscf       :    111.03s CPU    137.95s WALL (       8 calls)
     dynmatrix    :      0.02s CPU      0.19s WALL (       8 calls)

     phqscf       :    111.03s CPU    137.95s WALL (       8 calls)
     solve_linter :    110.09s CPU    135.40s WALL (      32 calls)
     drhodv       :      0.59s CPU      0.61s WALL (      32 calls)

     dynmat0      :      1.68s CPU      1.78s WALL (       8 calls)
     dynmat_us    :      0.38s CPU      0.38s WALL (       8 calls)
     d2ionq       :      0.04s CPU      0.04s WALL (       8 calls)
     dynmatcc     :      1.26s CPU      1.28s WALL (       8 calls)

     dynmat_us    :      0.38s CPU      0.38s WALL (       8 calls)
     addusdynmat  :      0.00s CPU      0.00s WALL (       8 calls)

     phqscf       :    111.03s CPU    137.95s WALL (       8 calls)
     solve_linter :    110.09s CPU    135.40s WALL (      32 calls)

     solve_linter :    110.09s CPU    135.40s WALL (      32 calls)
     dvqpsi_us    :      2.12s CPU      2.27s WALL (    2508 calls)
     ortho        :      0.97s CPU      1.19s WALL (   13630 calls)
     cgsolve      :     75.80s CPU     82.51s WALL (   13630 calls)
     incdrhoscf   :      6.26s CPU      6.86s WALL (   13630 calls)
     addusddens   :      6.96s CPU      7.03s WALL (     202 calls)
     vpsifft      :      4.46s CPU      4.88s WALL (   11002 calls)
     dv_of_drho   :      1.20s CPU      1.23s WALL (     256 calls)
     mix_pot      :      0.35s CPU      9.60s WALL (     175 calls)
     psymdvscf    :      4.10s CPU      4.15s WALL (     170 calls)
     newdq        :      7.57s CPU      7.59s WALL (     175 calls)
     adddvscf     :      0.47s CPU      0.44s WALL (   11122 calls)
     drhodvus     :      0.01s CPU      0.02s WALL (      32 calls)

     dvqpsi_us    :      2.12s CPU      2.27s WALL (    2508 calls)
     dvqpsi_us_on :      0.91s CPU      0.94s WALL (    2508 calls)

     cgsolve      :     75.80s CPU     82.51s WALL (   13630 calls)
     ch_psi       :     74.71s CPU     80.79s WALL (  143159 calls)

     ch_psi       :     74.71s CPU     80.79s WALL (  143159 calls)
     h_psi        :     68.39s CPU     73.36s WALL (  154417 calls)
     last         :      8.90s CPU      9.07s WALL (  143159 calls)

     h_psi        :     68.39s CPU     73.36s WALL (  154417 calls)
     add_vuspsi   :      4.25s CPU      3.64s WALL (  154417 calls)

     incdrhoscf   :      6.26s CPU      6.86s WALL (   13630 calls)
     addusdbec    :      0.49s CPU      0.53s WALL (   16078 calls)

     drhodvus     :      0.01s CPU      0.02s WALL (      32 calls)

      General routines
     calbec       :      8.13s CPU      8.58s WALL (  345688 calls)
     fft          :      1.25s CPU      1.31s WALL (    5265 calls)
     ffts         :      0.21s CPU      0.22s WALL (    3320 calls)
     fftw         :     63.32s CPU     67.41s WALL ( 1383470 calls)
     davcio       :      0.31s CPU      1.08s WALL (   69876 calls)
     write_rec    :      0.23s CPU     10.58s WALL (     207 calls)


     PHONON       :  2m11.15s CPU     2m45.30s WALL


   This run was terminated on:  15:52: 6  10Nov2017            

=------------------------------------------------------------------------------=
   JOB DONE.
=------------------------------------------------------------------------------=
