
     Program PHONON v.6.1 (svn rev. 13369) starts on  9Nov2017 at 17:37:37 

     This program is part of the open-source Quantum ESPRESSO suite
     for quantum simulation of materials; please cite
         "P. Giannozzi et al., J. Phys.:Condens. Matter 21 395502 (2009);
          URL http://www.quantum-espresso.org", 
     in publications or presentations arising from this work. More details at
     http://www.quantum-espresso.org/quote

     Parallel version (MPI), running on     4 processors
     R & G space division:  proc/nbgrp/npool/nimage =       4

     Reading data from directory:
     ./silicon.10.402.save

   Info: using nr1, nr2, nr3 values from input

   Info: using nr1, nr2, nr3 values from input

     IMPORTANT: XC functional enforced from input :
     Exchange-correlation      = SLA  PW   PBE  PBE ( 1  4  3  4 0 0)
     Any further DFT definition will be discarded
     Please, verify this is what you really want


     Parallelization info
     --------------------
     sticks:   dense  smooth     PW     G-vecs:    dense   smooth      PW
     Min          66      66     22                  722      722     152
     Max          67      67     23                  724      724     153
     Sum         265     265     91                 2891     2891     609


     Check: negative/imaginary core charge=   -0.000006    0.000000


     Dynamical matrices for ( 4, 4, 4)  uniform grid of q-points
     (   8q-points):
       N         xq(1)         xq(2)         xq(3) 
       1   0.000000000   0.000000000   0.000000000
       2  -0.250000000   0.250000000  -0.250000000
       3   0.500000000  -0.500000000   0.500000000
       4   0.000000000   0.500000000   0.000000000
       5   0.750000000  -0.250000000   0.750000000
       6   0.500000000   0.000000000   0.500000000
       7   0.000000000  -1.000000000   0.000000000
       8  -0.500000000  -1.000000000   0.000000000

     Calculation of q =    0.0000000   0.0000000   0.0000000

                                                                                

     bravais-lattice index     =            2
     lattice parameter (alat)  =      10.4020  a.u.
     unit-cell volume          =     281.3783 (a.u.)^3
     number of atoms/cell      =            2
     number of atomic types    =            1
     kinetic-energy cut-off    =      18.0000  Ry
     charge density cut-off    =      72.0000  Ry
     convergence threshold     =      1.0E-12
     beta                      =       0.7000
     number of iterations used =            4
     Exchange-correlation      = SLA  PW   PBE  PBE ( 1  4  3  4 0 0)


     celldm(1)=   10.40200  celldm(2)=    0.00000  celldm(3)=    0.00000
     celldm(4)=    0.00000  celldm(5)=    0.00000  celldm(6)=    0.00000

     crystal axes: (cart. coord. in units of alat)
               a(1) = ( -0.5000  0.0000  0.5000 )  
               a(2) = (  0.0000  0.5000  0.5000 )  
               a(3) = ( -0.5000  0.5000  0.0000 )  

     reciprocal axes: (cart. coord. in units 2 pi/alat)
               b(1) = ( -1.0000 -1.0000  1.0000 )  
               b(2) = (  1.0000  1.0000  1.0000 )  
               b(3) = ( -1.0000  1.0000 -1.0000 )  


     Atoms inside the unit cell: 

     Cartesian axes

     site n.  atom      mass           positions (alat units)
        1     Si  28.0860   tau(    1) = (    0.00000    0.00000    0.00000  )
        2     Si  28.0860   tau(    2) = (    0.25000    0.25000    0.25000  )

     Computing dynamical matrix for 
                    q = (   0.0000000   0.0000000   0.0000000 )

     49 Sym.Ops. (with q -> -q+G )


     G cutoff =  197.3361  (    722 G-vectors)     FFT grid: ( 20, 20, 20)
     number of k points=    10

     PseudoPot. # 1 for Si read from file:
     /home/max/quantum_espresso/qe-6.1/pseudo/si_pbe_v1.uspp.F.UPF.txt
     MD5 check sum: a056efeee980c13900f22a371efd63c1
     Pseudo is Ultrasoft + core correction, Zval =  4.0
     Generated by new atomic code, or converted to UPF format
     Using radial grid of  899 points,  6 beta functions with: 
                l(1) =   0
                l(2) =   0
                l(3) =   1
                l(4) =   1
                l(5) =   2
                l(6) =   2
     Q(r) pseudized with  8 coefficients,  rinner =    0.900   0.900   0.900
                                                       0.900   0.900

     Mode symmetry, O_h (m-3m)  point group:


     Electric field:
     Dielectric constant
     Born effective charges in two ways 


     Atomic displacements:
     There are   2 irreducible representations

     Representation     1      3 modes -T_2g G_25' G_5+  To be done

     Representation     2      3 modes -T_1u G_15  G_4-  To be done



     Alpha used in Ewald sum =   0.7000
     PHONON       :     0.40s CPU         0.41s WALL


     Electric Fields Calculation

      iter #   1 total cpu time :     0.8 secs   av.it.:   5.6
      thresh= 1.000E-02 alpha_mix =  0.700 |ddv_scf|^2 =  9.577E-07

      iter #   2 total cpu time :     1.0 secs   av.it.:   9.9
      thresh= 9.786E-05 alpha_mix =  0.700 |ddv_scf|^2 =  6.253E-08

      iter #   3 total cpu time :     1.1 secs   av.it.:   9.8
      thresh= 2.501E-05 alpha_mix =  0.700 |ddv_scf|^2 =  4.969E-09

      iter #   4 total cpu time :     1.3 secs   av.it.:   9.0
      thresh= 7.049E-06 alpha_mix =  0.700 |ddv_scf|^2 =  3.012E-11

      iter #   5 total cpu time :     1.7 secs   av.it.:   9.2
      thresh= 5.488E-07 alpha_mix =  0.700 |ddv_scf|^2 =  1.545E-14

     End of electric fields calculation

          Dielectric constant in cartesian axis 

          (      14.026024852       0.000000000      -0.000000000 )
          (      -0.000000000      14.026024852       0.000000000 )
          (      -0.000000000      -0.000000000      14.026024852 )

          Effective charges (d Force / dE) in cartesian axis

           atom      1   Si 
      Ex  (       -0.03355       -0.00000       -0.00000 )
      Ey  (       -0.00000       -0.03355       -0.00000 )
      Ez  (       -0.00000       -0.00000       -0.03355 )
           atom      2   Si 
      Ex  (       -0.03355        0.00000        0.00000 )
      Ey  (        0.00000       -0.03355       -0.00000 )
      Ez  (        0.00000        0.00000       -0.03355 )


     Representation #  1 modes #   1  2  3

     Self-consistent Calculation

      iter #   1 total cpu time :     2.0 secs   av.it.:   5.0
      thresh= 1.000E-02 alpha_mix =  0.700 |ddv_scf|^2 =  1.853E-07

      iter #   2 total cpu time :     2.2 secs   av.it.:  10.0
      thresh= 4.305E-05 alpha_mix =  0.700 |ddv_scf|^2 =  1.024E-08

      iter #   3 total cpu time :     2.4 secs   av.it.:   9.5
      thresh= 1.012E-05 alpha_mix =  0.700 |ddv_scf|^2 =  7.083E-10

      iter #   4 total cpu time :     2.6 secs   av.it.:   9.1
      thresh= 2.661E-06 alpha_mix =  0.700 |ddv_scf|^2 =  1.825E-12

      iter #   5 total cpu time :     2.8 secs   av.it.:   9.4
      thresh= 1.351E-07 alpha_mix =  0.700 |ddv_scf|^2 =  1.542E-14

     End of self-consistent calculation

     Convergence has been achieved 


     Representation #  2 modes #   4  5  6

     Self-consistent Calculation

      iter #   1 total cpu time :     3.0 secs   av.it.:   5.0
      thresh= 1.000E-02 alpha_mix =  0.700 |ddv_scf|^2 =  1.927E-07

      iter #   2 total cpu time :     3.2 secs   av.it.:   9.6
      thresh= 4.390E-05 alpha_mix =  0.700 |ddv_scf|^2 =  1.592E-08

      iter #   3 total cpu time :     3.4 secs   av.it.:   9.2
      thresh= 1.262E-05 alpha_mix =  0.700 |ddv_scf|^2 =  9.555E-10

      iter #   4 total cpu time :     3.7 secs   av.it.:   9.5
      thresh= 3.091E-06 alpha_mix =  0.700 |ddv_scf|^2 =  5.562E-12

      iter #   5 total cpu time :     3.9 secs   av.it.:   9.1
      thresh= 2.358E-07 alpha_mix =  0.700 |ddv_scf|^2 =  5.110E-15

     End of self-consistent calculation

     Convergence has been achieved 

     Number of q in the star =    1
     List of q in the star:
          1   0.000000000   0.000000000   0.000000000

          Dielectric constant in cartesian axis 

          (      14.026024852       0.000000000      -0.000000000 )
          (      -0.000000000      14.026024852       0.000000000 )
          (      -0.000000000      -0.000000000      14.026024852 )

          Effective charges (d Force / dE) in cartesian axis

           atom      1   Si 
      Ex  (       -0.03355       -0.00000       -0.00000 )
      Ey  (       -0.00000       -0.03355       -0.00000 )
      Ez  (       -0.00000       -0.00000       -0.03355 )
           atom      2   Si 
      Ex  (       -0.03355        0.00000        0.00000 )
      Ey  (        0.00000       -0.03355       -0.00000 )
      Ez  (        0.00000        0.00000       -0.03355 )

          Effective charges (d P / du) in cartesian axis 

           atom      1   Si 
      Px  (       -0.07598       -0.00000        0.00000 )
      Py  (       -0.00000       -0.07598       -0.00000 )
      Pz  (        0.00000       -0.00000       -0.07598 )
           atom      2   Si 
      Px  (       -0.07598       -0.00000        0.00000 )
      Py  (        0.00000       -0.07598        0.00000 )
      Pz  (        0.00000       -0.00000       -0.07598 )

     Diagonalizing the dynamical matrix

     q = (    0.000000000   0.000000000   0.000000000 ) 

 **************************************************************************
     freq (    1) =       1.777245 [THz] =      59.282508 [cm-1]
     freq (    2) =       1.777245 [THz] =      59.282508 [cm-1]
     freq (    3) =       1.777245 [THz] =      59.282508 [cm-1]
     freq (    4) =      15.562705 [THz] =     519.115965 [cm-1]
     freq (    5) =      15.562705 [THz] =     519.115965 [cm-1]
     freq (    6) =      15.562705 [THz] =     519.115965 [cm-1]
 **************************************************************************

     Mode symmetry, O_h (m-3m)  point group:

     freq (  1 -  3) =         59.3  [cm-1]   --> T_1u G_15  G_4- I  
     freq (  4 -  6) =        519.1  [cm-1]   --> T_2g G_25' G_5+ R  

     Calculation of q =   -0.2500000   0.2500000  -0.2500000

   Info: using nr1, nr2, nr3 values from input

   Info: using nr1, nr2, nr3 values from input

     Parallelization info
     --------------------
     sticks:   dense  smooth     PW     G-vecs:    dense   smooth      PW
     Min          66      66     24                  722      722     161
     Max          67      67     25                  724      724     162
     Sum         265     265     97                 2891     2891     645



     bravais-lattice index     =            2
     lattice parameter (alat)  =      10.4020  a.u.
     unit-cell volume          =     281.3783 (a.u.)^3
     number of atoms/cell      =            2
     number of atomic types    =            1
     number of electrons       =         8.00
     number of Kohn-Sham states=            4
     kinetic-energy cutoff     =      18.0000  Ry
     charge density cutoff     =      72.0000  Ry
     Exchange-correlation      = SLA  PW   PBE  PBE ( 1  4  3  4 0 0)

     celldm(1)=  10.402000  celldm(2)=   0.000000  celldm(3)=   0.000000
     celldm(4)=   0.000000  celldm(5)=   0.000000  celldm(6)=   0.000000

     crystal axes: (cart. coord. in units of alat)
               a(1) = (  -0.500000   0.000000   0.500000 )  
               a(2) = (   0.000000   0.500000   0.500000 )  
               a(3) = (  -0.500000   0.500000   0.000000 )  

     reciprocal axes: (cart. coord. in units 2 pi/alat)
               b(1) = ( -1.000000 -1.000000  1.000000 )  
               b(2) = (  1.000000  1.000000  1.000000 )  
               b(3) = ( -1.000000  1.000000 -1.000000 )  


     PseudoPot. # 1 for Si read from file:
     /home/max/quantum_espresso/qe-6.1/pseudo/si_pbe_v1.uspp.F.UPF.txt
     MD5 check sum: a056efeee980c13900f22a371efd63c1
     Pseudo is Ultrasoft + core correction, Zval =  4.0
     Generated by new atomic code, or converted to UPF format
     Using radial grid of  899 points,  6 beta functions with: 
                l(1) =   0
                l(2) =   0
                l(3) =   1
                l(4) =   1
                l(5) =   2
                l(6) =   2
     Q(r) pseudized with  8 coefficients,  rinner =    0.900   0.900   0.900
                                                       0.900   0.900

     atomic species   valence    mass     pseudopotential
        Si             4.00    28.08600     Si( 1.00)

     48 Sym. Ops., with inversion, found



   Cartesian axes

     site n.     atom                  positions (alat units)
         1           Si  tau(   1) = (   0.0000000   0.0000000   0.0000000  )
         2           Si  tau(   2) = (   0.2500000   0.2500000   0.2500000  )

     number of k points=   120

     Number of k-points >= 100: set verbosity='high' to print them.

     Dense  grid:     2891 G-vectors     FFT dimensions: (  20,  20,  20)

     Estimated max dynamical RAM per process >       0.33MB

     Estimated total allocated dynamical RAM >       1.33MB

     Check: negative/imaginary core charge=   -0.000006    0.000000

     The potential is recalculated from file :
     ./_ph0/silicon.10.402.save/charge-density.dat

     Starting wfc are    8 atomic wfcs

     Band Structure Calculation
     Davidson diagonalization with overlap

     ethr =  1.25E-10,  avg # of iterations = 11.7

     total cpu time spent up to now is        0.8 secs

     End of band structure calculation

     Number of k-points >= 100: set verbosity='high' to print the bands.

     highest occupied level (ev):     5.5044

     Writing output data file silicon.10.402.save

                                                                                

     bravais-lattice index     =            2
     lattice parameter (alat)  =      10.4020  a.u.
     unit-cell volume          =     281.3783 (a.u.)^3
     number of atoms/cell      =            2
     number of atomic types    =            1
     kinetic-energy cut-off    =      18.0000  Ry
     charge density cut-off    =      72.0000  Ry
     convergence threshold     =      1.0E-12
     beta                      =       0.7000
     number of iterations used =            4
     Exchange-correlation      = SLA  PW   PBE  PBE ( 1  4  3  4 0 0)


     celldm(1)=   10.40200  celldm(2)=    0.00000  celldm(3)=    0.00000
     celldm(4)=    0.00000  celldm(5)=    0.00000  celldm(6)=    0.00000

     crystal axes: (cart. coord. in units of alat)
               a(1) = ( -0.5000  0.0000  0.5000 )  
               a(2) = (  0.0000  0.5000  0.5000 )  
               a(3) = ( -0.5000  0.5000  0.0000 )  

     reciprocal axes: (cart. coord. in units 2 pi/alat)
               b(1) = ( -1.0000 -1.0000  1.0000 )  
               b(2) = (  1.0000  1.0000  1.0000 )  
               b(3) = ( -1.0000  1.0000 -1.0000 )  


     Atoms inside the unit cell: 

     Cartesian axes

     site n.  atom      mass           positions (alat units)
        1     Si  28.0860   tau(    1) = (    0.00000    0.00000    0.00000  )
        2     Si  28.0860   tau(    2) = (    0.25000    0.25000    0.25000  )

     Computing dynamical matrix for 
                    q = (  -0.2500000   0.2500000  -0.2500000 )

      6 Sym.Ops. (no q -> -q+G )


     G cutoff =  197.3361  (    722 G-vectors)     FFT grid: ( 20, 20, 20)
     number of k points=   120

     PseudoPot. # 1 for Si read from file:
     /home/max/quantum_espresso/qe-6.1/pseudo/si_pbe_v1.uspp.F.UPF.txt
     MD5 check sum: a056efeee980c13900f22a371efd63c1
     Pseudo is Ultrasoft + core correction, Zval =  4.0
     Generated by new atomic code, or converted to UPF format
     Using radial grid of  899 points,  6 beta functions with: 
                l(1) =   0
                l(2) =   0
                l(3) =   1
                l(4) =   1
                l(5) =   2
                l(6) =   2
     Q(r) pseudized with  8 coefficients,  rinner =    0.900   0.900   0.900
                                                       0.900   0.900

     Mode symmetry, C_3v (3m)   point group:


     Atomic displacements:
     There are   4 irreducible representations

     Representation     1      1 modes -A_1  L_1  To be done

     Representation     2      1 modes -A_1  L_1  To be done

     Representation     3      2 modes -E    L_3  To be done

     Representation     4      2 modes -E    L_3  To be done



     Alpha used in Ewald sum =   0.7000
     PHONON       :     4.77s CPU         5.12s WALL



     Representation #  1 mode #   1

     Self-consistent Calculation

      iter #   1 total cpu time :     5.3 secs   av.it.:   5.5
      thresh= 1.000E-02 alpha_mix =  0.700 |ddv_scf|^2 =  2.428E-03

      iter #   2 total cpu time :     5.8 secs   av.it.:   7.5
      thresh= 4.927E-03 alpha_mix =  0.700 |ddv_scf|^2 =  3.693E-02

      iter #   3 total cpu time :     6.0 secs   av.it.:   6.3
      thresh= 1.000E-02 alpha_mix =  0.700 |ddv_scf|^2 =  1.680E-06

      iter #   4 total cpu time :     6.2 secs   av.it.:   8.2
      thresh= 1.296E-04 alpha_mix =  0.700 |ddv_scf|^2 =  1.124E-07

      iter #   5 total cpu time :     6.5 secs   av.it.:   8.1
      thresh= 3.353E-05 alpha_mix =  0.700 |ddv_scf|^2 =  4.661E-09

      iter #   6 total cpu time :     6.8 secs   av.it.:   8.1
      thresh= 6.827E-06 alpha_mix =  0.700 |ddv_scf|^2 =  3.474E-09

      iter #   7 total cpu time :     7.0 secs   av.it.:   6.4
      thresh= 5.894E-06 alpha_mix =  0.700 |ddv_scf|^2 =  7.436E-10

      iter #   8 total cpu time :     7.2 secs   av.it.:   7.1
      thresh= 2.727E-06 alpha_mix =  0.700 |ddv_scf|^2 =  5.511E-12

      iter #   9 total cpu time :     7.6 secs   av.it.:   7.1
      thresh= 2.348E-07 alpha_mix =  0.700 |ddv_scf|^2 =  3.159E-13

     End of self-consistent calculation

     Convergence has been achieved 


     Representation #  2 mode #   2

     Self-consistent Calculation

      iter #   1 total cpu time :     7.8 secs   av.it.:   5.5
      thresh= 1.000E-02 alpha_mix =  0.700 |ddv_scf|^2 =  2.428E-03

      iter #   2 total cpu time :     8.1 secs   av.it.:   7.5
      thresh= 4.927E-03 alpha_mix =  0.700 |ddv_scf|^2 =  3.693E-02

      iter #   3 total cpu time :     8.3 secs   av.it.:   6.3
      thresh= 1.000E-02 alpha_mix =  0.700 |ddv_scf|^2 =  1.680E-06

      iter #   4 total cpu time :     8.6 secs   av.it.:   8.2
      thresh= 1.296E-04 alpha_mix =  0.700 |ddv_scf|^2 =  1.124E-07

      iter #   5 total cpu time :     8.8 secs   av.it.:   8.1
      thresh= 3.353E-05 alpha_mix =  0.700 |ddv_scf|^2 =  4.661E-09

      iter #   6 total cpu time :     9.1 secs   av.it.:   8.1
      thresh= 6.827E-06 alpha_mix =  0.700 |ddv_scf|^2 =  3.474E-09

      iter #   7 total cpu time :     9.3 secs   av.it.:   6.4
      thresh= 5.894E-06 alpha_mix =  0.700 |ddv_scf|^2 =  7.436E-10

      iter #   8 total cpu time :     9.7 secs   av.it.:   7.1
      thresh= 2.727E-06 alpha_mix =  0.700 |ddv_scf|^2 =  5.511E-12

      iter #   9 total cpu time :     9.9 secs   av.it.:   7.1
      thresh= 2.348E-07 alpha_mix =  0.700 |ddv_scf|^2 =  3.159E-13

     End of self-consistent calculation

     Convergence has been achieved 


     Representation #  3 modes #   3  4

     Self-consistent Calculation

      iter #   1 total cpu time :    10.3 secs   av.it.:   5.0
      thresh= 1.000E-02 alpha_mix =  0.700 |ddv_scf|^2 =  5.359E-07

      iter #   2 total cpu time :    10.9 secs   av.it.:   9.6
      thresh= 7.321E-05 alpha_mix =  0.700 |ddv_scf|^2 =  4.019E-08

      iter #   3 total cpu time :    11.6 secs   av.it.:   9.3
      thresh= 2.005E-05 alpha_mix =  0.700 |ddv_scf|^2 =  3.460E-09

      iter #   4 total cpu time :    12.2 secs   av.it.:   9.0
      thresh= 5.882E-06 alpha_mix =  0.700 |ddv_scf|^2 =  1.143E-11

      iter #   5 total cpu time :    12.8 secs   av.it.:   9.2
      thresh= 3.381E-07 alpha_mix =  0.700 |ddv_scf|^2 =  5.098E-13

     End of self-consistent calculation

     Convergence has been achieved 


     Representation #  4 modes #   5  6

     Self-consistent Calculation

      iter #   1 total cpu time :    13.2 secs   av.it.:   5.0
      thresh= 1.000E-02 alpha_mix =  0.700 |ddv_scf|^2 =  5.357E-07

      iter #   2 total cpu time :    13.9 secs   av.it.:   9.7
      thresh= 7.319E-05 alpha_mix =  0.700 |ddv_scf|^2 =  4.013E-08

      iter #   3 total cpu time :    14.5 secs   av.it.:   9.4
      thresh= 2.003E-05 alpha_mix =  0.700 |ddv_scf|^2 =  3.456E-09

      iter #   4 total cpu time :    15.1 secs   av.it.:   9.1
      thresh= 5.879E-06 alpha_mix =  0.700 |ddv_scf|^2 =  1.143E-11

      iter #   5 total cpu time :    15.8 secs   av.it.:   9.3
      thresh= 3.381E-07 alpha_mix =  0.700 |ddv_scf|^2 =  5.100E-13

     End of self-consistent calculation

     Convergence has been achieved 

     Number of q in the star =    8
     List of q in the star:
          1  -0.250000000   0.250000000  -0.250000000
          2   0.250000000  -0.250000000  -0.250000000
          3   0.250000000  -0.250000000   0.250000000
          4   0.250000000   0.250000000   0.250000000
          5  -0.250000000  -0.250000000  -0.250000000
          6  -0.250000000  -0.250000000   0.250000000
          7  -0.250000000   0.250000000   0.250000000
          8   0.250000000   0.250000000  -0.250000000

     Diagonalizing the dynamical matrix

     q = (   -0.250000000   0.250000000  -0.250000000 ) 

 **************************************************************************
     freq (    1) =       3.407324 [THz] =     113.656091 [cm-1]
     freq (    2) =       3.407324 [THz] =     113.656091 [cm-1]
     freq (    3) =       6.828065 [THz] =     227.759746 [cm-1]
     freq (    4) =      14.663108 [THz] =     489.108650 [cm-1]
     freq (    5) =      14.938765 [THz] =     498.303547 [cm-1]
     freq (    6) =      14.938765 [THz] =     498.303547 [cm-1]
 **************************************************************************

     Mode symmetry, C_3v (3m)   point group:

     freq (  1 -  2) =        113.7  [cm-1]   --> E    L_3           
     freq (  3 -  3) =        227.8  [cm-1]   --> A_1  L_1           
     freq (  4 -  4) =        489.1  [cm-1]   --> A_1  L_1           
     freq (  5 -  6) =        498.3  [cm-1]   --> E    L_3           

     Calculation of q =    0.5000000  -0.5000000   0.5000000

   Info: using nr1, nr2, nr3 values from input

   Info: using nr1, nr2, nr3 values from input

     Parallelization info
     --------------------
     sticks:   dense  smooth     PW     G-vecs:    dense   smooth      PW
     Min          66      66     27                  722      722     186
     Max          67      67     28                  724      724     189
     Sum         265     265    109                 2891     2891     749



     bravais-lattice index     =            2
     lattice parameter (alat)  =      10.4020  a.u.
     unit-cell volume          =     281.3783 (a.u.)^3
     number of atoms/cell      =            2
     number of atomic types    =            1
     number of electrons       =         8.00
     number of Kohn-Sham states=            4
     kinetic-energy cutoff     =      18.0000  Ry
     charge density cutoff     =      72.0000  Ry
     Exchange-correlation      = SLA  PW   PBE  PBE ( 1  4  3  4 0 0)

     celldm(1)=  10.402000  celldm(2)=   0.000000  celldm(3)=   0.000000
     celldm(4)=   0.000000  celldm(5)=   0.000000  celldm(6)=   0.000000

     crystal axes: (cart. coord. in units of alat)
               a(1) = (  -0.500000   0.000000   0.500000 )  
               a(2) = (   0.000000   0.500000   0.500000 )  
               a(3) = (  -0.500000   0.500000   0.000000 )  

     reciprocal axes: (cart. coord. in units 2 pi/alat)
               b(1) = ( -1.000000 -1.000000  1.000000 )  
               b(2) = (  1.000000  1.000000  1.000000 )  
               b(3) = ( -1.000000  1.000000 -1.000000 )  


     PseudoPot. # 1 for Si read from file:
     /home/max/quantum_espresso/qe-6.1/pseudo/si_pbe_v1.uspp.F.UPF.txt
     MD5 check sum: a056efeee980c13900f22a371efd63c1
     Pseudo is Ultrasoft + core correction, Zval =  4.0
     Generated by new atomic code, or converted to UPF format
     Using radial grid of  899 points,  6 beta functions with: 
                l(1) =   0
                l(2) =   0
                l(3) =   1
                l(4) =   1
                l(5) =   2
                l(6) =   2
     Q(r) pseudized with  8 coefficients,  rinner =    0.900   0.900   0.900
                                                       0.900   0.900

     atomic species   valence    mass     pseudopotential
        Si             4.00    28.08600     Si( 1.00)

     48 Sym. Ops., with inversion, found



   Cartesian axes

     site n.     atom                  positions (alat units)
         1           Si  tau(   1) = (   0.0000000   0.0000000   0.0000000  )
         2           Si  tau(   2) = (   0.2500000   0.2500000   0.2500000  )

     number of k points=    60
                       cart. coord. in units 2pi/alat
        k(    1) = (  -0.1250000   0.1250000   0.1250000), wk =   0.0468750
        k(    2) = (   0.3750000  -0.3750000   0.6250000), wk =   0.0000000
        k(    3) = (  -0.3750000   0.3750000  -0.1250000), wk =   0.0468750
        k(    4) = (   0.1250000  -0.1250000   0.3750000), wk =   0.0000000
        k(    5) = (   0.3750000  -0.3750000   0.6250000), wk =   0.0468750
        k(    6) = (   0.8750000  -0.8750000   1.1250000), wk =   0.0000000
        k(    7) = (   0.1250000  -0.1250000   0.3750000), wk =   0.0468750
        k(    8) = (   0.6250000  -0.6250000   0.8750000), wk =   0.0000000
        k(    9) = (  -0.1250000   0.6250000   0.1250000), wk =   0.0937500
        k(   10) = (   0.3750000   0.1250000   0.6250000), wk =   0.0000000
        k(   11) = (   0.6250000  -0.1250000   0.8750000), wk =   0.0937500
        k(   12) = (   1.1250000  -0.6250000   1.3750000), wk =   0.0000000
        k(   13) = (   0.3750000   0.1250000   0.6250000), wk =   0.0937500
        k(   14) = (   0.8750000  -0.3750000   1.1250000), wk =   0.0000000
        k(   15) = (  -0.1250000  -0.8750000   0.1250000), wk =   0.0937500
        k(   16) = (   0.3750000  -1.3750000   0.6250000), wk =   0.0000000
        k(   17) = (  -0.3750000   0.3750000   0.3750000), wk =   0.0468750
        k(   18) = (   0.1250000  -0.1250000   0.8750000), wk =   0.0000000
        k(   19) = (   0.3750000  -0.3750000   1.1250000), wk =   0.0468750
        k(   20) = (   0.8750000  -0.8750000   1.6250000), wk =   0.0000000
        k(   21) = (   0.1250000  -0.1250000   0.1250000), wk =   0.0156250
        k(   22) = (   0.6250000  -0.6250000   0.6250000), wk =   0.0000000
        k(   23) = (  -0.3750000  -0.3750000  -0.1250000), wk =   0.0937500
        k(   24) = (   0.1250000  -0.8750000   0.3750000), wk =   0.0000000
        k(   25) = (  -0.1250000  -0.3750000   0.3750000), wk =   0.0468750
        k(   26) = (   0.3750000  -0.8750000   0.8750000), wk =   0.0000000
        k(   27) = (   0.3750000   0.3750000   0.6250000), wk =   0.0937500
        k(   28) = (   0.8750000  -0.1250000   1.1250000), wk =   0.0000000
        k(   29) = (   0.6250000   0.3750000  -0.3750000), wk =   0.0468750
        k(   30) = (   1.1250000  -0.1250000   0.1250000), wk =   0.0000000
        k(   31) = (   0.1250000   0.1250000   0.3750000), wk =   0.0937500
        k(   32) = (   0.6250000  -0.3750000   0.8750000), wk =   0.0000000
        k(   33) = (   0.3750000   0.1250000  -0.1250000), wk =   0.0468750
        k(   34) = (   0.8750000  -0.3750000   0.3750000), wk =   0.0000000
        k(   35) = (  -0.1250000  -0.6250000  -0.1250000), wk =   0.0468750
        k(   36) = (   0.3750000  -1.1250000   0.3750000), wk =   0.0000000
        k(   37) = (   0.1250000  -0.6250000   0.1250000), wk =   0.0468750
        k(   38) = (   0.6250000  -1.1250000   0.6250000), wk =   0.0000000
        k(   39) = (   0.6250000   0.1250000   0.8750000), wk =   0.0937500
        k(   40) = (   1.1250000  -0.3750000   1.3750000), wk =   0.0000000
        k(   41) = (  -0.8750000   0.1250000   0.6250000), wk =   0.0937500
        k(   42) = (  -0.3750000  -0.3750000   1.1250000), wk =   0.0000000
        k(   43) = (   0.8750000   0.1250000  -0.6250000), wk =   0.0937500
        k(   44) = (   1.3750000  -0.3750000  -0.1250000), wk =   0.0000000
        k(   45) = (   0.3750000  -0.1250000   0.6250000), wk =   0.0937500
        k(   46) = (   0.8750000  -0.6250000   1.1250000), wk =   0.0000000
        k(   47) = (  -0.6250000  -0.1250000   0.3750000), wk =   0.0937500
        k(   48) = (  -0.1250000  -0.6250000   0.8750000), wk =   0.0000000
        k(   49) = (   0.6250000  -0.1250000  -0.3750000), wk =   0.0937500
        k(   50) = (   1.1250000  -0.6250000   0.1250000), wk =   0.0000000
        k(   51) = (  -0.1250000   0.8750000  -0.1250000), wk =   0.0468750
        k(   52) = (   0.3750000   0.3750000   0.3750000), wk =   0.0000000
        k(   53) = (   0.1250000   0.8750000   0.1250000), wk =   0.0468750
        k(   54) = (   0.6250000   0.3750000   0.6250000), wk =   0.0000000
        k(   55) = (   0.3750000  -0.3750000   0.3750000), wk =   0.0156250
        k(   56) = (   0.8750000  -0.8750000   0.8750000), wk =   0.0000000
        k(   57) = (   0.3750000   0.3750000   1.1250000), wk =   0.0937500
        k(   58) = (   0.8750000  -0.1250000   1.6250000), wk =   0.0000000
        k(   59) = (   1.1250000   0.3750000  -0.3750000), wk =   0.0468750
        k(   60) = (   1.6250000  -0.1250000   0.1250000), wk =   0.0000000

     Dense  grid:     2891 G-vectors     FFT dimensions: (  20,  20,  20)

     Estimated max dynamical RAM per process >       0.33MB

     Estimated total allocated dynamical RAM >       1.33MB

     Check: negative/imaginary core charge=   -0.000006    0.000000

     The potential is recalculated from file :
     ./_ph0/silicon.10.402.save/charge-density.dat

     Starting wfc are    8 atomic wfcs

     Band Structure Calculation
     Davidson diagonalization with overlap

     ethr =  1.25E-10,  avg # of iterations = 11.7

     total cpu time spent up to now is        1.3 secs

     End of band structure calculation

          k =-0.1250 0.1250 0.1250 (   353 PWs)   bands (ev):

    -5.7028   4.1931   5.5044   5.5044

          k = 0.3750-0.3750 0.6250 (   364 PWs)   bands (ev):

    -3.5882  -0.7951   3.5667   4.2741

          k =-0.3750 0.3750-0.1250 (   362 PWs)   bands (ev):

    -4.6972   1.2345   3.5572   5.0277

          k = 0.1250-0.1250 0.3750 (   358 PWs)   bands (ev):

    -5.1851   2.5841   4.5186   4.5708

          k = 0.3750-0.3750 0.6250 (   364 PWs)   bands (ev):

    -3.5882  -0.7951   3.5667   4.2741

          k = 0.8750-0.8750 1.1250 (   353 PWs)   bands (ev):

    -5.7028   4.1931   5.5044   5.5044

          k = 0.1250-0.1250 0.3750 (   358 PWs)   bands (ev):

    -5.1851   2.5841   4.5186   4.5708

          k = 0.6250-0.6250 0.8750 (   362 PWs)   bands (ev):

    -4.6972   1.2345   3.5572   5.0277

          k =-0.1250 0.6250 0.1250 (   357 PWs)   bands (ev):

    -4.1739   0.8789   3.2207   3.6605

          k = 0.3750 0.1250 0.6250 (   365 PWs)   bands (ev):

    -3.7698   0.0351   2.5892   3.9314

          k = 0.6250-0.1250 0.8750 (   368 PWs)   bands (ev):

    -2.5735  -1.0528   1.9061   2.9549

          k = 1.1250-0.6250 1.3750 (   362 PWs)   bands (ev):

    -4.6972   1.2345   3.5572   5.0277

          k = 0.3750 0.1250 0.6250 (   365 PWs)   bands (ev):

    -3.7698   0.0351   2.5892   3.9314

          k = 0.8750-0.3750 1.1250 (   357 PWs)   bands (ev):

    -4.1739   0.8789   3.2207   3.6605

          k =-0.1250-0.8750 0.1250 (   364 PWs)   bands (ev):

    -2.7316  -0.9601   2.4985   3.2016

          k = 0.3750-1.3750 0.6250 (   364 PWs)   bands (ev):

    -3.5882  -0.7951   3.5667   4.2741

          k =-0.3750 0.3750 0.3750 (   359 PWs)   bands (ev):

    -4.2754  -0.0204   4.7271   4.7271

          k = 0.1250-0.1250 0.8750 (   364 PWs)   bands (ev):

    -2.7316  -0.9601   2.4985   3.2016

          k = 0.3750-0.3750 1.1250 (   369 PWs)   bands (ev):

    -3.1016  -0.7371   1.9546   3.9647

          k = 0.8750-0.8750 1.6250 (   357 PWs)   bands (ev):

    -4.1739   0.8789   3.2207   3.6605

          k = 0.1250-0.1250 0.1250 (   353 PWs)   bands (ev):

    -5.7028   4.1931   5.5044   5.5044

          k = 0.6250-0.6250 0.6250 (   359 PWs)   bands (ev):

    -4.2754  -0.0204   4.7271   4.7271

          k =-0.3750-0.3750-0.1250 (   362 PWs)   bands (ev):

    -4.6972   1.2345   3.5572   5.0277

          k = 0.1250-0.8750 0.3750 (   368 PWs)   bands (ev):

    -2.5735  -1.0528   1.9061   2.9549

          k =-0.1250-0.3750 0.3750 (   362 PWs)   bands (ev):

    -4.6972   1.2345   3.5572   5.0277

          k = 0.3750-0.8750 0.8750 (   357 PWs)   bands (ev):

    -4.1739   0.8789   3.2207   3.6605

          k = 0.3750 0.3750 0.6250 (   364 PWs)   bands (ev):

    -3.5882  -0.7951   3.5667   4.2741

          k = 0.8750-0.1250 1.1250 (   364 PWs)   bands (ev):

    -2.7316  -0.9601   2.4985   3.2016

          k = 0.6250 0.3750-0.3750 (   364 PWs)   bands (ev):

    -3.5882  -0.7951   3.5667   4.2741

          k = 1.1250-0.1250 0.1250 (   364 PWs)   bands (ev):

    -2.7316  -0.9601   2.4985   3.2016

          k = 0.1250 0.1250 0.3750 (   358 PWs)   bands (ev):

    -5.1851   2.5841   4.5186   4.5708

          k = 0.6250-0.3750 0.8750 (   365 PWs)   bands (ev):

    -3.7698   0.0351   2.5892   3.9314

          k = 0.3750 0.1250-0.1250 (   358 PWs)   bands (ev):

    -5.1851   2.5841   4.5186   4.5708

          k = 0.8750-0.3750 0.3750 (   369 PWs)   bands (ev):

    -3.1016  -0.7371   1.9546   3.9647

          k =-0.1250-0.6250-0.1250 (   357 PWs)   bands (ev):

    -4.1739   0.8789   3.2207   3.6605

          k = 0.3750-1.1250 0.3750 (   369 PWs)   bands (ev):

    -3.1016  -0.7371   1.9546   3.9647

          k = 0.1250-0.6250 0.1250 (   357 PWs)   bands (ev):

    -4.1739   0.8789   3.2207   3.6605

          k = 0.6250-1.1250 0.6250 (   362 PWs)   bands (ev):

    -4.6972   1.2345   3.5572   5.0277

          k = 0.6250 0.1250 0.8750 (   368 PWs)   bands (ev):

    -2.5735  -1.0528   1.9061   2.9549

          k = 1.1250-0.3750 1.3750 (   365 PWs)   bands (ev):

    -3.7698   0.0351   2.5892   3.9314

          k =-0.8750 0.1250 0.6250 (   368 PWs)   bands (ev):

    -2.5735  -1.0528   1.9061   2.9549

          k =-0.3750-0.3750 1.1250 (   369 PWs)   bands (ev):

    -3.1016  -0.7371   1.9546   3.9647

          k = 0.8750 0.1250-0.6250 (   368 PWs)   bands (ev):

    -2.5735  -1.0528   1.9061   2.9549

          k = 1.3750-0.3750-0.1250 (   365 PWs)   bands (ev):

    -3.7698   0.0351   2.5892   3.9314

          k = 0.3750-0.1250 0.6250 (   365 PWs)   bands (ev):

    -3.7698   0.0351   2.5892   3.9314

          k = 0.8750-0.6250 1.1250 (   358 PWs)   bands (ev):

    -5.1851   2.5841   4.5186   4.5708

          k =-0.6250-0.1250 0.3750 (   365 PWs)   bands (ev):

    -3.7698   0.0351   2.5892   3.9314

          k =-0.1250-0.6250 0.8750 (   368 PWs)   bands (ev):

    -2.5735  -1.0528   1.9061   2.9549

          k = 0.6250-0.1250-0.3750 (   365 PWs)   bands (ev):

    -3.7698   0.0351   2.5892   3.9314

          k = 1.1250-0.6250 0.1250 (   368 PWs)   bands (ev):

    -2.5735  -1.0528   1.9061   2.9549

          k =-0.1250 0.8750-0.1250 (   364 PWs)   bands (ev):

    -2.7316  -0.9601   2.4985   3.2016

          k = 0.3750 0.3750 0.3750 (   359 PWs)   bands (ev):

    -4.2754  -0.0204   4.7271   4.7271

          k = 0.1250 0.8750 0.1250 (   364 PWs)   bands (ev):

    -2.7316  -0.9601   2.4985   3.2016

          k = 0.6250 0.3750 0.6250 (   364 PWs)   bands (ev):

    -3.5882  -0.7951   3.5667   4.2741

          k = 0.3750-0.3750 0.3750 (   359 PWs)   bands (ev):

    -4.2754  -0.0204   4.7271   4.7271

          k = 0.8750-0.8750 0.8750 (   353 PWs)   bands (ev):

    -5.7028   4.1931   5.5044   5.5044

          k = 0.3750 0.3750 1.1250 (   369 PWs)   bands (ev):

    -3.1016  -0.7371   1.9546   3.9647

          k = 0.8750-0.1250 1.6250 (   368 PWs)   bands (ev):

    -2.5735  -1.0528   1.9061   2.9549

          k = 1.1250 0.3750-0.3750 (   369 PWs)   bands (ev):

    -3.1016  -0.7371   1.9546   3.9647

          k = 1.6250-0.1250 0.1250 (   358 PWs)   bands (ev):

    -5.1851   2.5841   4.5186   4.5708

     highest occupied level (ev):     5.5044

     Writing output data file silicon.10.402.save

                                                                                

     bravais-lattice index     =            2
     lattice parameter (alat)  =      10.4020  a.u.
     unit-cell volume          =     281.3783 (a.u.)^3
     number of atoms/cell      =            2
     number of atomic types    =            1
     kinetic-energy cut-off    =      18.0000  Ry
     charge density cut-off    =      72.0000  Ry
     convergence threshold     =      1.0E-12
     beta                      =       0.7000
     number of iterations used =            4
     Exchange-correlation      = SLA  PW   PBE  PBE ( 1  4  3  4 0 0)


     celldm(1)=   10.40200  celldm(2)=    0.00000  celldm(3)=    0.00000
     celldm(4)=    0.00000  celldm(5)=    0.00000  celldm(6)=    0.00000

     crystal axes: (cart. coord. in units of alat)
               a(1) = ( -0.5000  0.0000  0.5000 )  
               a(2) = (  0.0000  0.5000  0.5000 )  
               a(3) = ( -0.5000  0.5000  0.0000 )  

     reciprocal axes: (cart. coord. in units 2 pi/alat)
               b(1) = ( -1.0000 -1.0000  1.0000 )  
               b(2) = (  1.0000  1.0000  1.0000 )  
               b(3) = ( -1.0000  1.0000 -1.0000 )  


     Atoms inside the unit cell: 

     Cartesian axes

     site n.  atom      mass           positions (alat units)
        1     Si  28.0860   tau(    1) = (    0.00000    0.00000    0.00000  )
        2     Si  28.0860   tau(    2) = (    0.25000    0.25000    0.25000  )

     Computing dynamical matrix for 
                    q = (   0.5000000  -0.5000000   0.5000000 )

     13 Sym.Ops. (with q -> -q+G )


     G cutoff =  197.3361  (    722 G-vectors)     FFT grid: ( 20, 20, 20)
     number of k points=    60

     PseudoPot. # 1 for Si read from file:
     /home/max/quantum_espresso/qe-6.1/pseudo/si_pbe_v1.uspp.F.UPF.txt
     MD5 check sum: a056efeee980c13900f22a371efd63c1
     Pseudo is Ultrasoft + core correction, Zval =  4.0
     Generated by new atomic code, or converted to UPF format
     Using radial grid of  899 points,  6 beta functions with: 
                l(1) =   0
                l(2) =   0
                l(3) =   1
                l(4) =   1
                l(5) =   2
                l(6) =   2
     Q(r) pseudized with  8 coefficients,  rinner =    0.900   0.900   0.900
                                                       0.900   0.900


     Atomic displacements:
     There are   4 irreducible representations

     Representation     1      1 modes -  To be done

     Representation     2      1 modes -  To be done

     Representation     3      2 modes -  To be done

     Representation     4      2 modes -  To be done



     Alpha used in Ewald sum =   0.7000
     PHONON       :    15.40s CPU        16.49s WALL



     Representation #  1 mode #   1

     Self-consistent Calculation

      iter #   1 total cpu time :    16.6 secs   av.it.:   4.8
      thresh= 1.000E-02 alpha_mix =  0.700 |ddv_scf|^2 =  2.430E-05

      iter #   2 total cpu time :    16.7 secs   av.it.:   8.4
      thresh= 4.929E-04 alpha_mix =  0.700 |ddv_scf|^2 =  2.221E-05

      iter #   3 total cpu time :    16.9 secs   av.it.:   7.5
      thresh= 4.713E-04 alpha_mix =  0.700 |ddv_scf|^2 =  3.816E-08

      iter #   4 total cpu time :    17.0 secs   av.it.:   7.6
      thresh= 1.954E-05 alpha_mix =  0.700 |ddv_scf|^2 =  1.610E-10

      iter #   5 total cpu time :    17.2 secs   av.it.:   7.7
      thresh= 1.269E-06 alpha_mix =  0.700 |ddv_scf|^2 =  4.326E-12

      iter #   6 total cpu time :    17.3 secs   av.it.:   7.6
      thresh= 2.080E-07 alpha_mix =  0.700 |ddv_scf|^2 =  7.271E-14

     End of self-consistent calculation

     Convergence has been achieved 


     Representation #  2 mode #   2

     Self-consistent Calculation

      iter #   1 total cpu time :    17.6 secs   av.it.:   5.7
      thresh= 1.000E-02 alpha_mix =  0.700 |ddv_scf|^2 =  3.425E-04

      iter #   2 total cpu time :    17.7 secs   av.it.:   8.3
      thresh= 1.851E-03 alpha_mix =  0.700 |ddv_scf|^2 =  1.058E-03

      iter #   3 total cpu time :    17.9 secs   av.it.:   7.1
      thresh= 3.253E-03 alpha_mix =  0.700 |ddv_scf|^2 =  1.513E-07

      iter #   4 total cpu time :    18.0 secs   av.it.:   8.2
      thresh= 3.889E-05 alpha_mix =  0.700 |ddv_scf|^2 =  1.026E-08

      iter #   5 total cpu time :    18.2 secs   av.it.:   8.4
      thresh= 1.013E-05 alpha_mix =  0.700 |ddv_scf|^2 =  1.973E-10

      iter #   6 total cpu time :    18.3 secs   av.it.:   8.2
      thresh= 1.405E-06 alpha_mix =  0.700 |ddv_scf|^2 =  4.417E-12

      iter #   7 total cpu time :    18.4 secs   av.it.:   7.5
      thresh= 2.102E-07 alpha_mix =  0.700 |ddv_scf|^2 =  3.136E-14

     End of self-consistent calculation

     Convergence has been achieved 


     Representation #  3 modes #   3  4

     Self-consistent Calculation

      iter #   1 total cpu time :    18.7 secs   av.it.:   4.7
      thresh= 1.000E-02 alpha_mix =  0.700 |ddv_scf|^2 =  3.416E-07

      iter #   2 total cpu time :    19.0 secs   av.it.:   9.0
      thresh= 5.845E-05 alpha_mix =  0.700 |ddv_scf|^2 =  2.946E-08

      iter #   3 total cpu time :    19.2 secs   av.it.:   8.4
      thresh= 1.716E-05 alpha_mix =  0.700 |ddv_scf|^2 =  5.128E-10

      iter #   4 total cpu time :    19.7 secs   av.it.:   8.9
      thresh= 2.265E-06 alpha_mix =  0.700 |ddv_scf|^2 =  6.449E-12

      iter #   5 total cpu time :    20.0 secs   av.it.:   8.7
      thresh= 2.539E-07 alpha_mix =  0.700 |ddv_scf|^2 =  3.590E-14

     End of self-consistent calculation

     Convergence has been achieved 


     Representation #  4 modes #   5  6

     Self-consistent Calculation

      iter #   1 total cpu time :    20.2 secs   av.it.:   5.0
      thresh= 1.000E-02 alpha_mix =  0.700 |ddv_scf|^2 =  9.418E-07

      iter #   2 total cpu time :    20.5 secs   av.it.:   9.5
      thresh= 9.704E-05 alpha_mix =  0.700 |ddv_scf|^2 =  7.490E-08

      iter #   3 total cpu time :    20.8 secs   av.it.:   9.3
      thresh= 2.737E-05 alpha_mix =  0.700 |ddv_scf|^2 =  4.474E-09

      iter #   4 total cpu time :    21.1 secs   av.it.:   8.5
      thresh= 6.689E-06 alpha_mix =  0.700 |ddv_scf|^2 =  6.534E-12

      iter #   5 total cpu time :    21.4 secs   av.it.:   8.9
      thresh= 2.556E-07 alpha_mix =  0.700 |ddv_scf|^2 =  2.567E-14

     End of self-consistent calculation

     Convergence has been achieved 

     Number of q in the star =    4
     List of q in the star:
          1   0.500000000  -0.500000000   0.500000000
          2   0.500000000   0.500000000   0.500000000
          3  -0.500000000   0.500000000   0.500000000
          4   0.500000000   0.500000000  -0.500000000

     Diagonalizing the dynamical matrix

     q = (    0.500000000  -0.500000000   0.500000000 ) 

 **************************************************************************
     freq (    1) =       5.102738 [THz] =     170.209027 [cm-1]
     freq (    2) =       5.102738 [THz] =     170.209027 [cm-1]
     freq (    3) =      11.918388 [THz] =     397.554629 [cm-1]
     freq (    4) =      12.178337 [THz] =     406.225605 [cm-1]
     freq (    5) =      14.705495 [THz] =     490.522500 [cm-1]
     freq (    6) =      14.705495 [THz] =     490.522500 [cm-1]
 **************************************************************************

     Calculation of q =    0.0000000   0.5000000   0.0000000

   Info: using nr1, nr2, nr3 values from input

   Info: using nr1, nr2, nr3 values from input

     Parallelization info
     --------------------
     sticks:   dense  smooth     PW     G-vecs:    dense   smooth      PW
     Min          66      66     27                  722      722     181
     Max          67      67     28                  724      724     182
     Sum         265     265    109                 2891     2891     725



     bravais-lattice index     =            2
     lattice parameter (alat)  =      10.4020  a.u.
     unit-cell volume          =     281.3783 (a.u.)^3
     number of atoms/cell      =            2
     number of atomic types    =            1
     number of electrons       =         8.00
     number of Kohn-Sham states=            4
     kinetic-energy cutoff     =      18.0000  Ry
     charge density cutoff     =      72.0000  Ry
     Exchange-correlation      = SLA  PW   PBE  PBE ( 1  4  3  4 0 0)

     celldm(1)=  10.402000  celldm(2)=   0.000000  celldm(3)=   0.000000
     celldm(4)=   0.000000  celldm(5)=   0.000000  celldm(6)=   0.000000

     crystal axes: (cart. coord. in units of alat)
               a(1) = (  -0.500000   0.000000   0.500000 )  
               a(2) = (   0.000000   0.500000   0.500000 )  
               a(3) = (  -0.500000   0.500000   0.000000 )  

     reciprocal axes: (cart. coord. in units 2 pi/alat)
               b(1) = ( -1.000000 -1.000000  1.000000 )  
               b(2) = (  1.000000  1.000000  1.000000 )  
               b(3) = ( -1.000000  1.000000 -1.000000 )  


     PseudoPot. # 1 for Si read from file:
     /home/max/quantum_espresso/qe-6.1/pseudo/si_pbe_v1.uspp.F.UPF.txt
     MD5 check sum: a056efeee980c13900f22a371efd63c1
     Pseudo is Ultrasoft + core correction, Zval =  4.0
     Generated by new atomic code, or converted to UPF format
     Using radial grid of  899 points,  6 beta functions with: 
                l(1) =   0
                l(2) =   0
                l(3) =   1
                l(4) =   1
                l(5) =   2
                l(6) =   2
     Q(r) pseudized with  8 coefficients,  rinner =    0.900   0.900   0.900
                                                       0.900   0.900

     atomic species   valence    mass     pseudopotential
        Si             4.00    28.08600     Si( 1.00)

     48 Sym. Ops., with inversion, found



   Cartesian axes

     site n.     atom                  positions (alat units)
         1           Si  tau(   1) = (   0.0000000   0.0000000   0.0000000  )
         2           Si  tau(   2) = (   0.2500000   0.2500000   0.2500000  )

     number of k points=    80
                       cart. coord. in units 2pi/alat
        k(    1) = (  -0.1250000   0.1250000   0.1250000), wk =   0.0312500
        k(    2) = (  -0.1250000   0.6250000   0.1250000), wk =   0.0000000
        k(    3) = (  -0.3750000   0.3750000  -0.1250000), wk =   0.0625000
        k(    4) = (  -0.3750000   0.8750000  -0.1250000), wk =   0.0000000
        k(    5) = (   0.3750000  -0.3750000   0.6250000), wk =   0.0625000
        k(    6) = (   0.3750000   0.1250000   0.6250000), wk =   0.0000000
        k(    7) = (   0.1250000  -0.1250000   0.3750000), wk =   0.0625000
        k(    8) = (   0.1250000   0.3750000   0.3750000), wk =   0.0000000
        k(    9) = (  -0.1250000   0.6250000   0.1250000), wk =   0.0312500
        k(   10) = (  -0.1250000   1.1250000   0.1250000), wk =   0.0000000
        k(   11) = (   0.6250000  -0.1250000   0.8750000), wk =   0.0625000
        k(   12) = (   0.6250000   0.3750000   0.8750000), wk =   0.0000000
        k(   13) = (   0.3750000   0.1250000   0.6250000), wk =   0.0625000
        k(   14) = (   0.3750000   0.6250000   0.6250000), wk =   0.0000000
        k(   15) = (  -0.1250000  -0.8750000   0.1250000), wk =   0.0312500
        k(   16) = (  -0.1250000  -0.3750000   0.1250000), wk =   0.0000000
        k(   17) = (  -0.3750000   0.3750000   0.3750000), wk =   0.0312500
        k(   18) = (  -0.3750000   0.8750000   0.3750000), wk =   0.0000000
        k(   19) = (   0.3750000  -0.3750000   1.1250000), wk =   0.0625000
        k(   20) = (   0.3750000   0.1250000   1.1250000), wk =   0.0000000
        k(   21) = (  -0.1250000  -0.1250000   0.1250000), wk =   0.0312500
        k(   22) = (  -0.1250000   0.3750000   0.1250000), wk =   0.0000000
        k(   23) = (   0.1250000  -0.3750000   0.3750000), wk =   0.0625000
        k(   24) = (   0.1250000   0.1250000   0.3750000), wk =   0.0000000
        k(   25) = (   0.3750000  -0.1250000   0.3750000), wk =   0.0312500
        k(   26) = (   0.3750000   0.3750000   0.3750000), wk =   0.0000000
        k(   27) = (   0.3750000   0.1250000   0.3750000), wk =   0.0312500
        k(   28) = (   0.3750000   0.6250000   0.3750000), wk =   0.0000000
        k(   29) = (  -0.6250000   0.3750000  -0.3750000), wk =   0.0625000
        k(   30) = (  -0.6250000   0.8750000  -0.3750000), wk =   0.0000000
        k(   31) = (  -0.3750000   0.6250000  -0.3750000), wk =   0.0312500
        k(   32) = (  -0.3750000   1.1250000  -0.3750000), wk =   0.0000000
        k(   33) = (  -0.3750000  -0.6250000  -0.3750000), wk =   0.0312500
        k(   34) = (  -0.3750000  -0.1250000  -0.3750000), wk =   0.0000000
        k(   35) = (  -0.3750000   0.1250000  -0.1250000), wk =   0.0625000
        k(   36) = (  -0.3750000   0.6250000  -0.1250000), wk =   0.0000000
        k(   37) = (  -0.1250000   0.3750000  -0.1250000), wk =   0.0312500
        k(   38) = (  -0.1250000   0.8750000  -0.1250000), wk =   0.0000000
        k(   39) = (  -0.1250000  -0.3750000  -0.1250000), wk =   0.0312500
        k(   40) = (  -0.1250000   0.1250000  -0.1250000), wk =   0.0000000
        k(   41) = (  -0.1250000  -0.6250000   0.1250000), wk =   0.0312500
        k(   42) = (  -0.1250000  -0.1250000   0.1250000), wk =   0.0000000
        k(   43) = (   0.6250000  -0.1250000  -0.1250000), wk =   0.0625000
        k(   44) = (   0.6250000   0.3750000  -0.1250000), wk =   0.0000000
        k(   45) = (   0.6250000   0.1250000   0.1250000), wk =   0.0625000
        k(   46) = (   0.6250000   0.6250000   0.1250000), wk =   0.0000000
        k(   47) = (  -0.8750000   0.1250000  -0.6250000), wk =   0.0625000
        k(   48) = (  -0.8750000   0.6250000  -0.6250000), wk =   0.0000000
        k(   49) = (  -0.1250000   0.6250000  -0.8750000), wk =   0.0625000
        k(   50) = (  -0.1250000   1.1250000  -0.8750000), wk =   0.0000000
        k(   51) = (  -0.1250000   0.8750000  -0.6250000), wk =   0.0625000
        k(   52) = (  -0.1250000   1.3750000  -0.6250000), wk =   0.0000000
        k(   53) = (  -0.1250000  -0.8750000  -0.6250000), wk =   0.0625000
        k(   54) = (  -0.1250000  -0.3750000  -0.6250000), wk =   0.0000000
        k(   55) = (   0.8750000  -0.6250000   0.1250000), wk =   0.0625000
        k(   56) = (   0.8750000  -0.1250000   0.1250000), wk =   0.0000000
        k(   57) = (  -0.6250000  -0.1250000  -0.3750000), wk =   0.0625000
        k(   58) = (  -0.6250000   0.3750000  -0.3750000), wk =   0.0000000
        k(   59) = (   0.1250000   0.3750000  -0.6250000), wk =   0.0625000
        k(   60) = (   0.1250000   0.8750000  -0.6250000), wk =   0.0000000
        k(   61) = (   0.1250000   0.6250000  -0.3750000), wk =   0.0625000
        k(   62) = (   0.1250000   1.1250000  -0.3750000), wk =   0.0000000
        k(   63) = (   0.1250000  -0.6250000  -0.3750000), wk =   0.0625000
        k(   64) = (   0.1250000  -0.1250000  -0.3750000), wk =   0.0000000
        k(   65) = (   0.6250000  -0.3750000  -0.1250000), wk =   0.0625000
        k(   66) = (   0.6250000   0.1250000  -0.1250000), wk =   0.0000000
        k(   67) = (  -0.1250000   0.8750000   0.1250000), wk =   0.0312500
        k(   68) = (  -0.1250000   1.3750000   0.1250000), wk =   0.0000000
        k(   69) = (  -0.8750000  -0.1250000  -0.1250000), wk =   0.0625000
        k(   70) = (  -0.8750000   0.3750000  -0.1250000), wk =   0.0000000
        k(   71) = (  -0.8750000   0.1250000   0.1250000), wk =   0.0625000
        k(   72) = (  -0.8750000   0.6250000   0.1250000), wk =   0.0000000
        k(   73) = (  -0.3750000  -0.3750000   0.3750000), wk =   0.0312500
        k(   74) = (  -0.3750000   0.1250000   0.3750000), wk =   0.0000000
        k(   75) = (  -1.1250000   0.3750000  -0.3750000), wk =   0.0625000
        k(   76) = (  -1.1250000   0.8750000  -0.3750000), wk =   0.0000000
        k(   77) = (  -0.3750000   1.1250000  -0.3750000), wk =   0.0312500
        k(   78) = (  -0.3750000   1.6250000  -0.3750000), wk =   0.0000000
        k(   79) = (  -0.3750000  -1.1250000  -0.3750000), wk =   0.0312500
        k(   80) = (  -0.3750000  -0.6250000  -0.3750000), wk =   0.0000000

     Dense  grid:     2891 G-vectors     FFT dimensions: (  20,  20,  20)

     Estimated max dynamical RAM per process >       0.33MB

     Estimated total allocated dynamical RAM >       1.33MB

     Check: negative/imaginary core charge=   -0.000006    0.000000

     The potential is recalculated from file :
     ./_ph0/silicon.10.402.save/charge-density.dat

     Starting wfc are    8 atomic wfcs

     Band Structure Calculation
     Davidson diagonalization with overlap

     ethr =  1.25E-10,  avg # of iterations = 11.7

     total cpu time spent up to now is        1.9 secs

     End of band structure calculation

          k =-0.1250 0.1250 0.1250 (   353 PWs)   bands (ev):

    -5.7028   4.1931   5.5044   5.5044

          k =-0.1250 0.6250 0.1250 (   357 PWs)   bands (ev):

    -4.1739   0.8789   3.2207   3.6605

          k =-0.3750 0.3750-0.1250 (   362 PWs)   bands (ev):

    -4.6972   1.2345   3.5572   5.0277

          k =-0.3750 0.8750-0.1250 (   368 PWs)   bands (ev):

    -2.5735  -1.0528   1.9061   2.9549

          k = 0.3750-0.3750 0.6250 (   364 PWs)   bands (ev):

    -3.5882  -0.7951   3.5667   4.2741

          k = 0.3750 0.1250 0.6250 (   365 PWs)   bands (ev):

    -3.7698   0.0351   2.5892   3.9314

          k = 0.1250-0.1250 0.3750 (   358 PWs)   bands (ev):

    -5.1851   2.5841   4.5186   4.5708

          k = 0.1250 0.3750 0.3750 (   362 PWs)   bands (ev):

    -4.6972   1.2345   3.5572   5.0277

          k =-0.1250 0.6250 0.1250 (   357 PWs)   bands (ev):

    -4.1739   0.8789   3.2207   3.6605

          k =-0.1250 1.1250 0.1250 (   364 PWs)   bands (ev):

    -2.7316  -0.9601   2.4985   3.2016

          k = 0.6250-0.1250 0.8750 (   368 PWs)   bands (ev):

    -2.5735  -1.0528   1.9061   2.9549

          k = 0.6250 0.3750 0.8750 (   365 PWs)   bands (ev):

    -3.7698   0.0351   2.5892   3.9314

          k = 0.3750 0.1250 0.6250 (   365 PWs)   bands (ev):

    -3.7698   0.0351   2.5892   3.9314

          k = 0.3750 0.6250 0.6250 (   364 PWs)   bands (ev):

    -3.5882  -0.7951   3.5667   4.2741

          k =-0.1250-0.8750 0.1250 (   364 PWs)   bands (ev):

    -2.7316  -0.9601   2.4985   3.2016

          k =-0.1250-0.3750 0.1250 (   358 PWs)   bands (ev):

    -5.1851   2.5841   4.5186   4.5708

          k =-0.3750 0.3750 0.3750 (   359 PWs)   bands (ev):

    -4.2754  -0.0204   4.7271   4.7271

          k =-0.3750 0.8750 0.3750 (   369 PWs)   bands (ev):

    -3.1016  -0.7371   1.9546   3.9647

          k = 0.3750-0.3750 1.1250 (   369 PWs)   bands (ev):

    -3.1016  -0.7371   1.9546   3.9647

          k = 0.3750 0.1250 1.1250 (   368 PWs)   bands (ev):

    -2.5735  -1.0528   1.9061   2.9549

          k =-0.1250-0.1250 0.1250 (   353 PWs)   bands (ev):

    -5.7028   4.1931   5.5044   5.5044

          k =-0.1250 0.3750 0.1250 (   358 PWs)   bands (ev):

    -5.1851   2.5841   4.5186   4.5708

          k = 0.1250-0.3750 0.3750 (   362 PWs)   bands (ev):

    -4.6972   1.2345   3.5572   5.0277

          k = 0.1250 0.1250 0.3750 (   358 PWs)   bands (ev):

    -5.1851   2.5841   4.5186   4.5708

          k = 0.3750-0.1250 0.3750 (   362 PWs)   bands (ev):

    -4.6972   1.2345   3.5572   5.0277

          k = 0.3750 0.3750 0.3750 (   359 PWs)   bands (ev):

    -4.2754  -0.0204   4.7271   4.7271

          k = 0.3750 0.1250 0.3750 (   362 PWs)   bands (ev):

    -4.6972   1.2345   3.5572   5.0277

          k = 0.3750 0.6250 0.3750 (   364 PWs)   bands (ev):

    -3.5882  -0.7951   3.5667   4.2741

          k =-0.6250 0.3750-0.3750 (   364 PWs)   bands (ev):

    -3.5882  -0.7951   3.5667   4.2741

          k =-0.6250 0.8750-0.3750 (   365 PWs)   bands (ev):

    -3.7698   0.0351   2.5892   3.9314

          k =-0.3750 0.6250-0.3750 (   364 PWs)   bands (ev):

    -3.5882  -0.7951   3.5667   4.2741

          k =-0.3750 1.1250-0.3750 (   369 PWs)   bands (ev):

    -3.1016  -0.7371   1.9546   3.9647

          k =-0.3750-0.6250-0.3750 (   364 PWs)   bands (ev):

    -3.5882  -0.7951   3.5667   4.2741

          k =-0.3750-0.1250-0.3750 (   362 PWs)   bands (ev):

    -4.6972   1.2345   3.5572   5.0277

          k =-0.3750 0.1250-0.1250 (   358 PWs)   bands (ev):

    -5.1851   2.5841   4.5186   4.5708

          k =-0.3750 0.6250-0.1250 (   365 PWs)   bands (ev):

    -3.7698   0.0351   2.5892   3.9314

          k =-0.1250 0.3750-0.1250 (   358 PWs)   bands (ev):

    -5.1851   2.5841   4.5186   4.5708

          k =-0.1250 0.8750-0.1250 (   364 PWs)   bands (ev):

    -2.7316  -0.9601   2.4985   3.2016

          k =-0.1250-0.3750-0.1250 (   358 PWs)   bands (ev):

    -5.1851   2.5841   4.5186   4.5708

          k =-0.1250 0.1250-0.1250 (   353 PWs)   bands (ev):

    -5.7028   4.1931   5.5044   5.5044

          k =-0.1250-0.6250 0.1250 (   357 PWs)   bands (ev):

    -4.1739   0.8789   3.2207   3.6605

          k =-0.1250-0.1250 0.1250 (   353 PWs)   bands (ev):

    -5.7028   4.1931   5.5044   5.5044

          k = 0.6250-0.1250-0.1250 (   357 PWs)   bands (ev):

    -4.1739   0.8789   3.2207   3.6605

          k = 0.6250 0.3750-0.1250 (   365 PWs)   bands (ev):

    -3.7698   0.0351   2.5892   3.9314

          k = 0.6250 0.1250 0.1250 (   357 PWs)   bands (ev):

    -4.1739   0.8789   3.2207   3.6605

          k = 0.6250 0.6250 0.1250 (   369 PWs)   bands (ev):

    -3.1016  -0.7371   1.9546   3.9647

          k =-0.8750 0.1250-0.6250 (   368 PWs)   bands (ev):

    -2.5735  -1.0528   1.9061   2.9549

          k =-0.8750 0.6250-0.6250 (   362 PWs)   bands (ev):

    -4.6972   1.2345   3.5572   5.0277

          k =-0.1250 0.6250-0.8750 (   368 PWs)   bands (ev):

    -2.5735  -1.0528   1.9061   2.9549

          k =-0.1250 1.1250-0.8750 (   364 PWs)   bands (ev):

    -2.7316  -0.9601   2.4985   3.2016

          k =-0.1250 0.8750-0.6250 (   368 PWs)   bands (ev):

    -2.5735  -1.0528   1.9061   2.9549

          k =-0.1250 1.3750-0.6250 (   369 PWs)   bands (ev):

    -3.1016  -0.7371   1.9546   3.9647

          k =-0.1250-0.8750-0.6250 (   368 PWs)   bands (ev):

    -2.5735  -1.0528   1.9061   2.9549

          k =-0.1250-0.3750-0.6250 (   365 PWs)   bands (ev):

    -3.7698   0.0351   2.5892   3.9314

          k = 0.8750-0.6250 0.1250 (   368 PWs)   bands (ev):

    -2.5735  -1.0528   1.9061   2.9549

          k = 0.8750-0.1250 0.1250 (   364 PWs)   bands (ev):

    -2.7316  -0.9601   2.4985   3.2016

          k =-0.6250-0.1250-0.3750 (   365 PWs)   bands (ev):

    -3.7698   0.0351   2.5892   3.9314

          k =-0.6250 0.3750-0.3750 (   364 PWs)   bands (ev):

    -3.5882  -0.7951   3.5667   4.2741

          k = 0.1250 0.3750-0.6250 (   365 PWs)   bands (ev):

    -3.7698   0.0351   2.5892   3.9314

          k = 0.1250 0.8750-0.6250 (   368 PWs)   bands (ev):

    -2.5735  -1.0528   1.9061   2.9549

          k = 0.1250 0.6250-0.3750 (   365 PWs)   bands (ev):

    -3.7698   0.0351   2.5892   3.9314

          k = 0.1250 1.1250-0.3750 (   368 PWs)   bands (ev):

    -2.5735  -1.0528   1.9061   2.9549

          k = 0.1250-0.6250-0.3750 (   365 PWs)   bands (ev):

    -3.7698   0.0351   2.5892   3.9314

          k = 0.1250-0.1250-0.3750 (   358 PWs)   bands (ev):

    -5.1851   2.5841   4.5186   4.5708

          k = 0.6250-0.3750-0.1250 (   365 PWs)   bands (ev):

    -3.7698   0.0351   2.5892   3.9314

          k = 0.6250 0.1250-0.1250 (   357 PWs)   bands (ev):

    -4.1739   0.8789   3.2207   3.6605

          k =-0.1250 0.8750 0.1250 (   364 PWs)   bands (ev):

    -2.7316  -0.9601   2.4985   3.2016

          k =-0.1250 1.3750 0.1250 (   357 PWs)   bands (ev):

    -4.1739   0.8789   3.2207   3.6605

          k =-0.8750-0.1250-0.1250 (   364 PWs)   bands (ev):

    -2.7316  -0.9601   2.4985   3.2016

          k =-0.8750 0.3750-0.1250 (   368 PWs)   bands (ev):

    -2.5735  -1.0528   1.9061   2.9549

          k =-0.8750 0.1250 0.1250 (   364 PWs)   bands (ev):

    -2.7316  -0.9601   2.4985   3.2016

          k =-0.8750 0.6250 0.1250 (   368 PWs)   bands (ev):

    -2.5735  -1.0528   1.9061   2.9549

          k =-0.3750-0.3750 0.3750 (   359 PWs)   bands (ev):

    -4.2754  -0.0204   4.7271   4.7271

          k =-0.3750 0.1250 0.3750 (   362 PWs)   bands (ev):

    -4.6972   1.2345   3.5572   5.0277

          k =-1.1250 0.3750-0.3750 (   369 PWs)   bands (ev):

    -3.1016  -0.7371   1.9546   3.9647

          k =-1.1250 0.8750-0.3750 (   357 PWs)   bands (ev):

    -4.1739   0.8789   3.2207   3.6605

          k =-0.3750 1.1250-0.3750 (   369 PWs)   bands (ev):

    -3.1016  -0.7371   1.9546   3.9647

          k =-0.3750 1.6250-0.3750 (   359 PWs)   bands (ev):

    -4.2754  -0.0204   4.7271   4.7271

          k =-0.3750-1.1250-0.3750 (   369 PWs)   bands (ev):

    -3.1016  -0.7371   1.9546   3.9647

          k =-0.3750-0.6250-0.3750 (   364 PWs)   bands (ev):

    -3.5882  -0.7951   3.5667   4.2741

     highest occupied level (ev):     5.5044

     Writing output data file silicon.10.402.save

                                                                                

     bravais-lattice index     =            2
     lattice parameter (alat)  =      10.4020  a.u.
     unit-cell volume          =     281.3783 (a.u.)^3
     number of atoms/cell      =            2
     number of atomic types    =            1
     kinetic-energy cut-off    =      18.0000  Ry
     charge density cut-off    =      72.0000  Ry
     convergence threshold     =      1.0E-12
     beta                      =       0.7000
     number of iterations used =            4
     Exchange-correlation      = SLA  PW   PBE  PBE ( 1  4  3  4 0 0)


     celldm(1)=   10.40200  celldm(2)=    0.00000  celldm(3)=    0.00000
     celldm(4)=    0.00000  celldm(5)=    0.00000  celldm(6)=    0.00000

     crystal axes: (cart. coord. in units of alat)
               a(1) = ( -0.5000  0.0000  0.5000 )  
               a(2) = (  0.0000  0.5000  0.5000 )  
               a(3) = ( -0.5000  0.5000  0.0000 )  

     reciprocal axes: (cart. coord. in units 2 pi/alat)
               b(1) = ( -1.0000 -1.0000  1.0000 )  
               b(2) = (  1.0000  1.0000  1.0000 )  
               b(3) = ( -1.0000  1.0000 -1.0000 )  


     Atoms inside the unit cell: 

     Cartesian axes

     site n.  atom      mass           positions (alat units)
        1     Si  28.0860   tau(    1) = (    0.00000    0.00000    0.00000  )
        2     Si  28.0860   tau(    2) = (    0.25000    0.25000    0.25000  )

     Computing dynamical matrix for 
                    q = (   0.0000000   0.5000000   0.0000000 )

      8 Sym.Ops. (no q -> -q+G )


     G cutoff =  197.3361  (    722 G-vectors)     FFT grid: ( 20, 20, 20)
     number of k points=    80

     PseudoPot. # 1 for Si read from file:
     /home/max/quantum_espresso/qe-6.1/pseudo/si_pbe_v1.uspp.F.UPF.txt
     MD5 check sum: a056efeee980c13900f22a371efd63c1
     Pseudo is Ultrasoft + core correction, Zval =  4.0
     Generated by new atomic code, or converted to UPF format
     Using radial grid of  899 points,  6 beta functions with: 
                l(1) =   0
                l(2) =   0
                l(3) =   1
                l(4) =   1
                l(5) =   2
                l(6) =   2
     Q(r) pseudized with  8 coefficients,  rinner =    0.900   0.900   0.900
                                                       0.900   0.900

     Mode symmetry, C_4v (4mm)  point group:


     Atomic displacements:
     There are   4 irreducible representations

     Representation     1      1 modes -A_1  G_1 D_1  To be done

     Representation     2      1 modes -B_2  G_4 D_2'  To be done

     Representation     3      2 modes -E    G_5 D_5  To be done

     Representation     4      2 modes -E    G_5 D_5  To be done



     Alpha used in Ewald sum =   0.7000
     PHONON       :    20.88s CPU        22.43s WALL



     Representation #  1 mode #   1

     Self-consistent Calculation

      iter #   1 total cpu time :    22.6 secs   av.it.:   5.8
      thresh= 1.000E-02 alpha_mix =  0.700 |ddv_scf|^2 =  2.925E-03

      iter #   2 total cpu time :    22.8 secs   av.it.:   7.7
      thresh= 5.408E-03 alpha_mix =  0.700 |ddv_scf|^2 =  3.885E-02

      iter #   3 total cpu time :    22.9 secs   av.it.:   6.7
      thresh= 1.000E-02 alpha_mix =  0.700 |ddv_scf|^2 =  1.441E-07

      iter #   4 total cpu time :    23.1 secs   av.it.:   8.2
      thresh= 3.796E-05 alpha_mix =  0.700 |ddv_scf|^2 =  1.670E-08

      iter #   5 total cpu time :    23.3 secs   av.it.:   7.7
      thresh= 1.292E-05 alpha_mix =  0.700 |ddv_scf|^2 =  7.188E-10

      iter #   6 total cpu time :    23.6 secs   av.it.:   7.9
      thresh= 2.681E-06 alpha_mix =  0.700 |ddv_scf|^2 =  3.324E-12

      iter #   7 total cpu time :    23.8 secs   av.it.:   7.8
      thresh= 1.823E-07 alpha_mix =  0.700 |ddv_scf|^2 =  5.639E-13

     End of self-consistent calculation

     Convergence has been achieved 


     Representation #  2 mode #   2

     Self-consistent Calculation

      iter #   1 total cpu time :    23.9 secs   av.it.:   4.9
      thresh= 1.000E-02 alpha_mix =  0.700 |ddv_scf|^2 =  5.146E-06

      iter #   2 total cpu time :    24.1 secs   av.it.:   8.7
      thresh= 2.268E-04 alpha_mix =  0.700 |ddv_scf|^2 =  1.343E-06

      iter #   3 total cpu time :    24.3 secs   av.it.:   8.5
      thresh= 1.159E-04 alpha_mix =  0.700 |ddv_scf|^2 =  3.175E-08

      iter #   4 total cpu time :    24.5 secs   av.it.:   8.2
      thresh= 1.782E-05 alpha_mix =  0.700 |ddv_scf|^2 =  7.831E-10

      iter #   5 total cpu time :    24.7 secs   av.it.:   8.6
      thresh= 2.798E-06 alpha_mix =  0.700 |ddv_scf|^2 =  9.353E-12

      iter #   6 total cpu time :    24.9 secs   av.it.:   7.7
      thresh= 3.058E-07 alpha_mix =  0.700 |ddv_scf|^2 =  8.884E-14

     End of self-consistent calculation

     Convergence has been achieved 


     Representation #  3 modes #   3  4

     Self-consistent Calculation

      iter #   1 total cpu time :    25.2 secs   av.it.:   5.0
      thresh= 1.000E-02 alpha_mix =  0.700 |ddv_scf|^2 =  9.392E-07

      iter #   2 total cpu time :    25.7 secs   av.it.:   9.8
      thresh= 9.691E-05 alpha_mix =  0.700 |ddv_scf|^2 =  1.192E-07

      iter #   3 total cpu time :    26.1 secs   av.it.:   9.5
      thresh= 3.453E-05 alpha_mix =  0.700 |ddv_scf|^2 =  4.938E-09

      iter #   4 total cpu time :    26.5 secs   av.it.:   8.9
      thresh= 7.027E-06 alpha_mix =  0.700 |ddv_scf|^2 =  8.839E-12

      iter #   5 total cpu time :    26.9 secs   av.it.:   9.1
      thresh= 2.973E-07 alpha_mix =  0.700 |ddv_scf|^2 =  3.021E-13

     End of self-consistent calculation

     Convergence has been achieved 


     Representation #  4 modes #   5  6

     Self-consistent Calculation

      iter #   1 total cpu time :    27.2 secs   av.it.:   5.0
      thresh= 1.000E-02 alpha_mix =  0.700 |ddv_scf|^2 =  9.427E-07

      iter #   2 total cpu time :    27.8 secs   av.it.:   9.8
      thresh= 9.709E-05 alpha_mix =  0.700 |ddv_scf|^2 =  1.196E-07

      iter #   3 total cpu time :    28.2 secs   av.it.:   9.5
      thresh= 3.459E-05 alpha_mix =  0.700 |ddv_scf|^2 =  7.366E-09

      iter #   4 total cpu time :    28.5 secs   av.it.:   8.9
      thresh= 8.583E-06 alpha_mix =  0.700 |ddv_scf|^2 =  1.549E-11

      iter #   5 total cpu time :    28.9 secs   av.it.:   9.2
      thresh= 3.935E-07 alpha_mix =  0.700 |ddv_scf|^2 =  4.607E-14

     End of self-consistent calculation

     Convergence has been achieved 

     Number of q in the star =    6
     List of q in the star:
          1   0.000000000   0.500000000   0.000000000
          2   0.000000000  -0.500000000   0.000000000
          3   0.500000000   0.000000000   0.000000000
          4   0.000000000   0.000000000   0.500000000
          5   0.000000000   0.000000000  -0.500000000
          6  -0.500000000   0.000000000   0.000000000

     Diagonalizing the dynamical matrix

     q = (    0.000000000   0.500000000   0.000000000 ) 

 **************************************************************************
     freq (    1) =       4.407545 [THz] =     147.019885 [cm-1]
     freq (    2) =       4.407545 [THz] =     147.019885 [cm-1]
     freq (    3) =       7.013766 [THz] =     233.954060 [cm-1]
     freq (    4) =      14.213131 [THz] =     474.099011 [cm-1]
     freq (    5) =      14.213131 [THz] =     474.099011 [cm-1]
     freq (    6) =      14.919940 [THz] =     497.675641 [cm-1]
 **************************************************************************

     Mode symmetry, C_4v (4mm)  point group:

     freq (  1 -  2) =        147.0  [cm-1]   --> E    G_5 D_5       
     freq (  3 -  3) =        234.0  [cm-1]   --> A_1  G_1 D_1       
     freq (  4 -  5) =        474.1  [cm-1]   --> E    G_5 D_5       
     freq (  6 -  6) =        497.7  [cm-1]   --> B_2  G_4 D_2'      

     Calculation of q =    0.7500000  -0.2500000   0.7500000

   Info: using nr1, nr2, nr3 values from input

   Info: using nr1, nr2, nr3 values from input

     Parallelization info
     --------------------
     sticks:   dense  smooth     PW     G-vecs:    dense   smooth      PW
     Min          65      65     30                  722      722     216
     Max          67      67     31                  723      723     218
     Sum         265     265    121                 2891     2891     869



     bravais-lattice index     =            2
     lattice parameter (alat)  =      10.4020  a.u.
     unit-cell volume          =     281.3783 (a.u.)^3
     number of atoms/cell      =            2
     number of atomic types    =            1
     number of electrons       =         8.00
     number of Kohn-Sham states=            4
     kinetic-energy cutoff     =      18.0000  Ry
     charge density cutoff     =      72.0000  Ry
     Exchange-correlation      = SLA  PW   PBE  PBE ( 1  4  3  4 0 0)

     celldm(1)=  10.402000  celldm(2)=   0.000000  celldm(3)=   0.000000
     celldm(4)=   0.000000  celldm(5)=   0.000000  celldm(6)=   0.000000

     crystal axes: (cart. coord. in units of alat)
               a(1) = (  -0.500000   0.000000   0.500000 )  
               a(2) = (   0.000000   0.500000   0.500000 )  
               a(3) = (  -0.500000   0.500000   0.000000 )  

     reciprocal axes: (cart. coord. in units 2 pi/alat)
               b(1) = ( -1.000000 -1.000000  1.000000 )  
               b(2) = (  1.000000  1.000000  1.000000 )  
               b(3) = ( -1.000000  1.000000 -1.000000 )  


     PseudoPot. # 1 for Si read from file:
     /home/max/quantum_espresso/qe-6.1/pseudo/si_pbe_v1.uspp.F.UPF.txt
     MD5 check sum: a056efeee980c13900f22a371efd63c1
     Pseudo is Ultrasoft + core correction, Zval =  4.0
     Generated by new atomic code, or converted to UPF format
     Using radial grid of  899 points,  6 beta functions with: 
                l(1) =   0
                l(2) =   0
                l(3) =   1
                l(4) =   1
                l(5) =   2
                l(6) =   2
     Q(r) pseudized with  8 coefficients,  rinner =    0.900   0.900   0.900
                                                       0.900   0.900

     atomic species   valence    mass     pseudopotential
        Si             4.00    28.08600     Si( 1.00)

     48 Sym. Ops., with inversion, found



   Cartesian axes

     site n.     atom                  positions (alat units)
         1           Si  tau(   1) = (   0.0000000   0.0000000   0.0000000  )
         2           Si  tau(   2) = (   0.2500000   0.2500000   0.2500000  )

     number of k points=   288

     Number of k-points >= 100: set verbosity='high' to print them.

     Dense  grid:     2891 G-vectors     FFT dimensions: (  20,  20,  20)

     Estimated max dynamical RAM per process >       0.33MB

     Estimated total allocated dynamical RAM >       1.33MB

     Check: negative/imaginary core charge=   -0.000006    0.000000

     The potential is recalculated from file :
     ./_ph0/silicon.10.402.save/charge-density.dat

     Starting wfc are    8 atomic wfcs

     Band Structure Calculation
     Davidson diagonalization with overlap

     ethr =  1.25E-10,  avg # of iterations = 11.6

     total cpu time spent up to now is        3.9 secs

     End of band structure calculation

     Number of k-points >= 100: set verbosity='high' to print the bands.

     highest occupied level (ev):     5.5044

     Writing output data file silicon.10.402.save

                                                                                

     bravais-lattice index     =            2
     lattice parameter (alat)  =      10.4020  a.u.
     unit-cell volume          =     281.3783 (a.u.)^3
     number of atoms/cell      =            2
     number of atomic types    =            1
     kinetic-energy cut-off    =      18.0000  Ry
     charge density cut-off    =      72.0000  Ry
     convergence threshold     =      1.0E-12
     beta                      =       0.7000
     number of iterations used =            4
     Exchange-correlation      = SLA  PW   PBE  PBE ( 1  4  3  4 0 0)


     celldm(1)=   10.40200  celldm(2)=    0.00000  celldm(3)=    0.00000
     celldm(4)=    0.00000  celldm(5)=    0.00000  celldm(6)=    0.00000

     crystal axes: (cart. coord. in units of alat)
               a(1) = ( -0.5000  0.0000  0.5000 )  
               a(2) = (  0.0000  0.5000  0.5000 )  
               a(3) = ( -0.5000  0.5000  0.0000 )  

     reciprocal axes: (cart. coord. in units 2 pi/alat)
               b(1) = ( -1.0000 -1.0000  1.0000 )  
               b(2) = (  1.0000  1.0000  1.0000 )  
               b(3) = ( -1.0000  1.0000 -1.0000 )  


     Atoms inside the unit cell: 

     Cartesian axes

     site n.  atom      mass           positions (alat units)
        1     Si  28.0860   tau(    1) = (    0.00000    0.00000    0.00000  )
        2     Si  28.0860   tau(    2) = (    0.25000    0.25000    0.25000  )

     Computing dynamical matrix for 
                    q = (   0.7500000  -0.2500000   0.7500000 )

      2 Sym.Ops. (no q -> -q+G )


     G cutoff =  197.3361  (    723 G-vectors)     FFT grid: ( 20, 20, 20)
     number of k points=   288

     PseudoPot. # 1 for Si read from file:
     /home/max/quantum_espresso/qe-6.1/pseudo/si_pbe_v1.uspp.F.UPF.txt
     MD5 check sum: a056efeee980c13900f22a371efd63c1
     Pseudo is Ultrasoft + core correction, Zval =  4.0
     Generated by new atomic code, or converted to UPF format
     Using radial grid of  899 points,  6 beta functions with: 
                l(1) =   0
                l(2) =   0
                l(3) =   1
                l(4) =   1
                l(5) =   2
                l(6) =   2
     Q(r) pseudized with  8 coefficients,  rinner =    0.900   0.900   0.900
                                                       0.900   0.900

     Mode symmetry, C_s (m)     point group:


     Atomic displacements:
     There are   6 irreducible representations

     Representation     1      1 modes -A'  To be done

     Representation     2      1 modes -A'  To be done

     Representation     3      1 modes -A'  To be done

     Representation     4      1 modes -A'  To be done

     Representation     5      1 modes -A''  To be done

     Representation     6      1 modes -A''  To be done



     Alpha used in Ewald sum =   0.7000
     PHONON       :    29.50s CPU        31.78s WALL



     Representation #  1 mode #   1

     Self-consistent Calculation

      iter #   1 total cpu time :    32.3 secs   av.it.:   5.3
      thresh= 1.000E-02 alpha_mix =  0.700 |ddv_scf|^2 =  6.045E-05

      iter #   2 total cpu time :    32.9 secs   av.it.:   8.9
      thresh= 7.775E-04 alpha_mix =  0.700 |ddv_scf|^2 =  1.608E-04

      iter #   3 total cpu time :    33.7 secs   av.it.:   7.6
      thresh= 1.268E-03 alpha_mix =  0.700 |ddv_scf|^2 =  1.128E-06

      iter #   4 total cpu time :    34.3 secs   av.it.:   8.4
      thresh= 1.062E-04 alpha_mix =  0.700 |ddv_scf|^2 =  5.853E-08

      iter #   5 total cpu time :    34.9 secs   av.it.:   8.3
      thresh= 2.419E-05 alpha_mix =  0.700 |ddv_scf|^2 =  7.384E-09

      iter #   6 total cpu time :    35.7 secs   av.it.:   8.5
      thresh= 8.593E-06 alpha_mix =  0.700 |ddv_scf|^2 =  1.024E-10

      iter #   7 total cpu time :    36.4 secs   av.it.:   8.7
      thresh= 1.012E-06 alpha_mix =  0.700 |ddv_scf|^2 =  3.576E-12

      iter #   8 total cpu time :    37.0 secs   av.it.:   8.6
      thresh= 1.891E-07 alpha_mix =  0.700 |ddv_scf|^2 =  2.867E-13

     End of self-consistent calculation

     Convergence has been achieved 


     Representation #  2 mode #   2

     Self-consistent Calculation

      iter #   1 total cpu time :    37.7 secs   av.it.:   5.4
      thresh= 1.000E-02 alpha_mix =  0.700 |ddv_scf|^2 =  1.082E-04

      iter #   2 total cpu time :    38.4 secs   av.it.:   8.7
      thresh= 1.040E-03 alpha_mix =  0.700 |ddv_scf|^2 =  3.104E-04

      iter #   3 total cpu time :    39.0 secs   av.it.:   7.4
      thresh= 1.762E-03 alpha_mix =  0.700 |ddv_scf|^2 =  8.169E-07

      iter #   4 total cpu time :    39.8 secs   av.it.:   8.5
      thresh= 9.038E-05 alpha_mix =  0.700 |ddv_scf|^2 =  5.583E-08

      iter #   5 total cpu time :    40.4 secs   av.it.:   8.3
      thresh= 2.363E-05 alpha_mix =  0.700 |ddv_scf|^2 =  1.072E-08

      iter #   6 total cpu time :    41.0 secs   av.it.:   8.5
      thresh= 1.035E-05 alpha_mix =  0.700 |ddv_scf|^2 =  1.088E-10

      iter #   7 total cpu time :    41.8 secs   av.it.:   8.7
      thresh= 1.043E-06 alpha_mix =  0.700 |ddv_scf|^2 =  3.049E-12

      iter #   8 total cpu time :    42.5 secs   av.it.:   8.6
      thresh= 1.746E-07 alpha_mix =  0.700 |ddv_scf|^2 =  7.626E-13

     End of self-consistent calculation

     Convergence has been achieved 


     Representation #  3 mode #   3

     Self-consistent Calculation

      iter #   1 total cpu time :    43.0 secs   av.it.:   5.3
      thresh= 1.000E-02 alpha_mix =  0.700 |ddv_scf|^2 =  8.508E-05

      iter #   2 total cpu time :    43.8 secs   av.it.:   8.8
      thresh= 9.224E-04 alpha_mix =  0.700 |ddv_scf|^2 =  2.274E-04

      iter #   3 total cpu time :    44.4 secs   av.it.:   7.4
      thresh= 1.508E-03 alpha_mix =  0.700 |ddv_scf|^2 =  1.391E-06

      iter #   4 total cpu time :    45.0 secs   av.it.:   8.2
      thresh= 1.179E-04 alpha_mix =  0.700 |ddv_scf|^2 =  5.825E-08

      iter #   5 total cpu time :    45.8 secs   av.it.:   8.4
      thresh= 2.413E-05 alpha_mix =  0.700 |ddv_scf|^2 =  1.095E-08

      iter #   6 total cpu time :    46.5 secs   av.it.:   8.5
      thresh= 1.046E-05 alpha_mix =  0.700 |ddv_scf|^2 =  6.492E-11

      iter #   7 total cpu time :    47.1 secs   av.it.:   8.6
      thresh= 8.057E-07 alpha_mix =  0.700 |ddv_scf|^2 =  2.438E-12

      iter #   8 total cpu time :    48.0 secs   av.it.:   8.7
      thresh= 1.562E-07 alpha_mix =  0.700 |ddv_scf|^2 =  7.551E-13

     End of self-consistent calculation

     Convergence has been achieved 


     Representation #  4 mode #   4

     Self-consistent Calculation

      iter #   1 total cpu time :    48.5 secs   av.it.:   5.2
      thresh= 1.000E-02 alpha_mix =  0.700 |ddv_scf|^2 =  3.731E-05

      iter #   2 total cpu time :    49.2 secs   av.it.:   8.9
[...]
        k(   59) = (  -0.8750000   0.1250000  -0.1250000), wk =   0.0625000
        k(   60) = (  -1.3750000  -0.8750000  -0.1250000), wk =   0.0000000
        k(   61) = (  -1.1250000   0.3750000  -0.3750000), wk =   0.0625000
        k(   62) = (  -1.6250000  -0.6250000  -0.3750000), wk =   0.0000000
        k(   63) = (  -0.3750000   0.3750000   1.1250000), wk =   0.0625000
        k(   64) = (  -0.8750000  -0.6250000   1.1250000), wk =   0.0000000

     Dense  grid:     2891 G-vectors     FFT dimensions: (  20,  20,  20)

     Estimated max dynamical RAM per process >       0.33MB

     Estimated total allocated dynamical RAM >       1.33MB

     Check: negative/imaginary core charge=   -0.000006    0.000000

     The potential is recalculated from file :
     ./_ph0/silicon.10.402.save/charge-density.dat

     Starting wfc are    8 atomic wfcs

     Band Structure Calculation
     Davidson diagonalization with overlap

     ethr =  1.25E-10,  avg # of iterations = 11.6

     total cpu time spent up to now is        6.1 secs

     End of band structure calculation

          k =-0.1250 0.1250 0.1250 (   353 PWs)   bands (ev):

    -5.7028   4.1931   5.5044   5.5044

          k =-0.6250-0.8750 0.1250 (   368 PWs)   bands (ev):

    -2.5735  -1.0528   1.9061   2.9549

          k =-0.3750 0.3750-0.1250 (   362 PWs)   bands (ev):

    -4.6972   1.2345   3.5572   5.0277

          k =-0.8750-0.6250-0.1250 (   368 PWs)   bands (ev):

    -2.5735  -1.0528   1.9061   2.9549

          k = 0.3750-0.3750 0.6250 (   364 PWs)   bands (ev):

    -3.5882  -0.7951   3.5667   4.2741

          k =-0.1250-1.3750 0.6250 (   369 PWs)   bands (ev):

    -3.1016  -0.7371   1.9546   3.9647

          k = 0.1250-0.1250 0.3750 (   358 PWs)   bands (ev):

    -5.1851   2.5841   4.5186   4.5708

          k =-0.3750-1.1250 0.3750 (   369 PWs)   bands (ev):

    -3.1016  -0.7371   1.9546   3.9647

          k =-0.1250 0.6250 0.1250 (   357 PWs)   bands (ev):

    -4.1739   0.8789   3.2207   3.6605

          k =-0.6250-0.3750 0.1250 (   365 PWs)   bands (ev):

    -3.7698   0.0351   2.5892   3.9314

          k = 0.6250-0.1250 0.8750 (   368 PWs)   bands (ev):

    -2.5735  -1.0528   1.9061   2.9549

          k = 0.1250-1.1250 0.8750 (   364 PWs)   bands (ev):

    -2.7316  -0.9601   2.4985   3.2016

          k = 0.3750 0.1250 0.6250 (   365 PWs)   bands (ev):

    -3.7698   0.0351   2.5892   3.9314

          k =-0.1250-0.8750 0.6250 (   368 PWs)   bands (ev):

    -2.5735  -1.0528   1.9061   2.9549

          k =-0.1250-0.8750 0.1250 (   364 PWs)   bands (ev):

    -2.7316  -0.9601   2.4985   3.2016

          k =-0.6250-1.8750 0.1250 (   357 PWs)   bands (ev):

    -4.1739   0.8789   3.2207   3.6605

          k =-0.3750 0.3750 0.3750 (   359 PWs)   bands (ev):

    -4.2754  -0.0204   4.7271   4.7271

          k =-0.8750-0.6250 0.3750 (   365 PWs)   bands (ev):

    -3.7698   0.0351   2.5892   3.9314

          k = 0.3750-0.3750 1.1250 (   369 PWs)   bands (ev):

    -3.1016  -0.7371   1.9546   3.9647

          k =-0.1250-1.3750 1.1250 (   368 PWs)   bands (ev):

    -2.5735  -1.0528   1.9061   2.9549

          k = 0.1250-0.3750 0.3750 (   362 PWs)   bands (ev):

    -4.6972   1.2345   3.5572   5.0277

          k =-0.3750-1.3750 0.3750 (   364 PWs)   bands (ev):

    -3.5882  -0.7951   3.5667   4.2741

          k = 0.3750-0.3750-0.1250 (   362 PWs)   bands (ev):

    -4.6972   1.2345   3.5572   5.0277

          k =-0.1250-1.3750-0.1250 (   357 PWs)   bands (ev):

    -4.1739   0.8789   3.2207   3.6605

          k =-0.6250 0.3750-0.3750 (   364 PWs)   bands (ev):

    -3.5882  -0.7951   3.5667   4.2741

          k =-1.1250-0.6250-0.3750 (   365 PWs)   bands (ev):

    -3.7698   0.0351   2.5892   3.9314

          k =-0.3750 0.3750 0.6250 (   364 PWs)   bands (ev):

    -3.5882  -0.7951   3.5667   4.2741

          k =-0.8750-0.6250 0.6250 (   362 PWs)   bands (ev):

    -4.6972   1.2345   3.5572   5.0277

          k =-0.3750 0.1250-0.1250 (   358 PWs)   bands (ev):

    -5.1851   2.5841   4.5186   4.5708

          k =-0.8750-0.8750-0.1250 (   364 PWs)   bands (ev):

    -2.7316  -0.9601   2.4985   3.2016

          k =-0.1250 0.1250 0.3750 (   358 PWs)   bands (ev):

    -5.1851   2.5841   4.5186   4.5708

          k =-0.6250-0.8750 0.3750 (   365 PWs)   bands (ev):

    -3.7698   0.0351   2.5892   3.9314

          k = 0.1250 0.6250-0.1250 (   357 PWs)   bands (ev):

    -4.1739   0.8789   3.2207   3.6605

          k =-0.3750-0.3750-0.1250 (   362 PWs)   bands (ev):

    -4.6972   1.2345   3.5572   5.0277

          k = 0.6250 0.1250-0.1250 (   357 PWs)   bands (ev):

    -4.1739   0.8789   3.2207   3.6605

          k = 0.1250-0.8750-0.1250 (   364 PWs)   bands (ev):

    -2.7316  -0.9601   2.4985   3.2016

          k =-0.8750 0.1250-0.6250 (   368 PWs)   bands (ev):

    -2.5735  -1.0528   1.9061   2.9549

          k =-1.3750-0.8750-0.6250 (   362 PWs)   bands (ev):

    -4.6972   1.2345   3.5572   5.0277

          k = 0.8750-0.1250 0.6250 (   368 PWs)   bands (ev):

    -2.5735  -1.0528   1.9061   2.9549

          k = 0.3750-1.1250 0.6250 (   365 PWs)   bands (ev):

    -3.7698   0.0351   2.5892   3.9314

          k =-0.6250 0.1250 0.8750 (   368 PWs)   bands (ev):

    -2.5735  -1.0528   1.9061   2.9549

          k =-1.1250-0.8750 0.8750 (   353 PWs)   bands (ev):

    -5.7028   4.1931   5.5044   5.5044

          k =-0.1250 0.8750 0.6250 (   368 PWs)   bands (ev):

    -2.5735  -1.0528   1.9061   2.9549

          k =-0.6250-0.1250 0.6250 (   369 PWs)   bands (ev):

    -3.1016  -0.7371   1.9546   3.9647

          k = 0.1250 0.8750-0.6250 (   368 PWs)   bands (ev):

    -2.5735  -1.0528   1.9061   2.9549

          k =-0.3750-0.1250-0.6250 (   365 PWs)   bands (ev):

    -3.7698   0.0351   2.5892   3.9314

          k =-0.6250-0.1250-0.3750 (   365 PWs)   bands (ev):

    -3.7698   0.0351   2.5892   3.9314

          k =-1.1250-1.1250-0.3750 (   357 PWs)   bands (ev):

    -4.1739   0.8789   3.2207   3.6605

          k = 0.6250 0.1250 0.3750 (   365 PWs)   bands (ev):

    -3.7698   0.0351   2.5892   3.9314

          k = 0.1250-0.8750 0.3750 (   368 PWs)   bands (ev):

    -2.5735  -1.0528   1.9061   2.9549

          k =-0.3750-0.1250 0.6250 (   365 PWs)   bands (ev):

    -3.7698   0.0351   2.5892   3.9314

          k =-0.8750-1.1250 0.6250 (   358 PWs)   bands (ev):

    -5.1851   2.5841   4.5186   4.5708

          k = 0.1250 0.6250 0.3750 (   365 PWs)   bands (ev):

    -3.7698   0.0351   2.5892   3.9314

          k =-0.3750-0.3750 0.3750 (   359 PWs)   bands (ev):

    -4.2754  -0.0204   4.7271   4.7271

          k =-0.1250 0.6250-0.3750 (   365 PWs)   bands (ev):

    -3.7698   0.0351   2.5892   3.9314

          k =-0.6250-0.3750-0.3750 (   364 PWs)   bands (ev):

    -3.5882  -0.7951   3.5667   4.2741

          k = 0.1250-0.8750-0.1250 (   364 PWs)   bands (ev):

    -2.7316  -0.9601   2.4985   3.2016

          k =-0.3750-1.8750-0.1250 (   358 PWs)   bands (ev):

    -5.1851   2.5841   4.5186   4.5708

          k =-0.8750 0.1250-0.1250 (   364 PWs)   bands (ev):

    -2.7316  -0.9601   2.4985   3.2016

          k =-1.3750-0.8750-0.1250 (   368 PWs)   bands (ev):

    -2.5735  -1.0528   1.9061   2.9549

          k =-1.1250 0.3750-0.3750 (   369 PWs)   bands (ev):

    -3.1016  -0.7371   1.9546   3.9647

          k =-1.6250-0.6250-0.3750 (   364 PWs)   bands (ev):

    -3.5882  -0.7951   3.5667   4.2741

          k =-0.3750 0.3750 1.1250 (   369 PWs)   bands (ev):

    -3.1016  -0.7371   1.9546   3.9647

          k =-0.8750-0.6250 1.1250 (   358 PWs)   bands (ev):

    -5.1851   2.5841   4.5186   4.5708

     highest occupied level (ev):     5.5044

     Writing output data file silicon.10.402.save

                                                                                

     bravais-lattice index     =            2
     lattice parameter (alat)  =      10.4020  a.u.
     unit-cell volume          =     281.3783 (a.u.)^3
     number of atoms/cell      =            2
     number of atomic types    =            1
     kinetic-energy cut-off    =      18.0000  Ry
     charge density cut-off    =      72.0000  Ry
     convergence threshold     =      1.0E-12
     beta                      =       0.7000
     number of iterations used =            4
     Exchange-correlation      = SLA  PW   PBE  PBE ( 1  4  3  4 0 0)


     celldm(1)=   10.40200  celldm(2)=    0.00000  celldm(3)=    0.00000
     celldm(4)=    0.00000  celldm(5)=    0.00000  celldm(6)=    0.00000

     crystal axes: (cart. coord. in units of alat)
               a(1) = ( -0.5000  0.0000  0.5000 )  
               a(2) = (  0.0000  0.5000  0.5000 )  
               a(3) = ( -0.5000  0.5000  0.0000 )  

     reciprocal axes: (cart. coord. in units 2 pi/alat)
               b(1) = ( -1.0000 -1.0000  1.0000 )  
               b(2) = (  1.0000  1.0000  1.0000 )  
               b(3) = ( -1.0000  1.0000 -1.0000 )  


     Atoms inside the unit cell: 

     Cartesian axes

     site n.  atom      mass           positions (alat units)
        1     Si  28.0860   tau(    1) = (    0.00000    0.00000    0.00000  )
        2     Si  28.0860   tau(    2) = (    0.25000    0.25000    0.25000  )

     Computing dynamical matrix for 
                    q = (  -0.5000000  -1.0000000   0.0000000 )

      8 Sym.Ops. (no q -> -q+G )


     G cutoff =  197.3361  (    722 G-vectors)     FFT grid: ( 20, 20, 20)
     number of k points=    64

     PseudoPot. # 1 for Si read from file:
     /home/max/quantum_espresso/qe-6.1/pseudo/si_pbe_v1.uspp.F.UPF.txt
     MD5 check sum: a056efeee980c13900f22a371efd63c1
     Pseudo is Ultrasoft + core correction, Zval =  4.0
     Generated by new atomic code, or converted to UPF format
     Using radial grid of  899 points,  6 beta functions with: 
                l(1) =   0
                l(2) =   0
                l(3) =   1
                l(4) =   1
                l(5) =   2
                l(6) =   2
     Q(r) pseudized with  8 coefficients,  rinner =    0.900   0.900   0.900
                                                       0.900   0.900


     Atomic displacements:
     There are   3 irreducible representations

     Representation     1      2 modes -  To be done

     Representation     2      2 modes -  To be done

     Representation     3      2 modes -  To be done



     Alpha used in Ewald sum =   0.7000
     PHONON       :  1m13.70s CPU     1m19.06s WALL



     Representation #  1 modes #   1  2

     Self-consistent Calculation

      iter #   1 total cpu time :    79.3 secs   av.it.:   5.3
      thresh= 1.000E-02 alpha_mix =  0.700 |ddv_scf|^2 =  6.408E-06

      iter #   2 total cpu time :    79.8 secs   av.it.:   9.8
      thresh= 2.531E-04 alpha_mix =  0.700 |ddv_scf|^2 =  3.446E-06

      iter #   3 total cpu time :    80.1 secs   av.it.:   9.2
      thresh= 1.856E-04 alpha_mix =  0.700 |ddv_scf|^2 =  8.562E-09

      iter #   4 total cpu time :    80.4 secs   av.it.:   9.1
      thresh= 9.253E-06 alpha_mix =  0.700 |ddv_scf|^2 =  3.543E-11

      iter #   5 total cpu time :    80.7 secs   av.it.:   8.8
      thresh= 5.953E-07 alpha_mix =  0.700 |ddv_scf|^2 =  7.637E-13

     End of self-consistent calculation

     Convergence has been achieved 


     Representation #  2 modes #   3  4

     Self-consistent Calculation

      iter #   1 total cpu time :    81.0 secs   av.it.:   5.2
      thresh= 1.000E-02 alpha_mix =  0.700 |ddv_scf|^2 =  9.699E-06

      iter #   2 total cpu time :    81.3 secs   av.it.:   9.9
      thresh= 3.114E-04 alpha_mix =  0.700 |ddv_scf|^2 =  1.320E-05

      iter #   3 total cpu time :    81.8 secs   av.it.:   9.1
      thresh= 3.633E-04 alpha_mix =  0.700 |ddv_scf|^2 =  1.018E-08

      iter #   4 total cpu time :    82.1 secs   av.it.:   8.9
      thresh= 1.009E-05 alpha_mix =  0.700 |ddv_scf|^2 =  9.677E-11

      iter #   5 total cpu time :    82.4 secs   av.it.:   9.4
      thresh= 9.837E-07 alpha_mix =  0.700 |ddv_scf|^2 =  1.863E-12

      iter #   6 total cpu time :    82.7 secs   av.it.:   9.1
      thresh= 1.365E-07 alpha_mix =  0.700 |ddv_scf|^2 =  1.617E-14

     End of self-consistent calculation

     Convergence has been achieved 


     Representation #  3 modes #   5  6

     Self-consistent Calculation

      iter #   1 total cpu time :    83.0 secs   av.it.:   5.1
      thresh= 1.000E-02 alpha_mix =  0.700 |ddv_scf|^2 =  2.645E-06

      iter #   2 total cpu time :    83.3 secs   av.it.:   9.7
      thresh= 1.626E-04 alpha_mix =  0.700 |ddv_scf|^2 =  1.453E-06

      iter #   3 total cpu time :    83.8 secs   av.it.:   9.0
      thresh= 1.205E-04 alpha_mix =  0.700 |ddv_scf|^2 =  8.100E-09

      iter #   4 total cpu time :    84.1 secs   av.it.:   8.7
      thresh= 9.000E-06 alpha_mix =  0.700 |ddv_scf|^2 =  5.350E-11

      iter #   5 total cpu time :    84.4 secs   av.it.:   9.0
      thresh= 7.314E-07 alpha_mix =  0.700 |ddv_scf|^2 =  7.734E-13

     End of self-consistent calculation

     Convergence has been achieved 

     Number of q in the star =    6
     List of q in the star:
          1  -0.500000000  -1.000000000   0.000000000
          2   0.000000000   1.000000000   0.500000000
          3   0.000000000  -1.000000000  -0.500000000
          4   0.500000000   1.000000000   0.000000000
          5  -1.000000000  -0.500000000   0.000000000
          6   0.000000000  -0.500000000  -1.000000000

     Diagonalizing the dynamical matrix

     q = (   -0.500000000  -1.000000000   0.000000000 ) 

 **************************************************************************
     freq (    1) =       7.804951 [THz] =     260.345133 [cm-1]
     freq (    2) =       7.804951 [THz] =     260.345133 [cm-1]
     freq (    3) =      11.022497 [THz] =     367.670921 [cm-1]
     freq (    4) =      11.022497 [THz] =     367.670921 [cm-1]
     freq (    5) =      13.751224 [THz] =     458.691444 [cm-1]
     freq (    6) =      13.751224 [THz] =     458.691444 [cm-1]
 **************************************************************************

     init_run     :      0.53s CPU      0.54s WALL (       7 calls)
     electrons    :      4.50s CPU      4.77s WALL (       7 calls)

     Called by init_run:
     wfcinit      :      0.00s CPU      0.00s WALL (       7 calls)
     potinit      :      0.02s CPU      0.02s WALL (       7 calls)

     Called by electrons:
     c_bands      :      4.50s CPU      4.75s WALL (       7 calls)
     v_of_rho     :      0.01s CPU      0.01s WALL (       8 calls)
     newd         :      0.03s CPU      0.03s WALL (       8 calls)

     Called by c_bands:
     init_us_2    :      0.68s CPU      0.72s WALL (   17588 calls)
     cegterg      :      3.77s CPU      3.99s WALL (     796 calls)

     Called by sum_band:

     Called by *egterg:
     h_psi        :     43.16s CPU     46.30s WALL (  152189 calls)
     s_psi        :      5.81s CPU      6.24s WALL (  309098 calls)
     g_psi        :      0.03s CPU      0.03s WALL (    9268 calls)
     cdiaghg      :      0.43s CPU      0.45s WALL (   10064 calls)

     Called by h_psi:
     h_psi:pot    :     42.97s CPU     46.09s WALL (  152189 calls)
     h_psi:calbec :      4.54s CPU      4.82s WALL (  152189 calls)
     vloc_psi     :     35.30s CPU     37.98s WALL (  152189 calls)
     add_vuspsi   :      2.91s CPU      3.07s WALL (  152189 calls)

     General routines
     calbec       :      9.94s CPU     10.64s WALL (  345470 calls)
     fft          :      0.37s CPU      0.39s WALL (    5239 calls)
     ffts         :      0.13s CPU      0.14s WALL (    2748 calls)
     fftw         :     41.01s CPU     44.06s WALL ( 1378360 calls)
     davcio       :      0.32s CPU      0.36s WALL (   79045 calls)

     Parallel routines
     fft_scatter  :      9.19s CPU     10.29s WALL ( 1386347 calls)

     PHONON       :  1m18.78s CPU     1m24.39s WALL

     INITIALIZATION: 
     phq_setup    :      0.05s CPU      0.05s WALL (       8 calls)
     phq_init     :      2.00s CPU      2.15s WALL (       8 calls)

     phq_init     :      2.00s CPU      2.15s WALL (       8 calls)
     set_drhoc    :      0.29s CPU      0.29s WALL (      24 calls)
     init_vloc    :      0.01s CPU      0.01s WALL (       8 calls)
     init_us_1    :      0.48s CPU      0.48s WALL (       8 calls)
     newd         :      0.03s CPU      0.03s WALL (       8 calls)
     dvanqq       :      0.23s CPU      0.24s WALL (       8 calls)
     drho         :      1.04s CPU      1.18s WALL (       8 calls)

     DYNAMICAL MATRIX:
     dynmat0      :      0.49s CPU      0.49s WALL (       8 calls)
     phqscf       :     69.12s CPU     74.15s WALL (       8 calls)
     dynmatrix    :      0.05s CPU      0.06s WALL (       8 calls)

     phqscf       :     69.12s CPU     74.15s WALL (       8 calls)
     solve_linter :     68.35s CPU     73.37s WALL (      32 calls)
     drhodv       :      0.56s CPU      0.56s WALL (      32 calls)

     dynmat0      :      0.49s CPU      0.49s WALL (       8 calls)
     dynmat_us    :      0.27s CPU      0.27s WALL (       8 calls)
     d2ionq       :      0.01s CPU      0.01s WALL (       8 calls)
     dynmatcc     :      0.21s CPU      0.21s WALL (       8 calls)

     dynmat_us    :      0.27s CPU      0.27s WALL (       8 calls)
     addusdynmat  :      0.00s CPU      0.00s WALL (       8 calls)

     phqscf       :     69.12s CPU     74.15s WALL (       8 calls)
     solve_linter :     68.35s CPU     73.37s WALL (      32 calls)

     solve_linter :     68.35s CPU     73.37s WALL (      32 calls)
     dvqpsi_us    :      1.59s CPU      1.72s WALL (    2508 calls)
     ortho        :      1.05s CPU      1.18s WALL (   15550 calls)
     cgsolve      :     53.58s CPU     57.63s WALL (   15550 calls)
     incdrhoscf   :      4.68s CPU      4.99s WALL (   15550 calls)
     addusddens   :      1.15s CPU      1.17s WALL (     228 calls)
     vpsifft      :      3.43s CPU      3.66s WALL (   12922 calls)
     dv_of_drho   :      0.20s CPU      0.20s WALL (     295 calls)
     mix_pot      :      0.05s CPU      0.06s WALL (     201 calls)
     psymdvscf    :      0.80s CPU      0.82s WALL (     196 calls)
     newdq        :      1.22s CPU      1.28s WALL (     201 calls)
     adddvscf     :      0.46s CPU      0.50s WALL (   13042 calls)
     drhodvus     :      0.00s CPU      0.00s WALL (      32 calls)

     dvqpsi_us    :      1.59s CPU      1.72s WALL (    2508 calls)
     dvqpsi_us_on :      0.81s CPU      0.91s WALL (    2508 calls)

     cgsolve      :     53.58s CPU     57.63s WALL (   15550 calls)
     ch_psi       :     51.59s CPU     55.40s WALL (  141329 calls)

     ch_psi       :     51.59s CPU     55.40s WALL (  141329 calls)
     h_psi        :     43.16s CPU     46.30s WALL (  152189 calls)
     last         :      8.50s CPU      9.15s WALL (  141329 calls)

     h_psi        :     43.16s CPU     46.30s WALL (  152189 calls)
     add_vuspsi   :      2.91s CPU      3.07s WALL (  152189 calls)

     incdrhoscf   :      4.68s CPU      4.99s WALL (   15550 calls)
     addusdbec    :      0.68s CPU      0.77s WALL (   17998 calls)

     drhodvus     :      0.00s CPU      0.00s WALL (      32 calls)

      General routines
     calbec       :      9.94s CPU     10.64s WALL (  345470 calls)
     fft          :      0.37s CPU      0.39s WALL (    5239 calls)
     ffts         :      0.13s CPU      0.14s WALL (    2748 calls)
     fftw         :     41.01s CPU     44.06s WALL ( 1378360 calls)
     davcio       :      0.32s CPU      0.36s WALL (   79045 calls)
     write_rec    :      0.20s CPU      0.21s WALL (     233 calls)


     PHONON       :  1m18.78s CPU     1m24.39s WALL


   This run was terminated on:  17:39: 1   9Nov2017            

=------------------------------------------------------------------------------=
   JOB DONE.
=------------------------------------------------------------------------------=
