
     Program PWSCF v.6.1 (svn rev. 13369) starts on 10Nov2017 at 10: 3:53 

     This program is part of the open-source Quantum ESPRESSO suite
     for quantum simulation of materials; please cite
         "P. Giannozzi et al., J. Phys.:Condens. Matter 21 395502 (2009);
          URL http://www.quantum-espresso.org", 
     in publications or presentations arising from this work. More details at
     http://www.quantum-espresso.org/quote

     Parallel version (MPI), running on     4 processors
     R & G space division:  proc/nbgrp/npool/nimage =       4
     Waiting for input...
     Reading input from standard input
     Message from routine read_cards :
     DEPRECATED: no units specified in ATOMIC_POSITIONS card
     Message from routine read_cards :
     ATOMIC_POSITIONS: units set to alat

     Current dimensions of program PWSCF are:
     Max number of different atomic species (ntypx) = 10
     Max number of k-points (npk) =  40000
     Max angular momentum in pseudopotentials (lmaxx) =  3

     Subspace diagonalization in iterative solution of the eigenvalue problem:
     a serial algorithm will be used


     Parallelization info
     --------------------
     sticks:   dense  smooth     PW     G-vecs:    dense   smooth      PW
     Min         136      66     22                 2072      722     152
     Max         137      67     23                 2073      724     153
     Sum         547     265     91                 8291     2891     609



     bravais-lattice index     =            2
     lattice parameter (alat)  =      10.4080  a.u.
     unit-cell volume          =     281.8655 (a.u.)^3
     number of atoms/cell      =            2
     number of atomic types    =            1
     number of electrons       =         8.00
     number of Kohn-Sham states=            4
     kinetic-energy cutoff     =      18.0000  Ry
     charge density cutoff     =     144.0000  Ry
     convergence threshold     =      1.0E-08
     mixing beta               =       0.7000
     number of iterations used =            8  plain     mixing
     Exchange-correlation      = SLA  PW   PBE  PBE ( 1  4  3  4 0 0)

     celldm(1)=  10.408000  celldm(2)=   0.000000  celldm(3)=   0.000000
     celldm(4)=   0.000000  celldm(5)=   0.000000  celldm(6)=   0.000000

     crystal axes: (cart. coord. in units of alat)
               a(1) = (  -0.500000   0.000000   0.500000 )  
               a(2) = (   0.000000   0.500000   0.500000 )  
               a(3) = (  -0.500000   0.500000   0.000000 )  

     reciprocal axes: (cart. coord. in units 2 pi/alat)
               b(1) = ( -1.000000 -1.000000  1.000000 )  
               b(2) = (  1.000000  1.000000  1.000000 )  
               b(3) = ( -1.000000  1.000000 -1.000000 )  


     PseudoPot. # 1 for Si read from file:
     /home/max/quantum_espresso/qe-6.1/pseudo/si_pbe_v1.uspp.F.UPF.txt
     MD5 check sum: a056efeee980c13900f22a371efd63c1
     Pseudo is Ultrasoft + core correction, Zval =  4.0
     Generated by new atomic code, or converted to UPF format
     Using radial grid of  899 points,  6 beta functions with: 
                l(1) =   0
                l(2) =   0
                l(3) =   1
                l(4) =   1
                l(5) =   2
                l(6) =   2
     Q(r) pseudized with  8 coefficients,  rinner =    0.900   0.900   0.900
                                                       0.900   0.900

     atomic species   valence    mass     pseudopotential
        Si             4.00    28.08600     Si( 1.00)

     24 Sym. Ops. (no inversion) found
          (note: 24 additional sym.ops. were found but ignored
           their fractional translations are incommensurate with FFT grid)


   Cartesian axes

     site n.     atom                  positions (alat units)
         1           Si  tau(   1) = (   0.0000000   0.0000000   0.0000000  )
         2           Si  tau(   2) = (   0.2500000   0.2500000   0.2500000  )

     number of k points=    60
                       cart. coord. in units 2pi/alat
        k(    1) = (  -0.0625000   0.0625000   0.0625000), wk =   0.0078125
        k(    2) = (  -0.1875000   0.1875000  -0.0625000), wk =   0.0234375
        k(    3) = (  -0.3125000   0.3125000  -0.1875000), wk =   0.0234375
        k(    4) = (  -0.4375000   0.4375000  -0.3125000), wk =   0.0234375
        k(    5) = (   0.4375000  -0.4375000   0.5625000), wk =   0.0234375
        k(    6) = (   0.3125000  -0.3125000   0.4375000), wk =   0.0234375
        k(    7) = (   0.1875000  -0.1875000   0.3125000), wk =   0.0234375
        k(    8) = (   0.0625000  -0.0625000   0.1875000), wk =   0.0234375
        k(    9) = (  -0.0625000   0.3125000   0.0625000), wk =   0.0234375
        k(   10) = (  -0.1875000   0.4375000  -0.0625000), wk =   0.0468750
        k(   11) = (  -0.3125000   0.5625000  -0.1875000), wk =   0.0468750
        k(   12) = (   0.5625000  -0.3125000   0.6875000), wk =   0.0468750
        k(   13) = (   0.4375000  -0.1875000   0.5625000), wk =   0.0468750
        k(   14) = (   0.3125000  -0.0625000   0.4375000), wk =   0.0468750
        k(   15) = (   0.1875000   0.0625000   0.3125000), wk =   0.0468750
        k(   16) = (  -0.0625000   0.5625000   0.0625000), wk =   0.0234375
        k(   17) = (  -0.1875000   0.6875000  -0.0625000), wk =   0.0468750
        k(   18) = (   0.6875000  -0.1875000   0.8125000), wk =   0.0468750
        k(   19) = (   0.5625000  -0.0625000   0.6875000), wk =   0.0468750
        k(   20) = (   0.4375000   0.0625000   0.5625000), wk =   0.0468750
        k(   21) = (   0.3125000   0.1875000   0.4375000), wk =   0.0468750
        k(   22) = (  -0.0625000   0.8125000   0.0625000), wk =   0.0234375
        k(   23) = (   0.8125000  -0.0625000   0.9375000), wk =   0.0468750
        k(   24) = (   0.6875000   0.0625000   0.8125000), wk =   0.0468750
        k(   25) = (   0.5625000   0.1875000   0.6875000), wk =   0.0468750
        k(   26) = (   0.4375000   0.3125000   0.5625000), wk =   0.0468750
        k(   27) = (  -0.0625000  -0.9375000   0.0625000), wk =   0.0234375
        k(   28) = (  -0.1875000  -0.8125000  -0.0625000), wk =   0.0468750
        k(   29) = (  -0.3125000  -0.6875000  -0.1875000), wk =   0.0468750
        k(   30) = (  -0.0625000  -0.6875000   0.0625000), wk =   0.0234375
        k(   31) = (  -0.1875000  -0.5625000  -0.0625000), wk =   0.0468750
        k(   32) = (  -0.0625000  -0.4375000   0.0625000), wk =   0.0234375
        k(   33) = (  -0.1875000   0.1875000   0.1875000), wk =   0.0078125
        k(   34) = (  -0.3125000   0.3125000   0.0625000), wk =   0.0234375
        k(   35) = (  -0.4375000   0.4375000  -0.0625000), wk =   0.0234375
        k(   36) = (   0.4375000  -0.4375000   0.8125000), wk =   0.0234375
        k(   37) = (   0.3125000  -0.3125000   0.6875000), wk =   0.0234375
        k(   38) = (   0.1875000  -0.1875000   0.5625000), wk =   0.0234375
        k(   39) = (  -0.1875000   0.4375000   0.1875000), wk =   0.0234375
        k(   40) = (  -0.3125000   0.5625000   0.0625000), wk =   0.0468750
        k(   41) = (   0.5625000  -0.3125000   0.9375000), wk =   0.0468750
        k(   42) = (   0.4375000  -0.1875000   0.8125000), wk =   0.0468750
        k(   43) = (   0.3125000  -0.0625000   0.6875000), wk =   0.0468750
        k(   44) = (  -0.1875000   0.6875000   0.1875000), wk =   0.0234375
        k(   45) = (   0.6875000  -0.1875000   1.0625000), wk =   0.0468750
        k(   46) = (   0.5625000  -0.0625000   0.9375000), wk =   0.0468750
        k(   47) = (   0.4375000   0.0625000   0.8125000), wk =   0.0468750
        k(   48) = (  -0.1875000  -1.0625000   0.1875000), wk =   0.0234375
        k(   49) = (  -0.3125000  -0.9375000   0.0625000), wk =   0.0468750
        k(   50) = (  -0.1875000  -0.8125000   0.1875000), wk =   0.0234375
        k(   51) = (  -0.3125000   0.3125000   0.3125000), wk =   0.0078125
        k(   52) = (  -0.4375000   0.4375000   0.1875000), wk =   0.0234375
        k(   53) = (   0.4375000  -0.4375000   1.0625000), wk =   0.0234375
        k(   54) = (   0.3125000  -0.3125000   0.9375000), wk =   0.0234375
        k(   55) = (  -0.3125000   0.5625000   0.3125000), wk =   0.0234375
        k(   56) = (   0.5625000  -0.3125000   1.1875000), wk =   0.0468750
        k(   57) = (   0.4375000  -0.1875000   1.0625000), wk =   0.0468750
        k(   58) = (  -0.3125000  -1.1875000   0.3125000), wk =   0.0234375
        k(   59) = (  -0.4375000   0.4375000   0.4375000), wk =   0.0078125
        k(   60) = (   0.4375000  -0.4375000   1.3125000), wk =   0.0234375

     Dense  grid:     8291 G-vectors     FFT dimensions: (  30,  30,  30)

     Smooth grid:     2891 G-vectors     FFT dimensions: (  20,  20,  20)

     Estimated max dynamical RAM per process >       1.75MB

     Estimated total allocated dynamical RAM >       7.01MB

     Initial potential from superposition of free atoms

     starting charge    7.99866, renormalised to    8.00000
     Starting wfc are    8 randomized atomic wfcs

     total cpu time spent up to now is        0.4 secs

     per-process dynamical memory:     8.6 Mb

     Self-consistent Calculation

     iteration #  1     ecut=    18.00 Ry     beta=0.70
     Davidson diagonalization with overlap
     ethr =  1.00E-02,  avg # of iterations =  2.0

     Threshold (ethr) on eigenvalues was too large:
     Diagonalizing with lowered threshold

     Davidson diagonalization with overlap
     ethr =  6.52E-04,  avg # of iterations =  1.0

     total cpu time spent up to now is        1.0 secs

     total energy              =     -19.18906232 Ry
     Harris-Foulkes estimate   =     -19.20060984 Ry
     estimated scf accuracy    <       0.05187955 Ry

     iteration #  2     ecut=    18.00 Ry     beta=0.70
     Davidson diagonalization with overlap
     ethr =  6.48E-04,  avg # of iterations =  1.0

     total cpu time spent up to now is        1.3 secs

     total energy              =     -19.19064822 Ry
     Harris-Foulkes estimate   =     -19.19081772 Ry
     estimated scf accuracy    <       0.00245516 Ry

     iteration #  3     ecut=    18.00 Ry     beta=0.70
     Davidson diagonalization with overlap
     ethr =  3.07E-05,  avg # of iterations =  1.9

     total cpu time spent up to now is        1.5 secs

     total energy              =     -19.19091190 Ry
     Harris-Foulkes estimate   =     -19.19092402 Ry
     estimated scf accuracy    <       0.00003842 Ry

     iteration #  4     ecut=    18.00 Ry     beta=0.70
     Davidson diagonalization with overlap
     ethr =  4.80E-07,  avg # of iterations =  2.9

     total cpu time spent up to now is        1.7 secs

     total energy              =     -19.19093589 Ry
     Harris-Foulkes estimate   =     -19.19093635 Ry
     estimated scf accuracy    <       0.00000204 Ry

     iteration #  5     ecut=    18.00 Ry     beta=0.70
     Davidson diagonalization with overlap
     ethr =  2.55E-08,  avg # of iterations =  2.1

     total cpu time spent up to now is        2.1 secs

     total energy              =     -19.19093630 Ry
     Harris-Foulkes estimate   =     -19.19093632 Ry
     estimated scf accuracy    <       0.00000005 Ry

     iteration #  6     ecut=    18.00 Ry     beta=0.70
     Davidson diagonalization with overlap
     ethr =  5.70E-10,  avg # of iterations =  2.7

     total cpu time spent up to now is        2.5 secs

     End of self-consistent calculation

          k =-0.0625 0.0625 0.0625 (   338 PWs)   bands (ev):

    -5.8609   5.2290   5.6816   5.6816

          k =-0.1875 0.1875-0.0625 (   355 PWs)   bands (ev):

    -5.6003   3.7349   4.8973   5.5638

          k =-0.3125 0.3125-0.1875 (   360 PWs)   bands (ev):

    -4.9704   1.5572   4.4163   5.1118

          k =-0.4375 0.4375-0.3125 (   364 PWs)   bands (ev):

    -4.0954  -0.2812   4.2008   4.7140

          k = 0.4375-0.4375 0.5625 (   364 PWs)   bands (ev):

    -3.6645  -0.9593   4.2474   4.5023

          k = 0.3125-0.3125 0.4375 (   357 PWs)   bands (ev):

    -4.3941   0.2616   4.5245   4.5268

          k = 0.1875-0.1875 0.3125 (   357 PWs)   bands (ev):

    -5.2171   2.2705   4.7969   4.9817

          k = 0.0625-0.0625 0.1875 (   346 PWs)   bands (ev):

    -5.7297   4.4770   5.2684   5.4166

          k =-0.0625 0.3125 0.0625 (   354 PWs)   bands (ev):

    -5.4684   3.5821   4.7253   4.7991

          k =-0.1875 0.4375-0.0625 (   358 PWs)   bands (ev):

    -4.9577   2.1078   3.7790   4.5470

          k =-0.3125 0.5625-0.1875 (   364 PWs)   bands (ev):

    -4.1369   0.3006   3.2861   4.1500

          k = 0.5625-0.3125 0.6875 (   368 PWs)   bands (ev):

    -3.4020  -0.8704   3.0007   4.0603

          k = 0.4375-0.1875 0.5625 (   364 PWs)   bands (ev):

    -3.8428  -0.2031   2.9340   4.3358

          k = 0.3125-0.0625 0.4375 (   361 PWs)   bands (ev):

    -4.7167   1.4749   3.2382   4.8287

          k = 0.1875 0.0625 0.3125 (   360 PWs)   bands (ev):

    -5.3418   2.9265   4.3350   5.1915

          k =-0.0625 0.5625 0.0625 (   357 PWs)   bands (ev):

    -4.5669   1.5978   3.6407   3.7589

          k =-0.1875 0.6875-0.0625 (   360 PWs)   bands (ev):

    -3.8349   0.3879   2.8770   3.4223

          k = 0.6875-0.1875 0.8125 (   367 PWs)   bands (ev):

    -2.9652  -0.7744   2.0601   3.3913

          k = 0.5625-0.0625 0.6875 (   369 PWs)   bands (ev):

    -3.0361  -0.6822   1.7199   3.7253

          k = 0.4375 0.0625 0.5625 (   365 PWs)   bands (ev):

    -3.9053   0.2544   2.3033   4.2934

          k = 0.3125 0.1875 0.4375 (   361 PWs)   bands (ev):

    -4.6070   0.8961   3.8840   4.7312

          k =-0.0625 0.8125 0.0625 (   364 PWs)   bands (ev):

    -3.1971  -0.4577   2.9705   3.1791

          k = 0.8125-0.0625 0.9375 (   363 PWs)   bands (ev):

    -2.3120  -1.4237   2.4328   2.9447

          k = 0.6875 0.0625 0.8125 (   370 PWs)   bands (ev):

    -2.4130  -1.2586   1.7281   3.2513

          k = 0.5625 0.1875 0.6875 (   367 PWs)   bands (ev):

    -3.1519  -0.8373   2.2490   3.8358

          k = 0.4375 0.3125 0.5625 (   366 PWs)   bands (ev):

    -3.7438  -0.6753   3.7080   4.4053

          k =-0.0625-0.9375 0.0625 (   362 PWs)   bands (ev):

    -2.3605  -1.4394   2.8362   3.0605

          k =-0.1875-0.8125-0.0625 (   361 PWs)   bands (ev):

    -3.1147  -0.5200   2.5849   3.1007

          k =-0.3125-0.6875-0.1875 (   365 PWs)   bands (ev):

    -3.5770  -0.2455   2.6338   3.6833

          k =-0.0625-0.6875 0.0625 (   362 PWs)   bands (ev):

    -3.9370   0.5643   3.2390   3.4137

          k =-0.1875-0.5625-0.0625 (   358 PWs)   bands (ev):

    -4.4529   1.2669   3.2840   3.9163

          k =-0.0625-0.4375 0.0625 (   353 PWs)   bands (ev):

    -5.0794   2.6134   4.1699   4.2038

          k =-0.1875 0.1875 0.1875 (   359 PWs)   bands (ev):

    -5.4720   3.0282   5.2505   5.2505

          k =-0.3125 0.3125 0.0625 (   362 PWs)   bands (ev):

    -5.0900   2.1928   3.7772   5.2646

          k =-0.4375 0.4375-0.0625 (   362 PWs)   bands (ev):

    -4.3625   0.8469   2.7238   4.7726

          k = 0.4375-0.4375 0.8125 (   367 PWs)   bands (ev):

    -3.4955  -0.5979   2.5660   4.2558

          k = 0.3125-0.3125 0.6875 (   368 PWs)   bands (ev):

    -3.4803  -0.6258   2.8550   3.9467

          k = 0.1875-0.1875 0.5625 (   358 PWs)   bands (ev):

    -4.3452   0.8438   3.4550   3.9252

          k =-0.1875 0.4375 0.1875 (   362 PWs)   bands (ev):

    -4.8397   1.5439   4.2578   4.3337

          k =-0.3125 0.5625 0.0625 (   361 PWs)   bands (ev):

    -4.2292   0.7760   2.7792   4.1418

          k = 0.5625-0.3125 0.9375 (   367 PWs)   bands (ev):

    -3.3631  -0.3064   2.0126   3.5917

          k = 0.4375-0.1875 0.8125 (   370 PWs)   bands (ev):

    -2.8913  -0.9008   2.0115   3.2889

          k = 0.3125-0.0625 0.6875 (   365 PWs)   bands (ev):

    -3.6386   0.0734   2.4263   3.4624

          k =-0.1875 0.6875 0.1875 (   362 PWs)   bands (ev):

    -3.7446   0.1330   2.7487   3.6021

          k = 0.6875-0.1875 1.0625 (   364 PWs)   bands (ev):

    -2.9622  -0.6565   2.1920   2.9418

          k = 0.5625-0.0625 0.9375 (   370 PWs)   bands (ev):

    -2.1779  -1.3972   1.8862   2.4561

          k = 0.4375 0.0625 0.8125 (   371 PWs)   bands (ev):

    -2.7651  -0.8575   1.8753   2.9178

          k =-0.1875-1.0625 0.1875 (   364 PWs)   bands (ev):

    -2.3349  -1.3731   1.9871   3.2675

          k =-0.3125-0.9375 0.0625 (   368 PWs)   bands (ev):

    -2.2371  -1.4055   2.0782   2.6626

          k =-0.1875-0.8125 0.1875 (   364 PWs)   bands (ev):

    -3.0567  -0.6174   2.2435   3.3802

          k =-0.3125 0.3125 0.3125 (   359 PWs)   bands (ev):

    -4.7355   0.8716   4.8446   4.8446

          k =-0.4375 0.4375 0.1875 (   362 PWs)   bands (ev):

    -4.2689   0.3012   3.4113   4.7579

          k = 0.4375-0.4375 1.0625 (   369 PWs)   bands (ev):

    -3.4981  -0.2386   1.9341   4.1932

          k = 0.3125-0.3125 0.9375 (   366 PWs)   bands (ev):

    -2.7002  -1.0082   1.6099   3.6614

          k =-0.3125 0.5625 0.3125 (   368 PWs)   bands (ev):

    -3.9644  -0.2425   3.7331   4.2108

          k = 0.5625-0.3125 1.1875 (   368 PWs)   bands (ev):

    -3.3616  -0.6047   2.4632   3.7515

          k = 0.4375-0.1875 1.0625 (   372 PWs)   bands (ev):

    -2.5653  -1.0765   1.6997   3.0592

          k =-0.3125-1.1875 0.3125 (   365 PWs)   bands (ev):

    -3.0136  -0.8817   2.0863   3.7589

          k =-0.4375 0.4375 0.4375 (   356 PWs)   bands (ev):

    -3.8737  -0.7300   4.6273   4.6273

          k = 0.4375-0.4375 1.3125 (   365 PWs)   bands (ev):

    -3.5336  -0.9055   3.4254   4.3671

     highest occupied level (ev):     5.6816

!    total energy              =     -19.19093633 Ry
     Harris-Foulkes estimate   =     -19.19093633 Ry
     estimated scf accuracy    <          7.4E-09 Ry

     The total energy is the sum of the following terms:

     one-electron contribution =       4.78906032 Ry
     hartree contribution      =       1.15236670 Ry
     xc contribution           =      -8.57034012 Ry
     ewald contribution        =     -16.56202322 Ry

     convergence has been achieved in   6 iterations

     Writing output data file silicon.10.408.save

     init_run     :      0.26s CPU      0.29s WALL (       1 calls)
     electrons    :      1.16s CPU      2.18s WALL (       1 calls)

     Called by init_run:
     wfcinit      :      0.08s CPU      0.08s WALL (       1 calls)
     potinit      :      0.01s CPU      0.02s WALL (       1 calls)

     Called by electrons:
     c_bands      :      0.80s CPU      1.52s WALL (       7 calls)
     sum_band     :      0.24s CPU      0.41s WALL (       7 calls)
     v_of_rho     :      0.06s CPU      0.09s WALL (       7 calls)
     newd         :      0.07s CPU      0.10s WALL (       7 calls)
     mix_rho      :      0.00s CPU      0.01s WALL (       7 calls)

     Called by c_bands:
     init_us_2    :      0.06s CPU      0.07s WALL (     900 calls)
     cegterg      :      0.66s CPU      1.31s WALL (     420 calls)

     Called by sum_band:
     sum_band:bec :      0.00s CPU      0.01s WALL (     420 calls)
     addusdens    :      0.07s CPU      0.12s WALL (       7 calls)

     Called by *egterg:
     h_psi        :      0.48s CPU      0.88s WALL (    1300 calls)
     s_psi        :      0.05s CPU      0.06s WALL (    1300 calls)
     g_psi        :      0.00s CPU      0.00s WALL (     820 calls)
     cdiaghg      :      0.09s CPU      0.17s WALL (    1180 calls)

     Called by h_psi:
     h_psi:pot    :      0.48s CPU      0.87s WALL (    1300 calls)
     h_psi:calbec :      0.08s CPU      0.19s WALL (    1300 calls)
     vloc_psi     :      0.34s CPU      0.61s WALL (    1300 calls)
     add_vuspsi   :      0.06s CPU      0.06s WALL (    1300 calls)

     General routines
     calbec       :      0.11s CPU      0.26s WALL (    1720 calls)
     fft          :      0.05s CPU      0.10s WALL (     112 calls)
     ffts         :      0.00s CPU      0.01s WALL (      14 calls)
     fftw         :      0.34s CPU      0.67s WALL (   11608 calls)
     interpolate  :      0.01s CPU      0.02s WALL (      14 calls)
     davcio       :      0.00s CPU      0.00s WALL (      60 calls)

     Parallel routines
     fft_scatter  :      0.19s CPU      0.53s WALL (   11734 calls)

     PWSCF        :     1.68s CPU         2.86s WALL


   This run was terminated on:  10: 3:56  10Nov2017            

=------------------------------------------------------------------------------=
   JOB DONE.
=------------------------------------------------------------------------------=
