
     Program PHONON v.6.1 (svn rev. 13369) starts on  9Nov2017 at 12: 5: 9 

     This program is part of the open-source Quantum ESPRESSO suite
     for quantum simulation of materials; please cite
         "P. Giannozzi et al., J. Phys.:Condens. Matter 21 395502 (2009);
          URL http://www.quantum-espresso.org", 
     in publications or presentations arising from this work. More details at
     http://www.quantum-espresso.org/quote

     Parallel version (MPI), running on     4 processors
     R & G space division:  proc/nbgrp/npool/nimage =       4

     Reading data from directory:
     ./silicon.10.323.save

   Info: using nr1, nr2, nr3 values from input

   Info: using nr1, nr2, nr3 values from input

     IMPORTANT: XC functional enforced from input :
     Exchange-correlation      = SLA  PW   PBE  PBE ( 1  4  3  4 0 0)
     Any further DFT definition will be discarded
     Please, verify this is what you really want


     Parallelization info
     --------------------
     sticks:   dense  smooth     PW     G-vecs:    dense   smooth      PW
     Min          63      63     22                  684      684     140
     Max          64      64     23                  688      688     141
     Sum         253     253     91                 2741     2741     561


     Check: negative/imaginary core charge=   -0.000005    0.000000


     Dynamical matrices for ( 4, 4, 4)  uniform grid of q-points
     (   8q-points):
       N         xq(1)         xq(2)         xq(3) 
       1   0.000000000   0.000000000   0.000000000
       2  -0.250000000   0.250000000  -0.250000000
       3   0.500000000  -0.500000000   0.500000000
       4   0.000000000   0.500000000   0.000000000
       5   0.750000000  -0.250000000   0.750000000
       6   0.500000000   0.000000000   0.500000000
       7   0.000000000  -1.000000000   0.000000000
       8  -0.500000000  -1.000000000   0.000000000

     Calculation of q =    0.0000000   0.0000000   0.0000000

                                                                                

     bravais-lattice index     =            2
     lattice parameter (alat)  =      10.3230  a.u.
     unit-cell volume          =     275.0159 (a.u.)^3
     number of atoms/cell      =            2
     number of atomic types    =            1
     kinetic-energy cut-off    =      18.0000  Ry
     charge density cut-off    =      72.0000  Ry
     convergence threshold     =      1.0E-12
     beta                      =       0.7000
     number of iterations used =            4
     Exchange-correlation      = SLA  PW   PBE  PBE ( 1  4  3  4 0 0)


     celldm(1)=   10.32300  celldm(2)=    0.00000  celldm(3)=    0.00000
     celldm(4)=    0.00000  celldm(5)=    0.00000  celldm(6)=    0.00000

     crystal axes: (cart. coord. in units of alat)
               a(1) = ( -0.5000  0.0000  0.5000 )  
               a(2) = (  0.0000  0.5000  0.5000 )  
               a(3) = ( -0.5000  0.5000  0.0000 )  

     reciprocal axes: (cart. coord. in units 2 pi/alat)
               b(1) = ( -1.0000 -1.0000  1.0000 )  
               b(2) = (  1.0000  1.0000  1.0000 )  
               b(3) = ( -1.0000  1.0000 -1.0000 )  


     Atoms inside the unit cell: 

     Cartesian axes

     site n.  atom      mass           positions (alat units)
        1     Si  28.0860   tau(    1) = (    0.00000    0.00000    0.00000  )
        2     Si  28.0860   tau(    2) = (    0.25000    0.25000    0.25000  )

     Computing dynamical matrix for 
                    q = (   0.0000000   0.0000000   0.0000000 )

     49 Sym.Ops. (with q -> -q+G )


     G cutoff =  194.3500  (    685 G-vectors)     FFT grid: ( 20, 20, 20)
     number of k points=    10

     PseudoPot. # 1 for Si read from file:
     /home/max/quantum_espresso/qe-6.1/pseudo/si_pbe_v1.uspp.F.UPF.txt
     MD5 check sum: a056efeee980c13900f22a371efd63c1
     Pseudo is Ultrasoft + core correction, Zval =  4.0
     Generated by new atomic code, or converted to UPF format
     Using radial grid of  899 points,  6 beta functions with: 
                l(1) =   0
                l(2) =   0
                l(3) =   1
                l(4) =   1
                l(5) =   2
                l(6) =   2
     Q(r) pseudized with  8 coefficients,  rinner =    0.900   0.900   0.900
                                                       0.900   0.900

     Mode symmetry, O_h (m-3m)  point group:


     Electric field:
     Dielectric constant
     Born effective charges in two ways 


     Atomic displacements:
     There are   2 irreducible representations

     Representation     1      3 modes -T_2g G_25' G_5+  To be done

     Representation     2      3 modes -T_1u G_15  G_4-  To be done



     Alpha used in Ewald sum =   0.7000
     PHONON       :     0.41s CPU         0.43s WALL


     Electric Fields Calculation

      iter #   1 total cpu time :     0.8 secs   av.it.:   5.6
      thresh= 1.000E-02 alpha_mix =  0.700 |ddv_scf|^2 =  9.055E-07

      iter #   2 total cpu time :     1.1 secs   av.it.:   9.9
      thresh= 9.516E-05 alpha_mix =  0.700 |ddv_scf|^2 =  5.557E-08

      iter #   3 total cpu time :     1.2 secs   av.it.:   9.8
      thresh= 2.357E-05 alpha_mix =  0.700 |ddv_scf|^2 =  4.219E-09

      iter #   4 total cpu time :     1.4 secs   av.it.:   9.0
      thresh= 6.496E-06 alpha_mix =  0.700 |ddv_scf|^2 =  2.474E-11

      iter #   5 total cpu time :     1.8 secs   av.it.:   9.1
      thresh= 4.974E-07 alpha_mix =  0.700 |ddv_scf|^2 =  1.319E-14

     End of electric fields calculation

          Dielectric constant in cartesian axis 

          (      13.850296482      -0.000000000      -0.000000000 )
          (      -0.000000000      13.850296482       0.000000000 )
          (      -0.000000000      -0.000000000      13.850296482 )

          Effective charges (d Force / dE) in cartesian axis

           atom      1   Si 
      Ex  (       -0.03124       -0.00000       -0.00000 )
      Ey  (       -0.00000       -0.03124       -0.00000 )
      Ez  (        0.00000       -0.00000       -0.03124 )
           atom      2   Si 
      Ex  (       -0.03124       -0.00000       -0.00000 )
      Ey  (       -0.00000       -0.03124        0.00000 )
      Ez  (       -0.00000        0.00000       -0.03124 )


     Representation #  1 modes #   1  2  3

     Self-consistent Calculation

      iter #   1 total cpu time :     2.3 secs   av.it.:   4.9
      thresh= 1.000E-02 alpha_mix =  0.700 |ddv_scf|^2 =  2.241E-07

      iter #   2 total cpu time :     2.5 secs   av.it.:   9.7
      thresh= 4.733E-05 alpha_mix =  0.700 |ddv_scf|^2 =  1.384E-08

      iter #   3 total cpu time :     2.7 secs   av.it.:   9.3
      thresh= 1.176E-05 alpha_mix =  0.700 |ddv_scf|^2 =  8.553E-10

      iter #   4 total cpu time :     2.9 secs   av.it.:   9.0
      thresh= 2.925E-06 alpha_mix =  0.700 |ddv_scf|^2 =  1.878E-12

      iter #   5 total cpu time :     3.1 secs   av.it.:   9.4
      thresh= 1.370E-07 alpha_mix =  0.700 |ddv_scf|^2 =  1.224E-14

     End of self-consistent calculation

     Convergence has been achieved 


     Representation #  2 modes #   4  5  6

     Self-consistent Calculation

      iter #   1 total cpu time :     3.3 secs   av.it.:   5.0
      thresh= 1.000E-02 alpha_mix =  0.700 |ddv_scf|^2 =  1.702E-07

      iter #   2 total cpu time :     3.5 secs   av.it.:   9.6
      thresh= 4.125E-05 alpha_mix =  0.700 |ddv_scf|^2 =  1.326E-08

      iter #   3 total cpu time :     3.9 secs   av.it.:   9.3
      thresh= 1.151E-05 alpha_mix =  0.700 |ddv_scf|^2 =  8.448E-10

      iter #   4 total cpu time :     4.1 secs   av.it.:   9.5
      thresh= 2.907E-06 alpha_mix =  0.700 |ddv_scf|^2 =  5.064E-12

      iter #   5 total cpu time :     4.3 secs   av.it.:   9.0
      thresh= 2.250E-07 alpha_mix =  0.700 |ddv_scf|^2 =  4.408E-15

     End of self-consistent calculation

     Convergence has been achieved 

     Number of q in the star =    1
     List of q in the star:
          1   0.000000000   0.000000000   0.000000000

          Dielectric constant in cartesian axis 

          (      13.850296482      -0.000000000      -0.000000000 )
          (      -0.000000000      13.850296482       0.000000000 )
          (      -0.000000000      -0.000000000      13.850296482 )

          Effective charges (d Force / dE) in cartesian axis

           atom      1   Si 
      Ex  (       -0.03124       -0.00000       -0.00000 )
      Ey  (       -0.00000       -0.03124       -0.00000 )
      Ez  (        0.00000       -0.00000       -0.03124 )
           atom      2   Si 
      Ex  (       -0.03124       -0.00000       -0.00000 )
      Ey  (       -0.00000       -0.03124        0.00000 )
      Ez  (       -0.00000        0.00000       -0.03124 )

          Effective charges (d P / du) in cartesian axis 

           atom      1   Si 
      Px  (       -0.07216        0.00000       -0.00000 )
      Py  (       -0.00000       -0.07216       -0.00000 )
      Pz  (       -0.00000        0.00000       -0.07216 )
           atom      2   Si 
      Px  (       -0.07216       -0.00000       -0.00000 )
      Py  (       -0.00000       -0.07216        0.00000 )
      Pz  (       -0.00000        0.00000       -0.07216 )

     Diagonalizing the dynamical matrix

     q = (    0.000000000   0.000000000   0.000000000 ) 

 **************************************************************************
     freq (    1) =       1.944059 [THz] =      64.846832 [cm-1]
     freq (    2) =       1.944059 [THz] =      64.846832 [cm-1]
     freq (    3) =       1.944059 [THz] =      64.846832 [cm-1]
     freq (    4) =      15.059108 [THz] =     502.317781 [cm-1]
     freq (    5) =      15.059108 [THz] =     502.317781 [cm-1]
     freq (    6) =      15.059108 [THz] =     502.317781 [cm-1]
 **************************************************************************

     Mode symmetry, O_h (m-3m)  point group:

     freq (  1 -  3) =         64.8  [cm-1]   --> T_1u G_15  G_4- I  
     freq (  4 -  6) =        502.3  [cm-1]   --> T_2g G_25' G_5+ R  

     Calculation of q =   -0.2500000   0.2500000  -0.2500000

   Info: using nr1, nr2, nr3 values from input

   Info: using nr1, nr2, nr3 values from input

     Parallelization info
     --------------------
     sticks:   dense  smooth     PW     G-vecs:    dense   smooth      PW
     Min          63      63     24                  684      684     161
     Max          64      64     25                  688      688     162
     Sum         253     253     97                 2741     2741     645



     bravais-lattice index     =            2
     lattice parameter (alat)  =      10.3230  a.u.
     unit-cell volume          =     275.0159 (a.u.)^3
     number of atoms/cell      =            2
     number of atomic types    =            1
     number of electrons       =         8.00
     number of Kohn-Sham states=            4
     kinetic-energy cutoff     =      18.0000  Ry
     charge density cutoff     =      72.0000  Ry
     Exchange-correlation      = SLA  PW   PBE  PBE ( 1  4  3  4 0 0)

     celldm(1)=  10.323000  celldm(2)=   0.000000  celldm(3)=   0.000000
     celldm(4)=   0.000000  celldm(5)=   0.000000  celldm(6)=   0.000000

     crystal axes: (cart. coord. in units of alat)
               a(1) = (  -0.500000   0.000000   0.500000 )  
               a(2) = (   0.000000   0.500000   0.500000 )  
               a(3) = (  -0.500000   0.500000   0.000000 )  

     reciprocal axes: (cart. coord. in units 2 pi/alat)
               b(1) = ( -1.000000 -1.000000  1.000000 )  
               b(2) = (  1.000000  1.000000  1.000000 )  
               b(3) = ( -1.000000  1.000000 -1.000000 )  


     PseudoPot. # 1 for Si read from file:
     /home/max/quantum_espresso/qe-6.1/pseudo/si_pbe_v1.uspp.F.UPF.txt
     MD5 check sum: a056efeee980c13900f22a371efd63c1
     Pseudo is Ultrasoft + core correction, Zval =  4.0
     Generated by new atomic code, or converted to UPF format
     Using radial grid of  899 points,  6 beta functions with: 
                l(1) =   0
                l(2) =   0
                l(3) =   1
                l(4) =   1
                l(5) =   2
                l(6) =   2
     Q(r) pseudized with  8 coefficients,  rinner =    0.900   0.900   0.900
                                                       0.900   0.900

     atomic species   valence    mass     pseudopotential
        Si             4.00    28.08600     Si( 1.00)

     48 Sym. Ops., with inversion, found



   Cartesian axes

     site n.     atom                  positions (alat units)
         1           Si  tau(   1) = (   0.0000000   0.0000000   0.0000000  )
         2           Si  tau(   2) = (   0.2500000   0.2500000   0.2500000  )

     number of k points=   120

     Number of k-points >= 100: set verbosity='high' to print them.

     Dense  grid:     2741 G-vectors     FFT dimensions: (  20,  20,  20)

     Estimated max dynamical RAM per process >       0.33MB

     Estimated total allocated dynamical RAM >       1.30MB

     Check: negative/imaginary core charge=   -0.000005    0.000000

     The potential is recalculated from file :
     ./_ph0/silicon.10.323.save/charge-density.dat

     Starting wfc are    8 atomic wfcs

     Band Structure Calculation
     Davidson diagonalization with overlap

     ethr =  1.25E-10,  avg # of iterations = 11.7

     total cpu time spent up to now is        0.8 secs

     End of band structure calculation

     Number of k-points >= 100: set verbosity='high' to print the bands.

     highest occupied level (ev):     5.7306

     Writing output data file silicon.10.323.save

                                                                                

     bravais-lattice index     =            2
     lattice parameter (alat)  =      10.3230  a.u.
     unit-cell volume          =     275.0159 (a.u.)^3
     number of atoms/cell      =            2
     number of atomic types    =            1
     kinetic-energy cut-off    =      18.0000  Ry
     charge density cut-off    =      72.0000  Ry
     convergence threshold     =      1.0E-12
     beta                      =       0.7000
     number of iterations used =            4
     Exchange-correlation      = SLA  PW   PBE  PBE ( 1  4  3  4 0 0)


     celldm(1)=   10.32300  celldm(2)=    0.00000  celldm(3)=    0.00000
     celldm(4)=    0.00000  celldm(5)=    0.00000  celldm(6)=    0.00000

     crystal axes: (cart. coord. in units of alat)
               a(1) = ( -0.5000  0.0000  0.5000 )  
               a(2) = (  0.0000  0.5000  0.5000 )  
               a(3) = ( -0.5000  0.5000  0.0000 )  

     reciprocal axes: (cart. coord. in units 2 pi/alat)
               b(1) = ( -1.0000 -1.0000  1.0000 )  
               b(2) = (  1.0000  1.0000  1.0000 )  
               b(3) = ( -1.0000  1.0000 -1.0000 )  


     Atoms inside the unit cell: 

     Cartesian axes

     site n.  atom      mass           positions (alat units)
        1     Si  28.0860   tau(    1) = (    0.00000    0.00000    0.00000  )
        2     Si  28.0860   tau(    2) = (    0.25000    0.25000    0.25000  )

     Computing dynamical matrix for 
                    q = (  -0.2500000   0.2500000  -0.2500000 )

      6 Sym.Ops. (no q -> -q+G )


     G cutoff =  194.3500  (    685 G-vectors)     FFT grid: ( 20, 20, 20)
     number of k points=   120

     PseudoPot. # 1 for Si read from file:
     /home/max/quantum_espresso/qe-6.1/pseudo/si_pbe_v1.uspp.F.UPF.txt
     MD5 check sum: a056efeee980c13900f22a371efd63c1
     Pseudo is Ultrasoft + core correction, Zval =  4.0
     Generated by new atomic code, or converted to UPF format
     Using radial grid of  899 points,  6 beta functions with: 
                l(1) =   0
                l(2) =   0
                l(3) =   1
                l(4) =   1
                l(5) =   2
                l(6) =   2
     Q(r) pseudized with  8 coefficients,  rinner =    0.900   0.900   0.900
                                                       0.900   0.900

     Mode symmetry, C_3v (3m)   point group:


     Atomic displacements:
     There are   4 irreducible representations

     Representation     1      1 modes -A_1  L_1  To be done

     Representation     2      1 modes -A_1  L_1  To be done

     Representation     3      2 modes -E    L_3  To be done

     Representation     4      2 modes -E    L_3  To be done



     Alpha used in Ewald sum =   0.7000
     PHONON       :     5.51s CPU         5.85s WALL



     Representation #  1 mode #   1

     Self-consistent Calculation

      iter #   1 total cpu time :     6.1 secs   av.it.:   5.5
      thresh= 1.000E-02 alpha_mix =  0.700 |ddv_scf|^2 =  2.478E-03

      iter #   2 total cpu time :     6.4 secs   av.it.:   7.5
      thresh= 4.978E-03 alpha_mix =  0.700 |ddv_scf|^2 =  3.735E-02

      iter #   3 total cpu time :     6.6 secs   av.it.:   6.3
      thresh= 1.000E-02 alpha_mix =  0.700 |ddv_scf|^2 =  1.713E-06

      iter #   4 total cpu time :     6.9 secs   av.it.:   8.2
      thresh= 1.309E-04 alpha_mix =  0.700 |ddv_scf|^2 =  1.139E-07

      iter #   5 total cpu time :     7.2 secs   av.it.:   8.1
      thresh= 3.374E-05 alpha_mix =  0.700 |ddv_scf|^2 =  4.385E-09

      iter #   6 total cpu time :     7.5 secs   av.it.:   8.0
      thresh= 6.622E-06 alpha_mix =  0.700 |ddv_scf|^2 =  5.456E-09

      iter #   7 total cpu time :     7.9 secs   av.it.:   6.0
      thresh= 7.386E-06 alpha_mix =  0.700 |ddv_scf|^2 =  3.665E-10

      iter #   8 total cpu time :     8.2 secs   av.it.:   7.4
      thresh= 1.914E-06 alpha_mix =  0.700 |ddv_scf|^2 =  3.709E-12

      iter #   9 total cpu time :     8.5 secs   av.it.:   7.2
      thresh= 1.926E-07 alpha_mix =  0.700 |ddv_scf|^2 =  1.316E-13

     End of self-consistent calculation

     Convergence has been achieved 


     Representation #  2 mode #   2

     Self-consistent Calculation

      iter #   1 total cpu time :     8.8 secs   av.it.:   5.5
      thresh= 1.000E-02 alpha_mix =  0.700 |ddv_scf|^2 =  2.478E-03

      iter #   2 total cpu time :     9.1 secs   av.it.:   7.5
      thresh= 4.978E-03 alpha_mix =  0.700 |ddv_scf|^2 =  3.735E-02

      iter #   3 total cpu time :     9.3 secs   av.it.:   6.3
      thresh= 1.000E-02 alpha_mix =  0.700 |ddv_scf|^2 =  1.713E-06

      iter #   4 total cpu time :     9.8 secs   av.it.:   8.2
      thresh= 1.309E-04 alpha_mix =  0.700 |ddv_scf|^2 =  1.139E-07

      iter #   5 total cpu time :    10.1 secs   av.it.:   8.1
      thresh= 3.374E-05 alpha_mix =  0.700 |ddv_scf|^2 =  4.385E-09

      iter #   6 total cpu time :    10.4 secs   av.it.:   8.0
      thresh= 6.622E-06 alpha_mix =  0.700 |ddv_scf|^2 =  5.456E-09

      iter #   7 total cpu time :    10.6 secs   av.it.:   6.0
      thresh= 7.386E-06 alpha_mix =  0.700 |ddv_scf|^2 =  3.665E-10

      iter #   8 total cpu time :    10.9 secs   av.it.:   7.4
      thresh= 1.914E-06 alpha_mix =  0.700 |ddv_scf|^2 =  3.709E-12

      iter #   9 total cpu time :    11.2 secs   av.it.:   7.2
      thresh= 1.926E-07 alpha_mix =  0.700 |ddv_scf|^2 =  1.316E-13

     End of self-consistent calculation

     Convergence has been achieved 


     Representation #  3 modes #   3  4

     Self-consistent Calculation

      iter #   1 total cpu time :    11.9 secs   av.it.:   5.0
      thresh= 1.000E-02 alpha_mix =  0.700 |ddv_scf|^2 =  5.545E-07

      iter #   2 total cpu time :    12.5 secs   av.it.:   9.5
      thresh= 7.447E-05 alpha_mix =  0.700 |ddv_scf|^2 =  4.089E-08

      iter #   3 total cpu time :    13.2 secs   av.it.:   9.2
      thresh= 2.022E-05 alpha_mix =  0.700 |ddv_scf|^2 =  3.506E-09

      iter #   4 total cpu time :    14.1 secs   av.it.:   9.0
      thresh= 5.921E-06 alpha_mix =  0.700 |ddv_scf|^2 =  1.080E-11

      iter #   5 total cpu time :    14.7 secs   av.it.:   9.2
      thresh= 3.286E-07 alpha_mix =  0.700 |ddv_scf|^2 =  4.931E-13

     End of self-consistent calculation

     Convergence has been achieved 


     Representation #  4 modes #   5  6

     Self-consistent Calculation

      iter #   1 total cpu time :    15.2 secs   av.it.:   5.0
      thresh= 1.000E-02 alpha_mix =  0.700 |ddv_scf|^2 =  5.544E-07

      iter #   2 total cpu time :    16.1 secs   av.it.:   9.7
      thresh= 7.446E-05 alpha_mix =  0.700 |ddv_scf|^2 =  4.086E-08

      iter #   3 total cpu time :    16.8 secs   av.it.:   9.4
      thresh= 2.021E-05 alpha_mix =  0.700 |ddv_scf|^2 =  3.503E-09

      iter #   4 total cpu time :    17.4 secs   av.it.:   9.1
      thresh= 5.919E-06 alpha_mix =  0.700 |ddv_scf|^2 =  1.080E-11

      iter #   5 total cpu time :    18.3 secs   av.it.:   9.3
      thresh= 3.287E-07 alpha_mix =  0.700 |ddv_scf|^2 =  4.933E-13

     End of self-consistent calculation

     Convergence has been achieved 

     Number of q in the star =    8
     List of q in the star:
          1  -0.250000000   0.250000000  -0.250000000
          2   0.250000000  -0.250000000  -0.250000000
          3   0.250000000  -0.250000000   0.250000000
          4   0.250000000   0.250000000   0.250000000
          5  -0.250000000  -0.250000000  -0.250000000
          6  -0.250000000  -0.250000000   0.250000000
          7  -0.250000000   0.250000000   0.250000000
          8   0.250000000   0.250000000  -0.250000000

     Diagonalizing the dynamical matrix

     q = (   -0.250000000   0.250000000  -0.250000000 ) 

 **************************************************************************
     freq (    1) =       3.384504 [THz] =     112.894896 [cm-1]
     freq (    2) =       3.384504 [THz] =     112.894896 [cm-1]
     freq (    3) =       6.953979 [THz] =     231.959755 [cm-1]
     freq (    4) =      14.132015 [THz] =     471.393282 [cm-1]
     freq (    5) =      14.449266 [THz] =     481.975646 [cm-1]
     freq (    6) =      14.449266 [THz] =     481.975646 [cm-1]
 **************************************************************************

     Mode symmetry, C_3v (3m)   point group:

     freq (  1 -  2) =        112.9  [cm-1]   --> E    L_3           
     freq (  3 -  3) =        232.0  [cm-1]   --> A_1  L_1           
     freq (  4 -  4) =        471.4  [cm-1]   --> A_1  L_1           
     freq (  5 -  6) =        482.0  [cm-1]   --> E    L_3           

     Calculation of q =    0.5000000  -0.5000000   0.5000000

   Info: using nr1, nr2, nr3 values from input

   Info: using nr1, nr2, nr3 values from input

     Parallelization info
     --------------------
     sticks:   dense  smooth     PW     G-vecs:    dense   smooth      PW
     Min          63      63     27                  684      684     186
     Max          64      64     28                  688      688     189
     Sum         253     253    109                 2741     2741     749



     bravais-lattice index     =            2
     lattice parameter (alat)  =      10.3230  a.u.
     unit-cell volume          =     275.0159 (a.u.)^3
     number of atoms/cell      =            2
     number of atomic types    =            1
     number of electrons       =         8.00
     number of Kohn-Sham states=            4
     kinetic-energy cutoff     =      18.0000  Ry
     charge density cutoff     =      72.0000  Ry
     Exchange-correlation      = SLA  PW   PBE  PBE ( 1  4  3  4 0 0)

     celldm(1)=  10.323000  celldm(2)=   0.000000  celldm(3)=   0.000000
     celldm(4)=   0.000000  celldm(5)=   0.000000  celldm(6)=   0.000000

     crystal axes: (cart. coord. in units of alat)
               a(1) = (  -0.500000   0.000000   0.500000 )  
               a(2) = (   0.000000   0.500000   0.500000 )  
               a(3) = (  -0.500000   0.500000   0.000000 )  

     reciprocal axes: (cart. coord. in units 2 pi/alat)
               b(1) = ( -1.000000 -1.000000  1.000000 )  
               b(2) = (  1.000000  1.000000  1.000000 )  
               b(3) = ( -1.000000  1.000000 -1.000000 )  


     PseudoPot. # 1 for Si read from file:
     /home/max/quantum_espresso/qe-6.1/pseudo/si_pbe_v1.uspp.F.UPF.txt
     MD5 check sum: a056efeee980c13900f22a371efd63c1
     Pseudo is Ultrasoft + core correction, Zval =  4.0
     Generated by new atomic code, or converted to UPF format
     Using radial grid of  899 points,  6 beta functions with: 
                l(1) =   0
                l(2) =   0
                l(3) =   1
                l(4) =   1
                l(5) =   2
                l(6) =   2
     Q(r) pseudized with  8 coefficients,  rinner =    0.900   0.900   0.900
                                                       0.900   0.900

     atomic species   valence    mass     pseudopotential
        Si             4.00    28.08600     Si( 1.00)

     48 Sym. Ops., with inversion, found



   Cartesian axes

     site n.     atom                  positions (alat units)
         1           Si  tau(   1) = (   0.0000000   0.0000000   0.0000000  )
         2           Si  tau(   2) = (   0.2500000   0.2500000   0.2500000  )

     number of k points=    60
                       cart. coord. in units 2pi/alat
        k(    1) = (  -0.1250000   0.1250000   0.1250000), wk =   0.0468750
        k(    2) = (   0.3750000  -0.3750000   0.6250000), wk =   0.0000000
        k(    3) = (  -0.3750000   0.3750000  -0.1250000), wk =   0.0468750
        k(    4) = (   0.1250000  -0.1250000   0.3750000), wk =   0.0000000
        k(    5) = (   0.3750000  -0.3750000   0.6250000), wk =   0.0468750
        k(    6) = (   0.8750000  -0.8750000   1.1250000), wk =   0.0000000
        k(    7) = (   0.1250000  -0.1250000   0.3750000), wk =   0.0468750
        k(    8) = (   0.6250000  -0.6250000   0.8750000), wk =   0.0000000
        k(    9) = (  -0.1250000   0.6250000   0.1250000), wk =   0.0937500
        k(   10) = (   0.3750000   0.1250000   0.6250000), wk =   0.0000000
        k(   11) = (   0.6250000  -0.1250000   0.8750000), wk =   0.0937500
        k(   12) = (   1.1250000  -0.6250000   1.3750000), wk =   0.0000000
        k(   13) = (   0.3750000   0.1250000   0.6250000), wk =   0.0937500
        k(   14) = (   0.8750000  -0.3750000   1.1250000), wk =   0.0000000
        k(   15) = (  -0.1250000  -0.8750000   0.1250000), wk =   0.0937500
        k(   16) = (   0.3750000  -1.3750000   0.6250000), wk =   0.0000000
        k(   17) = (  -0.3750000   0.3750000   0.3750000), wk =   0.0468750
        k(   18) = (   0.1250000  -0.1250000   0.8750000), wk =   0.0000000
        k(   19) = (   0.3750000  -0.3750000   1.1250000), wk =   0.0468750
        k(   20) = (   0.8750000  -0.8750000   1.6250000), wk =   0.0000000
        k(   21) = (   0.1250000  -0.1250000   0.1250000), wk =   0.0156250
        k(   22) = (   0.6250000  -0.6250000   0.6250000), wk =   0.0000000
        k(   23) = (  -0.3750000  -0.3750000  -0.1250000), wk =   0.0937500
        k(   24) = (   0.1250000  -0.8750000   0.3750000), wk =   0.0000000
        k(   25) = (  -0.1250000  -0.3750000   0.3750000), wk =   0.0468750
        k(   26) = (   0.3750000  -0.8750000   0.8750000), wk =   0.0000000
        k(   27) = (   0.3750000   0.3750000   0.6250000), wk =   0.0937500
        k(   28) = (   0.8750000  -0.1250000   1.1250000), wk =   0.0000000
        k(   29) = (   0.6250000   0.3750000  -0.3750000), wk =   0.0468750
        k(   30) = (   1.1250000  -0.1250000   0.1250000), wk =   0.0000000
        k(   31) = (   0.1250000   0.1250000   0.3750000), wk =   0.0937500
        k(   32) = (   0.6250000  -0.3750000   0.8750000), wk =   0.0000000
        k(   33) = (   0.3750000   0.1250000  -0.1250000), wk =   0.0468750
        k(   34) = (   0.8750000  -0.3750000   0.3750000), wk =   0.0000000
        k(   35) = (  -0.1250000  -0.6250000  -0.1250000), wk =   0.0468750
        k(   36) = (   0.3750000  -1.1250000   0.3750000), wk =   0.0000000
        k(   37) = (   0.1250000  -0.6250000   0.1250000), wk =   0.0468750
        k(   38) = (   0.6250000  -1.1250000   0.6250000), wk =   0.0000000
        k(   39) = (   0.6250000   0.1250000   0.8750000), wk =   0.0937500
        k(   40) = (   1.1250000  -0.3750000   1.3750000), wk =   0.0000000
        k(   41) = (  -0.8750000   0.1250000   0.6250000), wk =   0.0937500
        k(   42) = (  -0.3750000  -0.3750000   1.1250000), wk =   0.0000000
        k(   43) = (   0.8750000   0.1250000  -0.6250000), wk =   0.0937500
        k(   44) = (   1.3750000  -0.3750000  -0.1250000), wk =   0.0000000
        k(   45) = (   0.3750000  -0.1250000   0.6250000), wk =   0.0937500
        k(   46) = (   0.8750000  -0.6250000   1.1250000), wk =   0.0000000
        k(   47) = (  -0.6250000  -0.1250000   0.3750000), wk =   0.0937500
        k(   48) = (  -0.1250000  -0.6250000   0.8750000), wk =   0.0000000
        k(   49) = (   0.6250000  -0.1250000  -0.3750000), wk =   0.0937500
        k(   50) = (   1.1250000  -0.6250000   0.1250000), wk =   0.0000000
        k(   51) = (  -0.1250000   0.8750000  -0.1250000), wk =   0.0468750
        k(   52) = (   0.3750000   0.3750000   0.3750000), wk =   0.0000000
        k(   53) = (   0.1250000   0.8750000   0.1250000), wk =   0.0468750
        k(   54) = (   0.6250000   0.3750000   0.6250000), wk =   0.0000000
        k(   55) = (   0.3750000  -0.3750000   0.3750000), wk =   0.0156250
        k(   56) = (   0.8750000  -0.8750000   0.8750000), wk =   0.0000000
        k(   57) = (   0.3750000   0.3750000   1.1250000), wk =   0.0937500
        k(   58) = (   0.8750000  -0.1250000   1.6250000), wk =   0.0000000
        k(   59) = (   1.1250000   0.3750000  -0.3750000), wk =   0.0468750
        k(   60) = (   1.6250000  -0.1250000   0.1250000), wk =   0.0000000

     Dense  grid:     2741 G-vectors     FFT dimensions: (  20,  20,  20)

     Estimated max dynamical RAM per process >       0.33MB

     Estimated total allocated dynamical RAM >       1.30MB

     Check: negative/imaginary core charge=   -0.000005    0.000000

     The potential is recalculated from file :
     ./_ph0/silicon.10.323.save/charge-density.dat

     Starting wfc are    8 atomic wfcs

     Band Structure Calculation
     Davidson diagonalization with overlap

     ethr =  1.25E-10,  avg # of iterations = 11.7

     total cpu time spent up to now is        1.5 secs

     End of band structure calculation

          k =-0.1250 0.1250 0.1250 (   338 PWs)   bands (ev):

    -5.6194   4.4219   5.7306   5.7306

          k = 0.3750-0.3750 0.6250 (   359 PWs)   bands (ev):

    -3.4532  -0.6545   3.7643   4.4756

          k =-0.3750 0.3750-0.1250 (   352 PWs)   bands (ev):

    -4.5927   1.4245   3.7445   5.2479

          k = 0.1250-0.1250 0.3750 (   349 PWs)   bands (ev):

    -5.0917   2.8024   4.7206   4.7863

          k = 0.3750-0.3750 0.6250 (   359 PWs)   bands (ev):

    -3.4532  -0.6545   3.7643   4.4756

          k = 0.8750-0.8750 1.1250 (   338 PWs)   bands (ev):

    -5.6194   4.4219   5.7306   5.7306

          k = 0.1250-0.1250 0.3750 (   349 PWs)   bands (ev):

    -5.0917   2.8024   4.7206   4.7863

          k = 0.6250-0.6250 0.8750 (   352 PWs)   bands (ev):

    -4.5927   1.4245   3.7445   5.2479

          k =-0.1250 0.6250 0.1250 (   349 PWs)   bands (ev):

    -4.0595   1.0892   3.3955   3.8451

          k = 0.3750 0.1250 0.6250 (   357 PWs)   bands (ev):

    -3.6443   0.2155   2.7545   4.1213

          k = 0.6250-0.1250 0.8750 (   359 PWs)   bands (ev):

    -2.4189  -0.8762   2.0424   3.1172

          k = 1.1250-0.6250 1.3750 (   352 PWs)   bands (ev):

    -4.5927   1.4245   3.7445   5.2479

          k = 0.3750 0.1250 0.6250 (   357 PWs)   bands (ev):

    -3.6443   0.2155   2.7545   4.1213

          k = 0.8750-0.3750 1.1250 (   349 PWs)   bands (ev):

    -4.0595   1.0892   3.3955   3.8451

          k =-0.1250-0.8750 0.1250 (   358 PWs)   bands (ev):

    -2.5866  -0.7787   2.6505   3.3774

          k = 0.3750-1.3750 0.6250 (   359 PWs)   bands (ev):

    -3.4532  -0.6545   3.7643   4.4756

          k =-0.3750 0.3750 0.3750 (   353 PWs)   bands (ev):

    -4.1602   0.1345   4.9408   4.9408

          k = 0.1250-0.1250 0.8750 (   358 PWs)   bands (ev):

    -2.5866  -0.7787   2.6505   3.3774

          k = 0.3750-0.3750 1.1250 (   361 PWs)   bands (ev):

    -2.9569  -0.5717   2.1006   4.1587

          k = 0.8750-0.8750 1.6250 (   349 PWs)   bands (ev):

    -4.0595   1.0892   3.3955   3.8451

          k = 0.1250-0.1250 0.1250 (   338 PWs)   bands (ev):

    -5.6194   4.4219   5.7306   5.7306

          k = 0.6250-0.6250 0.6250 (   353 PWs)   bands (ev):

    -4.1602   0.1345   4.9408   4.9408

          k =-0.3750-0.3750-0.1250 (   352 PWs)   bands (ev):

    -4.5927   1.4245   3.7445   5.2479

          k = 0.1250-0.8750 0.3750 (   359 PWs)   bands (ev):

    -2.4189  -0.8762   2.0424   3.1172

          k =-0.1250-0.3750 0.3750 (   352 PWs)   bands (ev):

    -4.5927   1.4245   3.7445   5.2479

          k = 0.3750-0.8750 0.8750 (   349 PWs)   bands (ev):

    -4.0595   1.0892   3.3955   3.8451

          k = 0.3750 0.3750 0.6250 (   359 PWs)   bands (ev):

    -3.4532  -0.6545   3.7643   4.4756

          k = 0.8750-0.1250 1.1250 (   358 PWs)   bands (ev):

    -2.5866  -0.7787   2.6505   3.3774

          k = 0.6250 0.3750-0.3750 (   359 PWs)   bands (ev):

    -3.4532  -0.6545   3.7643   4.4756

          k = 1.1250-0.1250 0.1250 (   358 PWs)   bands (ev):

    -2.5866  -0.7787   2.6505   3.3774

          k = 0.1250 0.1250 0.3750 (   349 PWs)   bands (ev):

    -5.0917   2.8024   4.7206   4.7863

          k = 0.6250-0.3750 0.8750 (   357 PWs)   bands (ev):

    -3.6443   0.2155   2.7545   4.1213

          k = 0.3750 0.1250-0.1250 (   349 PWs)   bands (ev):

    -5.0917   2.8024   4.7206   4.7863

          k = 0.8750-0.3750 0.3750 (   361 PWs)   bands (ev):

    -2.9569  -0.5717   2.1006   4.1587

          k =-0.1250-0.6250-0.1250 (   349 PWs)   bands (ev):

    -4.0595   1.0892   3.3955   3.8451

          k = 0.3750-1.1250 0.3750 (   361 PWs)   bands (ev):

    -2.9569  -0.5717   2.1006   4.1587

          k = 0.1250-0.6250 0.1250 (   349 PWs)   bands (ev):

    -4.0595   1.0892   3.3955   3.8451

          k = 0.6250-1.1250 0.6250 (   352 PWs)   bands (ev):

    -4.5927   1.4245   3.7445   5.2479

          k = 0.6250 0.1250 0.8750 (   359 PWs)   bands (ev):

    -2.4189  -0.8762   2.0424   3.1172

          k = 1.1250-0.3750 1.3750 (   357 PWs)   bands (ev):

    -3.6443   0.2155   2.7545   4.1213

          k =-0.8750 0.1250 0.6250 (   359 PWs)   bands (ev):

    -2.4189  -0.8762   2.0424   3.1172

          k =-0.3750-0.3750 1.1250 (   361 PWs)   bands (ev):

    -2.9569  -0.5717   2.1006   4.1587

          k = 0.8750 0.1250-0.6250 (   359 PWs)   bands (ev):

    -2.4189  -0.8762   2.0424   3.1172

          k = 1.3750-0.3750-0.1250 (   357 PWs)   bands (ev):

    -3.6443   0.2155   2.7545   4.1213

          k = 0.3750-0.1250 0.6250 (   357 PWs)   bands (ev):

    -3.6443   0.2155   2.7545   4.1213

          k = 0.8750-0.6250 1.1250 (   349 PWs)   bands (ev):

    -5.0917   2.8024   4.7206   4.7863

          k =-0.6250-0.1250 0.3750 (   357 PWs)   bands (ev):

    -3.6443   0.2155   2.7545   4.1213

          k =-0.1250-0.6250 0.8750 (   359 PWs)   bands (ev):

    -2.4189  -0.8762   2.0424   3.1172

          k = 0.6250-0.1250-0.3750 (   357 PWs)   bands (ev):

    -3.6443   0.2155   2.7545   4.1213

          k = 1.1250-0.6250 0.1250 (   359 PWs)   bands (ev):

    -2.4189  -0.8762   2.0424   3.1172

          k =-0.1250 0.8750-0.1250 (   358 PWs)   bands (ev):

    -2.5866  -0.7787   2.6505   3.3774

          k = 0.3750 0.3750 0.3750 (   353 PWs)   bands (ev):

    -4.1602   0.1345   4.9408   4.9408

          k = 0.1250 0.8750 0.1250 (   358 PWs)   bands (ev):

    -2.5866  -0.7787   2.6505   3.3774

          k = 0.6250 0.3750 0.6250 (   359 PWs)   bands (ev):

    -3.4532  -0.6545   3.7643   4.4756

          k = 0.3750-0.3750 0.3750 (   353 PWs)   bands (ev):

    -4.1602   0.1345   4.9408   4.9408

          k = 0.8750-0.8750 0.8750 (   338 PWs)   bands (ev):

    -5.6194   4.4219   5.7306   5.7306

          k = 0.3750 0.3750 1.1250 (   361 PWs)   bands (ev):

    -2.9569  -0.5717   2.1006   4.1587

          k = 0.8750-0.1250 1.6250 (   359 PWs)   bands (ev):

    -2.4189  -0.8762   2.0424   3.1172

          k = 1.1250 0.3750-0.3750 (   361 PWs)   bands (ev):

    -2.9569  -0.5717   2.1006   4.1587

          k = 1.6250-0.1250 0.1250 (   349 PWs)   bands (ev):

    -5.0917   2.8024   4.7206   4.7863

     highest occupied level (ev):     5.7306

     Writing output data file silicon.10.323.save

                                                                                

     bravais-lattice index     =            2
     lattice parameter (alat)  =      10.3230  a.u.
     unit-cell volume          =     275.0159 (a.u.)^3
     number of atoms/cell      =            2
     number of atomic types    =            1
     kinetic-energy cut-off    =      18.0000  Ry
     charge density cut-off    =      72.0000  Ry
     convergence threshold     =      1.0E-12
     beta                      =       0.7000
     number of iterations used =            4
     Exchange-correlation      = SLA  PW   PBE  PBE ( 1  4  3  4 0 0)


     celldm(1)=   10.32300  celldm(2)=    0.00000  celldm(3)=    0.00000
     celldm(4)=    0.00000  celldm(5)=    0.00000  celldm(6)=    0.00000

     crystal axes: (cart. coord. in units of alat)
               a(1) = ( -0.5000  0.0000  0.5000 )  
               a(2) = (  0.0000  0.5000  0.5000 )  
               a(3) = ( -0.5000  0.5000  0.0000 )  

     reciprocal axes: (cart. coord. in units 2 pi/alat)
               b(1) = ( -1.0000 -1.0000  1.0000 )  
               b(2) = (  1.0000  1.0000  1.0000 )  
               b(3) = ( -1.0000  1.0000 -1.0000 )  


     Atoms inside the unit cell: 

     Cartesian axes

     site n.  atom      mass           positions (alat units)
        1     Si  28.0860   tau(    1) = (    0.00000    0.00000    0.00000  )
        2     Si  28.0860   tau(    2) = (    0.25000    0.25000    0.25000  )

     Computing dynamical matrix for 
                    q = (   0.5000000  -0.5000000   0.5000000 )

     13 Sym.Ops. (with q -> -q+G )


     G cutoff =  194.3500  (    685 G-vectors)     FFT grid: ( 20, 20, 20)
     number of k points=    60

     PseudoPot. # 1 for Si read from file:
     /home/max/quantum_espresso/qe-6.1/pseudo/si_pbe_v1.uspp.F.UPF.txt
     MD5 check sum: a056efeee980c13900f22a371efd63c1
     Pseudo is Ultrasoft + core correction, Zval =  4.0
     Generated by new atomic code, or converted to UPF format
     Using radial grid of  899 points,  6 beta functions with: 
                l(1) =   0
                l(2) =   0
                l(3) =   1
                l(4) =   1
                l(5) =   2
                l(6) =   2
     Q(r) pseudized with  8 coefficients,  rinner =    0.900   0.900   0.900
                                                       0.900   0.900


     Atomic displacements:
     There are   4 irreducible representations

     Representation     1      1 modes -  To be done

     Representation     2      1 modes -  To be done

     Representation     3      2 modes -  To be done

     Representation     4      2 modes -  To be done



     Alpha used in Ewald sum =   0.7000
     PHONON       :    17.81s CPU        19.09s WALL



     Representation #  1 mode #   1

     Self-consistent Calculation

      iter #   1 total cpu time :    19.2 secs   av.it.:   4.8
      thresh= 1.000E-02 alpha_mix =  0.700 |ddv_scf|^2 =  2.487E-05

      iter #   2 total cpu time :    19.4 secs   av.it.:   8.3
      thresh= 4.987E-04 alpha_mix =  0.700 |ddv_scf|^2 =  2.211E-05

      iter #   3 total cpu time :    19.5 secs   av.it.:   7.5
      thresh= 4.702E-04 alpha_mix =  0.700 |ddv_scf|^2 =  4.175E-08

      iter #   4 total cpu time :    19.9 secs   av.it.:   7.5
      thresh= 2.043E-05 alpha_mix =  0.700 |ddv_scf|^2 =  1.407E-10

      iter #   5 total cpu time :    20.0 secs   av.it.:   7.9
      thresh= 1.186E-06 alpha_mix =  0.700 |ddv_scf|^2 =  3.609E-12

      iter #   6 total cpu time :    20.2 secs   av.it.:   7.9
      thresh= 1.900E-07 alpha_mix =  0.700 |ddv_scf|^2 =  5.578E-14

     End of self-consistent calculation

     Convergence has been achieved 


     Representation #  2 mode #   2

     Self-consistent Calculation

      iter #   1 total cpu time :    20.3 secs   av.it.:   5.6
      thresh= 1.000E-02 alpha_mix =  0.700 |ddv_scf|^2 =  3.458E-04

      iter #   2 total cpu time :    20.5 secs   av.it.:   8.3
      thresh= 1.860E-03 alpha_mix =  0.700 |ddv_scf|^2 =  1.065E-03

      iter #   3 total cpu time :    20.7 secs   av.it.:   7.1
      thresh= 3.264E-03 alpha_mix =  0.700 |ddv_scf|^2 =  1.127E-07

      iter #   4 total cpu time :    20.8 secs   av.it.:   8.2
      thresh= 3.357E-05 alpha_mix =  0.700 |ddv_scf|^2 =  7.228E-09

      iter #   5 total cpu time :    21.0 secs   av.it.:   8.5
      thresh= 8.502E-06 alpha_mix =  0.700 |ddv_scf|^2 =  1.293E-10

      iter #   6 total cpu time :    21.2 secs   av.it.:   8.3
      thresh= 1.137E-06 alpha_mix =  0.700 |ddv_scf|^2 =  2.065E-12

      iter #   7 total cpu time :    21.3 secs   av.it.:   7.8
      thresh= 1.437E-07 alpha_mix =  0.700 |ddv_scf|^2 =  3.217E-15

     End of self-consistent calculation

     Convergence has been achieved 


     Representation #  3 modes #   3  4

     Self-consistent Calculation

      iter #   1 total cpu time :    21.7 secs   av.it.:   4.7
      thresh= 1.000E-02 alpha_mix =  0.700 |ddv_scf|^2 =  3.024E-07

      iter #   2 total cpu time :    22.1 secs   av.it.:   9.1
      thresh= 5.499E-05 alpha_mix =  0.700 |ddv_scf|^2 =  2.491E-08

      iter #   3 total cpu time :    22.4 secs   av.it.:   8.4
      thresh= 1.578E-05 alpha_mix =  0.700 |ddv_scf|^2 =  4.926E-10

      iter #   4 total cpu time :    22.7 secs   av.it.:   8.9
      thresh= 2.219E-06 alpha_mix =  0.700 |ddv_scf|^2 =  6.194E-12

      iter #   5 total cpu time :    23.0 secs   av.it.:   8.7
      thresh= 2.489E-07 alpha_mix =  0.700 |ddv_scf|^2 =  3.209E-14

     End of self-consistent calculation

     Convergence has been achieved 


     Representation #  4 modes #   5  6

     Self-consistent Calculation

      iter #   1 total cpu time :    23.3 secs   av.it.:   4.9
      thresh= 1.000E-02 alpha_mix =  0.700 |ddv_scf|^2 =  9.781E-07

      iter #   2 total cpu time :    23.8 secs   av.it.:   9.5
      thresh= 9.890E-05 alpha_mix =  0.700 |ddv_scf|^2 =  7.653E-08

      iter #   3 total cpu time :    24.2 secs   av.it.:   9.3
      thresh= 2.766E-05 alpha_mix =  0.700 |ddv_scf|^2 =  4.882E-09

      iter #   4 total cpu time :    24.5 secs   av.it.:   8.4
      thresh= 6.987E-06 alpha_mix =  0.700 |ddv_scf|^2 =  6.574E-12

      iter #   5 total cpu time :    24.8 secs   av.it.:   8.8
      thresh= 2.564E-07 alpha_mix =  0.700 |ddv_scf|^2 =  2.280E-14

     End of self-consistent calculation

     Convergence has been achieved 

     Number of q in the star =    4
     List of q in the star:
          1   0.500000000  -0.500000000   0.500000000
          2   0.500000000   0.500000000   0.500000000
          3  -0.500000000   0.500000000   0.500000000
          4   0.500000000   0.500000000  -0.500000000

     Diagonalizing the dynamical matrix

     q = (    0.500000000  -0.500000000   0.500000000 ) 

 **************************************************************************
     freq (    1) =       4.532048 [THz] =     151.172856 [cm-1]
     freq (    2) =       4.532048 [THz] =     151.172856 [cm-1]
     freq (    3) =      11.553245 [THz] =     385.374785 [cm-1]
     freq (    4) =      12.184048 [THz] =     406.416104 [cm-1]
     freq (    5) =      14.463214 [THz] =     482.440892 [cm-1]
     freq (    6) =      14.463214 [THz] =     482.440892 [cm-1]
 **************************************************************************

     Calculation of q =    0.0000000   0.5000000   0.0000000

   Info: using nr1, nr2, nr3 values from input

   Info: using nr1, nr2, nr3 values from input

     Parallelization info
     --------------------
     sticks:   dense  smooth     PW     G-vecs:    dense   smooth      PW
     Min          63      63     27                  684      684     175
     Max          64      64     28                  688      688     176
     Sum         253     253    109                 2741     2741     701



     bravais-lattice index     =            2
     lattice parameter (alat)  =      10.3230  a.u.
     unit-cell volume          =     275.0159 (a.u.)^3
     number of atoms/cell      =            2
     number of atomic types    =            1
     number of electrons       =         8.00
     number of Kohn-Sham states=            4
     kinetic-energy cutoff     =      18.0000  Ry
     charge density cutoff     =      72.0000  Ry
     Exchange-correlation      = SLA  PW   PBE  PBE ( 1  4  3  4 0 0)

     celldm(1)=  10.323000  celldm(2)=   0.000000  celldm(3)=   0.000000
     celldm(4)=   0.000000  celldm(5)=   0.000000  celldm(6)=   0.000000

     crystal axes: (cart. coord. in units of alat)
               a(1) = (  -0.500000   0.000000   0.500000 )  
               a(2) = (   0.000000   0.500000   0.500000 )  
               a(3) = (  -0.500000   0.500000   0.000000 )  

     reciprocal axes: (cart. coord. in units 2 pi/alat)
               b(1) = ( -1.000000 -1.000000  1.000000 )  
               b(2) = (  1.000000  1.000000  1.000000 )  
               b(3) = ( -1.000000  1.000000 -1.000000 )  


     PseudoPot. # 1 for Si read from file:
     /home/max/quantum_espresso/qe-6.1/pseudo/si_pbe_v1.uspp.F.UPF.txt
     MD5 check sum: a056efeee980c13900f22a371efd63c1
     Pseudo is Ultrasoft + core correction, Zval =  4.0
     Generated by new atomic code, or converted to UPF format
     Using radial grid of  899 points,  6 beta functions with: 
                l(1) =   0
                l(2) =   0
                l(3) =   1
                l(4) =   1
                l(5) =   2
                l(6) =   2
     Q(r) pseudized with  8 coefficients,  rinner =    0.900   0.900   0.900
                                                       0.900   0.900

     atomic species   valence    mass     pseudopotential
        Si             4.00    28.08600     Si( 1.00)

     48 Sym. Ops., with inversion, found



   Cartesian axes

     site n.     atom                  positions (alat units)
         1           Si  tau(   1) = (   0.0000000   0.0000000   0.0000000  )
         2           Si  tau(   2) = (   0.2500000   0.2500000   0.2500000  )

     number of k points=    80
                       cart. coord. in units 2pi/alat
        k(    1) = (  -0.1250000   0.1250000   0.1250000), wk =   0.0312500
        k(    2) = (  -0.1250000   0.6250000   0.1250000), wk =   0.0000000
        k(    3) = (  -0.3750000   0.3750000  -0.1250000), wk =   0.0625000
        k(    4) = (  -0.3750000   0.8750000  -0.1250000), wk =   0.0000000
        k(    5) = (   0.3750000  -0.3750000   0.6250000), wk =   0.0625000
        k(    6) = (   0.3750000   0.1250000   0.6250000), wk =   0.0000000
        k(    7) = (   0.1250000  -0.1250000   0.3750000), wk =   0.0625000
        k(    8) = (   0.1250000   0.3750000   0.3750000), wk =   0.0000000
        k(    9) = (  -0.1250000   0.6250000   0.1250000), wk =   0.0312500
        k(   10) = (  -0.1250000   1.1250000   0.1250000), wk =   0.0000000
        k(   11) = (   0.6250000  -0.1250000   0.8750000), wk =   0.0625000
        k(   12) = (   0.6250000   0.3750000   0.8750000), wk =   0.0000000
        k(   13) = (   0.3750000   0.1250000   0.6250000), wk =   0.0625000
        k(   14) = (   0.3750000   0.6250000   0.6250000), wk =   0.0000000
        k(   15) = (  -0.1250000  -0.8750000   0.1250000), wk =   0.0312500
        k(   16) = (  -0.1250000  -0.3750000   0.1250000), wk =   0.0000000
        k(   17) = (  -0.3750000   0.3750000   0.3750000), wk =   0.0312500
        k(   18) = (  -0.3750000   0.8750000   0.3750000), wk =   0.0000000
        k(   19) = (   0.3750000  -0.3750000   1.1250000), wk =   0.0625000
        k(   20) = (   0.3750000   0.1250000   1.1250000), wk =   0.0000000
        k(   21) = (  -0.1250000  -0.1250000   0.1250000), wk =   0.0312500
        k(   22) = (  -0.1250000   0.3750000   0.1250000), wk =   0.0000000
        k(   23) = (   0.1250000  -0.3750000   0.3750000), wk =   0.0625000
        k(   24) = (   0.1250000   0.1250000   0.3750000), wk =   0.0000000
        k(   25) = (   0.3750000  -0.1250000   0.3750000), wk =   0.0312500
        k(   26) = (   0.3750000   0.3750000   0.3750000), wk =   0.0000000
        k(   27) = (   0.3750000   0.1250000   0.3750000), wk =   0.0312500
        k(   28) = (   0.3750000   0.6250000   0.3750000), wk =   0.0000000
        k(   29) = (  -0.6250000   0.3750000  -0.3750000), wk =   0.0625000
        k(   30) = (  -0.6250000   0.8750000  -0.3750000), wk =   0.0000000
        k(   31) = (  -0.3750000   0.6250000  -0.3750000), wk =   0.0312500
        k(   32) = (  -0.3750000   1.1250000  -0.3750000), wk =   0.0000000
        k(   33) = (  -0.3750000  -0.6250000  -0.3750000), wk =   0.0312500
        k(   34) = (  -0.3750000  -0.1250000  -0.3750000), wk =   0.0000000
        k(   35) = (  -0.3750000   0.1250000  -0.1250000), wk =   0.0625000
        k(   36) = (  -0.3750000   0.6250000  -0.1250000), wk =   0.0000000
        k(   37) = (  -0.1250000   0.3750000  -0.1250000), wk =   0.0312500
        k(   38) = (  -0.1250000   0.8750000  -0.1250000), wk =   0.0000000
        k(   39) = (  -0.1250000  -0.3750000  -0.1250000), wk =   0.0312500
        k(   40) = (  -0.1250000   0.1250000  -0.1250000), wk =   0.0000000
        k(   41) = (  -0.1250000  -0.6250000   0.1250000), wk =   0.0312500
        k(   42) = (  -0.1250000  -0.1250000   0.1250000), wk =   0.0000000
        k(   43) = (   0.6250000  -0.1250000  -0.1250000), wk =   0.0625000
        k(   44) = (   0.6250000   0.3750000  -0.1250000), wk =   0.0000000
        k(   45) = (   0.6250000   0.1250000   0.1250000), wk =   0.0625000
        k(   46) = (   0.6250000   0.6250000   0.1250000), wk =   0.0000000
        k(   47) = (  -0.8750000   0.1250000  -0.6250000), wk =   0.0625000
        k(   48) = (  -0.8750000   0.6250000  -0.6250000), wk =   0.0000000
        k(   49) = (  -0.1250000   0.6250000  -0.8750000), wk =   0.0625000
        k(   50) = (  -0.1250000   1.1250000  -0.8750000), wk =   0.0000000
        k(   51) = (  -0.1250000   0.8750000  -0.6250000), wk =   0.0625000
        k(   52) = (  -0.1250000   1.3750000  -0.6250000), wk =   0.0000000
        k(   53) = (  -0.1250000  -0.8750000  -0.6250000), wk =   0.0625000
        k(   54) = (  -0.1250000  -0.3750000  -0.6250000), wk =   0.0000000
        k(   55) = (   0.8750000  -0.6250000   0.1250000), wk =   0.0625000
        k(   56) = (   0.8750000  -0.1250000   0.1250000), wk =   0.0000000
        k(   57) = (  -0.6250000  -0.1250000  -0.3750000), wk =   0.0625000
        k(   58) = (  -0.6250000   0.3750000  -0.3750000), wk =   0.0000000
        k(   59) = (   0.1250000   0.3750000  -0.6250000), wk =   0.0625000
        k(   60) = (   0.1250000   0.8750000  -0.6250000), wk =   0.0000000
        k(   61) = (   0.1250000   0.6250000  -0.3750000), wk =   0.0625000
        k(   62) = (   0.1250000   1.1250000  -0.3750000), wk =   0.0000000
        k(   63) = (   0.1250000  -0.6250000  -0.3750000), wk =   0.0625000
        k(   64) = (   0.1250000  -0.1250000  -0.3750000), wk =   0.0000000
        k(   65) = (   0.6250000  -0.3750000  -0.1250000), wk =   0.0625000
        k(   66) = (   0.6250000   0.1250000  -0.1250000), wk =   0.0000000
        k(   67) = (  -0.1250000   0.8750000   0.1250000), wk =   0.0312500
        k(   68) = (  -0.1250000   1.3750000   0.1250000), wk =   0.0000000
        k(   69) = (  -0.8750000  -0.1250000  -0.1250000), wk =   0.0625000
        k(   70) = (  -0.8750000   0.3750000  -0.1250000), wk =   0.0000000
        k(   71) = (  -0.8750000   0.1250000   0.1250000), wk =   0.0625000
        k(   72) = (  -0.8750000   0.6250000   0.1250000), wk =   0.0000000
        k(   73) = (  -0.3750000  -0.3750000   0.3750000), wk =   0.0312500
        k(   74) = (  -0.3750000   0.1250000   0.3750000), wk =   0.0000000
        k(   75) = (  -1.1250000   0.3750000  -0.3750000), wk =   0.0625000
        k(   76) = (  -1.1250000   0.8750000  -0.3750000), wk =   0.0000000
        k(   77) = (  -0.3750000   1.1250000  -0.3750000), wk =   0.0312500
        k(   78) = (  -0.3750000   1.6250000  -0.3750000), wk =   0.0000000
        k(   79) = (  -0.3750000  -1.1250000  -0.3750000), wk =   0.0312500
        k(   80) = (  -0.3750000  -0.6250000  -0.3750000), wk =   0.0000000

     Dense  grid:     2741 G-vectors     FFT dimensions: (  20,  20,  20)

     Estimated max dynamical RAM per process >       0.33MB

     Estimated total allocated dynamical RAM >       1.30MB

     Check: negative/imaginary core charge=   -0.000005    0.000000

     The potential is recalculated from file :
     ./_ph0/silicon.10.323.save/charge-density.dat

     Starting wfc are    8 atomic wfcs

     Band Structure Calculation
     Davidson diagonalization with overlap

     ethr =  1.25E-10,  avg # of iterations = 11.7

     total cpu time spent up to now is        2.2 secs

     End of band structure calculation

          k =-0.1250 0.1250 0.1250 (   338 PWs)   bands (ev):

    -5.6194   4.4219   5.7306   5.7306

          k =-0.1250 0.6250 0.1250 (   349 PWs)   bands (ev):

    -4.0595   1.0892   3.3955   3.8451

          k =-0.3750 0.3750-0.1250 (   352 PWs)   bands (ev):

    -4.5927   1.4245   3.7445   5.2479

          k =-0.3750 0.8750-0.1250 (   359 PWs)   bands (ev):

    -2.4189  -0.8762   2.0424   3.1172

          k = 0.3750-0.3750 0.6250 (   359 PWs)   bands (ev):

    -3.4532  -0.6545   3.7643   4.4756

          k = 0.3750 0.1250 0.6250 (   357 PWs)   bands (ev):

    -3.6443   0.2155   2.7545   4.1213

          k = 0.1250-0.1250 0.3750 (   349 PWs)   bands (ev):

    -5.0917   2.8024   4.7206   4.7863

          k = 0.1250 0.3750 0.3750 (   352 PWs)   bands (ev):

    -4.5927   1.4245   3.7445   5.2479

          k =-0.1250 0.6250 0.1250 (   349 PWs)   bands (ev):

    -4.0595   1.0892   3.3955   3.8451

          k =-0.1250 1.1250 0.1250 (   358 PWs)   bands (ev):

    -2.5866  -0.7787   2.6505   3.3774

          k = 0.6250-0.1250 0.8750 (   359 PWs)   bands (ev):

    -2.4189  -0.8762   2.0424   3.1172

          k = 0.6250 0.3750 0.8750 (   357 PWs)   bands (ev):

    -3.6443   0.2155   2.7545   4.1213

          k = 0.3750 0.1250 0.6250 (   357 PWs)   bands (ev):

    -3.6443   0.2155   2.7545   4.1213

          k = 0.3750 0.6250 0.6250 (   359 PWs)   bands (ev):

    -3.4532  -0.6545   3.7643   4.4756

          k =-0.1250-0.8750 0.1250 (   358 PWs)   bands (ev):

    -2.5866  -0.7787   2.6505   3.3774

          k =-0.1250-0.3750 0.1250 (   349 PWs)   bands (ev):

    -5.0917   2.8024   4.7206   4.7863

          k =-0.3750 0.3750 0.3750 (   353 PWs)   bands (ev):

    -4.1602   0.1345   4.9408   4.9408

          k =-0.3750 0.8750 0.3750 (   361 PWs)   bands (ev):

    -2.9569  -0.5717   2.1006   4.1587

          k = 0.3750-0.3750 1.1250 (   361 PWs)   bands (ev):

    -2.9569  -0.5717   2.1006   4.1587

          k = 0.3750 0.1250 1.1250 (   359 PWs)   bands (ev):

    -2.4189  -0.8762   2.0424   3.1172

          k =-0.1250-0.1250 0.1250 (   338 PWs)   bands (ev):

    -5.6194   4.4219   5.7306   5.7306

          k =-0.1250 0.3750 0.1250 (   349 PWs)   bands (ev):

    -5.0917   2.8024   4.7206   4.7863

          k = 0.1250-0.3750 0.3750 (   352 PWs)   bands (ev):

    -4.5927   1.4245   3.7445   5.2479

          k = 0.1250 0.1250 0.3750 (   349 PWs)   bands (ev):

    -5.0917   2.8024   4.7206   4.7863

          k = 0.3750-0.1250 0.3750 (   352 PWs)   bands (ev):

    -4.5927   1.4245   3.7445   5.2479

          k = 0.3750 0.3750 0.3750 (   353 PWs)   bands (ev):

    -4.1602   0.1345   4.9408   4.9408

          k = 0.3750 0.1250 0.3750 (   352 PWs)   bands (ev):

    -4.5927   1.4245   3.7445   5.2479

          k = 0.3750 0.6250 0.3750 (   359 PWs)   bands (ev):

    -3.4532  -0.6545   3.7643   4.4756

          k =-0.6250 0.3750-0.3750 (   359 PWs)   bands (ev):

    -3.4532  -0.6545   3.7643   4.4756

          k =-0.6250 0.8750-0.3750 (   357 PWs)   bands (ev):

    -3.6443   0.2155   2.7545   4.1213

          k =-0.3750 0.6250-0.3750 (   359 PWs)   bands (ev):

    -3.4532  -0.6545   3.7643   4.4756

          k =-0.3750 1.1250-0.3750 (   361 PWs)   bands (ev):

    -2.9569  -0.5717   2.1006   4.1587

          k =-0.3750-0.6250-0.3750 (   359 PWs)   bands (ev):

    -3.4532  -0.6545   3.7643   4.4756

          k =-0.3750-0.1250-0.3750 (   352 PWs)   bands (ev):

    -4.5927   1.4245   3.7445   5.2479

          k =-0.3750 0.1250-0.1250 (   349 PWs)   bands (ev):

    -5.0917   2.8024   4.7206   4.7863

          k =-0.3750 0.6250-0.1250 (   357 PWs)   bands (ev):

    -3.6443   0.2155   2.7545   4.1213

          k =-0.1250 0.3750-0.1250 (   349 PWs)   bands (ev):

    -5.0917   2.8024   4.7206   4.7863

          k =-0.1250 0.8750-0.1250 (   358 PWs)   bands (ev):

    -2.5866  -0.7787   2.6505   3.3774

          k =-0.1250-0.3750-0.1250 (   349 PWs)   bands (ev):

    -5.0917   2.8024   4.7206   4.7863

          k =-0.1250 0.1250-0.1250 (   338 PWs)   bands (ev):

    -5.6194   4.4219   5.7306   5.7306

          k =-0.1250-0.6250 0.1250 (   349 PWs)   bands (ev):

    -4.0595   1.0892   3.3955   3.8451

          k =-0.1250-0.1250 0.1250 (   338 PWs)   bands (ev):

    -5.6194   4.4219   5.7306   5.7306

          k = 0.6250-0.1250-0.1250 (   349 PWs)   bands (ev):

    -4.0595   1.0892   3.3955   3.8451

          k = 0.6250 0.3750-0.1250 (   357 PWs)   bands (ev):

    -3.6443   0.2155   2.7545   4.1213

          k = 0.6250 0.1250 0.1250 (   349 PWs)   bands (ev):

    -4.0595   1.0892   3.3955   3.8451

          k = 0.6250 0.6250 0.1250 (   361 PWs)   bands (ev):

    -2.9569  -0.5717   2.1006   4.1587

          k =-0.8750 0.1250-0.6250 (   359 PWs)   bands (ev):

    -2.4189  -0.8762   2.0424   3.1172

          k =-0.8750 0.6250-0.6250 (   352 PWs)   bands (ev):

    -4.5927   1.4245   3.7445   5.2479

          k =-0.1250 0.6250-0.8750 (   359 PWs)   bands (ev):

    -2.4189  -0.8762   2.0424   3.1172

          k =-0.1250 1.1250-0.8750 (   358 PWs)   bands (ev):

    -2.5866  -0.7787   2.6505   3.3774

          k =-0.1250 0.8750-0.6250 (   359 PWs)   bands (ev):

    -2.4189  -0.8762   2.0424   3.1172

          k =-0.1250 1.3750-0.6250 (   361 PWs)   bands (ev):

    -2.9569  -0.5717   2.1006   4.1587

          k =-0.1250-0.8750-0.6250 (   359 PWs)   bands (ev):

    -2.4189  -0.8762   2.0424   3.1172

          k =-0.1250-0.3750-0.6250 (   357 PWs)   bands (ev):

    -3.6443   0.2155   2.7545   4.1213

          k = 0.8750-0.6250 0.1250 (   359 PWs)   bands (ev):

    -2.4189  -0.8762   2.0424   3.1172

          k = 0.8750-0.1250 0.1250 (   358 PWs)   bands (ev):

    -2.5866  -0.7787   2.6505   3.3774

          k =-0.6250-0.1250-0.3750 (   357 PWs)   bands (ev):

    -3.6443   0.2155   2.7545   4.1213

          k =-0.6250 0.3750-0.3750 (   359 PWs)   bands (ev):

    -3.4532  -0.6545   3.7643   4.4756

          k = 0.1250 0.3750-0.6250 (   357 PWs)   bands (ev):

    -3.6443   0.2155   2.7545   4.1213

          k = 0.1250 0.8750-0.6250 (   359 PWs)   bands (ev):

    -2.4189  -0.8762   2.0424   3.1172

          k = 0.1250 0.6250-0.3750 (   357 PWs)   bands (ev):

    -3.6443   0.2155   2.7545   4.1213

          k = 0.1250 1.1250-0.3750 (   359 PWs)   bands (ev):

    -2.4189  -0.8762   2.0424   3.1172

          k = 0.1250-0.6250-0.3750 (   357 PWs)   bands (ev):

    -3.6443   0.2155   2.7545   4.1213

          k = 0.1250-0.1250-0.3750 (   349 PWs)   bands (ev):

    -5.0917   2.8024   4.7206   4.7863

          k = 0.6250-0.3750-0.1250 (   357 PWs)   bands (ev):

    -3.6443   0.2155   2.7545   4.1213

          k = 0.6250 0.1250-0.1250 (   349 PWs)   bands (ev):

    -4.0595   1.0892   3.3955   3.8451

          k =-0.1250 0.8750 0.1250 (   358 PWs)   bands (ev):

    -2.5866  -0.7787   2.6505   3.3774

          k =-0.1250 1.3750 0.1250 (   349 PWs)   bands (ev):

    -4.0595   1.0892   3.3955   3.8451

          k =-0.8750-0.1250-0.1250 (   358 PWs)   bands (ev):

    -2.5866  -0.7787   2.6505   3.3774

          k =-0.8750 0.3750-0.1250 (   359 PWs)   bands (ev):

    -2.4189  -0.8762   2.0424   3.1172

          k =-0.8750 0.1250 0.1250 (   358 PWs)   bands (ev):

    -2.5866  -0.7787   2.6505   3.3774

          k =-0.8750 0.6250 0.1250 (   359 PWs)   bands (ev):

    -2.4189  -0.8762   2.0424   3.1172

          k =-0.3750-0.3750 0.3750 (   353 PWs)   bands (ev):

    -4.1602   0.1345   4.9408   4.9408

          k =-0.3750 0.1250 0.3750 (   352 PWs)   bands (ev):

    -4.5927   1.4245   3.7445   5.2479

          k =-1.1250 0.3750-0.3750 (   361 PWs)   bands (ev):

    -2.9569  -0.5717   2.1006   4.1587

          k =-1.1250 0.8750-0.3750 (   349 PWs)   bands (ev):

    -4.0595   1.0892   3.3955   3.8451

          k =-0.3750 1.1250-0.3750 (   361 PWs)   bands (ev):

    -2.9569  -0.5717   2.1006   4.1587

          k =-0.3750 1.6250-0.3750 (   353 PWs)   bands (ev):

    -4.1602   0.1345   4.9408   4.9408

          k =-0.3750-1.1250-0.3750 (   361 PWs)   bands (ev):

    -2.9569  -0.5717   2.1006   4.1587

          k =-0.3750-0.6250-0.3750 (   359 PWs)   bands (ev):

    -3.4532  -0.6545   3.7643   4.4756

     highest occupied level (ev):     5.7306

     Writing output data file silicon.10.323.save

                                                                                

     bravais-lattice index     =            2
     lattice parameter (alat)  =      10.3230  a.u.
     unit-cell volume          =     275.0159 (a.u.)^3
     number of atoms/cell      =            2
     number of atomic types    =            1
     kinetic-energy cut-off    =      18.0000  Ry
     charge density cut-off    =      72.0000  Ry
     convergence threshold     =      1.0E-12
     beta                      =       0.7000
     number of iterations used =            4
     Exchange-correlation      = SLA  PW   PBE  PBE ( 1  4  3  4 0 0)


     celldm(1)=   10.32300  celldm(2)=    0.00000  celldm(3)=    0.00000
     celldm(4)=    0.00000  celldm(5)=    0.00000  celldm(6)=    0.00000

     crystal axes: (cart. coord. in units of alat)
               a(1) = ( -0.5000  0.0000  0.5000 )  
               a(2) = (  0.0000  0.5000  0.5000 )  
               a(3) = ( -0.5000  0.5000  0.0000 )  

     reciprocal axes: (cart. coord. in units 2 pi/alat)
               b(1) = ( -1.0000 -1.0000  1.0000 )  
               b(2) = (  1.0000  1.0000  1.0000 )  
               b(3) = ( -1.0000  1.0000 -1.0000 )  


     Atoms inside the unit cell: 

     Cartesian axes

     site n.  atom      mass           positions (alat units)
        1     Si  28.0860   tau(    1) = (    0.00000    0.00000    0.00000  )
        2     Si  28.0860   tau(    2) = (    0.25000    0.25000    0.25000  )

     Computing dynamical matrix for 
                    q = (   0.0000000   0.5000000   0.0000000 )

      8 Sym.Ops. (no q -> -q+G )


     G cutoff =  194.3500  (    685 G-vectors)     FFT grid: ( 20, 20, 20)
     number of k points=    80

     PseudoPot. # 1 for Si read from file:
     /home/max/quantum_espresso/qe-6.1/pseudo/si_pbe_v1.uspp.F.UPF.txt
     MD5 check sum: a056efeee980c13900f22a371efd63c1
     Pseudo is Ultrasoft + core correction, Zval =  4.0
     Generated by new atomic code, or converted to UPF format
     Using radial grid of  899 points,  6 beta functions with: 
                l(1) =   0
                l(2) =   0
                l(3) =   1
                l(4) =   1
                l(5) =   2
                l(6) =   2
     Q(r) pseudized with  8 coefficients,  rinner =    0.900   0.900   0.900
                                                       0.900   0.900

     Mode symmetry, C_4v (4mm)  point group:


     Atomic displacements:
     There are   4 irreducible representations

     Representation     1      1 modes -A_1  G_1 D_1  To be done

     Representation     2      1 modes -B_2  G_4 D_2'  To be done

     Representation     3      2 modes -E    G_5 D_5  To be done

     Representation     4      2 modes -E    G_5 D_5  To be done



     Alpha used in Ewald sum =   0.7000
     PHONON       :    23.89s CPU        25.95s WALL



     Representation #  1 mode #   1

     Self-consistent Calculation

      iter #   1 total cpu time :    26.1 secs   av.it.:   5.8
      thresh= 1.000E-02 alpha_mix =  0.700 |ddv_scf|^2 =  2.979E-03

      iter #   2 total cpu time :    26.3 secs   av.it.:   7.7
      thresh= 5.458E-03 alpha_mix =  0.700 |ddv_scf|^2 =  3.914E-02

      iter #   3 total cpu time :    26.5 secs   av.it.:   6.7
      thresh= 1.000E-02 alpha_mix =  0.700 |ddv_scf|^2 =  1.378E-07

      iter #   4 total cpu time :    26.7 secs   av.it.:   8.2
      thresh= 3.712E-05 alpha_mix =  0.700 |ddv_scf|^2 =  1.236E-08

      iter #   5 total cpu time :    27.0 secs   av.it.:   7.8
      thresh= 1.112E-05 alpha_mix =  0.700 |ddv_scf|^2 =  7.459E-10

      iter #   6 total cpu time :    27.2 secs   av.it.:   7.8
      thresh= 2.731E-06 alpha_mix =  0.700 |ddv_scf|^2 =  2.733E-12

      iter #   7 total cpu time :    27.4 secs   av.it.:   7.9
      thresh= 1.653E-07 alpha_mix =  0.700 |ddv_scf|^2 =  5.392E-13

     End of self-consistent calculation

     Convergence has been achieved 


     Representation #  2 mode #   2

     Self-consistent Calculation

      iter #   1 total cpu time :    27.6 secs   av.it.:   4.9
      thresh= 1.000E-02 alpha_mix =  0.700 |ddv_scf|^2 =  5.507E-06

      iter #   2 total cpu time :    27.9 secs   av.it.:   8.7
      thresh= 2.347E-04 alpha_mix =  0.700 |ddv_scf|^2 =  1.328E-06

      iter #   3 total cpu time :    28.2 secs   av.it.:   8.5
      thresh= 1.153E-04 alpha_mix =  0.700 |ddv_scf|^2 =  4.220E-08

      iter #   4 total cpu time :    28.4 secs   av.it.:   8.2
      thresh= 2.054E-05 alpha_mix =  0.700 |ddv_scf|^2 =  6.840E-10

      iter #   5 total cpu time :    28.6 secs   av.it.:   8.5
      thresh= 2.615E-06 alpha_mix =  0.700 |ddv_scf|^2 =  6.830E-12

      iter #   6 total cpu time :    28.8 secs   av.it.:   7.9
      thresh= 2.614E-07 alpha_mix =  0.700 |ddv_scf|^2 =  6.946E-14

     End of self-consistent calculation

     Convergence has been achieved 


     Representation #  3 modes #   3  4

     Self-consistent Calculation

      iter #   1 total cpu time :    29.2 secs   av.it.:   5.0
      thresh= 1.000E-02 alpha_mix =  0.700 |ddv_scf|^2 =  1.024E-06

      iter #   2 total cpu time :    29.8 secs   av.it.:   9.7
      thresh= 1.012E-04 alpha_mix =  0.700 |ddv_scf|^2 =  1.268E-07

      iter #   3 total cpu time :    30.3 secs   av.it.:   9.5
      thresh= 3.561E-05 alpha_mix =  0.700 |ddv_scf|^2 =  6.642E-09

      iter #   4 total cpu time :    30.7 secs   av.it.:   8.8
      thresh= 8.150E-06 alpha_mix =  0.700 |ddv_scf|^2 =  9.331E-12

      iter #   5 total cpu time :    31.2 secs   av.it.:   9.1
      thresh= 3.055E-07 alpha_mix =  0.700 |ddv_scf|^2 =  2.842E-13

     End of self-consistent calculation

     Convergence has been achieved 


     Representation #  4 modes #   5  6

     Self-consistent Calculation

      iter #   1 total cpu time :    31.5 secs   av.it.:   5.0
      thresh= 1.000E-02 alpha_mix =  0.700 |ddv_scf|^2 =  9.079E-07

      iter #   2 total cpu time :    32.1 secs   av.it.:   9.8
      thresh= 9.528E-05 alpha_mix =  0.700 |ddv_scf|^2 =  1.149E-07

      iter #   3 total cpu time :    32.6 secs   av.it.:   9.4
      thresh= 3.390E-05 alpha_mix =  0.700 |ddv_scf|^2 =  6.113E-09

      iter #   4 total cpu time :    33.0 secs   av.it.:   8.9
      thresh= 7.818E-06 alpha_mix =  0.700 |ddv_scf|^2 =  1.399E-11

      iter #   5 total cpu time :    33.5 secs   av.it.:   9.2
      thresh= 3.741E-07 alpha_mix =  0.700 |ddv_scf|^2 =  4.306E-14

     End of self-consistent calculation

     Convergence has been achieved 

     Number of q in the star =    6
     List of q in the star:
          1   0.000000000   0.500000000   0.000000000
          2   0.000000000  -0.500000000   0.000000000
          3   0.500000000   0.000000000   0.000000000
          4   0.000000000   0.000000000   0.500000000
          5   0.000000000   0.000000000  -0.500000000
          6  -0.500000000   0.000000000   0.000000000

     Diagonalizing the dynamical matrix

     q = (    0.000000000   0.500000000   0.000000000 ) 

 **************************************************************************
     freq (    1) =       4.210281 [THz] =     140.439846 [cm-1]
     freq (    2) =       4.210281 [THz] =     140.439846 [cm-1]
     freq (    3) =       7.204899 [THz] =     240.329552 [cm-1]
     freq (    4) =      13.762935 [THz] =     459.082094 [cm-1]
     freq (    5) =      13.762935 [THz] =     459.082094 [cm-1]
     freq (    6) =      14.364965 [THz] =     479.163653 [cm-1]
 **************************************************************************

     Mode symmetry, C_4v (4mm)  point group:

     freq (  1 -  2) =        140.4  [cm-1]   --> E    G_5 D_5       
     freq (  3 -  3) =        240.3  [cm-1]   --> A_1  G_1 D_1       
     freq (  4 -  5) =        459.1  [cm-1]   --> E    G_5 D_5       
     freq (  6 -  6) =        479.2  [cm-1]   --> B_2  G_4 D_2'      

     Calculation of q =    0.7500000  -0.2500000   0.7500000

   Info: using nr1, nr2, nr3 values from input

   Info: using nr1, nr2, nr3 values from input

     Parallelization info
     --------------------
     sticks:   dense  smooth     PW     G-vecs:    dense   smooth      PW
     Min          63      63     30                  684      684     216
     Max          64      64     31                  688      688     218
     Sum         253     253    121                 2741     2741     869



     bravais-lattice index     =            2
     lattice parameter (alat)  =      10.3230  a.u.
     unit-cell volume          =     275.0159 (a.u.)^3
     number of atoms/cell      =            2
     number of atomic types    =            1
     number of electrons       =         8.00
     number of Kohn-Sham states=            4
     kinetic-energy cutoff     =      18.0000  Ry
     charge density cutoff     =      72.0000  Ry
     Exchange-correlation      = SLA  PW   PBE  PBE ( 1  4  3  4 0 0)

     celldm(1)=  10.323000  celldm(2)=   0.000000  celldm(3)=   0.000000
     celldm(4)=   0.000000  celldm(5)=   0.000000  celldm(6)=   0.000000

     crystal axes: (cart. coord. in units of alat)
               a(1) = (  -0.500000   0.000000   0.500000 )  
               a(2) = (   0.000000   0.500000   0.500000 )  
               a(3) = (  -0.500000   0.500000   0.000000 )  

     reciprocal axes: (cart. coord. in units 2 pi/alat)
               b(1) = ( -1.000000 -1.000000  1.000000 )  
               b(2) = (  1.000000  1.000000  1.000000 )  
               b(3) = ( -1.000000  1.000000 -1.000000 )  


     PseudoPot. # 1 for Si read from file:
     /home/max/quantum_espresso/qe-6.1/pseudo/si_pbe_v1.uspp.F.UPF.txt
     MD5 check sum: a056efeee980c13900f22a371efd63c1
     Pseudo is Ultrasoft + core correction, Zval =  4.0
     Generated by new atomic code, or converted to UPF format
     Using radial grid of  899 points,  6 beta functions with: 
                l(1) =   0
                l(2) =   0
                l(3) =   1
                l(4) =   1
                l(5) =   2
                l(6) =   2
     Q(r) pseudized with  8 coefficients,  rinner =    0.900   0.900   0.900
                                                       0.900   0.900

     atomic species   valence    mass     pseudopotential
        Si             4.00    28.08600     Si( 1.00)

     48 Sym. Ops., with inversion, found



   Cartesian axes

     site n.     atom                  positions (alat units)
         1           Si  tau(   1) = (   0.0000000   0.0000000   0.0000000  )
         2           Si  tau(   2) = (   0.2500000   0.2500000   0.2500000  )

     number of k points=   288

     Number of k-points >= 100: set verbosity='high' to print them.

     Dense  grid:     2741 G-vectors     FFT dimensions: (  20,  20,  20)

     Estimated max dynamical RAM per process >       0.33MB

     Estimated total allocated dynamical RAM >       1.30MB

     Check: negative/imaginary core charge=   -0.000005    0.000000

     The potential is recalculated from file :
     ./_ph0/silicon.10.323.save/charge-density.dat

     Starting wfc are    8 atomic wfcs

     Band Structure Calculation
     Davidson diagonalization with overlap

     ethr =  1.25E-10,  avg # of iterations = 11.6

     total cpu time spent up to now is        4.6 secs

     End of band structure calculation

     Number of k-points >= 100: set verbosity='high' to print the bands.

     highest occupied level (ev):     5.7306

     Writing output data file silicon.10.323.save

                                                                                

     bravais-lattice index     =            2
     lattice parameter (alat)  =      10.3230  a.u.
     unit-cell volume          =     275.0159 (a.u.)^3
     number of atoms/cell      =            2
     number of atomic types    =            1
     kinetic-energy cut-off    =      18.0000  Ry
     charge density cut-off    =      72.0000  Ry
     convergence threshold     =      1.0E-12
     beta                      =       0.7000
     number of iterations used =            4
     Exchange-correlation      = SLA  PW   PBE  PBE ( 1  4  3  4 0 0)


     celldm(1)=   10.32300  celldm(2)=    0.00000  celldm(3)=    0.00000
     celldm(4)=    0.00000  celldm(5)=    0.00000  celldm(6)=    0.00000

     crystal axes: (cart. coord. in units of alat)
               a(1) = ( -0.5000  0.0000  0.5000 )  
               a(2) = (  0.0000  0.5000  0.5000 )  
               a(3) = ( -0.5000  0.5000  0.0000 )  

     reciprocal axes: (cart. coord. in units 2 pi/alat)
               b(1) = ( -1.0000 -1.0000  1.0000 )  
               b(2) = (  1.0000  1.0000  1.0000 )  
               b(3) = ( -1.0000  1.0000 -1.0000 )  


     Atoms inside the unit cell: 

     Cartesian axes

     site n.  atom      mass           positions (alat units)
        1     Si  28.0860   tau(    1) = (    0.00000    0.00000    0.00000  )
        2     Si  28.0860   tau(    2) = (    0.25000    0.25000    0.25000  )

     Computing dynamical matrix for 
                    q = (   0.7500000  -0.2500000   0.7500000 )

      2 Sym.Ops. (no q -> -q+G )


     G cutoff =  194.3500  (    685 G-vectors)     FFT grid: ( 20, 20, 20)
     number of k points=   288

     PseudoPot. # 1 for Si read from file:
     /home/max/quantum_espresso/qe-6.1/pseudo/si_pbe_v1.uspp.F.UPF.txt
     MD5 check sum: a056efeee980c13900f22a371efd63c1
     Pseudo is Ultrasoft + core correction, Zval =  4.0
     Generated by new atomic code, or converted to UPF format
     Using radial grid of  899 points,  6 beta functions with: 
                l(1) =   0
                l(2) =   0
                l(3) =   1
                l(4) =   1
                l(5) =   2
                l(6) =   2
     Q(r) pseudized with  8 coefficients,  rinner =    0.900   0.900   0.900
                                                       0.900   0.900

     Mode symmetry, C_s (m)     point group:


     Atomic displacements:
     There are   6 irreducible representations

     Representation     1      1 modes -A'  To be done

     Representation     2      1 modes -A'  To be done

     Representation     3      1 modes -A'  To be done

     Representation     4      1 modes -A'  To be done

     Representation     5      1 modes -A''  To be done

     Representation     6      1 modes -A''  To be done



     Alpha used in Ewald sum =   0.7000
     PHONON       :    33.96s CPU        36.71s WALL



     Representation #  1 mode #   1

     Self-consistent Calculation

      iter #   1 total cpu time :    37.3 secs   av.it.:   5.3
      thresh= 1.000E-02 alpha_mix =  0.700 |ddv_scf|^2 =  6.132E-05

      iter #   2 total cpu time :    38.3 secs   av.it.:   8.9
      thresh= 7.831E-04 alpha_mix =  0.700 |ddv_scf|^2 =  1.602E-04

      iter #   3 total cpu time :    39.0 secs   av.it.:   7.6
      thresh= 1.266E-03 alpha_mix =  0.700 |ddv_scf|^2 =  1.141E-06

      iter #   4 total cpu time :    39.9 secs   av.it.:   8.4
      thresh= 1.068E-04 alpha_mix =  0.700 |ddv_scf|^2 =  5.581E-08

      iter #   5 total cpu time :    40.6 secs   av.it.:   8.3
      thresh= 2.363E-05 alpha_mix =  0.700 |ddv_scf|^2 =  7.231E-09

      iter #   6 total cpu time :    41.4 secs   av.it.:   8.5
      thresh= 8.503E-06 alpha_mix =  0.700 |ddv_scf|^2 =  7.859E-11

      iter #   7 total cpu time :    42.3 secs   av.it.:   8.8
      thresh= 8.865E-07 alpha_mix =  0.700 |ddv_scf|^2 =  2.839E-12

      iter #   8 total cpu time :    43.1 secs   av.it.:   8.6
      thresh= 1.685E-07 alpha_mix =  0.700 |ddv_scf|^2 =  1.921E-13

     End of self-consistent calculation

     Convergence has been achieved 


     Representation #  2 mode #   2

     Self-consistent Calculation

      iter #   1 total cpu time :    43.9 secs   av.it.:   5.4
      thresh= 1.000E-02 alpha_mix =  0.700 |ddv_scf|^2 =  1.092E-04

      iter #   2 total cpu time :    44.7 secs   av.it.:   8.7
      thresh= 1.045E-03 alpha_mix =  0.700 |ddv_scf|^2 =  3.111E-04

      iter #   3 total cpu time :    45.4 secs   av.it.:   7.4
      thresh= 1.764E-03 alpha_mix =  0.700 |ddv_scf|^2 =  7.801E-07

      iter #   4 total cpu time :    46.3 secs   av.it.:   8.5
      thresh= 8.832E-05 alpha_mix =  0.700 |ddv_scf|^2 =  5.544E-08

      iter #   5 total cpu time :    47.0 secs   av.it.:   8.2
      thresh= 2.355E-05 alpha_mix =  0.700 |ddv_scf|^2 =  1.016E-08

      iter #   6 total cpu time :    47.9 secs   av.it.:   8.5
      thresh= 1.008E-05 alpha_mix =  0.700 |ddv_scf|^2 =  7.826E-11

      iter #   7 total cpu time :    48.7 secs   av.it.:   8.8
      thresh= 8.846E-07 alpha_mix =  0.700 |ddv_scf|^2 =  2.491E-12

      iter #   8 total cpu time :    49.4 secs   av.it.:   8.7
      thresh= 1.578E-07 alpha_mix =  0.700 |ddv_scf|^2 =  6.044E-13

     End of self-consistent calculation

     Convergence has been achieved 


     Representation #  3 mode #   3

     Self-consistent Calculation

      iter #   1 total cpu time :    50.3 secs   av.it.:   5.3
      thresh= 1.000E-02 alpha_mix =  0.700 |ddv_scf|^2 =  8.566E-05

      iter #   2 total cpu time :    51.0 secs   av.it.:   8.8
      thresh= 9.255E-04 alpha_mix =  0.700 |ddv_scf|^2 =  2.284E-04

      iter #   3 total cpu time :    51.9 secs   av.it.:   7.4
      thresh= 1.511E-03 alpha_mix =  0.700 |ddv_scf|^2 =  1.333E-06

      iter #   4 total cpu time :    52.6 secs   av.it.:   8.2
      thresh= 1.155E-04 alpha_mix =  0.700 |ddv_scf|^2 =  5.651E-08

      iter #   5 total cpu time :    53.4 secs   av.it.:   8.4
      thresh= 2.377E-05 alpha_mix =  0.700 |ddv_scf|^2 =  1.040E-08

      iter #   6 total cpu time :    54.3 secs   av.it.:   8.4
      thresh= 1.020E-05 alpha_mix =  0.700 |ddv_scf|^2 =  4.605E-11

      iter #   7 total cpu time :    55.0 secs   av.it.:   8.7
      thresh= 6.786E-07 alpha_mix =  0.700 |ddv_scf|^2 =  1.580E-12

      iter #   8 total cpu time :    56.0 secs   av.it.:   8.8
      thresh= 1.257E-07 alpha_mix =  0.700 |ddv_scf|^2 =  2.440E-13

     End of self-consistent calculation

     Convergence has been achieved 


     Representation #  4 mode #   4

     Self-consistent Calculation

      iter #   1 total cpu time :    56.6 secs   av.it.:   5.2
      thresh= 1.000E-02 alpha_mix =  0.700 |ddv_scf|^2 =  3.778E-05

      iter #   2 total cpu time :    57.4 secs   av.it.:   8.9
[...]
        k(   59) = (  -0.8750000   0.1250000  -0.1250000), wk =   0.0625000
        k(   60) = (  -1.3750000  -0.8750000  -0.1250000), wk =   0.0000000
        k(   61) = (  -1.1250000   0.3750000  -0.3750000), wk =   0.0625000
        k(   62) = (  -1.6250000  -0.6250000  -0.3750000), wk =   0.0000000
        k(   63) = (  -0.3750000   0.3750000   1.1250000), wk =   0.0625000
        k(   64) = (  -0.8750000  -0.6250000   1.1250000), wk =   0.0000000

     Dense  grid:     2741 G-vectors     FFT dimensions: (  20,  20,  20)

     Estimated max dynamical RAM per process >       0.33MB

     Estimated total allocated dynamical RAM >       1.30MB

     Check: negative/imaginary core charge=   -0.000005    0.000000

     The potential is recalculated from file :
     ./_ph0/silicon.10.323.save/charge-density.dat

     Starting wfc are    8 atomic wfcs

     Band Structure Calculation
     Davidson diagonalization with overlap

     ethr =  1.25E-10,  avg # of iterations = 11.6

     total cpu time spent up to now is        7.1 secs

     End of band structure calculation

          k =-0.1250 0.1250 0.1250 (   338 PWs)   bands (ev):

    -5.6194   4.4219   5.7306   5.7306

          k =-0.6250-0.8750 0.1250 (   359 PWs)   bands (ev):

    -2.4189  -0.8762   2.0424   3.1172

          k =-0.3750 0.3750-0.1250 (   352 PWs)   bands (ev):

    -4.5927   1.4245   3.7445   5.2479

          k =-0.8750-0.6250-0.1250 (   359 PWs)   bands (ev):

    -2.4189  -0.8762   2.0424   3.1172

          k = 0.3750-0.3750 0.6250 (   359 PWs)   bands (ev):

    -3.4532  -0.6545   3.7643   4.4756

          k =-0.1250-1.3750 0.6250 (   361 PWs)   bands (ev):

    -2.9569  -0.5717   2.1006   4.1587

          k = 0.1250-0.1250 0.3750 (   349 PWs)   bands (ev):

    -5.0917   2.8024   4.7206   4.7863

          k =-0.3750-1.1250 0.3750 (   361 PWs)   bands (ev):

    -2.9569  -0.5717   2.1006   4.1587

          k =-0.1250 0.6250 0.1250 (   349 PWs)   bands (ev):

    -4.0595   1.0892   3.3955   3.8451

          k =-0.6250-0.3750 0.1250 (   357 PWs)   bands (ev):

    -3.6443   0.2155   2.7545   4.1213

          k = 0.6250-0.1250 0.8750 (   359 PWs)   bands (ev):

    -2.4189  -0.8762   2.0424   3.1172

          k = 0.1250-1.1250 0.8750 (   358 PWs)   bands (ev):

    -2.5866  -0.7787   2.6505   3.3774

          k = 0.3750 0.1250 0.6250 (   357 PWs)   bands (ev):

    -3.6443   0.2155   2.7545   4.1213

          k =-0.1250-0.8750 0.6250 (   359 PWs)   bands (ev):

    -2.4189  -0.8762   2.0424   3.1172

          k =-0.1250-0.8750 0.1250 (   358 PWs)   bands (ev):

    -2.5866  -0.7787   2.6505   3.3774

          k =-0.6250-1.8750 0.1250 (   349 PWs)   bands (ev):

    -4.0595   1.0892   3.3955   3.8451

          k =-0.3750 0.3750 0.3750 (   353 PWs)   bands (ev):

    -4.1602   0.1345   4.9408   4.9408

          k =-0.8750-0.6250 0.3750 (   357 PWs)   bands (ev):

    -3.6443   0.2155   2.7545   4.1213

          k = 0.3750-0.3750 1.1250 (   361 PWs)   bands (ev):

    -2.9569  -0.5717   2.1006   4.1587

          k =-0.1250-1.3750 1.1250 (   359 PWs)   bands (ev):

    -2.4189  -0.8762   2.0424   3.1172

          k = 0.1250-0.3750 0.3750 (   352 PWs)   bands (ev):

    -4.5927   1.4245   3.7445   5.2479

          k =-0.3750-1.3750 0.3750 (   359 PWs)   bands (ev):

    -3.4532  -0.6545   3.7643   4.4756

          k = 0.3750-0.3750-0.1250 (   352 PWs)   bands (ev):

    -4.5927   1.4245   3.7445   5.2479

          k =-0.1250-1.3750-0.1250 (   349 PWs)   bands (ev):

    -4.0595   1.0892   3.3955   3.8451

          k =-0.6250 0.3750-0.3750 (   359 PWs)   bands (ev):

    -3.4532  -0.6545   3.7643   4.4756

          k =-1.1250-0.6250-0.3750 (   357 PWs)   bands (ev):

    -3.6443   0.2155   2.7545   4.1213

          k =-0.3750 0.3750 0.6250 (   359 PWs)   bands (ev):

    -3.4532  -0.6545   3.7643   4.4756

          k =-0.8750-0.6250 0.6250 (   352 PWs)   bands (ev):

    -4.5927   1.4245   3.7445   5.2479

          k =-0.3750 0.1250-0.1250 (   349 PWs)   bands (ev):

    -5.0917   2.8024   4.7206   4.7863

          k =-0.8750-0.8750-0.1250 (   358 PWs)   bands (ev):

    -2.5866  -0.7787   2.6505   3.3774

          k =-0.1250 0.1250 0.3750 (   349 PWs)   bands (ev):

    -5.0917   2.8024   4.7206   4.7863

          k =-0.6250-0.8750 0.3750 (   357 PWs)   bands (ev):

    -3.6443   0.2155   2.7545   4.1213

          k = 0.1250 0.6250-0.1250 (   349 PWs)   bands (ev):

    -4.0595   1.0892   3.3955   3.8451

          k =-0.3750-0.3750-0.1250 (   352 PWs)   bands (ev):

    -4.5927   1.4245   3.7445   5.2479

          k = 0.6250 0.1250-0.1250 (   349 PWs)   bands (ev):

    -4.0595   1.0892   3.3955   3.8451

          k = 0.1250-0.8750-0.1250 (   358 PWs)   bands (ev):

    -2.5866  -0.7787   2.6505   3.3774

          k =-0.8750 0.1250-0.6250 (   359 PWs)   bands (ev):

    -2.4189  -0.8762   2.0424   3.1172

          k =-1.3750-0.8750-0.6250 (   352 PWs)   bands (ev):

    -4.5927   1.4245   3.7445   5.2479

          k = 0.8750-0.1250 0.6250 (   359 PWs)   bands (ev):

    -2.4189  -0.8762   2.0424   3.1172

          k = 0.3750-1.1250 0.6250 (   357 PWs)   bands (ev):

    -3.6443   0.2155   2.7545   4.1213

          k =-0.6250 0.1250 0.8750 (   359 PWs)   bands (ev):

    -2.4189  -0.8762   2.0424   3.1172

          k =-1.1250-0.8750 0.8750 (   338 PWs)   bands (ev):

    -5.6194   4.4219   5.7306   5.7306

          k =-0.1250 0.8750 0.6250 (   359 PWs)   bands (ev):

    -2.4189  -0.8762   2.0424   3.1172

          k =-0.6250-0.1250 0.6250 (   361 PWs)   bands (ev):

    -2.9569  -0.5717   2.1006   4.1587

          k = 0.1250 0.8750-0.6250 (   359 PWs)   bands (ev):

    -2.4189  -0.8762   2.0424   3.1172

          k =-0.3750-0.1250-0.6250 (   357 PWs)   bands (ev):

    -3.6443   0.2155   2.7545   4.1213

          k =-0.6250-0.1250-0.3750 (   357 PWs)   bands (ev):

    -3.6443   0.2155   2.7545   4.1213

          k =-1.1250-1.1250-0.3750 (   349 PWs)   bands (ev):

    -4.0595   1.0892   3.3955   3.8451

          k = 0.6250 0.1250 0.3750 (   357 PWs)   bands (ev):

    -3.6443   0.2155   2.7545   4.1213

          k = 0.1250-0.8750 0.3750 (   359 PWs)   bands (ev):

    -2.4189  -0.8762   2.0424   3.1172

          k =-0.3750-0.1250 0.6250 (   357 PWs)   bands (ev):

    -3.6443   0.2155   2.7545   4.1213

          k =-0.8750-1.1250 0.6250 (   349 PWs)   bands (ev):

    -5.0917   2.8024   4.7206   4.7863

          k = 0.1250 0.6250 0.3750 (   357 PWs)   bands (ev):

    -3.6443   0.2155   2.7545   4.1213

          k =-0.3750-0.3750 0.3750 (   353 PWs)   bands (ev):

    -4.1602   0.1345   4.9408   4.9408

          k =-0.1250 0.6250-0.3750 (   357 PWs)   bands (ev):

    -3.6443   0.2155   2.7545   4.1213

          k =-0.6250-0.3750-0.3750 (   359 PWs)   bands (ev):

    -3.4532  -0.6545   3.7643   4.4756

          k = 0.1250-0.8750-0.1250 (   358 PWs)   bands (ev):

    -2.5866  -0.7787   2.6505   3.3774

          k =-0.3750-1.8750-0.1250 (   349 PWs)   bands (ev):

    -5.0917   2.8024   4.7206   4.7863

          k =-0.8750 0.1250-0.1250 (   358 PWs)   bands (ev):

    -2.5866  -0.7787   2.6505   3.3774

          k =-1.3750-0.8750-0.1250 (   359 PWs)   bands (ev):

    -2.4189  -0.8762   2.0424   3.1172

          k =-1.1250 0.3750-0.3750 (   361 PWs)   bands (ev):

    -2.9569  -0.5717   2.1006   4.1587

          k =-1.6250-0.6250-0.3750 (   359 PWs)   bands (ev):

    -3.4532  -0.6545   3.7643   4.4756

          k =-0.3750 0.3750 1.1250 (   361 PWs)   bands (ev):

    -2.9569  -0.5717   2.1006   4.1587

          k =-0.8750-0.6250 1.1250 (   349 PWs)   bands (ev):

    -5.0917   2.8024   4.7206   4.7863

     highest occupied level (ev):     5.7306

     Writing output data file silicon.10.323.save

                                                                                

     bravais-lattice index     =            2
     lattice parameter (alat)  =      10.3230  a.u.
     unit-cell volume          =     275.0159 (a.u.)^3
     number of atoms/cell      =            2
     number of atomic types    =            1
     kinetic-energy cut-off    =      18.0000  Ry
     charge density cut-off    =      72.0000  Ry
     convergence threshold     =      1.0E-12
     beta                      =       0.7000
     number of iterations used =            4
     Exchange-correlation      = SLA  PW   PBE  PBE ( 1  4  3  4 0 0)


     celldm(1)=   10.32300  celldm(2)=    0.00000  celldm(3)=    0.00000
     celldm(4)=    0.00000  celldm(5)=    0.00000  celldm(6)=    0.00000

     crystal axes: (cart. coord. in units of alat)
               a(1) = ( -0.5000  0.0000  0.5000 )  
               a(2) = (  0.0000  0.5000  0.5000 )  
               a(3) = ( -0.5000  0.5000  0.0000 )  

     reciprocal axes: (cart. coord. in units 2 pi/alat)
               b(1) = ( -1.0000 -1.0000  1.0000 )  
               b(2) = (  1.0000  1.0000  1.0000 )  
               b(3) = ( -1.0000  1.0000 -1.0000 )  


     Atoms inside the unit cell: 

     Cartesian axes

     site n.  atom      mass           positions (alat units)
        1     Si  28.0860   tau(    1) = (    0.00000    0.00000    0.00000  )
        2     Si  28.0860   tau(    2) = (    0.25000    0.25000    0.25000  )

     Computing dynamical matrix for 
                    q = (  -0.5000000  -1.0000000   0.0000000 )

      8 Sym.Ops. (no q -> -q+G )


     G cutoff =  194.3500  (    685 G-vectors)     FFT grid: ( 20, 20, 20)
     number of k points=    64

     PseudoPot. # 1 for Si read from file:
     /home/max/quantum_espresso/qe-6.1/pseudo/si_pbe_v1.uspp.F.UPF.txt
     MD5 check sum: a056efeee980c13900f22a371efd63c1
     Pseudo is Ultrasoft + core correction, Zval =  4.0
     Generated by new atomic code, or converted to UPF format
     Using radial grid of  899 points,  6 beta functions with: 
                l(1) =   0
                l(2) =   0
                l(3) =   1
                l(4) =   1
                l(5) =   2
                l(6) =   2
     Q(r) pseudized with  8 coefficients,  rinner =    0.900   0.900   0.900
                                                       0.900   0.900


     Atomic displacements:
     There are   3 irreducible representations

     Representation     1      2 modes -  To be done

     Representation     2      2 modes -  To be done

     Representation     3      2 modes -  To be done



     Alpha used in Ewald sum =   0.7000
     PHONON       :  1m25.09s CPU     1m32.63s WALL



     Representation #  1 modes #   1  2

     Self-consistent Calculation

      iter #   1 total cpu time :    92.9 secs   av.it.:   5.3
      thresh= 1.000E-02 alpha_mix =  0.700 |ddv_scf|^2 =  6.351E-06

      iter #   2 total cpu time :    93.3 secs   av.it.:   9.9
      thresh= 2.520E-04 alpha_mix =  0.700 |ddv_scf|^2 =  3.443E-06

      iter #   3 total cpu time :    93.8 secs   av.it.:   9.2
      thresh= 1.855E-04 alpha_mix =  0.700 |ddv_scf|^2 =  8.392E-09

      iter #   4 total cpu time :    94.2 secs   av.it.:   9.1
      thresh= 9.161E-06 alpha_mix =  0.700 |ddv_scf|^2 =  1.911E-11

      iter #   5 total cpu time :    94.6 secs   av.it.:   9.2
      thresh= 4.372E-07 alpha_mix =  0.700 |ddv_scf|^2 =  5.286E-13

     End of self-consistent calculation

     Convergence has been achieved 


     Representation #  2 modes #   3  4

     Self-consistent Calculation

      iter #   1 total cpu time :    94.9 secs   av.it.:   5.2
      thresh= 1.000E-02 alpha_mix =  0.700 |ddv_scf|^2 =  9.832E-06

      iter #   2 total cpu time :    95.3 secs   av.it.:   9.9
      thresh= 3.136E-04 alpha_mix =  0.700 |ddv_scf|^2 =  1.304E-05

      iter #   3 total cpu time :    95.6 secs   av.it.:   9.1
      thresh= 3.611E-04 alpha_mix =  0.700 |ddv_scf|^2 =  9.857E-09

      iter #   4 total cpu time :    96.2 secs   av.it.:   8.9
      thresh= 9.928E-06 alpha_mix =  0.700 |ddv_scf|^2 =  7.945E-11

      iter #   5 total cpu time :    96.5 secs   av.it.:   9.4
      thresh= 8.913E-07 alpha_mix =  0.700 |ddv_scf|^2 =  1.716E-12

      iter #   6 total cpu time :    96.9 secs   av.it.:   9.1
      thresh= 1.310E-07 alpha_mix =  0.700 |ddv_scf|^2 =  1.435E-14

     End of self-consistent calculation

     Convergence has been achieved 


     Representation #  3 modes #   5  6

     Self-consistent Calculation

      iter #   1 total cpu time :    97.2 secs   av.it.:   5.1
      thresh= 1.000E-02 alpha_mix =  0.700 |ddv_scf|^2 =  2.657E-06

      iter #   2 total cpu time :    97.6 secs   av.it.:   9.7
      thresh= 1.630E-04 alpha_mix =  0.700 |ddv_scf|^2 =  1.452E-06

      iter #   3 total cpu time :    98.1 secs   av.it.:   9.1
      thresh= 1.205E-04 alpha_mix =  0.700 |ddv_scf|^2 =  8.267E-09

      iter #   4 total cpu time :    98.5 secs   av.it.:   8.8
      thresh= 9.092E-06 alpha_mix =  0.700 |ddv_scf|^2 =  4.261E-11

      iter #   5 total cpu time :    98.8 secs   av.it.:   9.1
      thresh= 6.528E-07 alpha_mix =  0.700 |ddv_scf|^2 =  6.994E-13

     End of self-consistent calculation

     Convergence has been achieved 

     Number of q in the star =    6
     List of q in the star:
          1  -0.500000000  -1.000000000   0.000000000
          2   0.000000000   1.000000000   0.500000000
          3   0.000000000  -1.000000000  -0.500000000
          4   0.500000000   1.000000000   0.000000000
          5  -1.000000000  -0.500000000   0.000000000
          6   0.000000000  -0.500000000  -1.000000000

     Diagonalizing the dynamical matrix

     q = (   -0.500000000  -1.000000000   0.000000000 ) 

 **************************************************************************
     freq (    1) =       6.978276 [THz] =     232.770234 [cm-1]
     freq (    2) =       6.978276 [THz] =     232.770234 [cm-1]
     freq (    3) =      10.809121 [THz] =     360.553476 [cm-1]
     freq (    4) =      10.809121 [THz] =     360.553476 [cm-1]
     freq (    5) =      13.837518 [THz] =     461.569920 [cm-1]
     freq (    6) =      13.837518 [THz] =     461.569920 [cm-1]
 **************************************************************************

     init_run     :      0.61s CPU      0.69s WALL (       7 calls)
     electrons    :      5.26s CPU      5.57s WALL (       7 calls)

     Called by init_run:
     wfcinit      :      0.00s CPU      0.00s WALL (       7 calls)
     potinit      :      0.02s CPU      0.03s WALL (       7 calls)

     Called by electrons:
     c_bands      :      5.25s CPU      5.56s WALL (       7 calls)
     v_of_rho     :      0.02s CPU      0.03s WALL (       8 calls)
     newd         :      0.03s CPU      0.05s WALL (       8 calls)

     Called by c_bands:
     init_us_2    :      0.68s CPU      0.74s WALL (   17588 calls)
     cegterg      :      4.42s CPU      4.67s WALL (     796 calls)

     Called by sum_band:

     Called by *egterg:
     h_psi        :     49.88s CPU     54.17s WALL (  152199 calls)
     s_psi        :      5.77s CPU      6.24s WALL (  309118 calls)
     g_psi        :      0.03s CPU      0.03s WALL (    9268 calls)
     cdiaghg      :      0.46s CPU      0.48s WALL (   10064 calls)

     Called by h_psi:
     h_psi:pot    :     49.69s CPU     53.97s WALL (  152199 calls)
     h_psi:calbec :      5.49s CPU      6.04s WALL (  152199 calls)
     vloc_psi     :     41.10s CPU     44.59s WALL (  152199 calls)
     add_vuspsi   :      2.89s CPU      3.11s WALL (  152199 calls)

     General routines
     calbec       :     12.05s CPU     13.24s WALL (  345490 calls)
     fft          :      0.73s CPU      0.76s WALL (    5239 calls)
     ffts         :      0.17s CPU      0.18s WALL (    2748 calls)
     fftw         :     48.09s CPU     52.20s WALL ( 1378018 calls)
     davcio       :      0.29s CPU      0.33s WALL (   79045 calls)

     Parallel routines
     fft_scatter  :     16.33s CPU     18.05s WALL ( 1386005 calls)

     PHONON       :  1m31.02s CPU     1m38.87s WALL

     INITIALIZATION: 
     phq_setup    :      0.07s CPU      0.09s WALL (       8 calls)
     phq_init     :      2.48s CPU      2.61s WALL (       8 calls)

     phq_init     :      2.48s CPU      2.61s WALL (       8 calls)
     set_drhoc    :      0.28s CPU      0.30s WALL (      24 calls)
     init_vloc    :      0.01s CPU      0.01s WALL (       8 calls)
     init_us_1    :      0.54s CPU      0.57s WALL (       8 calls)
     newd         :      0.03s CPU      0.05s WALL (       8 calls)
     dvanqq       :      0.27s CPU      0.27s WALL (       8 calls)
     drho         :      1.23s CPU      1.29s WALL (       8 calls)

     DYNAMICAL MATRIX:
     dynmat0      :      0.59s CPU      0.59s WALL (       8 calls)
     phqscf       :     79.81s CPU     87.01s WALL (       8 calls)
     dynmatrix    :      0.02s CPU      0.03s WALL (       8 calls)

     phqscf       :     79.81s CPU     87.01s WALL (       8 calls)
     solve_linter :     79.01s CPU     86.07s WALL (      32 calls)
     drhodv       :      0.60s CPU      0.71s WALL (      32 calls)

     dynmat0      :      0.59s CPU      0.59s WALL (       8 calls)
     dynmat_us    :      0.35s CPU      0.36s WALL (       8 calls)
     d2ionq       :      0.01s CPU      0.01s WALL (       8 calls)
     dynmatcc     :      0.21s CPU      0.21s WALL (       8 calls)

     dynmat_us    :      0.35s CPU      0.36s WALL (       8 calls)
     addusdynmat  :      0.00s CPU      0.00s WALL (       8 calls)

     phqscf       :     79.81s CPU     87.01s WALL (       8 calls)
     solve_linter :     79.01s CPU     86.07s WALL (      32 calls)

     solve_linter :     79.01s CPU     86.07s WALL (      32 calls)
     dvqpsi_us    :      1.73s CPU      1.88s WALL (    2508 calls)
     ortho        :      1.34s CPU      1.46s WALL (   15550 calls)
     cgsolve      :     62.40s CPU     68.07s WALL (   15550 calls)
     incdrhoscf   :      5.44s CPU      5.88s WALL (   15550 calls)
     addusddens   :      1.23s CPU      1.26s WALL (     228 calls)
     vpsifft      :      3.95s CPU      4.32s WALL (   12922 calls)
     dv_of_drho   :      0.29s CPU      0.30s WALL (     295 calls)
     mix_pot      :      0.06s CPU      0.06s WALL (     201 calls)
     psymdvscf    :      0.80s CPU      0.82s WALL (     196 calls)
     newdq        :      1.30s CPU      1.36s WALL (     201 calls)
     adddvscf     :      0.46s CPU      0.50s WALL (   13042 calls)
     drhodvus     :      0.00s CPU      0.00s WALL (      32 calls)

     dvqpsi_us    :      1.73s CPU      1.88s WALL (    2508 calls)
     dvqpsi_us_on :      0.81s CPU      0.88s WALL (    2508 calls)

     cgsolve      :     62.40s CPU     68.07s WALL (   15550 calls)
     ch_psi       :     59.68s CPU     65.02s WALL (  141339 calls)

     ch_psi       :     59.68s CPU     65.02s WALL (  141339 calls)
     h_psi        :     49.88s CPU     54.17s WALL (  152199 calls)
     last         :     10.30s CPU     11.35s WALL (  141339 calls)

     h_psi        :     49.88s CPU     54.17s WALL (  152199 calls)
     add_vuspsi   :      2.89s CPU      3.11s WALL (  152199 calls)

     incdrhoscf   :      5.44s CPU      5.88s WALL (   15550 calls)
     addusdbec    :      0.83s CPU      0.89s WALL (   17998 calls)

     drhodvus     :      0.00s CPU      0.00s WALL (      32 calls)

      General routines
     calbec       :     12.05s CPU     13.24s WALL (  345490 calls)
     fft          :      0.73s CPU      0.76s WALL (    5239 calls)
     ffts         :      0.17s CPU      0.18s WALL (    2748 calls)
     fftw         :     48.09s CPU     52.20s WALL ( 1378018 calls)
     davcio       :      0.29s CPU      0.33s WALL (   79045 calls)
     write_rec    :      0.21s CPU      0.23s WALL (     233 calls)


     PHONON       :  1m31.02s CPU     1m38.87s WALL


   This run was terminated on:  12: 6:48   9Nov2017            

=------------------------------------------------------------------------------=
   JOB DONE.
=------------------------------------------------------------------------------=
