
     Program PHONON v.6.1 (svn rev. 13369) starts on  9Nov2017 at 13: 4:21 

     This program is part of the open-source Quantum ESPRESSO suite
     for quantum simulation of materials; please cite
         "P. Giannozzi et al., J. Phys.:Condens. Matter 21 395502 (2009);
          URL http://www.quantum-espresso.org", 
     in publications or presentations arising from this work. More details at
     http://www.quantum-espresso.org/quote

     Parallel version (MPI), running on     4 processors
     R & G space division:  proc/nbgrp/npool/nimage =       4

     Reading data from directory:
     ./silicon.10.355.save

   Info: using nr1, nr2, nr3 values from input

   Info: using nr1, nr2, nr3 values from input

     IMPORTANT: XC functional enforced from input :
     Exchange-correlation      = SLA  PW   PBE  PBE ( 1  4  3  4 0 0)
     Any further DFT definition will be discarded
     Please, verify this is what you really want


     Parallelization info
     --------------------
     sticks:   dense  smooth     PW     G-vecs:    dense   smooth      PW
     Min          64      64     22                  709      709     140
     Max          67      67     23                  710      710     141
     Sum         265     265     91                 2837     2837     561


     Check: negative/imaginary core charge=   -0.000006    0.000000


     Dynamical matrices for ( 4, 4, 4)  uniform grid of q-points
     (   8q-points):
       N         xq(1)         xq(2)         xq(3) 
       1   0.000000000   0.000000000   0.000000000
       2  -0.250000000   0.250000000  -0.250000000
       3   0.500000000  -0.500000000   0.500000000
       4   0.000000000   0.500000000   0.000000000
       5   0.750000000  -0.250000000   0.750000000
       6   0.500000000   0.000000000   0.500000000
       7   0.000000000  -1.000000000   0.000000000
       8  -0.500000000  -1.000000000   0.000000000

     Calculation of q =    0.0000000   0.0000000   0.0000000

                                                                                

     bravais-lattice index     =            2
     lattice parameter (alat)  =      10.3550  a.u.
     unit-cell volume          =     277.5814 (a.u.)^3
     number of atoms/cell      =            2
     number of atomic types    =            1
     kinetic-energy cut-off    =      18.0000  Ry
     charge density cut-off    =      72.0000  Ry
     convergence threshold     =      1.0E-12
     beta                      =       0.7000
     number of iterations used =            4
     Exchange-correlation      = SLA  PW   PBE  PBE ( 1  4  3  4 0 0)


     celldm(1)=   10.35500  celldm(2)=    0.00000  celldm(3)=    0.00000
     celldm(4)=    0.00000  celldm(5)=    0.00000  celldm(6)=    0.00000

     crystal axes: (cart. coord. in units of alat)
               a(1) = ( -0.5000  0.0000  0.5000 )  
               a(2) = (  0.0000  0.5000  0.5000 )  
               a(3) = ( -0.5000  0.5000  0.0000 )  

     reciprocal axes: (cart. coord. in units 2 pi/alat)
               b(1) = ( -1.0000 -1.0000  1.0000 )  
               b(2) = (  1.0000  1.0000  1.0000 )  
               b(3) = ( -1.0000  1.0000 -1.0000 )  


     Atoms inside the unit cell: 

     Cartesian axes

     site n.  atom      mass           positions (alat units)
        1     Si  28.0860   tau(    1) = (    0.00000    0.00000    0.00000  )
        2     Si  28.0860   tau(    2) = (    0.25000    0.25000    0.25000  )

     Computing dynamical matrix for 
                    q = (   0.0000000   0.0000000   0.0000000 )

     49 Sym.Ops. (with q -> -q+G )


     G cutoff =  195.5568  (    710 G-vectors)     FFT grid: ( 20, 20, 20)
     number of k points=    10

     PseudoPot. # 1 for Si read from file:
     /home/max/quantum_espresso/qe-6.1/pseudo/si_pbe_v1.uspp.F.UPF.txt
     MD5 check sum: a056efeee980c13900f22a371efd63c1
     Pseudo is Ultrasoft + core correction, Zval =  4.0
     Generated by new atomic code, or converted to UPF format
     Using radial grid of  899 points,  6 beta functions with: 
                l(1) =   0
                l(2) =   0
                l(3) =   1
                l(4) =   1
                l(5) =   2
                l(6) =   2
     Q(r) pseudized with  8 coefficients,  rinner =    0.900   0.900   0.900
                                                       0.900   0.900

     Mode symmetry, O_h (m-3m)  point group:


     Electric field:
     Dielectric constant
     Born effective charges in two ways 


     Atomic displacements:
     There are   2 irreducible representations

     Representation     1      3 modes -T_2g G_25' G_5+  To be done

     Representation     2      3 modes -T_1u G_15  G_4-  To be done



     Alpha used in Ewald sum =   0.7000
     PHONON       :     0.40s CPU         0.44s WALL


     Electric Fields Calculation

      iter #   1 total cpu time :     1.0 secs   av.it.:   5.6
      thresh= 1.000E-02 alpha_mix =  0.700 |ddv_scf|^2 =  9.395E-07

      iter #   2 total cpu time :     1.2 secs   av.it.:   9.9
      thresh= 9.693E-05 alpha_mix =  0.700 |ddv_scf|^2 =  6.012E-08

      iter #   3 total cpu time :     1.4 secs   av.it.:   9.8
      thresh= 2.452E-05 alpha_mix =  0.700 |ddv_scf|^2 =  4.738E-09

      iter #   4 total cpu time :     1.6 secs   av.it.:   9.0
      thresh= 6.883E-06 alpha_mix =  0.700 |ddv_scf|^2 =  2.846E-11

      iter #   5 total cpu time :     1.8 secs   av.it.:   9.1
      thresh= 5.335E-07 alpha_mix =  0.700 |ddv_scf|^2 =  1.472E-14

     End of electric fields calculation

          Dielectric constant in cartesian axis 

          (      13.916305592      -0.000000000      -0.000000000 )
          (      -0.000000000      13.916305592       0.000000000 )
          (       0.000000000       0.000000000      13.916305592 )

          Effective charges (d Force / dE) in cartesian axis

           atom      1   Si 
      Ex  (       -0.03531        0.00000        0.00000 )
      Ey  (        0.00000       -0.03531       -0.00000 )
      Ez  (        0.00000       -0.00000       -0.03531 )
           atom      2   Si 
      Ex  (       -0.03531        0.00000        0.00000 )
      Ey  (        0.00000       -0.03531       -0.00000 )
      Ez  (        0.00000       -0.00000       -0.03531 )


     Representation #  1 modes #   1  2  3

     Self-consistent Calculation

      iter #   1 total cpu time :     2.2 secs   av.it.:   5.0
      thresh= 1.000E-02 alpha_mix =  0.700 |ddv_scf|^2 =  2.244E-07

      iter #   2 total cpu time :     2.4 secs   av.it.:   9.8
      thresh= 4.737E-05 alpha_mix =  0.700 |ddv_scf|^2 =  1.393E-08

      iter #   3 total cpu time :     2.8 secs   av.it.:   9.2
      thresh= 1.180E-05 alpha_mix =  0.700 |ddv_scf|^2 =  8.630E-10

      iter #   4 total cpu time :     2.9 secs   av.it.:   8.9
      thresh= 2.938E-06 alpha_mix =  0.700 |ddv_scf|^2 =  1.913E-12

      iter #   5 total cpu time :     3.1 secs   av.it.:   9.5
      thresh= 1.383E-07 alpha_mix =  0.700 |ddv_scf|^2 =  1.352E-14

     End of self-consistent calculation

     Convergence has been achieved 


     Representation #  2 modes #   4  5  6

     Self-consistent Calculation

      iter #   1 total cpu time :     3.4 secs   av.it.:   5.0
      thresh= 1.000E-02 alpha_mix =  0.700 |ddv_scf|^2 =  1.861E-07

      iter #   2 total cpu time :     3.6 secs   av.it.:   9.6
      thresh= 4.314E-05 alpha_mix =  0.700 |ddv_scf|^2 =  1.514E-08

      iter #   3 total cpu time :     3.8 secs   av.it.:   9.3
      thresh= 1.230E-05 alpha_mix =  0.700 |ddv_scf|^2 =  9.190E-10

      iter #   4 total cpu time :     4.0 secs   av.it.:   9.5
      thresh= 3.031E-06 alpha_mix =  0.700 |ddv_scf|^2 =  5.365E-12

      iter #   5 total cpu time :     4.2 secs   av.it.:   9.0
      thresh= 2.316E-07 alpha_mix =  0.700 |ddv_scf|^2 =  4.724E-15

     End of self-consistent calculation

     Convergence has been achieved 

     Number of q in the star =    1
     List of q in the star:
          1   0.000000000   0.000000000   0.000000000

          Dielectric constant in cartesian axis 

          (      13.916305592      -0.000000000      -0.000000000 )
          (      -0.000000000      13.916305592       0.000000000 )
          (       0.000000000       0.000000000      13.916305592 )

          Effective charges (d Force / dE) in cartesian axis

           atom      1   Si 
      Ex  (       -0.03531        0.00000        0.00000 )
      Ey  (        0.00000       -0.03531       -0.00000 )
      Ez  (        0.00000       -0.00000       -0.03531 )
           atom      2   Si 
      Ex  (       -0.03531        0.00000        0.00000 )
      Ey  (        0.00000       -0.03531       -0.00000 )
      Ez  (        0.00000       -0.00000       -0.03531 )

          Effective charges (d P / du) in cartesian axis 

           atom      1   Si 
      Px  (       -0.07538        0.00000        0.00000 )
      Py  (        0.00000       -0.07538        0.00000 )
      Pz  (        0.00000        0.00000       -0.07538 )
           atom      2   Si 
      Px  (       -0.07538        0.00000       -0.00000 )
      Py  (        0.00000       -0.07538        0.00000 )
      Pz  (       -0.00000        0.00000       -0.07538 )

     Diagonalizing the dynamical matrix

     q = (    0.000000000   0.000000000   0.000000000 ) 

 **************************************************************************
     freq (    1) =       1.885569 [THz] =      62.895819 [cm-1]
     freq (    2) =       1.885569 [THz] =      62.895819 [cm-1]
     freq (    3) =       1.885569 [THz] =      62.895819 [cm-1]
     freq (    4) =      15.298450 [THz] =     510.301368 [cm-1]
     freq (    5) =      15.298450 [THz] =     510.301368 [cm-1]
     freq (    6) =      15.298450 [THz] =     510.301368 [cm-1]
 **************************************************************************

     Mode symmetry, O_h (m-3m)  point group:

     freq (  1 -  3) =         62.9  [cm-1]   --> T_1u G_15  G_4- I  
     freq (  4 -  6) =        510.3  [cm-1]   --> T_2g G_25' G_5+ R  

     Calculation of q =   -0.2500000   0.2500000  -0.2500000

   Info: using nr1, nr2, nr3 values from input

   Info: using nr1, nr2, nr3 values from input

     Parallelization info
     --------------------
     sticks:   dense  smooth     PW     G-vecs:    dense   smooth      PW
     Min          64      64     24                  709      709     161
     Max          67      67     25                  710      710     162
     Sum         265     265     97                 2837     2837     645



     bravais-lattice index     =            2
     lattice parameter (alat)  =      10.3550  a.u.
     unit-cell volume          =     277.5814 (a.u.)^3
     number of atoms/cell      =            2
     number of atomic types    =            1
     number of electrons       =         8.00
     number of Kohn-Sham states=            4
     kinetic-energy cutoff     =      18.0000  Ry
     charge density cutoff     =      72.0000  Ry
     Exchange-correlation      = SLA  PW   PBE  PBE ( 1  4  3  4 0 0)

     celldm(1)=  10.355000  celldm(2)=   0.000000  celldm(3)=   0.000000
     celldm(4)=   0.000000  celldm(5)=   0.000000  celldm(6)=   0.000000

     crystal axes: (cart. coord. in units of alat)
               a(1) = (  -0.500000   0.000000   0.500000 )  
               a(2) = (   0.000000   0.500000   0.500000 )  
               a(3) = (  -0.500000   0.500000   0.000000 )  

     reciprocal axes: (cart. coord. in units 2 pi/alat)
               b(1) = ( -1.000000 -1.000000  1.000000 )  
               b(2) = (  1.000000  1.000000  1.000000 )  
               b(3) = ( -1.000000  1.000000 -1.000000 )  


     PseudoPot. # 1 for Si read from file:
     /home/max/quantum_espresso/qe-6.1/pseudo/si_pbe_v1.uspp.F.UPF.txt
     MD5 check sum: a056efeee980c13900f22a371efd63c1
     Pseudo is Ultrasoft + core correction, Zval =  4.0
     Generated by new atomic code, or converted to UPF format
     Using radial grid of  899 points,  6 beta functions with: 
                l(1) =   0
                l(2) =   0
                l(3) =   1
                l(4) =   1
                l(5) =   2
                l(6) =   2
     Q(r) pseudized with  8 coefficients,  rinner =    0.900   0.900   0.900
                                                       0.900   0.900

     atomic species   valence    mass     pseudopotential
        Si             4.00    28.08600     Si( 1.00)

     48 Sym. Ops., with inversion, found



   Cartesian axes

     site n.     atom                  positions (alat units)
         1           Si  tau(   1) = (   0.0000000   0.0000000   0.0000000  )
         2           Si  tau(   2) = (   0.2500000   0.2500000   0.2500000  )

     number of k points=   120

     Number of k-points >= 100: set verbosity='high' to print them.

     Dense  grid:     2837 G-vectors     FFT dimensions: (  20,  20,  20)

     Estimated max dynamical RAM per process >       0.33MB

     Estimated total allocated dynamical RAM >       1.32MB

     Check: negative/imaginary core charge=   -0.000006    0.000000

     The potential is recalculated from file :
     ./_ph0/silicon.10.355.save/charge-density.dat

     Starting wfc are    8 atomic wfcs

     Band Structure Calculation
     Davidson diagonalization with overlap

     ethr =  1.25E-10,  avg # of iterations = 11.7

     total cpu time spent up to now is        1.0 secs

     End of band structure calculation

     Number of k-points >= 100: set verbosity='high' to print the bands.

     highest occupied level (ev):     5.6383

     Writing output data file silicon.10.355.save

                                                                                

     bravais-lattice index     =            2
     lattice parameter (alat)  =      10.3550  a.u.
     unit-cell volume          =     277.5814 (a.u.)^3
     number of atoms/cell      =            2
     number of atomic types    =            1
     kinetic-energy cut-off    =      18.0000  Ry
     charge density cut-off    =      72.0000  Ry
     convergence threshold     =      1.0E-12
     beta                      =       0.7000
     number of iterations used =            4
     Exchange-correlation      = SLA  PW   PBE  PBE ( 1  4  3  4 0 0)


     celldm(1)=   10.35500  celldm(2)=    0.00000  celldm(3)=    0.00000
     celldm(4)=    0.00000  celldm(5)=    0.00000  celldm(6)=    0.00000

     crystal axes: (cart. coord. in units of alat)
               a(1) = ( -0.5000  0.0000  0.5000 )  
               a(2) = (  0.0000  0.5000  0.5000 )  
               a(3) = ( -0.5000  0.5000  0.0000 )  

     reciprocal axes: (cart. coord. in units 2 pi/alat)
               b(1) = ( -1.0000 -1.0000  1.0000 )  
               b(2) = (  1.0000  1.0000  1.0000 )  
               b(3) = ( -1.0000  1.0000 -1.0000 )  


     Atoms inside the unit cell: 

     Cartesian axes

     site n.  atom      mass           positions (alat units)
        1     Si  28.0860   tau(    1) = (    0.00000    0.00000    0.00000  )
        2     Si  28.0860   tau(    2) = (    0.25000    0.25000    0.25000  )

     Computing dynamical matrix for 
                    q = (  -0.2500000   0.2500000  -0.2500000 )

      6 Sym.Ops. (no q -> -q+G )


     G cutoff =  195.5568  (    710 G-vectors)     FFT grid: ( 20, 20, 20)
     number of k points=   120

     PseudoPot. # 1 for Si read from file:
     /home/max/quantum_espresso/qe-6.1/pseudo/si_pbe_v1.uspp.F.UPF.txt
     MD5 check sum: a056efeee980c13900f22a371efd63c1
     Pseudo is Ultrasoft + core correction, Zval =  4.0
     Generated by new atomic code, or converted to UPF format
     Using radial grid of  899 points,  6 beta functions with: 
                l(1) =   0
                l(2) =   0
                l(3) =   1
                l(4) =   1
                l(5) =   2
                l(6) =   2
     Q(r) pseudized with  8 coefficients,  rinner =    0.900   0.900   0.900
                                                       0.900   0.900

     Mode symmetry, C_3v (3m)   point group:


     Atomic displacements:
     There are   4 irreducible representations

     Representation     1      1 modes -A_1  L_1  To be done

     Representation     2      1 modes -A_1  L_1  To be done

     Representation     3      2 modes -E    L_3  To be done

     Representation     4      2 modes -E    L_3  To be done



     Alpha used in Ewald sum =   0.7000
     PHONON       :     5.13s CPU         5.72s WALL



     Representation #  1 mode #   1

     Self-consistent Calculation

      iter #   1 total cpu time :     6.0 secs   av.it.:   5.5
      thresh= 1.000E-02 alpha_mix =  0.700 |ddv_scf|^2 =  2.457E-03

      iter #   2 total cpu time :     6.2 secs   av.it.:   7.5
      thresh= 4.957E-03 alpha_mix =  0.700 |ddv_scf|^2 =  3.716E-02

      iter #   3 total cpu time :     6.7 secs   av.it.:   6.3
      thresh= 1.000E-02 alpha_mix =  0.700 |ddv_scf|^2 =  1.708E-06

      iter #   4 total cpu time :     7.0 secs   av.it.:   8.2
      thresh= 1.307E-04 alpha_mix =  0.700 |ddv_scf|^2 =  1.161E-07

      iter #   5 total cpu time :     7.3 secs   av.it.:   8.1
      thresh= 3.407E-05 alpha_mix =  0.700 |ddv_scf|^2 =  4.787E-09

      iter #   6 total cpu time :     7.6 secs   av.it.:   8.0
      thresh= 6.919E-06 alpha_mix =  0.700 |ddv_scf|^2 =  4.760E-09

      iter #   7 total cpu time :     7.8 secs   av.it.:   6.1
      thresh= 6.899E-06 alpha_mix =  0.700 |ddv_scf|^2 =  4.682E-10

      iter #   8 total cpu time :     8.1 secs   av.it.:   7.3
      thresh= 2.164E-06 alpha_mix =  0.700 |ddv_scf|^2 =  4.103E-12

      iter #   9 total cpu time :     8.3 secs   av.it.:   7.1
      thresh= 2.026E-07 alpha_mix =  0.700 |ddv_scf|^2 =  1.735E-13

     End of self-consistent calculation

     Convergence has been achieved 


     Representation #  2 mode #   2

     Self-consistent Calculation

      iter #   1 total cpu time :     8.8 secs   av.it.:   5.5
      thresh= 1.000E-02 alpha_mix =  0.700 |ddv_scf|^2 =  2.457E-03

      iter #   2 total cpu time :     9.1 secs   av.it.:   7.5
      thresh= 4.957E-03 alpha_mix =  0.700 |ddv_scf|^2 =  3.716E-02

      iter #   3 total cpu time :     9.3 secs   av.it.:   6.3
      thresh= 1.000E-02 alpha_mix =  0.700 |ddv_scf|^2 =  1.708E-06

      iter #   4 total cpu time :     9.6 secs   av.it.:   8.2
      thresh= 1.307E-04 alpha_mix =  0.700 |ddv_scf|^2 =  1.161E-07

      iter #   5 total cpu time :     9.9 secs   av.it.:   8.1
      thresh= 3.407E-05 alpha_mix =  0.700 |ddv_scf|^2 =  4.787E-09

      iter #   6 total cpu time :    10.2 secs   av.it.:   8.0
      thresh= 6.919E-06 alpha_mix =  0.700 |ddv_scf|^2 =  4.760E-09

      iter #   7 total cpu time :    10.4 secs   av.it.:   6.1
      thresh= 6.899E-06 alpha_mix =  0.700 |ddv_scf|^2 =  4.682E-10

      iter #   8 total cpu time :    10.9 secs   av.it.:   7.3
      thresh= 2.164E-06 alpha_mix =  0.700 |ddv_scf|^2 =  4.103E-12

      iter #   9 total cpu time :    11.1 secs   av.it.:   7.1
      thresh= 2.026E-07 alpha_mix =  0.700 |ddv_scf|^2 =  1.735E-13

     End of self-consistent calculation

     Convergence has been achieved 


     Representation #  3 modes #   3  4

     Self-consistent Calculation

      iter #   1 total cpu time :    11.6 secs   av.it.:   4.9
      thresh= 1.000E-02 alpha_mix =  0.700 |ddv_scf|^2 =  5.732E-07

      iter #   2 total cpu time :    12.3 secs   av.it.:   9.4
      thresh= 7.571E-05 alpha_mix =  0.700 |ddv_scf|^2 =  4.319E-08

      iter #   3 total cpu time :    13.1 secs   av.it.:   9.2
      thresh= 2.078E-05 alpha_mix =  0.700 |ddv_scf|^2 =  3.743E-09

      iter #   4 total cpu time :    13.8 secs   av.it.:   8.9
      thresh= 6.118E-06 alpha_mix =  0.700 |ddv_scf|^2 =  1.124E-11

      iter #   5 total cpu time :    14.5 secs   av.it.:   9.2
      thresh= 3.352E-07 alpha_mix =  0.700 |ddv_scf|^2 =  5.001E-13

     End of self-consistent calculation

     Convergence has been achieved 


     Representation #  4 modes #   5  6

     Self-consistent Calculation

      iter #   1 total cpu time :    15.1 secs   av.it.:   5.0
      thresh= 1.000E-02 alpha_mix =  0.700 |ddv_scf|^2 =  5.730E-07

      iter #   2 total cpu time :    15.8 secs   av.it.:   9.6
      thresh= 7.570E-05 alpha_mix =  0.700 |ddv_scf|^2 =  4.314E-08

      iter #   3 total cpu time :    16.6 secs   av.it.:   9.4
      thresh= 2.077E-05 alpha_mix =  0.700 |ddv_scf|^2 =  3.739E-09

      iter #   4 total cpu time :    17.3 secs   av.it.:   9.1
      thresh= 6.115E-06 alpha_mix =  0.700 |ddv_scf|^2 =  1.124E-11

      iter #   5 total cpu time :    18.0 secs   av.it.:   9.3
      thresh= 3.353E-07 alpha_mix =  0.700 |ddv_scf|^2 =  5.002E-13

     End of self-consistent calculation

     Convergence has been achieved 

     Number of q in the star =    8
     List of q in the star:
          1  -0.250000000   0.250000000  -0.250000000
          2   0.250000000  -0.250000000  -0.250000000
          3   0.250000000  -0.250000000   0.250000000
          4   0.250000000   0.250000000   0.250000000
          5  -0.250000000  -0.250000000  -0.250000000
          6  -0.250000000  -0.250000000   0.250000000
          7  -0.250000000   0.250000000   0.250000000
          8   0.250000000   0.250000000  -0.250000000

     Diagonalizing the dynamical matrix

     q = (   -0.250000000   0.250000000  -0.250000000 ) 

 **************************************************************************
     freq (    1) =       3.399257 [THz] =     113.386997 [cm-1]
     freq (    2) =       3.399257 [THz] =     113.386997 [cm-1]
     freq (    3) =       6.897271 [THz] =     230.068202 [cm-1]
     freq (    4) =      14.379242 [THz] =     479.639890 [cm-1]
     freq (    5) =      14.681746 [THz] =     489.730341 [cm-1]
     freq (    6) =      14.681746 [THz] =     489.730341 [cm-1]
 **************************************************************************

     Mode symmetry, C_3v (3m)   point group:

     freq (  1 -  2) =        113.4  [cm-1]   --> E    L_3           
     freq (  3 -  3) =        230.1  [cm-1]   --> A_1  L_1           
     freq (  4 -  4) =        479.6  [cm-1]   --> A_1  L_1           
     freq (  5 -  6) =        489.7  [cm-1]   --> E    L_3           

     Calculation of q =    0.5000000  -0.5000000   0.5000000

   Info: using nr1, nr2, nr3 values from input

   Info: using nr1, nr2, nr3 values from input

     Parallelization info
     --------------------
     sticks:   dense  smooth     PW     G-vecs:    dense   smooth      PW
     Min          64      64     27                  709      709     186
     Max          67      67     28                  710      710     189
     Sum         265     265    109                 2837     2837     749



     bravais-lattice index     =            2
     lattice parameter (alat)  =      10.3550  a.u.
     unit-cell volume          =     277.5814 (a.u.)^3
     number of atoms/cell      =            2
     number of atomic types    =            1
     number of electrons       =         8.00
     number of Kohn-Sham states=            4
     kinetic-energy cutoff     =      18.0000  Ry
     charge density cutoff     =      72.0000  Ry
     Exchange-correlation      = SLA  PW   PBE  PBE ( 1  4  3  4 0 0)

     celldm(1)=  10.355000  celldm(2)=   0.000000  celldm(3)=   0.000000
     celldm(4)=   0.000000  celldm(5)=   0.000000  celldm(6)=   0.000000

     crystal axes: (cart. coord. in units of alat)
               a(1) = (  -0.500000   0.000000   0.500000 )  
               a(2) = (   0.000000   0.500000   0.500000 )  
               a(3) = (  -0.500000   0.500000   0.000000 )  

     reciprocal axes: (cart. coord. in units 2 pi/alat)
               b(1) = ( -1.000000 -1.000000  1.000000 )  
               b(2) = (  1.000000  1.000000  1.000000 )  
               b(3) = ( -1.000000  1.000000 -1.000000 )  


     PseudoPot. # 1 for Si read from file:
     /home/max/quantum_espresso/qe-6.1/pseudo/si_pbe_v1.uspp.F.UPF.txt
     MD5 check sum: a056efeee980c13900f22a371efd63c1
     Pseudo is Ultrasoft + core correction, Zval =  4.0
     Generated by new atomic code, or converted to UPF format
     Using radial grid of  899 points,  6 beta functions with: 
                l(1) =   0
                l(2) =   0
                l(3) =   1
                l(4) =   1
                l(5) =   2
                l(6) =   2
     Q(r) pseudized with  8 coefficients,  rinner =    0.900   0.900   0.900
                                                       0.900   0.900

     atomic species   valence    mass     pseudopotential
        Si             4.00    28.08600     Si( 1.00)

     48 Sym. Ops., with inversion, found



   Cartesian axes

     site n.     atom                  positions (alat units)
         1           Si  tau(   1) = (   0.0000000   0.0000000   0.0000000  )
         2           Si  tau(   2) = (   0.2500000   0.2500000   0.2500000  )

     number of k points=    60
                       cart. coord. in units 2pi/alat
        k(    1) = (  -0.1250000   0.1250000   0.1250000), wk =   0.0468750
        k(    2) = (   0.3750000  -0.3750000   0.6250000), wk =   0.0000000
        k(    3) = (  -0.3750000   0.3750000  -0.1250000), wk =   0.0468750
        k(    4) = (   0.1250000  -0.1250000   0.3750000), wk =   0.0000000
        k(    5) = (   0.3750000  -0.3750000   0.6250000), wk =   0.0468750
        k(    6) = (   0.8750000  -0.8750000   1.1250000), wk =   0.0000000
        k(    7) = (   0.1250000  -0.1250000   0.3750000), wk =   0.0468750
        k(    8) = (   0.6250000  -0.6250000   0.8750000), wk =   0.0000000
        k(    9) = (  -0.1250000   0.6250000   0.1250000), wk =   0.0937500
        k(   10) = (   0.3750000   0.1250000   0.6250000), wk =   0.0000000
        k(   11) = (   0.6250000  -0.1250000   0.8750000), wk =   0.0937500
        k(   12) = (   1.1250000  -0.6250000   1.3750000), wk =   0.0000000
        k(   13) = (   0.3750000   0.1250000   0.6250000), wk =   0.0937500
        k(   14) = (   0.8750000  -0.3750000   1.1250000), wk =   0.0000000
        k(   15) = (  -0.1250000  -0.8750000   0.1250000), wk =   0.0937500
        k(   16) = (   0.3750000  -1.3750000   0.6250000), wk =   0.0000000
        k(   17) = (  -0.3750000   0.3750000   0.3750000), wk =   0.0468750
        k(   18) = (   0.1250000  -0.1250000   0.8750000), wk =   0.0000000
        k(   19) = (   0.3750000  -0.3750000   1.1250000), wk =   0.0468750
        k(   20) = (   0.8750000  -0.8750000   1.6250000), wk =   0.0000000
        k(   21) = (   0.1250000  -0.1250000   0.1250000), wk =   0.0156250
        k(   22) = (   0.6250000  -0.6250000   0.6250000), wk =   0.0000000
        k(   23) = (  -0.3750000  -0.3750000  -0.1250000), wk =   0.0937500
        k(   24) = (   0.1250000  -0.8750000   0.3750000), wk =   0.0000000
        k(   25) = (  -0.1250000  -0.3750000   0.3750000), wk =   0.0468750
        k(   26) = (   0.3750000  -0.8750000   0.8750000), wk =   0.0000000
        k(   27) = (   0.3750000   0.3750000   0.6250000), wk =   0.0937500
        k(   28) = (   0.8750000  -0.1250000   1.1250000), wk =   0.0000000
        k(   29) = (   0.6250000   0.3750000  -0.3750000), wk =   0.0468750
        k(   30) = (   1.1250000  -0.1250000   0.1250000), wk =   0.0000000
        k(   31) = (   0.1250000   0.1250000   0.3750000), wk =   0.0937500
        k(   32) = (   0.6250000  -0.3750000   0.8750000), wk =   0.0000000
        k(   33) = (   0.3750000   0.1250000  -0.1250000), wk =   0.0468750
        k(   34) = (   0.8750000  -0.3750000   0.3750000), wk =   0.0000000
        k(   35) = (  -0.1250000  -0.6250000  -0.1250000), wk =   0.0468750
        k(   36) = (   0.3750000  -1.1250000   0.3750000), wk =   0.0000000
        k(   37) = (   0.1250000  -0.6250000   0.1250000), wk =   0.0468750
        k(   38) = (   0.6250000  -1.1250000   0.6250000), wk =   0.0000000
        k(   39) = (   0.6250000   0.1250000   0.8750000), wk =   0.0937500
        k(   40) = (   1.1250000  -0.3750000   1.3750000), wk =   0.0000000
        k(   41) = (  -0.8750000   0.1250000   0.6250000), wk =   0.0937500
        k(   42) = (  -0.3750000  -0.3750000   1.1250000), wk =   0.0000000
        k(   43) = (   0.8750000   0.1250000  -0.6250000), wk =   0.0937500
        k(   44) = (   1.3750000  -0.3750000  -0.1250000), wk =   0.0000000
        k(   45) = (   0.3750000  -0.1250000   0.6250000), wk =   0.0937500
        k(   46) = (   0.8750000  -0.6250000   1.1250000), wk =   0.0000000
        k(   47) = (  -0.6250000  -0.1250000   0.3750000), wk =   0.0937500
        k(   48) = (  -0.1250000  -0.6250000   0.8750000), wk =   0.0000000
        k(   49) = (   0.6250000  -0.1250000  -0.3750000), wk =   0.0937500
        k(   50) = (   1.1250000  -0.6250000   0.1250000), wk =   0.0000000
        k(   51) = (  -0.1250000   0.8750000  -0.1250000), wk =   0.0468750
        k(   52) = (   0.3750000   0.3750000   0.3750000), wk =   0.0000000
        k(   53) = (   0.1250000   0.8750000   0.1250000), wk =   0.0468750
        k(   54) = (   0.6250000   0.3750000   0.6250000), wk =   0.0000000
        k(   55) = (   0.3750000  -0.3750000   0.3750000), wk =   0.0156250
        k(   56) = (   0.8750000  -0.8750000   0.8750000), wk =   0.0000000
        k(   57) = (   0.3750000   0.3750000   1.1250000), wk =   0.0937500
        k(   58) = (   0.8750000  -0.1250000   1.6250000), wk =   0.0000000
        k(   59) = (   1.1250000   0.3750000  -0.3750000), wk =   0.0468750
        k(   60) = (   1.6250000  -0.1250000   0.1250000), wk =   0.0000000

     Dense  grid:     2837 G-vectors     FFT dimensions: (  20,  20,  20)

     Estimated max dynamical RAM per process >       0.33MB

     Estimated total allocated dynamical RAM >       1.32MB

     Check: negative/imaginary core charge=   -0.000006    0.000000

     The potential is recalculated from file :
     ./_ph0/silicon.10.355.save/charge-density.dat

     Starting wfc are    8 atomic wfcs

     Band Structure Calculation
     Davidson diagonalization with overlap

     ethr =  1.25E-10,  avg # of iterations = 11.7

     total cpu time spent up to now is        1.8 secs

     End of band structure calculation

          k =-0.1250 0.1250 0.1250 (   344 PWs)   bands (ev):

    -5.6531   4.3289   5.6383   5.6383

          k = 0.3750-0.3750 0.6250 (   361 PWs)   bands (ev):

    -3.5081  -0.7116   3.6836   4.3932

          k =-0.3750 0.3750-0.1250 (   355 PWs)   bands (ev):

    -4.6349   1.3472   3.6679   5.1579

          k = 0.1250-0.1250 0.3750 (   353 PWs)   bands (ev):

    -5.1295   2.7138   4.6381   4.6981

          k = 0.3750-0.3750 0.6250 (   361 PWs)   bands (ev):

    -3.5081  -0.7116   3.6836   4.3932

          k = 0.8750-0.8750 1.1250 (   344 PWs)   bands (ev):

    -5.6531   4.3289   5.6383   5.6383

          k = 0.1250-0.1250 0.3750 (   353 PWs)   bands (ev):

    -5.1295   2.7138   4.6381   4.6981

          k = 0.6250-0.6250 0.8750 (   355 PWs)   bands (ev):

    -4.6349   1.3472   3.6679   5.1579

          k =-0.1250 0.6250 0.1250 (   351 PWs)   bands (ev):

    -4.1060   1.0037   3.3243   3.7698

          k = 0.3750 0.1250 0.6250 (   360 PWs)   bands (ev):

    -3.6953   0.1423   2.6868   4.0438

          k = 0.6250-0.1250 0.8750 (   361 PWs)   bands (ev):

    -2.4815  -0.9480   1.9868   3.0509

          k = 1.1250-0.6250 1.3750 (   355 PWs)   bands (ev):

    -4.6349   1.3472   3.6679   5.1579

          k = 0.3750 0.1250 0.6250 (   360 PWs)   bands (ev):

    -3.6953   0.1423   2.6868   4.0438

          k = 0.8750-0.3750 1.1250 (   351 PWs)   bands (ev):

    -4.1060   1.0037   3.3243   3.7698

          k =-0.1250-0.8750 0.1250 (   360 PWs)   bands (ev):

    -2.6456  -0.8523   2.5884   3.3057

          k = 0.3750-1.3750 0.6250 (   361 PWs)   bands (ev):

    -3.5081  -0.7116   3.6836   4.3932

          k =-0.3750 0.3750 0.3750 (   353 PWs)   bands (ev):

    -4.2070   0.0716   4.8536   4.8536

          k = 0.1250-0.1250 0.8750 (   360 PWs)   bands (ev):

    -2.6456  -0.8523   2.5884   3.3057

          k = 0.3750-0.3750 1.1250 (   363 PWs)   bands (ev):

    -3.0159  -0.6387   2.0409   4.0797

          k = 0.8750-0.8750 1.6250 (   351 PWs)   bands (ev):

    -4.1060   1.0037   3.3243   3.7698

          k = 0.1250-0.1250 0.1250 (   344 PWs)   bands (ev):

    -5.6531   4.3289   5.6383   5.6383

          k = 0.6250-0.6250 0.6250 (   353 PWs)   bands (ev):

    -4.2070   0.0716   4.8536   4.8536

          k =-0.3750-0.3750-0.1250 (   355 PWs)   bands (ev):

    -4.6349   1.3472   3.6679   5.1579

          k = 0.1250-0.8750 0.3750 (   361 PWs)   bands (ev):

    -2.4815  -0.9480   1.9868   3.0509

          k =-0.1250-0.3750 0.3750 (   355 PWs)   bands (ev):

    -4.6349   1.3472   3.6679   5.1579

          k = 0.3750-0.8750 0.8750 (   351 PWs)   bands (ev):

    -4.1060   1.0037   3.3243   3.7698

          k = 0.3750 0.3750 0.6250 (   361 PWs)   bands (ev):

    -3.5081  -0.7116   3.6836   4.3932

          k = 0.8750-0.1250 1.1250 (   360 PWs)   bands (ev):

    -2.6456  -0.8523   2.5884   3.3057

          k = 0.6250 0.3750-0.3750 (   361 PWs)   bands (ev):

    -3.5081  -0.7116   3.6836   4.3932

          k = 1.1250-0.1250 0.1250 (   360 PWs)   bands (ev):

    -2.6456  -0.8523   2.5884   3.3057

          k = 0.1250 0.1250 0.3750 (   353 PWs)   bands (ev):

    -5.1295   2.7138   4.6381   4.6981

          k = 0.6250-0.3750 0.8750 (   360 PWs)   bands (ev):

    -3.6953   0.1423   2.6868   4.0438

          k = 0.3750 0.1250-0.1250 (   353 PWs)   bands (ev):

    -5.1295   2.7138   4.6381   4.6981

          k = 0.8750-0.3750 0.3750 (   363 PWs)   bands (ev):

    -3.0159  -0.6387   2.0409   4.0797

          k =-0.1250-0.6250-0.1250 (   351 PWs)   bands (ev):

    -4.1060   1.0037   3.3243   3.7698

          k = 0.3750-1.1250 0.3750 (   363 PWs)   bands (ev):

    -3.0159  -0.6387   2.0409   4.0797

          k = 0.1250-0.6250 0.1250 (   351 PWs)   bands (ev):

    -4.1060   1.0037   3.3243   3.7698

          k = 0.6250-1.1250 0.6250 (   355 PWs)   bands (ev):

    -4.6349   1.3472   3.6679   5.1579

          k = 0.6250 0.1250 0.8750 (   361 PWs)   bands (ev):

    -2.4815  -0.9480   1.9868   3.0509

          k = 1.1250-0.3750 1.3750 (   360 PWs)   bands (ev):

    -3.6953   0.1423   2.6868   4.0438

          k =-0.8750 0.1250 0.6250 (   361 PWs)   bands (ev):

    -2.4815  -0.9480   1.9868   3.0509

          k =-0.3750-0.3750 1.1250 (   363 PWs)   bands (ev):

    -3.0159  -0.6387   2.0409   4.0797

          k = 0.8750 0.1250-0.6250 (   361 PWs)   bands (ev):

    -2.4815  -0.9480   1.9868   3.0509

          k = 1.3750-0.3750-0.1250 (   360 PWs)   bands (ev):

    -3.6953   0.1423   2.6868   4.0438

          k = 0.3750-0.1250 0.6250 (   360 PWs)   bands (ev):

    -3.6953   0.1423   2.6868   4.0438

          k = 0.8750-0.6250 1.1250 (   353 PWs)   bands (ev):

    -5.1295   2.7138   4.6381   4.6981

          k =-0.6250-0.1250 0.3750 (   360 PWs)   bands (ev):

    -3.6953   0.1423   2.6868   4.0438

          k =-0.1250-0.6250 0.8750 (   361 PWs)   bands (ev):

    -2.4815  -0.9480   1.9868   3.0509

          k = 0.6250-0.1250-0.3750 (   360 PWs)   bands (ev):

    -3.6953   0.1423   2.6868   4.0438

          k = 1.1250-0.6250 0.1250 (   361 PWs)   bands (ev):

    -2.4815  -0.9480   1.9868   3.0509

          k =-0.1250 0.8750-0.1250 (   360 PWs)   bands (ev):

    -2.6456  -0.8523   2.5884   3.3057

          k = 0.3750 0.3750 0.3750 (   353 PWs)   bands (ev):

    -4.2070   0.0716   4.8536   4.8536

          k = 0.1250 0.8750 0.1250 (   360 PWs)   bands (ev):

    -2.6456  -0.8523   2.5884   3.3057

          k = 0.6250 0.3750 0.6250 (   361 PWs)   bands (ev):

    -3.5081  -0.7116   3.6836   4.3932

          k = 0.3750-0.3750 0.3750 (   353 PWs)   bands (ev):

    -4.2070   0.0716   4.8536   4.8536

          k = 0.8750-0.8750 0.8750 (   344 PWs)   bands (ev):

    -5.6531   4.3289   5.6383   5.6383

          k = 0.3750 0.3750 1.1250 (   363 PWs)   bands (ev):

    -3.0159  -0.6387   2.0409   4.0797

          k = 0.8750-0.1250 1.6250 (   361 PWs)   bands (ev):

    -2.4815  -0.9480   1.9868   3.0509

          k = 1.1250 0.3750-0.3750 (   363 PWs)   bands (ev):

    -3.0159  -0.6387   2.0409   4.0797

          k = 1.6250-0.1250 0.1250 (   353 PWs)   bands (ev):

    -5.1295   2.7138   4.6381   4.6981

     highest occupied level (ev):     5.6383

     Writing output data file silicon.10.355.save

                                                                                

     bravais-lattice index     =            2
     lattice parameter (alat)  =      10.3550  a.u.
     unit-cell volume          =     277.5814 (a.u.)^3
     number of atoms/cell      =            2
     number of atomic types    =            1
     kinetic-energy cut-off    =      18.0000  Ry
     charge density cut-off    =      72.0000  Ry
     convergence threshold     =      1.0E-12
     beta                      =       0.7000
     number of iterations used =            4
     Exchange-correlation      = SLA  PW   PBE  PBE ( 1  4  3  4 0 0)


     celldm(1)=   10.35500  celldm(2)=    0.00000  celldm(3)=    0.00000
     celldm(4)=    0.00000  celldm(5)=    0.00000  celldm(6)=    0.00000

     crystal axes: (cart. coord. in units of alat)
               a(1) = ( -0.5000  0.0000  0.5000 )  
               a(2) = (  0.0000  0.5000  0.5000 )  
               a(3) = ( -0.5000  0.5000  0.0000 )  

     reciprocal axes: (cart. coord. in units 2 pi/alat)
               b(1) = ( -1.0000 -1.0000  1.0000 )  
               b(2) = (  1.0000  1.0000  1.0000 )  
               b(3) = ( -1.0000  1.0000 -1.0000 )  


     Atoms inside the unit cell: 

     Cartesian axes

     site n.  atom      mass           positions (alat units)
        1     Si  28.0860   tau(    1) = (    0.00000    0.00000    0.00000  )
        2     Si  28.0860   tau(    2) = (    0.25000    0.25000    0.25000  )

     Computing dynamical matrix for 
                    q = (   0.5000000  -0.5000000   0.5000000 )

     13 Sym.Ops. (with q -> -q+G )


     G cutoff =  195.5568  (    710 G-vectors)     FFT grid: ( 20, 20, 20)
     number of k points=    60

     PseudoPot. # 1 for Si read from file:
     /home/max/quantum_espresso/qe-6.1/pseudo/si_pbe_v1.uspp.F.UPF.txt
     MD5 check sum: a056efeee980c13900f22a371efd63c1
     Pseudo is Ultrasoft + core correction, Zval =  4.0
     Generated by new atomic code, or converted to UPF format
     Using radial grid of  899 points,  6 beta functions with: 
                l(1) =   0
                l(2) =   0
                l(3) =   1
                l(4) =   1
                l(5) =   2
                l(6) =   2
     Q(r) pseudized with  8 coefficients,  rinner =    0.900   0.900   0.900
                                                       0.900   0.900


     Atomic displacements:
     There are   4 irreducible representations

     Representation     1      1 modes -  To be done

     Representation     2      1 modes -  To be done

     Representation     3      2 modes -  To be done

     Representation     4      2 modes -  To be done



     Alpha used in Ewald sum =   0.7000
     PHONON       :    16.98s CPU        19.01s WALL



     Representation #  1 mode #   1

     Self-consistent Calculation

      iter #   1 total cpu time :    19.1 secs   av.it.:   4.8
      thresh= 1.000E-02 alpha_mix =  0.700 |ddv_scf|^2 =  2.477E-05

      iter #   2 total cpu time :    19.3 secs   av.it.:   8.3
      thresh= 4.977E-04 alpha_mix =  0.700 |ddv_scf|^2 =  2.214E-05

      iter #   3 total cpu time :    19.5 secs   av.it.:   7.5
      thresh= 4.706E-04 alpha_mix =  0.700 |ddv_scf|^2 =  4.392E-08

      iter #   4 total cpu time :    19.6 secs   av.it.:   7.4
      thresh= 2.096E-05 alpha_mix =  0.700 |ddv_scf|^2 =  1.332E-10

      iter #   5 total cpu time :    19.8 secs   av.it.:   8.0
      thresh= 1.154E-06 alpha_mix =  0.700 |ddv_scf|^2 =  3.584E-12

      iter #   6 total cpu time :    20.0 secs   av.it.:   7.9
      thresh= 1.893E-07 alpha_mix =  0.700 |ddv_scf|^2 =  4.357E-14

     End of self-consistent calculation

     Convergence has been achieved 


     Representation #  2 mode #   2

     Self-consistent Calculation

      iter #   1 total cpu time :    20.1 secs   av.it.:   5.6
      thresh= 1.000E-02 alpha_mix =  0.700 |ddv_scf|^2 =  3.438E-04

      iter #   2 total cpu time :    20.3 secs   av.it.:   8.3
      thresh= 1.854E-03 alpha_mix =  0.700 |ddv_scf|^2 =  1.060E-03

      iter #   3 total cpu time :    20.5 secs   av.it.:   7.1
      thresh= 3.256E-03 alpha_mix =  0.700 |ddv_scf|^2 =  1.326E-07

      iter #   4 total cpu time :    20.8 secs   av.it.:   8.1
      thresh= 3.641E-05 alpha_mix =  0.700 |ddv_scf|^2 =  8.643E-09

      iter #   5 total cpu time :    21.0 secs   av.it.:   8.5
      thresh= 9.297E-06 alpha_mix =  0.700 |ddv_scf|^2 =  1.356E-10

      iter #   6 total cpu time :    21.1 secs   av.it.:   8.2
      thresh= 1.164E-06 alpha_mix =  0.700 |ddv_scf|^2 =  2.545E-12

      iter #   7 total cpu time :    21.3 secs   av.it.:   7.8
      thresh= 1.595E-07 alpha_mix =  0.700 |ddv_scf|^2 =  5.036E-15

     End of self-consistent calculation

     Convergence has been achieved 


     Representation #  3 modes #   3  4

     Self-consistent Calculation

      iter #   1 total cpu time :    21.6 secs   av.it.:   4.7
      thresh= 1.000E-02 alpha_mix =  0.700 |ddv_scf|^2 =  3.345E-07

      iter #   2 total cpu time :    21.9 secs   av.it.:   9.0
      thresh= 5.783E-05 alpha_mix =  0.700 |ddv_scf|^2 =  2.839E-08

      iter #   3 total cpu time :    22.2 secs   av.it.:   8.3
      thresh= 1.685E-05 alpha_mix =  0.700 |ddv_scf|^2 =  5.027E-10

      iter #   4 total cpu time :    22.8 secs   av.it.:   8.8
      thresh= 2.242E-06 alpha_mix =  0.700 |ddv_scf|^2 =  6.234E-12

      iter #   5 total cpu time :    23.1 secs   av.it.:   8.7
      thresh= 2.497E-07 alpha_mix =  0.700 |ddv_scf|^2 =  3.129E-14

     End of self-consistent calculation

     Convergence has been achieved 


     Representation #  4 modes #   5  6

     Self-consistent Calculation

      iter #   1 total cpu time :    23.4 secs   av.it.:   5.0
      thresh= 1.000E-02 alpha_mix =  0.700 |ddv_scf|^2 =  9.871E-07

      iter #   2 total cpu time :    23.7 secs   av.it.:   9.4
      thresh= 9.935E-05 alpha_mix =  0.700 |ddv_scf|^2 =  7.758E-08

      iter #   3 total cpu time :    24.1 secs   av.it.:   9.3
      thresh= 2.785E-05 alpha_mix =  0.700 |ddv_scf|^2 =  5.054E-09

      iter #   4 total cpu time :    24.4 secs   av.it.:   8.5
      thresh= 7.109E-06 alpha_mix =  0.700 |ddv_scf|^2 =  6.501E-12

      iter #   5 total cpu time :    24.9 secs   av.it.:   8.8
      thresh= 2.550E-07 alpha_mix =  0.700 |ddv_scf|^2 =  2.360E-14

     End of self-consistent calculation

     Convergence has been achieved 

     Number of q in the star =    4
     List of q in the star:
          1   0.500000000  -0.500000000   0.500000000
          2   0.500000000   0.500000000   0.500000000
          3  -0.500000000   0.500000000   0.500000000
          4   0.500000000   0.500000000  -0.500000000

     Diagonalizing the dynamical matrix

     q = (    0.500000000  -0.500000000   0.500000000 ) 

 **************************************************************************
     freq (    1) =       4.810338 [THz] =     160.455610 [cm-1]
     freq (    2) =       4.810338 [THz] =     160.455610 [cm-1]
     freq (    3) =      11.808276 [THz] =     393.881695 [cm-1]
     freq (    4) =      12.071362 [THz] =     402.657294 [cm-1]
     freq (    5) =      14.606391 [THz] =     487.216775 [cm-1]
     freq (    6) =      14.606391 [THz] =     487.216775 [cm-1]
 **************************************************************************

     Calculation of q =    0.0000000   0.5000000   0.0000000

   Info: using nr1, nr2, nr3 values from input

   Info: using nr1, nr2, nr3 values from input

     Parallelization info
     --------------------
     sticks:   dense  smooth     PW     G-vecs:    dense   smooth      PW
     Min          64      64     27                  709      709     175
     Max          67      67     28                  710      710     176
     Sum         265     265    109                 2837     2837     701



     bravais-lattice index     =            2
     lattice parameter (alat)  =      10.3550  a.u.
     unit-cell volume          =     277.5814 (a.u.)^3
     number of atoms/cell      =            2
     number of atomic types    =            1
     number of electrons       =         8.00
     number of Kohn-Sham states=            4
     kinetic-energy cutoff     =      18.0000  Ry
     charge density cutoff     =      72.0000  Ry
     Exchange-correlation      = SLA  PW   PBE  PBE ( 1  4  3  4 0 0)

     celldm(1)=  10.355000  celldm(2)=   0.000000  celldm(3)=   0.000000
     celldm(4)=   0.000000  celldm(5)=   0.000000  celldm(6)=   0.000000

     crystal axes: (cart. coord. in units of alat)
               a(1) = (  -0.500000   0.000000   0.500000 )  
               a(2) = (   0.000000   0.500000   0.500000 )  
               a(3) = (  -0.500000   0.500000   0.000000 )  

     reciprocal axes: (cart. coord. in units 2 pi/alat)
               b(1) = ( -1.000000 -1.000000  1.000000 )  
               b(2) = (  1.000000  1.000000  1.000000 )  
               b(3) = ( -1.000000  1.000000 -1.000000 )  


     PseudoPot. # 1 for Si read from file:
     /home/max/quantum_espresso/qe-6.1/pseudo/si_pbe_v1.uspp.F.UPF.txt
     MD5 check sum: a056efeee980c13900f22a371efd63c1
     Pseudo is Ultrasoft + core correction, Zval =  4.0
     Generated by new atomic code, or converted to UPF format
     Using radial grid of  899 points,  6 beta functions with: 
                l(1) =   0
                l(2) =   0
                l(3) =   1
                l(4) =   1
                l(5) =   2
                l(6) =   2
     Q(r) pseudized with  8 coefficients,  rinner =    0.900   0.900   0.900
                                                       0.900   0.900

     atomic species   valence    mass     pseudopotential
        Si             4.00    28.08600     Si( 1.00)

     48 Sym. Ops., with inversion, found



   Cartesian axes

     site n.     atom                  positions (alat units)
         1           Si  tau(   1) = (   0.0000000   0.0000000   0.0000000  )
         2           Si  tau(   2) = (   0.2500000   0.2500000   0.2500000  )

     number of k points=    80
                       cart. coord. in units 2pi/alat
        k(    1) = (  -0.1250000   0.1250000   0.1250000), wk =   0.0312500
        k(    2) = (  -0.1250000   0.6250000   0.1250000), wk =   0.0000000
        k(    3) = (  -0.3750000   0.3750000  -0.1250000), wk =   0.0625000
        k(    4) = (  -0.3750000   0.8750000  -0.1250000), wk =   0.0000000
        k(    5) = (   0.3750000  -0.3750000   0.6250000), wk =   0.0625000
        k(    6) = (   0.3750000   0.1250000   0.6250000), wk =   0.0000000
        k(    7) = (   0.1250000  -0.1250000   0.3750000), wk =   0.0625000
        k(    8) = (   0.1250000   0.3750000   0.3750000), wk =   0.0000000
        k(    9) = (  -0.1250000   0.6250000   0.1250000), wk =   0.0312500
        k(   10) = (  -0.1250000   1.1250000   0.1250000), wk =   0.0000000
        k(   11) = (   0.6250000  -0.1250000   0.8750000), wk =   0.0625000
        k(   12) = (   0.6250000   0.3750000   0.8750000), wk =   0.0000000
        k(   13) = (   0.3750000   0.1250000   0.6250000), wk =   0.0625000
        k(   14) = (   0.3750000   0.6250000   0.6250000), wk =   0.0000000
        k(   15) = (  -0.1250000  -0.8750000   0.1250000), wk =   0.0312500
        k(   16) = (  -0.1250000  -0.3750000   0.1250000), wk =   0.0000000
        k(   17) = (  -0.3750000   0.3750000   0.3750000), wk =   0.0312500
        k(   18) = (  -0.3750000   0.8750000   0.3750000), wk =   0.0000000
        k(   19) = (   0.3750000  -0.3750000   1.1250000), wk =   0.0625000
        k(   20) = (   0.3750000   0.1250000   1.1250000), wk =   0.0000000
        k(   21) = (  -0.1250000  -0.1250000   0.1250000), wk =   0.0312500
        k(   22) = (  -0.1250000   0.3750000   0.1250000), wk =   0.0000000
        k(   23) = (   0.1250000  -0.3750000   0.3750000), wk =   0.0625000
        k(   24) = (   0.1250000   0.1250000   0.3750000), wk =   0.0000000
        k(   25) = (   0.3750000  -0.1250000   0.3750000), wk =   0.0312500
        k(   26) = (   0.3750000   0.3750000   0.3750000), wk =   0.0000000
        k(   27) = (   0.3750000   0.1250000   0.3750000), wk =   0.0312500
        k(   28) = (   0.3750000   0.6250000   0.3750000), wk =   0.0000000
        k(   29) = (  -0.6250000   0.3750000  -0.3750000), wk =   0.0625000
        k(   30) = (  -0.6250000   0.8750000  -0.3750000), wk =   0.0000000
        k(   31) = (  -0.3750000   0.6250000  -0.3750000), wk =   0.0312500
        k(   32) = (  -0.3750000   1.1250000  -0.3750000), wk =   0.0000000
        k(   33) = (  -0.3750000  -0.6250000  -0.3750000), wk =   0.0312500
        k(   34) = (  -0.3750000  -0.1250000  -0.3750000), wk =   0.0000000
        k(   35) = (  -0.3750000   0.1250000  -0.1250000), wk =   0.0625000
        k(   36) = (  -0.3750000   0.6250000  -0.1250000), wk =   0.0000000
        k(   37) = (  -0.1250000   0.3750000  -0.1250000), wk =   0.0312500
        k(   38) = (  -0.1250000   0.8750000  -0.1250000), wk =   0.0000000
        k(   39) = (  -0.1250000  -0.3750000  -0.1250000), wk =   0.0312500
        k(   40) = (  -0.1250000   0.1250000  -0.1250000), wk =   0.0000000
        k(   41) = (  -0.1250000  -0.6250000   0.1250000), wk =   0.0312500
        k(   42) = (  -0.1250000  -0.1250000   0.1250000), wk =   0.0000000
        k(   43) = (   0.6250000  -0.1250000  -0.1250000), wk =   0.0625000
        k(   44) = (   0.6250000   0.3750000  -0.1250000), wk =   0.0000000
        k(   45) = (   0.6250000   0.1250000   0.1250000), wk =   0.0625000
        k(   46) = (   0.6250000   0.6250000   0.1250000), wk =   0.0000000
        k(   47) = (  -0.8750000   0.1250000  -0.6250000), wk =   0.0625000
        k(   48) = (  -0.8750000   0.6250000  -0.6250000), wk =   0.0000000
        k(   49) = (  -0.1250000   0.6250000  -0.8750000), wk =   0.0625000
        k(   50) = (  -0.1250000   1.1250000  -0.8750000), wk =   0.0000000
        k(   51) = (  -0.1250000   0.8750000  -0.6250000), wk =   0.0625000
        k(   52) = (  -0.1250000   1.3750000  -0.6250000), wk =   0.0000000
        k(   53) = (  -0.1250000  -0.8750000  -0.6250000), wk =   0.0625000
        k(   54) = (  -0.1250000  -0.3750000  -0.6250000), wk =   0.0000000
        k(   55) = (   0.8750000  -0.6250000   0.1250000), wk =   0.0625000
        k(   56) = (   0.8750000  -0.1250000   0.1250000), wk =   0.0000000
        k(   57) = (  -0.6250000  -0.1250000  -0.3750000), wk =   0.0625000
        k(   58) = (  -0.6250000   0.3750000  -0.3750000), wk =   0.0000000
        k(   59) = (   0.1250000   0.3750000  -0.6250000), wk =   0.0625000
        k(   60) = (   0.1250000   0.8750000  -0.6250000), wk =   0.0000000
        k(   61) = (   0.1250000   0.6250000  -0.3750000), wk =   0.0625000
        k(   62) = (   0.1250000   1.1250000  -0.3750000), wk =   0.0000000
        k(   63) = (   0.1250000  -0.6250000  -0.3750000), wk =   0.0625000
        k(   64) = (   0.1250000  -0.1250000  -0.3750000), wk =   0.0000000
        k(   65) = (   0.6250000  -0.3750000  -0.1250000), wk =   0.0625000
        k(   66) = (   0.6250000   0.1250000  -0.1250000), wk =   0.0000000
        k(   67) = (  -0.1250000   0.8750000   0.1250000), wk =   0.0312500
        k(   68) = (  -0.1250000   1.3750000   0.1250000), wk =   0.0000000
        k(   69) = (  -0.8750000  -0.1250000  -0.1250000), wk =   0.0625000
        k(   70) = (  -0.8750000   0.3750000  -0.1250000), wk =   0.0000000
        k(   71) = (  -0.8750000   0.1250000   0.1250000), wk =   0.0625000
        k(   72) = (  -0.8750000   0.6250000   0.1250000), wk =   0.0000000
        k(   73) = (  -0.3750000  -0.3750000   0.3750000), wk =   0.0312500
        k(   74) = (  -0.3750000   0.1250000   0.3750000), wk =   0.0000000
        k(   75) = (  -1.1250000   0.3750000  -0.3750000), wk =   0.0625000
        k(   76) = (  -1.1250000   0.8750000  -0.3750000), wk =   0.0000000
        k(   77) = (  -0.3750000   1.1250000  -0.3750000), wk =   0.0312500
        k(   78) = (  -0.3750000   1.6250000  -0.3750000), wk =   0.0000000
        k(   79) = (  -0.3750000  -1.1250000  -0.3750000), wk =   0.0312500
        k(   80) = (  -0.3750000  -0.6250000  -0.3750000), wk =   0.0000000

     Dense  grid:     2837 G-vectors     FFT dimensions: (  20,  20,  20)

     Estimated max dynamical RAM per process >       0.33MB

     Estimated total allocated dynamical RAM >       1.32MB

     Check: negative/imaginary core charge=   -0.000006    0.000000

     The potential is recalculated from file :
     ./_ph0/silicon.10.355.save/charge-density.dat

     Starting wfc are    8 atomic wfcs

     Band Structure Calculation
     Davidson diagonalization with overlap

     ethr =  1.25E-10,  avg # of iterations = 11.7

     total cpu time spent up to now is        2.5 secs

     End of band structure calculation

          k =-0.1250 0.1250 0.1250 (   344 PWs)   bands (ev):

    -5.6531   4.3289   5.6383   5.6383

          k =-0.1250 0.6250 0.1250 (   351 PWs)   bands (ev):

    -4.1060   1.0037   3.3243   3.7698

          k =-0.3750 0.3750-0.1250 (   355 PWs)   bands (ev):

    -4.6349   1.3472   3.6679   5.1579

          k =-0.3750 0.8750-0.1250 (   361 PWs)   bands (ev):

    -2.4815  -0.9480   1.9868   3.0509

          k = 0.3750-0.3750 0.6250 (   361 PWs)   bands (ev):

    -3.5081  -0.7116   3.6836   4.3932

          k = 0.3750 0.1250 0.6250 (   360 PWs)   bands (ev):

    -3.6953   0.1423   2.6868   4.0438

          k = 0.1250-0.1250 0.3750 (   353 PWs)   bands (ev):

    -5.1295   2.7138   4.6381   4.6981

          k = 0.1250 0.3750 0.3750 (   355 PWs)   bands (ev):

    -4.6349   1.3472   3.6679   5.1579

          k =-0.1250 0.6250 0.1250 (   351 PWs)   bands (ev):

    -4.1060   1.0037   3.3243   3.7698

          k =-0.1250 1.1250 0.1250 (   360 PWs)   bands (ev):

    -2.6456  -0.8523   2.5884   3.3057

          k = 0.6250-0.1250 0.8750 (   361 PWs)   bands (ev):

    -2.4815  -0.9480   1.9868   3.0509

          k = 0.6250 0.3750 0.8750 (   360 PWs)   bands (ev):

    -3.6953   0.1423   2.6868   4.0438

          k = 0.3750 0.1250 0.6250 (   360 PWs)   bands (ev):

    -3.6953   0.1423   2.6868   4.0438

          k = 0.3750 0.6250 0.6250 (   361 PWs)   bands (ev):

    -3.5081  -0.7116   3.6836   4.3932

          k =-0.1250-0.8750 0.1250 (   360 PWs)   bands (ev):

    -2.6456  -0.8523   2.5884   3.3057

          k =-0.1250-0.3750 0.1250 (   353 PWs)   bands (ev):

    -5.1295   2.7138   4.6381   4.6981

          k =-0.3750 0.3750 0.3750 (   353 PWs)   bands (ev):

    -4.2070   0.0716   4.8536   4.8536

          k =-0.3750 0.8750 0.3750 (   363 PWs)   bands (ev):

    -3.0159  -0.6387   2.0409   4.0797

          k = 0.3750-0.3750 1.1250 (   363 PWs)   bands (ev):

    -3.0159  -0.6387   2.0409   4.0797

          k = 0.3750 0.1250 1.1250 (   361 PWs)   bands (ev):

    -2.4815  -0.9480   1.9868   3.0509

          k =-0.1250-0.1250 0.1250 (   344 PWs)   bands (ev):

    -5.6531   4.3289   5.6383   5.6383

          k =-0.1250 0.3750 0.1250 (   353 PWs)   bands (ev):

    -5.1295   2.7138   4.6381   4.6981

          k = 0.1250-0.3750 0.3750 (   355 PWs)   bands (ev):

    -4.6349   1.3472   3.6679   5.1579

          k = 0.1250 0.1250 0.3750 (   353 PWs)   bands (ev):

    -5.1295   2.7138   4.6381   4.6981

          k = 0.3750-0.1250 0.3750 (   355 PWs)   bands (ev):

    -4.6349   1.3472   3.6679   5.1579

          k = 0.3750 0.3750 0.3750 (   353 PWs)   bands (ev):

    -4.2070   0.0716   4.8536   4.8536

          k = 0.3750 0.1250 0.3750 (   355 PWs)   bands (ev):

    -4.6349   1.3472   3.6679   5.1579

          k = 0.3750 0.6250 0.3750 (   361 PWs)   bands (ev):

    -3.5081  -0.7116   3.6836   4.3932

          k =-0.6250 0.3750-0.3750 (   361 PWs)   bands (ev):

    -3.5081  -0.7116   3.6836   4.3932

          k =-0.6250 0.8750-0.3750 (   360 PWs)   bands (ev):

    -3.6953   0.1423   2.6868   4.0438

          k =-0.3750 0.6250-0.3750 (   361 PWs)   bands (ev):

    -3.5081  -0.7116   3.6836   4.3932

          k =-0.3750 1.1250-0.3750 (   363 PWs)   bands (ev):

    -3.0159  -0.6387   2.0409   4.0797

          k =-0.3750-0.6250-0.3750 (   361 PWs)   bands (ev):

    -3.5081  -0.7116   3.6836   4.3932

          k =-0.3750-0.1250-0.3750 (   355 PWs)   bands (ev):

    -4.6349   1.3472   3.6679   5.1579

          k =-0.3750 0.1250-0.1250 (   353 PWs)   bands (ev):

    -5.1295   2.7138   4.6381   4.6981

          k =-0.3750 0.6250-0.1250 (   360 PWs)   bands (ev):

    -3.6953   0.1423   2.6868   4.0438

          k =-0.1250 0.3750-0.1250 (   353 PWs)   bands (ev):

    -5.1295   2.7138   4.6381   4.6981

          k =-0.1250 0.8750-0.1250 (   360 PWs)   bands (ev):

    -2.6456  -0.8523   2.5884   3.3057

          k =-0.1250-0.3750-0.1250 (   353 PWs)   bands (ev):

    -5.1295   2.7138   4.6381   4.6981

          k =-0.1250 0.1250-0.1250 (   344 PWs)   bands (ev):

    -5.6531   4.3289   5.6383   5.6383

          k =-0.1250-0.6250 0.1250 (   351 PWs)   bands (ev):

    -4.1060   1.0037   3.3243   3.7698

          k =-0.1250-0.1250 0.1250 (   344 PWs)   bands (ev):

    -5.6531   4.3289   5.6383   5.6383

          k = 0.6250-0.1250-0.1250 (   351 PWs)   bands (ev):

    -4.1060   1.0037   3.3243   3.7698

          k = 0.6250 0.3750-0.1250 (   360 PWs)   bands (ev):

    -3.6953   0.1423   2.6868   4.0438

          k = 0.6250 0.1250 0.1250 (   351 PWs)   bands (ev):

    -4.1060   1.0037   3.3243   3.7698

          k = 0.6250 0.6250 0.1250 (   363 PWs)   bands (ev):

    -3.0159  -0.6387   2.0409   4.0797

          k =-0.8750 0.1250-0.6250 (   361 PWs)   bands (ev):

    -2.4815  -0.9480   1.9868   3.0509

          k =-0.8750 0.6250-0.6250 (   355 PWs)   bands (ev):

    -4.6349   1.3472   3.6679   5.1579

          k =-0.1250 0.6250-0.8750 (   361 PWs)   bands (ev):

    -2.4815  -0.9480   1.9868   3.0509

          k =-0.1250 1.1250-0.8750 (   360 PWs)   bands (ev):

    -2.6456  -0.8523   2.5884   3.3057

          k =-0.1250 0.8750-0.6250 (   361 PWs)   bands (ev):

    -2.4815  -0.9480   1.9868   3.0509

          k =-0.1250 1.3750-0.6250 (   363 PWs)   bands (ev):

    -3.0159  -0.6387   2.0409   4.0797

          k =-0.1250-0.8750-0.6250 (   361 PWs)   bands (ev):

    -2.4815  -0.9480   1.9868   3.0509

          k =-0.1250-0.3750-0.6250 (   360 PWs)   bands (ev):

    -3.6953   0.1423   2.6868   4.0438

          k = 0.8750-0.6250 0.1250 (   361 PWs)   bands (ev):

    -2.4815  -0.9480   1.9868   3.0509

          k = 0.8750-0.1250 0.1250 (   360 PWs)   bands (ev):

    -2.6456  -0.8523   2.5884   3.3057

          k =-0.6250-0.1250-0.3750 (   360 PWs)   bands (ev):

    -3.6953   0.1423   2.6868   4.0438

          k =-0.6250 0.3750-0.3750 (   361 PWs)   bands (ev):

    -3.5081  -0.7116   3.6836   4.3932

          k = 0.1250 0.3750-0.6250 (   360 PWs)   bands (ev):

    -3.6953   0.1423   2.6868   4.0438

          k = 0.1250 0.8750-0.6250 (   361 PWs)   bands (ev):

    -2.4815  -0.9480   1.9868   3.0509

          k = 0.1250 0.6250-0.3750 (   360 PWs)   bands (ev):

    -3.6953   0.1423   2.6868   4.0438

          k = 0.1250 1.1250-0.3750 (   361 PWs)   bands (ev):

    -2.4815  -0.9480   1.9868   3.0509

          k = 0.1250-0.6250-0.3750 (   360 PWs)   bands (ev):

    -3.6953   0.1423   2.6868   4.0438

          k = 0.1250-0.1250-0.3750 (   353 PWs)   bands (ev):

    -5.1295   2.7138   4.6381   4.6981

          k = 0.6250-0.3750-0.1250 (   360 PWs)   bands (ev):

    -3.6953   0.1423   2.6868   4.0438

          k = 0.6250 0.1250-0.1250 (   351 PWs)   bands (ev):

    -4.1060   1.0037   3.3243   3.7698

          k =-0.1250 0.8750 0.1250 (   360 PWs)   bands (ev):

    -2.6456  -0.8523   2.5884   3.3057

          k =-0.1250 1.3750 0.1250 (   351 PWs)   bands (ev):

    -4.1060   1.0037   3.3243   3.7698

          k =-0.8750-0.1250-0.1250 (   360 PWs)   bands (ev):

    -2.6456  -0.8523   2.5884   3.3057

          k =-0.8750 0.3750-0.1250 (   361 PWs)   bands (ev):

    -2.4815  -0.9480   1.9868   3.0509

          k =-0.8750 0.1250 0.1250 (   360 PWs)   bands (ev):

    -2.6456  -0.8523   2.5884   3.3057

          k =-0.8750 0.6250 0.1250 (   361 PWs)   bands (ev):

    -2.4815  -0.9480   1.9868   3.0509

          k =-0.3750-0.3750 0.3750 (   353 PWs)   bands (ev):

    -4.2070   0.0716   4.8536   4.8536

          k =-0.3750 0.1250 0.3750 (   355 PWs)   bands (ev):

    -4.6349   1.3472   3.6679   5.1579

          k =-1.1250 0.3750-0.3750 (   363 PWs)   bands (ev):

    -3.0159  -0.6387   2.0409   4.0797

          k =-1.1250 0.8750-0.3750 (   351 PWs)   bands (ev):

    -4.1060   1.0037   3.3243   3.7698

          k =-0.3750 1.1250-0.3750 (   363 PWs)   bands (ev):

    -3.0159  -0.6387   2.0409   4.0797

          k =-0.3750 1.6250-0.3750 (   353 PWs)   bands (ev):

    -4.2070   0.0716   4.8536   4.8536

          k =-0.3750-1.1250-0.3750 (   363 PWs)   bands (ev):

    -3.0159  -0.6387   2.0409   4.0797

          k =-0.3750-0.6250-0.3750 (   361 PWs)   bands (ev):

    -3.5081  -0.7116   3.6836   4.3932

     highest occupied level (ev):     5.6383

     Writing output data file silicon.10.355.save

                                                                                

     bravais-lattice index     =            2
     lattice parameter (alat)  =      10.3550  a.u.
     unit-cell volume          =     277.5814 (a.u.)^3
     number of atoms/cell      =            2
     number of atomic types    =            1
     kinetic-energy cut-off    =      18.0000  Ry
     charge density cut-off    =      72.0000  Ry
     convergence threshold     =      1.0E-12
     beta                      =       0.7000
     number of iterations used =            4
     Exchange-correlation      = SLA  PW   PBE  PBE ( 1  4  3  4 0 0)


     celldm(1)=   10.35500  celldm(2)=    0.00000  celldm(3)=    0.00000
     celldm(4)=    0.00000  celldm(5)=    0.00000  celldm(6)=    0.00000

     crystal axes: (cart. coord. in units of alat)
               a(1) = ( -0.5000  0.0000  0.5000 )  
               a(2) = (  0.0000  0.5000  0.5000 )  
               a(3) = ( -0.5000  0.5000  0.0000 )  

     reciprocal axes: (cart. coord. in units 2 pi/alat)
               b(1) = ( -1.0000 -1.0000  1.0000 )  
               b(2) = (  1.0000  1.0000  1.0000 )  
               b(3) = ( -1.0000  1.0000 -1.0000 )  


     Atoms inside the unit cell: 

     Cartesian axes

     site n.  atom      mass           positions (alat units)
        1     Si  28.0860   tau(    1) = (    0.00000    0.00000    0.00000  )
        2     Si  28.0860   tau(    2) = (    0.25000    0.25000    0.25000  )

     Computing dynamical matrix for 
                    q = (   0.0000000   0.5000000   0.0000000 )

      8 Sym.Ops. (no q -> -q+G )


     G cutoff =  195.5568  (    710 G-vectors)     FFT grid: ( 20, 20, 20)
     number of k points=    80

     PseudoPot. # 1 for Si read from file:
     /home/max/quantum_espresso/qe-6.1/pseudo/si_pbe_v1.uspp.F.UPF.txt
     MD5 check sum: a056efeee980c13900f22a371efd63c1
     Pseudo is Ultrasoft + core correction, Zval =  4.0
     Generated by new atomic code, or converted to UPF format
     Using radial grid of  899 points,  6 beta functions with: 
                l(1) =   0
                l(2) =   0
                l(3) =   1
                l(4) =   1
                l(5) =   2
                l(6) =   2
     Q(r) pseudized with  8 coefficients,  rinner =    0.900   0.900   0.900
                                                       0.900   0.900

     Mode symmetry, C_4v (4mm)  point group:


     Atomic displacements:
     There are   4 irreducible representations

     Representation     1      1 modes -A_1  G_1 D_1  To be done

     Representation     2      1 modes -B_2  G_4 D_2'  To be done

     Representation     3      2 modes -E    G_5 D_5  To be done

     Representation     4      2 modes -E    G_5 D_5  To be done



     Alpha used in Ewald sum =   0.7000
     PHONON       :    22.85s CPU        25.96s WALL



     Representation #  1 mode #   1

     Self-consistent Calculation

      iter #   1 total cpu time :    26.1 secs   av.it.:   5.8
      thresh= 1.000E-02 alpha_mix =  0.700 |ddv_scf|^2 =  2.956E-03

      iter #   2 total cpu time :    26.3 secs   av.it.:   7.6
      thresh= 5.437E-03 alpha_mix =  0.700 |ddv_scf|^2 =  3.900E-02

      iter #   3 total cpu time :    26.7 secs   av.it.:   6.7
      thresh= 1.000E-02 alpha_mix =  0.700 |ddv_scf|^2 =  1.495E-07

      iter #   4 total cpu time :    26.9 secs   av.it.:   8.1
      thresh= 3.867E-05 alpha_mix =  0.700 |ddv_scf|^2 =  1.438E-08

      iter #   5 total cpu time :    27.1 secs   av.it.:   7.8
      thresh= 1.199E-05 alpha_mix =  0.700 |ddv_scf|^2 =  7.166E-10

      iter #   6 total cpu time :    27.3 secs   av.it.:   7.9
      thresh= 2.677E-06 alpha_mix =  0.700 |ddv_scf|^2 =  2.913E-12

      iter #   7 total cpu time :    27.5 secs   av.it.:   7.9
      thresh= 1.707E-07 alpha_mix =  0.700 |ddv_scf|^2 =  5.554E-13

     End of self-consistent calculation

     Convergence has been achieved 


     Representation #  2 mode #   2

     Self-consistent Calculation

      iter #   1 total cpu time :    27.7 secs   av.it.:   4.9
      thresh= 1.000E-02 alpha_mix =  0.700 |ddv_scf|^2 =  5.514E-06

      iter #   2 total cpu time :    27.9 secs   av.it.:   8.7
      thresh= 2.348E-04 alpha_mix =  0.700 |ddv_scf|^2 =  1.349E-06

      iter #   3 total cpu time :    28.2 secs   av.it.:   8.5
      thresh= 1.161E-04 alpha_mix =  0.700 |ddv_scf|^2 =  4.339E-08

      iter #   4 total cpu time :    28.4 secs   av.it.:   8.2
      thresh= 2.083E-05 alpha_mix =  0.700 |ddv_scf|^2 =  7.335E-10

      iter #   5 total cpu time :    28.7 secs   av.it.:   8.6
      thresh= 2.708E-06 alpha_mix =  0.700 |ddv_scf|^2 =  6.958E-12

      iter #   6 total cpu time :    29.0 secs   av.it.:   7.9
      thresh= 2.638E-07 alpha_mix =  0.700 |ddv_scf|^2 =  7.501E-14

     End of self-consistent calculation

     Convergence has been achieved 


     Representation #  3 modes #   3  4

     Self-consistent Calculation

      iter #   1 total cpu time :    29.3 secs   av.it.:   5.0
      thresh= 1.000E-02 alpha_mix =  0.700 |ddv_scf|^2 =  1.023E-06

      iter #   2 total cpu time :    29.8 secs   av.it.:   9.7
      thresh= 1.012E-04 alpha_mix =  0.700 |ddv_scf|^2 =  1.269E-07

      iter #   3 total cpu time :    30.2 secs   av.it.:   9.5
      thresh= 3.563E-05 alpha_mix =  0.700 |ddv_scf|^2 =  6.771E-09

      iter #   4 total cpu time :    30.8 secs   av.it.:   8.8
      thresh= 8.228E-06 alpha_mix =  0.700 |ddv_scf|^2 =  9.618E-12

      iter #   5 total cpu time :    31.3 secs   av.it.:   9.2
      thresh= 3.101E-07 alpha_mix =  0.700 |ddv_scf|^2 =  3.021E-13

     End of self-consistent calculation

     Convergence has been achieved 


     Representation #  4 modes #   5  6

     Self-consistent Calculation

      iter #   1 total cpu time :    31.6 secs   av.it.:   5.0
      thresh= 1.000E-02 alpha_mix =  0.700 |ddv_scf|^2 =  9.398E-07

      iter #   2 total cpu time :    32.1 secs   av.it.:   9.8
      thresh= 9.694E-05 alpha_mix =  0.700 |ddv_scf|^2 =  1.190E-07

      iter #   3 total cpu time :    32.7 secs   av.it.:   9.4
      thresh= 3.449E-05 alpha_mix =  0.700 |ddv_scf|^2 =  7.098E-09

      iter #   4 total cpu time :    33.2 secs   av.it.:   8.9
      thresh= 8.425E-06 alpha_mix =  0.700 |ddv_scf|^2 =  1.494E-11

      iter #   5 total cpu time :    33.6 secs   av.it.:   9.2
      thresh= 3.865E-07 alpha_mix =  0.700 |ddv_scf|^2 =  4.457E-14

     End of self-consistent calculation

     Convergence has been achieved 

     Number of q in the star =    6
     List of q in the star:
          1   0.000000000   0.500000000   0.000000000
          2   0.000000000  -0.500000000   0.000000000
          3   0.500000000   0.000000000   0.000000000
          4   0.000000000   0.000000000   0.500000000
          5   0.000000000   0.000000000  -0.500000000
          6  -0.500000000   0.000000000   0.000000000

     Diagonalizing the dynamical matrix

     q = (    0.000000000   0.500000000   0.000000000 ) 

 **************************************************************************
     freq (    1) =       4.302219 [THz] =     143.506571 [cm-1]
     freq (    2) =       4.302219 [THz] =     143.506571 [cm-1]
     freq (    3) =       7.119885 [THz] =     237.493800 [cm-1]
     freq (    4) =      13.978027 [THz] =     466.256809 [cm-1]
     freq (    5) =      13.978027 [THz] =     466.256809 [cm-1]
     freq (    6) =      14.620298 [THz] =     487.680661 [cm-1]
 **************************************************************************

     Mode symmetry, C_4v (4mm)  point group:

     freq (  1 -  2) =        143.5  [cm-1]   --> E    G_5 D_5       
     freq (  3 -  3) =        237.5  [cm-1]   --> A_1  G_1 D_1       
     freq (  4 -  5) =        466.3  [cm-1]   --> E    G_5 D_5       
     freq (  6 -  6) =        487.7  [cm-1]   --> B_2  G_4 D_2'      

     Calculation of q =    0.7500000  -0.2500000   0.7500000

   Info: using nr1, nr2, nr3 values from input

   Info: using nr1, nr2, nr3 values from input

     Parallelization info
     --------------------
     sticks:   dense  smooth     PW     G-vecs:    dense   smooth      PW
     Min          64      64     30                  709      709     216
     Max          67      67     31                  710      710     218
     Sum         265     265    121                 2837     2837     869



     bravais-lattice index     =            2
     lattice parameter (alat)  =      10.3550  a.u.
     unit-cell volume          =     277.5814 (a.u.)^3
     number of atoms/cell      =            2
     number of atomic types    =            1
     number of electrons       =         8.00
     number of Kohn-Sham states=            4
     kinetic-energy cutoff     =      18.0000  Ry
     charge density cutoff     =      72.0000  Ry
     Exchange-correlation      = SLA  PW   PBE  PBE ( 1  4  3  4 0 0)

     celldm(1)=  10.355000  celldm(2)=   0.000000  celldm(3)=   0.000000
     celldm(4)=   0.000000  celldm(5)=   0.000000  celldm(6)=   0.000000

     crystal axes: (cart. coord. in units of alat)
               a(1) = (  -0.500000   0.000000   0.500000 )  
               a(2) = (   0.000000   0.500000   0.500000 )  
               a(3) = (  -0.500000   0.500000   0.000000 )  

     reciprocal axes: (cart. coord. in units 2 pi/alat)
               b(1) = ( -1.000000 -1.000000  1.000000 )  
               b(2) = (  1.000000  1.000000  1.000000 )  
               b(3) = ( -1.000000  1.000000 -1.000000 )  


     PseudoPot. # 1 for Si read from file:
     /home/max/quantum_espresso/qe-6.1/pseudo/si_pbe_v1.uspp.F.UPF.txt
     MD5 check sum: a056efeee980c13900f22a371efd63c1
     Pseudo is Ultrasoft + core correction, Zval =  4.0
     Generated by new atomic code, or converted to UPF format
     Using radial grid of  899 points,  6 beta functions with: 
                l(1) =   0
                l(2) =   0
                l(3) =   1
                l(4) =   1
                l(5) =   2
                l(6) =   2
     Q(r) pseudized with  8 coefficients,  rinner =    0.900   0.900   0.900
                                                       0.900   0.900

     atomic species   valence    mass     pseudopotential
        Si             4.00    28.08600     Si( 1.00)

     48 Sym. Ops., with inversion, found



   Cartesian axes

     site n.     atom                  positions (alat units)
         1           Si  tau(   1) = (   0.0000000   0.0000000   0.0000000  )
         2           Si  tau(   2) = (   0.2500000   0.2500000   0.2500000  )

     number of k points=   288

     Number of k-points >= 100: set verbosity='high' to print them.

     Dense  grid:     2837 G-vectors     FFT dimensions: (  20,  20,  20)

     Estimated max dynamical RAM per process >       0.33MB

     Estimated total allocated dynamical RAM >       1.32MB

     Check: negative/imaginary core charge=   -0.000006    0.000000

     The potential is recalculated from file :
     ./_ph0/silicon.10.355.save/charge-density.dat

     Starting wfc are    8 atomic wfcs

     Band Structure Calculation
     Davidson diagonalization with overlap

     ethr =  1.25E-10,  avg # of iterations = 11.6

     total cpu time spent up to now is        4.9 secs

     End of band structure calculation

     Number of k-points >= 100: set verbosity='high' to print the bands.

     highest occupied level (ev):     5.6383

     Writing output data file silicon.10.355.save

                                                                                

     bravais-lattice index     =            2
     lattice parameter (alat)  =      10.3550  a.u.
     unit-cell volume          =     277.5814 (a.u.)^3
     number of atoms/cell      =            2
     number of atomic types    =            1
     kinetic-energy cut-off    =      18.0000  Ry
     charge density cut-off    =      72.0000  Ry
     convergence threshold     =      1.0E-12
     beta                      =       0.7000
     number of iterations used =            4
     Exchange-correlation      = SLA  PW   PBE  PBE ( 1  4  3  4 0 0)


     celldm(1)=   10.35500  celldm(2)=    0.00000  celldm(3)=    0.00000
     celldm(4)=    0.00000  celldm(5)=    0.00000  celldm(6)=    0.00000

     crystal axes: (cart. coord. in units of alat)
               a(1) = ( -0.5000  0.0000  0.5000 )  
               a(2) = (  0.0000  0.5000  0.5000 )  
               a(3) = ( -0.5000  0.5000  0.0000 )  

     reciprocal axes: (cart. coord. in units 2 pi/alat)
               b(1) = ( -1.0000 -1.0000  1.0000 )  
               b(2) = (  1.0000  1.0000  1.0000 )  
               b(3) = ( -1.0000  1.0000 -1.0000 )  


     Atoms inside the unit cell: 

     Cartesian axes

     site n.  atom      mass           positions (alat units)
        1     Si  28.0860   tau(    1) = (    0.00000    0.00000    0.00000  )
        2     Si  28.0860   tau(    2) = (    0.25000    0.25000    0.25000  )

     Computing dynamical matrix for 
                    q = (   0.7500000  -0.2500000   0.7500000 )

      2 Sym.Ops. (no q -> -q+G )


     G cutoff =  195.5568  (    710 G-vectors)     FFT grid: ( 20, 20, 20)
     number of k points=   288

     PseudoPot. # 1 for Si read from file:
     /home/max/quantum_espresso/qe-6.1/pseudo/si_pbe_v1.uspp.F.UPF.txt
     MD5 check sum: a056efeee980c13900f22a371efd63c1
     Pseudo is Ultrasoft + core correction, Zval =  4.0
     Generated by new atomic code, or converted to UPF format
     Using radial grid of  899 points,  6 beta functions with: 
                l(1) =   0
                l(2) =   0
                l(3) =   1
                l(4) =   1
                l(5) =   2
                l(6) =   2
     Q(r) pseudized with  8 coefficients,  rinner =    0.900   0.900   0.900
                                                       0.900   0.900

     Mode symmetry, C_s (m)     point group:


     Atomic displacements:
     There are   6 irreducible representations

     Representation     1      1 modes -A'  To be done

     Representation     2      1 modes -A'  To be done

     Representation     3      1 modes -A'  To be done

     Representation     4      1 modes -A'  To be done

     Representation     5      1 modes -A''  To be done

     Representation     6      1 modes -A''  To be done



     Alpha used in Ewald sum =   0.7000
     PHONON       :    32.42s CPU        37.00s WALL



     Representation #  1 mode #   1

     Self-consistent Calculation

      iter #   1 total cpu time :    37.6 secs   av.it.:   5.3
      thresh= 1.000E-02 alpha_mix =  0.700 |ddv_scf|^2 =  6.106E-05

      iter #   2 total cpu time :    38.3 secs   av.it.:   8.9
      thresh= 7.814E-04 alpha_mix =  0.700 |ddv_scf|^2 =  1.603E-04

      iter #   3 total cpu time :    39.2 secs   av.it.:   7.6
      thresh= 1.266E-03 alpha_mix =  0.700 |ddv_scf|^2 =  1.147E-06

      iter #   4 total cpu time :    39.9 secs   av.it.:   8.4
      thresh= 1.071E-04 alpha_mix =  0.700 |ddv_scf|^2 =  6.267E-08

      iter #   5 total cpu time :    40.8 secs   av.it.:   8.3
      thresh= 2.503E-05 alpha_mix =  0.700 |ddv_scf|^2 =  7.592E-09

      iter #   6 total cpu time :    41.5 secs   av.it.:   8.5
      thresh= 8.713E-06 alpha_mix =  0.700 |ddv_scf|^2 =  8.506E-11

      iter #   7 total cpu time :    42.3 secs   av.it.:   8.8
      thresh= 9.223E-07 alpha_mix =  0.700 |ddv_scf|^2 =  3.064E-12

      iter #   8 total cpu time :    43.2 secs   av.it.:   8.6
      thresh= 1.750E-07 alpha_mix =  0.700 |ddv_scf|^2 =  1.892E-13

     End of self-consistent calculation

     Convergence has been achieved 


     Representation #  2 mode #   2

     Self-consistent Calculation

      iter #   1 total cpu time :    43.8 secs   av.it.:   5.4
      thresh= 1.000E-02 alpha_mix =  0.700 |ddv_scf|^2 =  1.086E-04

      iter #   2 total cpu time :    44.8 secs   av.it.:   8.7
      thresh= 1.042E-03 alpha_mix =  0.700 |ddv_scf|^2 =  3.101E-04

      iter #   3 total cpu time :    45.5 secs   av.it.:   7.4
      thresh= 1.761E-03 alpha_mix =  0.700 |ddv_scf|^2 =  7.971E-07

      iter #   4 total cpu time :    46.2 secs   av.it.:   8.6
      thresh= 8.928E-05 alpha_mix =  0.700 |ddv_scf|^2 =  6.097E-08

      iter #   5 total cpu time :    47.1 secs   av.it.:   8.2
      thresh= 2.469E-05 alpha_mix =  0.700 |ddv_scf|^2 =  1.086E-08

      iter #   6 total cpu time :    47.9 secs   av.it.:   8.5
      thresh= 1.042E-05 alpha_mix =  0.700 |ddv_scf|^2 =  8.470E-11

      iter #   7 total cpu time :    48.9 secs   av.it.:   8.7
      thresh= 9.203E-07 alpha_mix =  0.700 |ddv_scf|^2 =  2.736E-12

      iter #   8 total cpu time :    49.6 secs   av.it.:   8.7
      thresh= 1.654E-07 alpha_mix =  0.700 |ddv_scf|^2 =  7.500E-13

     End of self-consistent calculation

     Convergence has been achieved 


     Representation #  3 mode #   3

     Self-consistent Calculation

      iter #   1 total cpu time :    50.3 secs   av.it.:   5.3
      thresh= 1.000E-02 alpha_mix =  0.700 |ddv_scf|^2 =  8.521E-05

      iter #   2 total cpu time :    51.2 secs   av.it.:   8.8
      thresh= 9.231E-04 alpha_mix =  0.700 |ddv_scf|^2 =  2.274E-04

      iter #   3 total cpu time :    51.9 secs   av.it.:   7.4
      thresh= 1.508E-03 alpha_mix =  0.700 |ddv_scf|^2 =  1.357E-06

      iter #   4 total cpu time :    52.8 secs   av.it.:   8.2
      thresh= 1.165E-04 alpha_mix =  0.700 |ddv_scf|^2 =  6.261E-08

      iter #   5 total cpu time :    53.6 secs   av.it.:   8.4
      thresh= 2.502E-05 alpha_mix =  0.700 |ddv_scf|^2 =  1.120E-08

      iter #   6 total cpu time :    54.3 secs   av.it.:   8.5
      thresh= 1.058E-05 alpha_mix =  0.700 |ddv_scf|^2 =  4.825E-11

      iter #   7 total cpu time :    55.3 secs   av.it.:   8.7
      thresh= 6.946E-07 alpha_mix =  0.700 |ddv_scf|^2 =  1.748E-12

      iter #   8 total cpu time :    56.1 secs   av.it.:   8.8
      thresh= 1.322E-07 alpha_mix =  0.700 |ddv_scf|^2 =  3.012E-13

     End of self-consistent calculation

     Convergence has been achieved 


     Representation #  4 mode #   4

     Self-consistent Calculation

      iter #   1 total cpu time :    56.9 secs   av.it.:   5.2
      thresh= 1.000E-02 alpha_mix =  0.700 |ddv_scf|^2 =  3.767E-05

      iter #   2 total cpu time :    57.7 secs   av.it.:   8.9
[...]
        k(   59) = (  -0.8750000   0.1250000  -0.1250000), wk =   0.0625000
        k(   60) = (  -1.3750000  -0.8750000  -0.1250000), wk =   0.0000000
        k(   61) = (  -1.1250000   0.3750000  -0.3750000), wk =   0.0625000
        k(   62) = (  -1.6250000  -0.6250000  -0.3750000), wk =   0.0000000
        k(   63) = (  -0.3750000   0.3750000   1.1250000), wk =   0.0625000
        k(   64) = (  -0.8750000  -0.6250000   1.1250000), wk =   0.0000000

     Dense  grid:     2837 G-vectors     FFT dimensions: (  20,  20,  20)

     Estimated max dynamical RAM per process >       0.33MB

     Estimated total allocated dynamical RAM >       1.32MB

     Check: negative/imaginary core charge=   -0.000006    0.000000

     The potential is recalculated from file :
     ./_ph0/silicon.10.355.save/charge-density.dat

     Starting wfc are    8 atomic wfcs

     Band Structure Calculation
     Davidson diagonalization with overlap

     ethr =  1.25E-10,  avg # of iterations = 11.6

     total cpu time spent up to now is        7.6 secs

     End of band structure calculation

          k =-0.1250 0.1250 0.1250 (   344 PWs)   bands (ev):

    -5.6531   4.3289   5.6383   5.6383

          k =-0.6250-0.8750 0.1250 (   361 PWs)   bands (ev):

    -2.4815  -0.9480   1.9868   3.0509

          k =-0.3750 0.3750-0.1250 (   355 PWs)   bands (ev):

    -4.6349   1.3472   3.6679   5.1579

          k =-0.8750-0.6250-0.1250 (   361 PWs)   bands (ev):

    -2.4815  -0.9480   1.9868   3.0509

          k = 0.3750-0.3750 0.6250 (   361 PWs)   bands (ev):

    -3.5081  -0.7116   3.6836   4.3932

          k =-0.1250-1.3750 0.6250 (   363 PWs)   bands (ev):

    -3.0159  -0.6387   2.0409   4.0797

          k = 0.1250-0.1250 0.3750 (   353 PWs)   bands (ev):

    -5.1295   2.7138   4.6381   4.6981

          k =-0.3750-1.1250 0.3750 (   363 PWs)   bands (ev):

    -3.0159  -0.6387   2.0409   4.0797

          k =-0.1250 0.6250 0.1250 (   351 PWs)   bands (ev):

    -4.1060   1.0037   3.3243   3.7698

          k =-0.6250-0.3750 0.1250 (   360 PWs)   bands (ev):

    -3.6953   0.1423   2.6868   4.0438

          k = 0.6250-0.1250 0.8750 (   361 PWs)   bands (ev):

    -2.4815  -0.9480   1.9868   3.0509

          k = 0.1250-1.1250 0.8750 (   360 PWs)   bands (ev):

    -2.6456  -0.8523   2.5884   3.3057

          k = 0.3750 0.1250 0.6250 (   360 PWs)   bands (ev):

    -3.6953   0.1423   2.6868   4.0438

          k =-0.1250-0.8750 0.6250 (   361 PWs)   bands (ev):

    -2.4815  -0.9480   1.9868   3.0509

          k =-0.1250-0.8750 0.1250 (   360 PWs)   bands (ev):

    -2.6456  -0.8523   2.5884   3.3057

          k =-0.6250-1.8750 0.1250 (   351 PWs)   bands (ev):

    -4.1060   1.0037   3.3243   3.7698

          k =-0.3750 0.3750 0.3750 (   353 PWs)   bands (ev):

    -4.2070   0.0716   4.8536   4.8536

          k =-0.8750-0.6250 0.3750 (   360 PWs)   bands (ev):

    -3.6953   0.1423   2.6868   4.0438

          k = 0.3750-0.3750 1.1250 (   363 PWs)   bands (ev):

    -3.0159  -0.6387   2.0409   4.0797

          k =-0.1250-1.3750 1.1250 (   361 PWs)   bands (ev):

    -2.4815  -0.9480   1.9868   3.0509

          k = 0.1250-0.3750 0.3750 (   355 PWs)   bands (ev):

    -4.6349   1.3472   3.6679   5.1579

          k =-0.3750-1.3750 0.3750 (   361 PWs)   bands (ev):

    -3.5081  -0.7116   3.6836   4.3932

          k = 0.3750-0.3750-0.1250 (   355 PWs)   bands (ev):

    -4.6349   1.3472   3.6679   5.1579

          k =-0.1250-1.3750-0.1250 (   351 PWs)   bands (ev):

    -4.1060   1.0037   3.3243   3.7698

          k =-0.6250 0.3750-0.3750 (   361 PWs)   bands (ev):

    -3.5081  -0.7116   3.6836   4.3932

          k =-1.1250-0.6250-0.3750 (   360 PWs)   bands (ev):

    -3.6953   0.1423   2.6868   4.0438

          k =-0.3750 0.3750 0.6250 (   361 PWs)   bands (ev):

    -3.5081  -0.7116   3.6836   4.3932

          k =-0.8750-0.6250 0.6250 (   355 PWs)   bands (ev):

    -4.6349   1.3472   3.6679   5.1579

          k =-0.3750 0.1250-0.1250 (   353 PWs)   bands (ev):

    -5.1295   2.7138   4.6381   4.6981

          k =-0.8750-0.8750-0.1250 (   360 PWs)   bands (ev):

    -2.6456  -0.8523   2.5884   3.3057

          k =-0.1250 0.1250 0.3750 (   353 PWs)   bands (ev):

    -5.1295   2.7138   4.6381   4.6981

          k =-0.6250-0.8750 0.3750 (   360 PWs)   bands (ev):

    -3.6953   0.1423   2.6868   4.0438

          k = 0.1250 0.6250-0.1250 (   351 PWs)   bands (ev):

    -4.1060   1.0037   3.3243   3.7698

          k =-0.3750-0.3750-0.1250 (   355 PWs)   bands (ev):

    -4.6349   1.3472   3.6679   5.1579

          k = 0.6250 0.1250-0.1250 (   351 PWs)   bands (ev):

    -4.1060   1.0037   3.3243   3.7698

          k = 0.1250-0.8750-0.1250 (   360 PWs)   bands (ev):

    -2.6456  -0.8523   2.5884   3.3057

          k =-0.8750 0.1250-0.6250 (   361 PWs)   bands (ev):

    -2.4815  -0.9480   1.9868   3.0509

          k =-1.3750-0.8750-0.6250 (   355 PWs)   bands (ev):

    -4.6349   1.3472   3.6679   5.1579

          k = 0.8750-0.1250 0.6250 (   361 PWs)   bands (ev):

    -2.4815  -0.9480   1.9868   3.0509

          k = 0.3750-1.1250 0.6250 (   360 PWs)   bands (ev):

    -3.6953   0.1423   2.6868   4.0438

          k =-0.6250 0.1250 0.8750 (   361 PWs)   bands (ev):

    -2.4815  -0.9480   1.9868   3.0509

          k =-1.1250-0.8750 0.8750 (   344 PWs)   bands (ev):

    -5.6531   4.3289   5.6383   5.6383

          k =-0.1250 0.8750 0.6250 (   361 PWs)   bands (ev):

    -2.4815  -0.9480   1.9868   3.0509

          k =-0.6250-0.1250 0.6250 (   363 PWs)   bands (ev):

    -3.0159  -0.6387   2.0409   4.0797

          k = 0.1250 0.8750-0.6250 (   361 PWs)   bands (ev):

    -2.4815  -0.9480   1.9868   3.0509

          k =-0.3750-0.1250-0.6250 (   360 PWs)   bands (ev):

    -3.6953   0.1423   2.6868   4.0438

          k =-0.6250-0.1250-0.3750 (   360 PWs)   bands (ev):

    -3.6953   0.1423   2.6868   4.0438

          k =-1.1250-1.1250-0.3750 (   351 PWs)   bands (ev):

    -4.1060   1.0037   3.3243   3.7698

          k = 0.6250 0.1250 0.3750 (   360 PWs)   bands (ev):

    -3.6953   0.1423   2.6868   4.0438

          k = 0.1250-0.8750 0.3750 (   361 PWs)   bands (ev):

    -2.4815  -0.9480   1.9868   3.0509

          k =-0.3750-0.1250 0.6250 (   360 PWs)   bands (ev):

    -3.6953   0.1423   2.6868   4.0438

          k =-0.8750-1.1250 0.6250 (   353 PWs)   bands (ev):

    -5.1295   2.7138   4.6381   4.6981

          k = 0.1250 0.6250 0.3750 (   360 PWs)   bands (ev):

    -3.6953   0.1423   2.6868   4.0438

          k =-0.3750-0.3750 0.3750 (   353 PWs)   bands (ev):

    -4.2070   0.0716   4.8536   4.8536

          k =-0.1250 0.6250-0.3750 (   360 PWs)   bands (ev):

    -3.6953   0.1423   2.6868   4.0438

          k =-0.6250-0.3750-0.3750 (   361 PWs)   bands (ev):

    -3.5081  -0.7116   3.6836   4.3932

          k = 0.1250-0.8750-0.1250 (   360 PWs)   bands (ev):

    -2.6456  -0.8523   2.5884   3.3057

          k =-0.3750-1.8750-0.1250 (   353 PWs)   bands (ev):

    -5.1295   2.7138   4.6381   4.6981

          k =-0.8750 0.1250-0.1250 (   360 PWs)   bands (ev):

    -2.6456  -0.8523   2.5884   3.3057

          k =-1.3750-0.8750-0.1250 (   361 PWs)   bands (ev):

    -2.4815  -0.9480   1.9868   3.0509

          k =-1.1250 0.3750-0.3750 (   363 PWs)   bands (ev):

    -3.0159  -0.6387   2.0409   4.0797

          k =-1.6250-0.6250-0.3750 (   361 PWs)   bands (ev):

    -3.5081  -0.7116   3.6836   4.3932

          k =-0.3750 0.3750 1.1250 (   363 PWs)   bands (ev):

    -3.0159  -0.6387   2.0409   4.0797

          k =-0.8750-0.6250 1.1250 (   353 PWs)   bands (ev):

    -5.1295   2.7138   4.6381   4.6981

     highest occupied level (ev):     5.6383

     Writing output data file silicon.10.355.save

                                                                                

     bravais-lattice index     =            2
     lattice parameter (alat)  =      10.3550  a.u.
     unit-cell volume          =     277.5814 (a.u.)^3
     number of atoms/cell      =            2
     number of atomic types    =            1
     kinetic-energy cut-off    =      18.0000  Ry
     charge density cut-off    =      72.0000  Ry
     convergence threshold     =      1.0E-12
     beta                      =       0.7000
     number of iterations used =            4
     Exchange-correlation      = SLA  PW   PBE  PBE ( 1  4  3  4 0 0)


     celldm(1)=   10.35500  celldm(2)=    0.00000  celldm(3)=    0.00000
     celldm(4)=    0.00000  celldm(5)=    0.00000  celldm(6)=    0.00000

     crystal axes: (cart. coord. in units of alat)
               a(1) = ( -0.5000  0.0000  0.5000 )  
               a(2) = (  0.0000  0.5000  0.5000 )  
               a(3) = ( -0.5000  0.5000  0.0000 )  

     reciprocal axes: (cart. coord. in units 2 pi/alat)
               b(1) = ( -1.0000 -1.0000  1.0000 )  
               b(2) = (  1.0000  1.0000  1.0000 )  
               b(3) = ( -1.0000  1.0000 -1.0000 )  


     Atoms inside the unit cell: 

     Cartesian axes

     site n.  atom      mass           positions (alat units)
        1     Si  28.0860   tau(    1) = (    0.00000    0.00000    0.00000  )
        2     Si  28.0860   tau(    2) = (    0.25000    0.25000    0.25000  )

     Computing dynamical matrix for 
                    q = (  -0.5000000  -1.0000000   0.0000000 )

      8 Sym.Ops. (no q -> -q+G )


     G cutoff =  195.5568  (    710 G-vectors)     FFT grid: ( 20, 20, 20)
     number of k points=    64

     PseudoPot. # 1 for Si read from file:
     /home/max/quantum_espresso/qe-6.1/pseudo/si_pbe_v1.uspp.F.UPF.txt
     MD5 check sum: a056efeee980c13900f22a371efd63c1
     Pseudo is Ultrasoft + core correction, Zval =  4.0
     Generated by new atomic code, or converted to UPF format
     Using radial grid of  899 points,  6 beta functions with: 
                l(1) =   0
                l(2) =   0
                l(3) =   1
                l(4) =   1
                l(5) =   2
                l(6) =   2
     Q(r) pseudized with  8 coefficients,  rinner =    0.900   0.900   0.900
                                                       0.900   0.900


     Atomic displacements:
     There are   3 irreducible representations

     Representation     1      2 modes -  To be done

     Representation     2      2 modes -  To be done

     Representation     3      2 modes -  To be done



     Alpha used in Ewald sum =   0.7000
     PHONON       :  1m21.35s CPU     1m32.46s WALL



     Representation #  1 modes #   1  2

     Self-consistent Calculation

      iter #   1 total cpu time :    92.9 secs   av.it.:   5.3
      thresh= 1.000E-02 alpha_mix =  0.700 |ddv_scf|^2 =  6.343E-06

      iter #   2 total cpu time :    93.3 secs   av.it.:   9.9
      thresh= 2.519E-04 alpha_mix =  0.700 |ddv_scf|^2 =  3.418E-06

      iter #   3 total cpu time :    93.7 secs   av.it.:   9.3
      thresh= 1.849E-04 alpha_mix =  0.700 |ddv_scf|^2 =  9.134E-09

      iter #   4 total cpu time :    94.1 secs   av.it.:   9.0
      thresh= 9.557E-06 alpha_mix =  0.700 |ddv_scf|^2 =  1.964E-11

      iter #   5 total cpu time :    94.4 secs   av.it.:   9.2
      thresh= 4.431E-07 alpha_mix =  0.700 |ddv_scf|^2 =  5.758E-13

     End of self-consistent calculation

     Convergence has been achieved 


     Representation #  2 modes #   3  4

     Self-consistent Calculation

      iter #   1 total cpu time :    94.9 secs   av.it.:   5.2
      thresh= 1.000E-02 alpha_mix =  0.700 |ddv_scf|^2 =  9.787E-06

      iter #   2 total cpu time :    95.3 secs   av.it.:   9.9
      thresh= 3.128E-04 alpha_mix =  0.700 |ddv_scf|^2 =  1.311E-05

      iter #   3 total cpu time :    95.7 secs   av.it.:   9.1
      thresh= 3.620E-04 alpha_mix =  0.700 |ddv_scf|^2 =  1.065E-08

      iter #   4 total cpu time :    96.0 secs   av.it.:   8.8
      thresh= 1.032E-05 alpha_mix =  0.700 |ddv_scf|^2 =  8.721E-11

      iter #   5 total cpu time :    96.4 secs   av.it.:   9.4
      thresh= 9.339E-07 alpha_mix =  0.700 |ddv_scf|^2 =  1.834E-12

      iter #   6 total cpu time :    97.0 secs   av.it.:   9.1
      thresh= 1.354E-07 alpha_mix =  0.700 |ddv_scf|^2 =  1.507E-14

     End of self-consistent calculation

     Convergence has been achieved 


     Representation #  3 modes #   5  6

     Self-consistent Calculation

      iter #   1 total cpu time :    97.3 secs   av.it.:   5.1
      thresh= 1.000E-02 alpha_mix =  0.700 |ddv_scf|^2 =  2.660E-06

      iter #   2 total cpu time :    97.7 secs   av.it.:   9.7
      thresh= 1.631E-04 alpha_mix =  0.700 |ddv_scf|^2 =  1.444E-06

      iter #   3 total cpu time :    98.2 secs   av.it.:   9.0
      thresh= 1.202E-04 alpha_mix =  0.700 |ddv_scf|^2 =  8.840E-09

      iter #   4 total cpu time :    98.7 secs   av.it.:   8.7
      thresh= 9.402E-06 alpha_mix =  0.700 |ddv_scf|^2 =  4.404E-11

      iter #   5 total cpu time :    99.1 secs   av.it.:   9.1
      thresh= 6.636E-07 alpha_mix =  0.700 |ddv_scf|^2 =  6.916E-13

     End of self-consistent calculation

     Convergence has been achieved 

     Number of q in the star =    6
     List of q in the star:
          1  -0.500000000  -1.000000000   0.000000000
          2   0.000000000   1.000000000   0.500000000
          3   0.000000000  -1.000000000  -0.500000000
          4   0.500000000   1.000000000   0.000000000
          5  -1.000000000  -0.500000000   0.000000000
          6   0.000000000  -0.500000000  -1.000000000

     Diagonalizing the dynamical matrix

     q = (   -0.500000000  -1.000000000   0.000000000 ) 

 **************************************************************************
     freq (    1) =       7.359859 [THz] =     245.498454 [cm-1]
     freq (    2) =       7.359859 [THz] =     245.498454 [cm-1]
     freq (    3) =      10.919118 [THz] =     364.222555 [cm-1]
     freq (    4) =      10.919118 [THz] =     364.222555 [cm-1]
     freq (    5) =      13.808244 [THz] =     460.593436 [cm-1]
     freq (    6) =      13.808244 [THz] =     460.593436 [cm-1]
 **************************************************************************

     init_run     :      0.54s CPU      0.59s WALL (       7 calls)
     electrons    :      5.29s CPU      6.10s WALL (       7 calls)

     Called by init_run:
     wfcinit      :      0.00s CPU      0.00s WALL (       7 calls)
     potinit      :      0.02s CPU      0.02s WALL (       7 calls)

     Called by electrons:
     c_bands      :      5.28s CPU      6.09s WALL (       7 calls)
     v_of_rho     :      0.01s CPU      0.01s WALL (       8 calls)
     newd         :      0.03s CPU      0.03s WALL (       8 calls)

     Called by c_bands:
     init_us_2    :      0.71s CPU      0.81s WALL (   17588 calls)
     cegterg      :      4.47s CPU      5.17s WALL (     796 calls)

     Called by sum_band:

     Called by *egterg:
     h_psi        :     47.76s CPU     54.18s WALL (  152158 calls)
     s_psi        :      5.93s CPU      6.67s WALL (  309036 calls)
     g_psi        :      0.03s CPU      0.03s WALL (    9268 calls)
     cdiaghg      :      0.50s CPU      0.58s WALL (   10064 calls)

     Called by h_psi:
     h_psi:pot    :     47.57s CPU     53.96s WALL (  152158 calls)
     h_psi:calbec :      5.03s CPU      5.74s WALL (  152158 calls)
     vloc_psi     :     39.33s CPU     44.63s WALL (  152158 calls)
     add_vuspsi   :      2.97s CPU      3.33s WALL (  152158 calls)

     General routines
     calbec       :     11.06s CPU     12.62s WALL (  345408 calls)
     fft          :      0.59s CPU      0.65s WALL (    5239 calls)
     ffts         :      0.17s CPU      0.20s WALL (    2748 calls)
     fftw         :     45.89s CPU     52.12s WALL ( 1377782 calls)
     davcio       :      0.33s CPU      0.39s WALL (   79045 calls)

     Parallel routines
     fft_scatter  :     13.12s CPU     15.30s WALL ( 1385769 calls)

     PHONON       :  1m27.41s CPU     1m39.08s WALL

     INITIALIZATION: 
     phq_setup    :      0.06s CPU      0.06s WALL (       8 calls)
     phq_init     :      2.20s CPU      2.44s WALL (       8 calls)

     phq_init     :      2.20s CPU      2.44s WALL (       8 calls)
     set_drhoc    :      0.30s CPU      0.32s WALL (      24 calls)
     init_vloc    :      0.01s CPU      0.01s WALL (       8 calls)
     init_us_1    :      0.50s CPU      0.53s WALL (       8 calls)
     newd         :      0.03s CPU      0.03s WALL (       8 calls)
     dvanqq       :      0.25s CPU      0.26s WALL (       8 calls)
     drho         :      1.20s CPU      1.35s WALL (       8 calls)

     DYNAMICAL MATRIX:
     dynmat0      :      0.50s CPU      0.56s WALL (       8 calls)
     phqscf       :     76.68s CPU     86.96s WALL (       8 calls)
     dynmatrix    :      0.01s CPU      0.02s WALL (       8 calls)

     phqscf       :     76.68s CPU     86.96s WALL (       8 calls)
     solve_linter :     75.72s CPU     85.91s WALL (      32 calls)
     drhodv       :      0.73s CPU      0.81s WALL (      32 calls)

     dynmat0      :      0.50s CPU      0.56s WALL (       8 calls)
     dynmat_us    :      0.27s CPU      0.30s WALL (       8 calls)
     d2ionq       :      0.01s CPU      0.01s WALL (       8 calls)
     dynmatcc     :      0.22s CPU      0.24s WALL (       8 calls)

     dynmat_us    :      0.27s CPU      0.30s WALL (       8 calls)
     addusdynmat  :      0.00s CPU      0.00s WALL (       8 calls)

     phqscf       :     76.68s CPU     86.96s WALL (       8 calls)
     solve_linter :     75.72s CPU     85.91s WALL (      32 calls)

     solve_linter :     75.72s CPU     85.91s WALL (      32 calls)
     dvqpsi_us    :      1.77s CPU      2.01s WALL (    2508 calls)
     ortho        :      1.21s CPU      1.40s WALL (   15550 calls)
     cgsolve      :     59.29s CPU     67.27s WALL (   15550 calls)
     incdrhoscf   :      5.23s CPU      5.98s WALL (   15550 calls)
     addusddens   :      1.17s CPU      1.29s WALL (     228 calls)
     vpsifft      :      3.76s CPU      4.24s WALL (   12922 calls)
     dv_of_drho   :      0.26s CPU      0.28s WALL (     295 calls)
     mix_pot      :      0.09s CPU      0.13s WALL (     201 calls)
     psymdvscf    :      0.80s CPU      0.85s WALL (     196 calls)
     newdq        :      1.37s CPU      1.52s WALL (     201 calls)
     adddvscf     :      0.48s CPU      0.53s WALL (   13042 calls)
     drhodvus     :      0.00s CPU      0.01s WALL (      32 calls)

     dvqpsi_us    :      1.77s CPU      2.01s WALL (    2508 calls)
     dvqpsi_us_on :      0.85s CPU      0.94s WALL (    2508 calls)

     cgsolve      :     59.29s CPU     67.27s WALL (   15550 calls)
     ch_psi       :     56.89s CPU     64.44s WALL (  141298 calls)

     ch_psi       :     56.89s CPU     64.44s WALL (  141298 calls)
     h_psi        :     47.76s CPU     54.18s WALL (  152158 calls)
     last         :      9.62s CPU     10.94s WALL (  141298 calls)

     h_psi        :     47.76s CPU     54.18s WALL (  152158 calls)
     add_vuspsi   :      2.97s CPU      3.33s WALL (  152158 calls)

     incdrhoscf   :      5.23s CPU      5.98s WALL (   15550 calls)
     addusdbec    :      0.76s CPU      0.89s WALL (   17998 calls)

     drhodvus     :      0.00s CPU      0.01s WALL (      32 calls)

      General routines
     calbec       :     11.06s CPU     12.62s WALL (  345408 calls)
     fft          :      0.59s CPU      0.65s WALL (    5239 calls)
     ffts         :      0.17s CPU      0.20s WALL (    2748 calls)
     fftw         :     45.89s CPU     52.12s WALL ( 1377782 calls)
     davcio       :      0.33s CPU      0.39s WALL (   79045 calls)
     write_rec    :      0.24s CPU      0.31s WALL (     233 calls)


     PHONON       :  1m27.41s CPU     1m39.08s WALL


   This run was terminated on:  13: 6: 0   9Nov2017            

=------------------------------------------------------------------------------=
   JOB DONE.
=------------------------------------------------------------------------------=
