
     Program PWSCF v.6.1 (svn rev. 13369) starts on 10Nov2017 at 10:27:51 

     This program is part of the open-source Quantum ESPRESSO suite
     for quantum simulation of materials; please cite
         "P. Giannozzi et al., J. Phys.:Condens. Matter 21 395502 (2009);
          URL http://www.quantum-espresso.org", 
     in publications or presentations arising from this work. More details at
     http://www.quantum-espresso.org/quote

     Parallel version (MPI), running on     4 processors
     R & G space division:  proc/nbgrp/npool/nimage =       4
     Waiting for input...
     Reading input from standard input
     Message from routine read_cards :
     DEPRECATED: no units specified in ATOMIC_POSITIONS card
     Message from routine read_cards :
     ATOMIC_POSITIONS: units set to alat

     Current dimensions of program PWSCF are:
     Max number of different atomic species (ntypx) = 10
     Max number of k-points (npk) =  40000
     Max angular momentum in pseudopotentials (lmaxx) =  3

     Subspace diagonalization in iterative solution of the eigenvalue problem:
     a serial algorithm will be used


     Parallelization info
     --------------------
     sticks:   dense  smooth     PW     G-vecs:    dense   smooth      PW
     Min         211     105     34                 4088     1441     266
     Max         212     106     35                 4091     1445     267
     Sum         847     421    139                16361     5769    1067



     bravais-lattice index     =            2
     lattice parameter (alat)  =      10.1000  a.u.
     unit-cell volume          =     257.5752 (a.u.)^3
     number of atoms/cell      =            2
     number of atomic types    =            1
     number of electrons       =         8.00
     number of Kohn-Sham states=            4
     kinetic-energy cutoff     =      30.0000  Ry
     charge density cutoff     =     240.0000  Ry
     convergence threshold     =      1.0E-08
     mixing beta               =       0.7000
     number of iterations used =            8  plain     mixing
     Exchange-correlation      = SLA  PW   PBE  PBE ( 1  4  3  4 0 0)

     celldm(1)=  10.100000  celldm(2)=   0.000000  celldm(3)=   0.000000
     celldm(4)=   0.000000  celldm(5)=   0.000000  celldm(6)=   0.000000

     crystal axes: (cart. coord. in units of alat)
               a(1) = (  -0.500000   0.000000   0.500000 )  
               a(2) = (   0.000000   0.500000   0.500000 )  
               a(3) = (  -0.500000   0.500000   0.000000 )  

     reciprocal axes: (cart. coord. in units 2 pi/alat)
               b(1) = ( -1.000000 -1.000000  1.000000 )  
               b(2) = (  1.000000  1.000000  1.000000 )  
               b(3) = ( -1.000000  1.000000 -1.000000 )  


     PseudoPot. # 1 for Si read from file:
     /home/max/quantum_espresso/qe-6.1/pseudo/si_pbe_v1.uspp.F.UPF.txt
     MD5 check sum: a056efeee980c13900f22a371efd63c1
     Pseudo is Ultrasoft + core correction, Zval =  4.0
     Generated by new atomic code, or converted to UPF format
     Using radial grid of  899 points,  6 beta functions with: 
                l(1) =   0
                l(2) =   0
                l(3) =   1
                l(4) =   1
                l(5) =   2
                l(6) =   2
     Q(r) pseudized with  8 coefficients,  rinner =    0.900   0.900   0.900
                                                       0.900   0.900

     atomic species   valence    mass     pseudopotential
        Si             4.00    28.08600     Si( 1.00)

     48 Sym. Ops., with inversion, found (24 have fractional translation)



   Cartesian axes

     site n.     atom                  positions (alat units)
         1           Si  tau(   1) = (   0.0000000   0.0000000   0.0000000  )
         2           Si  tau(   2) = (   0.2500000   0.2500000   0.2500000  )

     number of k points=    28
                       cart. coord. in units 2pi/alat
        k(    1) = (  -0.0833333   0.0833333   0.0833333), wk =   0.0185185
        k(    2) = (  -0.2500000   0.2500000  -0.0833333), wk =   0.0555556
        k(    3) = (  -0.4166667   0.4166667  -0.2500000), wk =   0.0555556
        k(    4) = (   0.4166667  -0.4166667   0.5833333), wk =   0.0555556
        k(    5) = (   0.2500000  -0.2500000   0.4166667), wk =   0.0555556
        k(    6) = (   0.0833333  -0.0833333   0.2500000), wk =   0.0555556
        k(    7) = (  -0.0833333   0.4166667   0.0833333), wk =   0.0555556
        k(    8) = (  -0.2500000   0.5833333  -0.0833333), wk =   0.1111111
        k(    9) = (   0.5833333  -0.2500000   0.7500000), wk =   0.1111111
        k(   10) = (   0.4166667  -0.0833333   0.5833333), wk =   0.1111111
        k(   11) = (   0.2500000   0.0833333   0.4166667), wk =   0.1111111
        k(   12) = (  -0.0833333   0.7500000   0.0833333), wk =   0.0555556
        k(   13) = (   0.7500000  -0.0833333   0.9166667), wk =   0.1111111
        k(   14) = (   0.5833333   0.0833333   0.7500000), wk =   0.1111111
        k(   15) = (   0.4166667   0.2500000   0.5833333), wk =   0.1111111
        k(   16) = (  -0.0833333  -0.9166667   0.0833333), wk =   0.0555556
        k(   17) = (  -0.2500000  -0.7500000  -0.0833333), wk =   0.1111111
        k(   18) = (  -0.0833333  -0.5833333   0.0833333), wk =   0.0555556
        k(   19) = (  -0.2500000   0.2500000   0.2500000), wk =   0.0185185
        k(   20) = (  -0.4166667   0.4166667   0.0833333), wk =   0.0555556
        k(   21) = (   0.4166667  -0.4166667   0.9166667), wk =   0.0555556
        k(   22) = (   0.2500000  -0.2500000   0.7500000), wk =   0.0555556
        k(   23) = (  -0.2500000   0.5833333   0.2500000), wk =   0.0555556
        k(   24) = (   0.5833333  -0.2500000   1.0833333), wk =   0.1111111
        k(   25) = (   0.4166667  -0.0833333   0.9166667), wk =   0.1111111
        k(   26) = (  -0.2500000  -1.0833333   0.2500000), wk =   0.0555556
        k(   27) = (  -0.4166667   0.4166667   0.4166667), wk =   0.0185185
        k(   28) = (   0.4166667  -0.4166667   1.2500000), wk =   0.0555556

     Dense  grid:    16361 G-vectors     FFT dimensions: (  36,  36,  36)

     Smooth grid:     5769 G-vectors     FFT dimensions: (  25,  25,  25)

     Estimated max dynamical RAM per process >       2.93MB

     Estimated total allocated dynamical RAM >      11.71MB

     Initial potential from superposition of free atoms

     starting charge    7.99866, renormalised to    8.00000
     Starting wfc are    8 randomized atomic wfcs

     total cpu time spent up to now is        0.8 secs

     per-process dynamical memory:    10.0 Mb

     Self-consistent Calculation

     iteration #  1     ecut=    30.00 Ry     beta=0.70
     Davidson diagonalization with overlap
     ethr =  1.00E-02,  avg # of iterations =  2.0

     Threshold (ethr) on eigenvalues was too large:
     Diagonalizing with lowered threshold

     Davidson diagonalization with overlap
     ethr =  7.57E-04,  avg # of iterations =  1.0

     total cpu time spent up to now is        1.2 secs

     total energy              =     -19.18655488 Ry
     Harris-Foulkes estimate   =     -19.20196214 Ry
     estimated scf accuracy    <       0.05986285 Ry

     iteration #  2     ecut=    30.00 Ry     beta=0.70
     Davidson diagonalization with overlap
     ethr =  7.48E-04,  avg # of iterations =  1.0

     total cpu time spent up to now is        1.4 secs

     total energy              =     -19.18882417 Ry
     Harris-Foulkes estimate   =     -19.18899092 Ry
     estimated scf accuracy    <       0.00243029 Ry

     iteration #  3     ecut=    30.00 Ry     beta=0.70
     Davidson diagonalization with overlap
     ethr =  3.04E-05,  avg # of iterations =  2.1

     total cpu time spent up to now is        1.6 secs

     total energy              =     -19.18922649 Ry
     Harris-Foulkes estimate   =     -19.18924412 Ry
     estimated scf accuracy    <       0.00005303 Ry

     iteration #  4     ecut=    30.00 Ry     beta=0.70
     Davidson diagonalization with overlap
     ethr =  6.63E-07,  avg # of iterations =  3.4

     total cpu time spent up to now is        1.9 secs

     total energy              =     -19.18927010 Ry
     Harris-Foulkes estimate   =     -19.18927187 Ry
     estimated scf accuracy    <       0.00000563 Ry

     iteration #  5     ecut=    30.00 Ry     beta=0.70
     Davidson diagonalization with overlap
     ethr =  7.04E-08,  avg # of iterations =  2.0

     total cpu time spent up to now is        2.1 secs

     total energy              =     -19.18927087 Ry
     Harris-Foulkes estimate   =     -19.18927086 Ry
     estimated scf accuracy    <       0.00000002 Ry

     iteration #  6     ecut=    30.00 Ry     beta=0.70
     Davidson diagonalization with overlap
     ethr =  2.77E-10,  avg # of iterations =  3.8

     total cpu time spent up to now is        2.3 secs

     End of self-consistent calculation

          k =-0.0833 0.0833 0.0833 (   718 PWs)   bands (ev):

    -5.4977   5.8401   6.5518   6.5518

          k =-0.2500 0.2500-0.0833 (   712 PWs)   bands (ev):

    -4.9992   3.7142   5.2532   6.3407

          k =-0.4167 0.4167-0.2500 (   722 PWs)   bands (ev):

    -3.8502   0.8289   4.7869   5.6750

          k = 0.4167-0.4167 0.5833 (   721 PWs)   bands (ev):

    -3.1015  -0.3831   4.8674   5.2727

          k = 0.2500-0.2500 0.4167 (   720 PWs)   bands (ev):

    -4.2851   1.7157   5.3269   5.3902

          k = 0.0833-0.0833 0.2500 (   705 PWs)   bands (ev):

    -5.2462   4.7630   5.8666   6.0876

          k =-0.0833 0.4167 0.0833 (   706 PWs)   bands (ev):

    -4.7473   3.5632   5.1006   5.1046

          k =-0.2500 0.5833-0.0833 (   714 PWs)   bands (ev):

    -3.7928   1.6592   3.7070   4.6997

          k = 0.5833-0.2500 0.7500 (   715 PWs)   bands (ev):

    -2.6045  -0.2047   3.0956   4.4548

          k = 0.4167-0.0833 0.5833 (   711 PWs)   bands (ev):

    -3.3753   0.9250   3.0299   4.9738

          k = 0.2500 0.0833 0.4167 (   712 PWs)   bands (ev):

    -4.5106   2.6703   4.4405   5.6880

          k =-0.0833 0.7500 0.0833 (   713 PWs)   bands (ev):

    -3.0502   0.8319   3.6592   4.0267

          k = 0.7500-0.0833 0.9167 (   718 PWs)   bands (ev):

    -1.7904  -0.5640   2.7578   3.5881

          k = 0.5833 0.0833 0.7500 (   712 PWs)   bands (ev):

    -2.1654  -0.2416   2.2550   4.1639

          k = 0.4167 0.2500 0.5833 (   715 PWs)   bands (ev):

    -3.2510   0.1640   4.0517   5.0803

          k =-0.0833-0.9167 0.0833 (   714 PWs)   bands (ev):

    -1.8937  -0.5759   3.3751   3.8024

          k =-0.2500-0.7500-0.0833 (   715 PWs)   bands (ev):

    -2.8695   0.5928   3.1090   3.9446

          k =-0.0833-0.5833 0.0833 (   714 PWs)   bands (ev):

    -4.0100   2.2442   4.2383   4.4670

          k =-0.2500 0.2500 0.2500 (   715 PWs)   bands (ev):

    -4.7584   2.6832   5.9120   5.9120

          k =-0.4167 0.4167 0.0833 (   720 PWs)   bands (ev):

    -4.0460   1.7491   3.6708   5.7400

          k = 0.4167-0.4167 0.9167 (   708 PWs)   bands (ev):

    -2.8009   0.2673   2.4975   4.9085

          k = 0.2500-0.2500 0.7500 (   711 PWs)   bands (ev):

    -2.7492   0.1859   3.0119   4.3991

          k =-0.2500 0.5833 0.2500 (   713 PWs)   bands (ev):

    -3.5995   0.8969   4.1887   4.7903

          k = 0.5833-0.2500 1.0833 (   715 PWs)   bands (ev):

    -2.5441   0.1732   2.5987   3.9357

          k = 0.4167-0.0833 0.9167 (   716 PWs)   bands (ev):

    -1.6685  -0.5720   2.4066   3.2260

          k =-0.2500-1.0833 0.2500 (   717 PWs)   bands (ev):

    -1.8876  -0.4901   2.2742   4.1955

          k =-0.4167 0.4167 0.4167 (   721 PWs)   bands (ev):

    -3.4977   0.0394   5.5126   5.5126

          k = 0.4167-0.4167 1.2500 (   710 PWs)   bands (ev):

    -2.8560  -0.2607   3.6020   5.0436

     highest occupied level (ev):     6.5518

!    total energy              =     -19.18927092 Ry
     Harris-Foulkes estimate   =     -19.18927092 Ry
     estimated scf accuracy    <          1.6E-09 Ry

     The total energy is the sum of the following terms:

     one-electron contribution =       5.48292108 Ry
     hartree contribution      =       1.07425027 Ry
     xc contribution           =      -8.67935936 Ry
     ewald contribution        =     -17.06708292 Ry

     convergence has been achieved in   6 iterations

     Writing output data file silicon.10.10.save

     init_run     :      0.41s CPU      0.57s WALL (       1 calls)
     electrons    :      1.43s CPU      1.56s WALL (       1 calls)

     Called by init_run:
     wfcinit      :      0.08s CPU      0.08s WALL (       1 calls)
     potinit      :      0.01s CPU      0.02s WALL (       1 calls)

     Called by electrons:
     c_bands      :      0.86s CPU      0.93s WALL (       7 calls)
     sum_band     :      0.33s CPU      0.36s WALL (       7 calls)
     v_of_rho     :      0.10s CPU      0.11s WALL (       7 calls)
     newd         :      0.15s CPU      0.17s WALL (       7 calls)
     mix_rho      :      0.01s CPU      0.01s WALL (       7 calls)

     Called by c_bands:
     init_us_2    :      0.05s CPU      0.06s WALL (     420 calls)
     cegterg      :      0.73s CPU      0.79s WALL (     196 calls)

     Called by sum_band:
     sum_band:bec :      0.00s CPU      0.00s WALL (     196 calls)
     addusdens    :      0.16s CPU      0.17s WALL (       7 calls)

     Called by *egterg:
     h_psi        :      0.61s CPU      0.66s WALL (     651 calls)
     s_psi        :      0.05s CPU      0.05s WALL (     651 calls)
     g_psi        :      0.00s CPU      0.00s WALL (     427 calls)
     cdiaghg      :      0.05s CPU      0.05s WALL (     595 calls)

     Called by h_psi:
     h_psi:pot    :      0.61s CPU      0.66s WALL (     651 calls)
     h_psi:calbec :      0.07s CPU      0.08s WALL (     651 calls)
     vloc_psi     :      0.49s CPU      0.53s WALL (     651 calls)
     add_vuspsi   :      0.05s CPU      0.06s WALL (     651 calls)

     General routines
     calbec       :      0.09s CPU      0.10s WALL (     847 calls)
     fft          :      0.08s CPU      0.09s WALL (     112 calls)
     ffts         :      0.00s CPU      0.00s WALL (      14 calls)
     fftw         :      0.49s CPU      0.53s WALL (    5676 calls)
     interpolate  :      0.01s CPU      0.01s WALL (      14 calls)
     davcio       :      0.00s CPU      0.00s WALL (      28 calls)

     Parallel routines
     fft_scatter  :      0.21s CPU      0.24s WALL (    5802 calls)

     PWSCF        :     2.07s CPU         2.50s WALL


   This run was terminated on:  10:27:53  10Nov2017            

=------------------------------------------------------------------------------=
   JOB DONE.
=------------------------------------------------------------------------------=
