
     Program PHONON v.6.1 (svn rev. 13369) starts on  9Nov2017 at 17:43:56 

     This program is part of the open-source Quantum ESPRESSO suite
     for quantum simulation of materials; please cite
         "P. Giannozzi et al., J. Phys.:Condens. Matter 21 395502 (2009);
          URL http://www.quantum-espresso.org", 
     in publications or presentations arising from this work. More details at
     http://www.quantum-espresso.org/quote

     Parallel version (MPI), running on     4 processors
     R & G space division:  proc/nbgrp/npool/nimage =       4

     Reading data from directory:
     ./silicon.10.405.save

   Info: using nr1, nr2, nr3 values from input

   Info: using nr1, nr2, nr3 values from input

     IMPORTANT: XC functional enforced from input :
     Exchange-correlation      = SLA  PW   PBE  PBE ( 1  4  3  4 0 0)
     Any further DFT definition will be discarded
     Please, verify this is what you really want


     Parallelization info
     --------------------
     sticks:   dense  smooth     PW     G-vecs:    dense   smooth      PW
     Min          66      66     22                  722      722     152
     Max          67      67     23                  724      724     153
     Sum         265     265     91                 2891     2891     609


     Check: negative/imaginary core charge=   -0.000006    0.000000


     Dynamical matrices for ( 4, 4, 4)  uniform grid of q-points
     (   8q-points):
       N         xq(1)         xq(2)         xq(3) 
       1   0.000000000   0.000000000   0.000000000
       2  -0.250000000   0.250000000  -0.250000000
       3   0.500000000  -0.500000000   0.500000000
       4   0.000000000   0.500000000   0.000000000
       5   0.750000000  -0.250000000   0.750000000
       6   0.500000000   0.000000000   0.500000000
       7   0.000000000  -1.000000000   0.000000000
       8  -0.500000000  -1.000000000   0.000000000

     Calculation of q =    0.0000000   0.0000000   0.0000000

                                                                                

     bravais-lattice index     =            2
     lattice parameter (alat)  =      10.4050  a.u.
     unit-cell volume          =     281.6218 (a.u.)^3
     number of atoms/cell      =            2
     number of atomic types    =            1
     kinetic-energy cut-off    =      18.0000  Ry
     charge density cut-off    =      72.0000  Ry
     convergence threshold     =      1.0E-12
     beta                      =       0.7000
     number of iterations used =            4
     Exchange-correlation      = SLA  PW   PBE  PBE ( 1  4  3  4 0 0)


     celldm(1)=   10.40500  celldm(2)=    0.00000  celldm(3)=    0.00000
     celldm(4)=    0.00000  celldm(5)=    0.00000  celldm(6)=    0.00000

     crystal axes: (cart. coord. in units of alat)
               a(1) = ( -0.5000  0.0000  0.5000 )  
               a(2) = (  0.0000  0.5000  0.5000 )  
               a(3) = ( -0.5000  0.5000  0.0000 )  

     reciprocal axes: (cart. coord. in units 2 pi/alat)
               b(1) = ( -1.0000 -1.0000  1.0000 )  
               b(2) = (  1.0000  1.0000  1.0000 )  
               b(3) = ( -1.0000  1.0000 -1.0000 )  


     Atoms inside the unit cell: 

     Cartesian axes

     site n.  atom      mass           positions (alat units)
        1     Si  28.0860   tau(    1) = (    0.00000    0.00000    0.00000  )
        2     Si  28.0860   tau(    2) = (    0.25000    0.25000    0.25000  )

     Computing dynamical matrix for 
                    q = (   0.0000000   0.0000000   0.0000000 )

     49 Sym.Ops. (with q -> -q+G )


     G cutoff =  197.4499  (    722 G-vectors)     FFT grid: ( 20, 20, 20)
     number of k points=    10

     PseudoPot. # 1 for Si read from file:
     /home/max/quantum_espresso/qe-6.1/pseudo/si_pbe_v1.uspp.F.UPF.txt
     MD5 check sum: a056efeee980c13900f22a371efd63c1
     Pseudo is Ultrasoft + core correction, Zval =  4.0
     Generated by new atomic code, or converted to UPF format
     Using radial grid of  899 points,  6 beta functions with: 
                l(1) =   0
                l(2) =   0
                l(3) =   1
                l(4) =   1
                l(5) =   2
                l(6) =   2
     Q(r) pseudized with  8 coefficients,  rinner =    0.900   0.900   0.900
                                                       0.900   0.900

     Mode symmetry, O_h (m-3m)  point group:


     Electric field:
     Dielectric constant
     Born effective charges in two ways 


     Atomic displacements:
     There are   2 irreducible representations

     Representation     1      3 modes -T_2g G_25' G_5+  To be done

     Representation     2      3 modes -T_1u G_15  G_4-  To be done



     Alpha used in Ewald sum =   0.7000
     PHONON       :     0.40s CPU         0.41s WALL


     Electric Fields Calculation

      iter #   1 total cpu time :     1.1 secs   av.it.:   5.6
      thresh= 1.000E-02 alpha_mix =  0.700 |ddv_scf|^2 =  9.589E-07

      iter #   2 total cpu time :     1.3 secs   av.it.:   9.9
      thresh= 9.793E-05 alpha_mix =  0.700 |ddv_scf|^2 =  6.268E-08

      iter #   3 total cpu time :     1.4 secs   av.it.:   9.8
      thresh= 2.504E-05 alpha_mix =  0.700 |ddv_scf|^2 =  4.981E-09

      iter #   4 total cpu time :     1.6 secs   av.it.:   9.0
      thresh= 7.058E-06 alpha_mix =  0.700 |ddv_scf|^2 =  3.021E-11

      iter #   5 total cpu time :     1.8 secs   av.it.:   9.2
      thresh= 5.496E-07 alpha_mix =  0.700 |ddv_scf|^2 =  1.548E-14

     End of electric fields calculation

          Dielectric constant in cartesian axis 

          (      14.033834144      -0.000000000       0.000000000 )
          (      -0.000000000      14.033834144       0.000000000 )
          (       0.000000000       0.000000000      14.033834144 )

          Effective charges (d Force / dE) in cartesian axis

           atom      1   Si 
      Ex  (       -0.03349       -0.00000       -0.00000 )
      Ey  (       -0.00000       -0.03349        0.00000 )
      Ez  (       -0.00000        0.00000       -0.03349 )
           atom      2   Si 
      Ex  (       -0.03349        0.00000        0.00000 )
      Ey  (        0.00000       -0.03349        0.00000 )
      Ez  (        0.00000        0.00000       -0.03349 )


     Representation #  1 modes #   1  2  3

     Self-consistent Calculation

      iter #   1 total cpu time :     2.2 secs   av.it.:   5.0
      thresh= 1.000E-02 alpha_mix =  0.700 |ddv_scf|^2 =  1.855E-07

      iter #   2 total cpu time :     2.4 secs   av.it.:  10.0
      thresh= 4.307E-05 alpha_mix =  0.700 |ddv_scf|^2 =  1.026E-08

      iter #   3 total cpu time :     2.5 secs   av.it.:   9.5
      thresh= 1.013E-05 alpha_mix =  0.700 |ddv_scf|^2 =  7.093E-10

      iter #   4 total cpu time :     2.8 secs   av.it.:   9.1
      thresh= 2.663E-06 alpha_mix =  0.700 |ddv_scf|^2 =  1.828E-12

      iter #   5 total cpu time :     3.2 secs   av.it.:   9.4
      thresh= 1.352E-07 alpha_mix =  0.700 |ddv_scf|^2 =  1.545E-14

     End of self-consistent calculation

     Convergence has been achieved 


     Representation #  2 modes #   4  5  6

     Self-consistent Calculation

      iter #   1 total cpu time :     3.4 secs   av.it.:   5.0
      thresh= 1.000E-02 alpha_mix =  0.700 |ddv_scf|^2 =  1.930E-07

      iter #   2 total cpu time :     3.6 secs   av.it.:   9.6
      thresh= 4.393E-05 alpha_mix =  0.700 |ddv_scf|^2 =  1.596E-08

      iter #   3 total cpu time :     3.8 secs   av.it.:   9.2
      thresh= 1.263E-05 alpha_mix =  0.700 |ddv_scf|^2 =  9.573E-10

      iter #   4 total cpu time :     4.0 secs   av.it.:   9.5
      thresh= 3.094E-06 alpha_mix =  0.700 |ddv_scf|^2 =  5.573E-12

      iter #   5 total cpu time :     4.1 secs   av.it.:   9.1
      thresh= 2.361E-07 alpha_mix =  0.700 |ddv_scf|^2 =  5.125E-15

     End of self-consistent calculation

     Convergence has been achieved 

     Number of q in the star =    1
     List of q in the star:
          1   0.000000000   0.000000000   0.000000000

          Dielectric constant in cartesian axis 

          (      14.033834144      -0.000000000       0.000000000 )
          (      -0.000000000      14.033834144       0.000000000 )
          (       0.000000000       0.000000000      14.033834144 )

          Effective charges (d Force / dE) in cartesian axis

           atom      1   Si 
      Ex  (       -0.03349       -0.00000       -0.00000 )
      Ey  (       -0.00000       -0.03349        0.00000 )
      Ez  (       -0.00000        0.00000       -0.03349 )
           atom      2   Si 
      Ex  (       -0.03349        0.00000        0.00000 )
      Ey  (        0.00000       -0.03349        0.00000 )
      Ez  (        0.00000        0.00000       -0.03349 )

          Effective charges (d P / du) in cartesian axis 

           atom      1   Si 
      Px  (       -0.07606       -0.00000       -0.00000 )
      Py  (        0.00000       -0.07606       -0.00000 )
      Pz  (        0.00000        0.00000       -0.07606 )
           atom      2   Si 
      Px  (       -0.07606        0.00000       -0.00000 )
      Py  (        0.00000       -0.07606        0.00000 )
      Pz  (       -0.00000        0.00000       -0.07606 )

     Diagonalizing the dynamical matrix

     q = (    0.000000000   0.000000000   0.000000000 ) 

 **************************************************************************
     freq (    1) =       1.769053 [THz] =      59.009261 [cm-1]
     freq (    2) =       1.769053 [THz] =      59.009261 [cm-1]
     freq (    3) =       1.769053 [THz] =      59.009261 [cm-1]
     freq (    4) =      15.551818 [THz] =     518.752806 [cm-1]
     freq (    5) =      15.551818 [THz] =     518.752806 [cm-1]
     freq (    6) =      15.551818 [THz] =     518.752806 [cm-1]
 **************************************************************************

     Mode symmetry, O_h (m-3m)  point group:

     freq (  1 -  3) =         59.0  [cm-1]   --> T_1u G_15  G_4- I  
     freq (  4 -  6) =        518.8  [cm-1]   --> T_2g G_25' G_5+ R  

     Calculation of q =   -0.2500000   0.2500000  -0.2500000

   Info: using nr1, nr2, nr3 values from input

   Info: using nr1, nr2, nr3 values from input

     Parallelization info
     --------------------
     sticks:   dense  smooth     PW     G-vecs:    dense   smooth      PW
     Min          66      66     27                  722      722     175
     Max          67      67     28                  724      724     176
     Sum         265     265    109                 2891     2891     701



     bravais-lattice index     =            2
     lattice parameter (alat)  =      10.4050  a.u.
     unit-cell volume          =     281.6218 (a.u.)^3
     number of atoms/cell      =            2
     number of atomic types    =            1
     number of electrons       =         8.00
     number of Kohn-Sham states=            4
     kinetic-energy cutoff     =      18.0000  Ry
     charge density cutoff     =      72.0000  Ry
     Exchange-correlation      = SLA  PW   PBE  PBE ( 1  4  3  4 0 0)

     celldm(1)=  10.405000  celldm(2)=   0.000000  celldm(3)=   0.000000
     celldm(4)=   0.000000  celldm(5)=   0.000000  celldm(6)=   0.000000

     crystal axes: (cart. coord. in units of alat)
               a(1) = (  -0.500000   0.000000   0.500000 )  
               a(2) = (   0.000000   0.500000   0.500000 )  
               a(3) = (  -0.500000   0.500000   0.000000 )  

     reciprocal axes: (cart. coord. in units 2 pi/alat)
               b(1) = ( -1.000000 -1.000000  1.000000 )  
               b(2) = (  1.000000  1.000000  1.000000 )  
               b(3) = ( -1.000000  1.000000 -1.000000 )  


     PseudoPot. # 1 for Si read from file:
     /home/max/quantum_espresso/qe-6.1/pseudo/si_pbe_v1.uspp.F.UPF.txt
     MD5 check sum: a056efeee980c13900f22a371efd63c1
     Pseudo is Ultrasoft + core correction, Zval =  4.0
     Generated by new atomic code, or converted to UPF format
     Using radial grid of  899 points,  6 beta functions with: 
                l(1) =   0
                l(2) =   0
                l(3) =   1
                l(4) =   1
                l(5) =   2
                l(6) =   2
     Q(r) pseudized with  8 coefficients,  rinner =    0.900   0.900   0.900
                                                       0.900   0.900

     atomic species   valence    mass     pseudopotential
        Si             4.00    28.08600     Si( 1.00)

     48 Sym. Ops., with inversion, found



   Cartesian axes

     site n.     atom                  positions (alat units)
         1           Si  tau(   1) = (   0.0000000   0.0000000   0.0000000  )
         2           Si  tau(   2) = (   0.2500000   0.2500000   0.2500000  )

     number of k points=   120

     Number of k-points >= 100: set verbosity='high' to print them.

     Dense  grid:     2891 G-vectors     FFT dimensions: (  20,  20,  20)

     Estimated max dynamical RAM per process >       0.33MB

     Estimated total allocated dynamical RAM >       1.33MB

     Check: negative/imaginary core charge=   -0.000006    0.000000

     The potential is recalculated from file :
     ./_ph0/silicon.10.405.save/charge-density.dat

     Starting wfc are    8 atomic wfcs

     Band Structure Calculation
     Davidson diagonalization with overlap

     ethr =  1.25E-10,  avg # of iterations = 11.7

     total cpu time spent up to now is        1.1 secs

     End of band structure calculation

     Number of k-points >= 100: set verbosity='high' to print the bands.

     highest occupied level (ev):     5.4959

     Writing output data file silicon.10.405.save

                                                                                

     bravais-lattice index     =            2
     lattice parameter (alat)  =      10.4050  a.u.
     unit-cell volume          =     281.6218 (a.u.)^3
     number of atoms/cell      =            2
     number of atomic types    =            1
     kinetic-energy cut-off    =      18.0000  Ry
     charge density cut-off    =      72.0000  Ry
     convergence threshold     =      1.0E-12
     beta                      =       0.7000
     number of iterations used =            4
     Exchange-correlation      = SLA  PW   PBE  PBE ( 1  4  3  4 0 0)


     celldm(1)=   10.40500  celldm(2)=    0.00000  celldm(3)=    0.00000
     celldm(4)=    0.00000  celldm(5)=    0.00000  celldm(6)=    0.00000

     crystal axes: (cart. coord. in units of alat)
               a(1) = ( -0.5000  0.0000  0.5000 )  
               a(2) = (  0.0000  0.5000  0.5000 )  
               a(3) = ( -0.5000  0.5000  0.0000 )  

     reciprocal axes: (cart. coord. in units 2 pi/alat)
               b(1) = ( -1.0000 -1.0000  1.0000 )  
               b(2) = (  1.0000  1.0000  1.0000 )  
               b(3) = ( -1.0000  1.0000 -1.0000 )  


     Atoms inside the unit cell: 

     Cartesian axes

     site n.  atom      mass           positions (alat units)
        1     Si  28.0860   tau(    1) = (    0.00000    0.00000    0.00000  )
        2     Si  28.0860   tau(    2) = (    0.25000    0.25000    0.25000  )

     Computing dynamical matrix for 
                    q = (  -0.2500000   0.2500000  -0.2500000 )

      6 Sym.Ops. (no q -> -q+G )


     G cutoff =  197.4499  (    722 G-vectors)     FFT grid: ( 20, 20, 20)
     number of k points=   120

     PseudoPot. # 1 for Si read from file:
     /home/max/quantum_espresso/qe-6.1/pseudo/si_pbe_v1.uspp.F.UPF.txt
     MD5 check sum: a056efeee980c13900f22a371efd63c1
     Pseudo is Ultrasoft + core correction, Zval =  4.0
     Generated by new atomic code, or converted to UPF format
     Using radial grid of  899 points,  6 beta functions with: 
                l(1) =   0
                l(2) =   0
                l(3) =   1
                l(4) =   1
                l(5) =   2
                l(6) =   2
     Q(r) pseudized with  8 coefficients,  rinner =    0.900   0.900   0.900
                                                       0.900   0.900

     Mode symmetry, C_3v (3m)   point group:


     Atomic displacements:
     There are   4 irreducible representations

     Representation     1      1 modes -A_1  L_1  To be done

     Representation     2      1 modes -A_1  L_1  To be done

     Representation     3      2 modes -E    L_3  To be done

     Representation     4      2 modes -E    L_3  To be done



     Alpha used in Ewald sum =   0.7000
     PHONON       :     5.12s CPU         5.73s WALL



     Representation #  1 mode #   1

     Self-consistent Calculation

      iter #   1 total cpu time :     6.0 secs   av.it.:   5.5
      thresh= 1.000E-02 alpha_mix =  0.700 |ddv_scf|^2 =  2.425E-03

      iter #   2 total cpu time :     6.2 secs   av.it.:   7.5
      thresh= 4.925E-03 alpha_mix =  0.700 |ddv_scf|^2 =  3.691E-02

      iter #   3 total cpu time :     6.4 secs   av.it.:   6.3
      thresh= 1.000E-02 alpha_mix =  0.700 |ddv_scf|^2 =  1.686E-06

      iter #   4 total cpu time :     6.8 secs   av.it.:   8.2
      thresh= 1.299E-04 alpha_mix =  0.700 |ddv_scf|^2 =  1.136E-07

      iter #   5 total cpu time :     7.3 secs   av.it.:   8.1
      thresh= 3.370E-05 alpha_mix =  0.700 |ddv_scf|^2 =  4.568E-09

      iter #   6 total cpu time :     7.5 secs   av.it.:   8.0
      thresh= 6.759E-06 alpha_mix =  0.700 |ddv_scf|^2 =  3.266E-09

      iter #   7 total cpu time :     7.8 secs   av.it.:   6.4
      thresh= 5.715E-06 alpha_mix =  0.700 |ddv_scf|^2 =  7.622E-10

      iter #   8 total cpu time :     8.0 secs   av.it.:   7.0
      thresh= 2.761E-06 alpha_mix =  0.700 |ddv_scf|^2 =  5.046E-12

      iter #   9 total cpu time :     8.2 secs   av.it.:   7.2
      thresh= 2.246E-07 alpha_mix =  0.700 |ddv_scf|^2 =  2.579E-13

     End of self-consistent calculation

     Convergence has been achieved 


     Representation #  2 mode #   2

     Self-consistent Calculation

      iter #   1 total cpu time :     8.5 secs   av.it.:   5.5
      thresh= 1.000E-02 alpha_mix =  0.700 |ddv_scf|^2 =  2.425E-03

      iter #   2 total cpu time :     8.9 secs   av.it.:   7.5
      thresh= 4.925E-03 alpha_mix =  0.700 |ddv_scf|^2 =  3.691E-02

      iter #   3 total cpu time :     9.3 secs   av.it.:   6.3
      thresh= 1.000E-02 alpha_mix =  0.700 |ddv_scf|^2 =  1.686E-06

      iter #   4 total cpu time :     9.5 secs   av.it.:   8.2
      thresh= 1.299E-04 alpha_mix =  0.700 |ddv_scf|^2 =  1.136E-07

      iter #   5 total cpu time :     9.8 secs   av.it.:   8.1
      thresh= 3.370E-05 alpha_mix =  0.700 |ddv_scf|^2 =  4.568E-09

      iter #   6 total cpu time :    10.1 secs   av.it.:   8.0
      thresh= 6.759E-06 alpha_mix =  0.700 |ddv_scf|^2 =  3.266E-09

      iter #   7 total cpu time :    10.3 secs   av.it.:   6.4
      thresh= 5.715E-06 alpha_mix =  0.700 |ddv_scf|^2 =  7.622E-10

      iter #   8 total cpu time :    10.5 secs   av.it.:   7.0
      thresh= 2.761E-06 alpha_mix =  0.700 |ddv_scf|^2 =  5.046E-12

      iter #   9 total cpu time :    11.0 secs   av.it.:   7.2
      thresh= 2.246E-07 alpha_mix =  0.700 |ddv_scf|^2 =  2.579E-13

     End of self-consistent calculation

     Convergence has been achieved 


     Representation #  3 modes #   3  4

     Self-consistent Calculation

      iter #   1 total cpu time :    11.5 secs   av.it.:   5.0
      thresh= 1.000E-02 alpha_mix =  0.700 |ddv_scf|^2 =  5.364E-07

      iter #   2 total cpu time :    12.1 secs   av.it.:   9.5
      thresh= 7.324E-05 alpha_mix =  0.700 |ddv_scf|^2 =  4.025E-08

      iter #   3 total cpu time :    12.7 secs   av.it.:   9.3
      thresh= 2.006E-05 alpha_mix =  0.700 |ddv_scf|^2 =  3.468E-09

      iter #   4 total cpu time :    13.5 secs   av.it.:   8.9
      thresh= 5.889E-06 alpha_mix =  0.700 |ddv_scf|^2 =  1.145E-11

      iter #   5 total cpu time :    14.1 secs   av.it.:   9.2
      thresh= 3.384E-07 alpha_mix =  0.700 |ddv_scf|^2 =  5.100E-13

     End of self-consistent calculation

     Convergence has been achieved 


     Representation #  4 modes #   5  6

     Self-consistent Calculation

      iter #   1 total cpu time :    14.5 secs   av.it.:   5.0
      thresh= 1.000E-02 alpha_mix =  0.700 |ddv_scf|^2 =  5.362E-07

      iter #   2 total cpu time :    15.5 secs   av.it.:   9.7
      thresh= 7.323E-05 alpha_mix =  0.700 |ddv_scf|^2 =  4.019E-08

      iter #   3 total cpu time :    16.1 secs   av.it.:   9.4
      thresh= 2.005E-05 alpha_mix =  0.700 |ddv_scf|^2 =  3.463E-09

      iter #   4 total cpu time :    16.6 secs   av.it.:   9.1
      thresh= 5.885E-06 alpha_mix =  0.700 |ddv_scf|^2 =  1.146E-11

      iter #   5 total cpu time :    17.6 secs   av.it.:   9.3
      thresh= 3.385E-07 alpha_mix =  0.700 |ddv_scf|^2 =  5.106E-13

     End of self-consistent calculation

     Convergence has been achieved 

     Number of q in the star =    8
     List of q in the star:
          1  -0.250000000   0.250000000  -0.250000000
          2   0.250000000  -0.250000000  -0.250000000
          3   0.250000000  -0.250000000   0.250000000
          4   0.250000000   0.250000000   0.250000000
          5  -0.250000000  -0.250000000  -0.250000000
          6  -0.250000000  -0.250000000   0.250000000
          7  -0.250000000   0.250000000   0.250000000
          8   0.250000000   0.250000000  -0.250000000

     Diagonalizing the dynamical matrix

     q = (   -0.250000000   0.250000000  -0.250000000 ) 

 **************************************************************************
     freq (    1) =       3.404389 [THz] =     113.558204 [cm-1]
     freq (    2) =       3.404389 [THz] =     113.558204 [cm-1]
     freq (    3) =       6.816048 [THz] =     227.358896 [cm-1]
     freq (    4) =      14.652659 [THz] =     488.760092 [cm-1]
     freq (    5) =      14.926777 [THz] =     497.903694 [cm-1]
     freq (    6) =      14.926777 [THz] =     497.903694 [cm-1]
 **************************************************************************

     Mode symmetry, C_3v (3m)   point group:

     freq (  1 -  2) =        113.6  [cm-1]   --> E    L_3           
     freq (  3 -  3) =        227.4  [cm-1]   --> A_1  L_1           
     freq (  4 -  4) =        488.8  [cm-1]   --> A_1  L_1           
     freq (  5 -  6) =        497.9  [cm-1]   --> E    L_3           

     Calculation of q =    0.5000000  -0.5000000   0.5000000

   Info: using nr1, nr2, nr3 values from input

   Info: using nr1, nr2, nr3 values from input

     Parallelization info
     --------------------
     sticks:   dense  smooth     PW     G-vecs:    dense   smooth      PW
     Min          66      66     27                  722      722     186
     Max          67      67     28                  724      724     189
     Sum         265     265    109                 2891     2891     749



     bravais-lattice index     =            2
     lattice parameter (alat)  =      10.4050  a.u.
     unit-cell volume          =     281.6218 (a.u.)^3
     number of atoms/cell      =            2
     number of atomic types    =            1
     number of electrons       =         8.00
     number of Kohn-Sham states=            4
     kinetic-energy cutoff     =      18.0000  Ry
     charge density cutoff     =      72.0000  Ry
     Exchange-correlation      = SLA  PW   PBE  PBE ( 1  4  3  4 0 0)

     celldm(1)=  10.405000  celldm(2)=   0.000000  celldm(3)=   0.000000
     celldm(4)=   0.000000  celldm(5)=   0.000000  celldm(6)=   0.000000

     crystal axes: (cart. coord. in units of alat)
               a(1) = (  -0.500000   0.000000   0.500000 )  
               a(2) = (   0.000000   0.500000   0.500000 )  
               a(3) = (  -0.500000   0.500000   0.000000 )  

     reciprocal axes: (cart. coord. in units 2 pi/alat)
               b(1) = ( -1.000000 -1.000000  1.000000 )  
               b(2) = (  1.000000  1.000000  1.000000 )  
               b(3) = ( -1.000000  1.000000 -1.000000 )  


     PseudoPot. # 1 for Si read from file:
     /home/max/quantum_espresso/qe-6.1/pseudo/si_pbe_v1.uspp.F.UPF.txt
     MD5 check sum: a056efeee980c13900f22a371efd63c1
     Pseudo is Ultrasoft + core correction, Zval =  4.0
     Generated by new atomic code, or converted to UPF format
     Using radial grid of  899 points,  6 beta functions with: 
                l(1) =   0
                l(2) =   0
                l(3) =   1
                l(4) =   1
                l(5) =   2
                l(6) =   2
     Q(r) pseudized with  8 coefficients,  rinner =    0.900   0.900   0.900
                                                       0.900   0.900

     atomic species   valence    mass     pseudopotential
        Si             4.00    28.08600     Si( 1.00)

     48 Sym. Ops., with inversion, found



   Cartesian axes

     site n.     atom                  positions (alat units)
         1           Si  tau(   1) = (   0.0000000   0.0000000   0.0000000  )
         2           Si  tau(   2) = (   0.2500000   0.2500000   0.2500000  )

     number of k points=    60
                       cart. coord. in units 2pi/alat
        k(    1) = (  -0.1250000   0.1250000   0.1250000), wk =   0.0468750
        k(    2) = (   0.3750000  -0.3750000   0.6250000), wk =   0.0000000
        k(    3) = (  -0.3750000   0.3750000  -0.1250000), wk =   0.0468750
        k(    4) = (   0.1250000  -0.1250000   0.3750000), wk =   0.0000000
        k(    5) = (   0.3750000  -0.3750000   0.6250000), wk =   0.0468750
        k(    6) = (   0.8750000  -0.8750000   1.1250000), wk =   0.0000000
        k(    7) = (   0.1250000  -0.1250000   0.3750000), wk =   0.0468750
        k(    8) = (   0.6250000  -0.6250000   0.8750000), wk =   0.0000000
        k(    9) = (  -0.1250000   0.6250000   0.1250000), wk =   0.0937500
        k(   10) = (   0.3750000   0.1250000   0.6250000), wk =   0.0000000
        k(   11) = (   0.6250000  -0.1250000   0.8750000), wk =   0.0937500
        k(   12) = (   1.1250000  -0.6250000   1.3750000), wk =   0.0000000
        k(   13) = (   0.3750000   0.1250000   0.6250000), wk =   0.0937500
        k(   14) = (   0.8750000  -0.3750000   1.1250000), wk =   0.0000000
        k(   15) = (  -0.1250000  -0.8750000   0.1250000), wk =   0.0937500
        k(   16) = (   0.3750000  -1.3750000   0.6250000), wk =   0.0000000
        k(   17) = (  -0.3750000   0.3750000   0.3750000), wk =   0.0468750
        k(   18) = (   0.1250000  -0.1250000   0.8750000), wk =   0.0000000
        k(   19) = (   0.3750000  -0.3750000   1.1250000), wk =   0.0468750
        k(   20) = (   0.8750000  -0.8750000   1.6250000), wk =   0.0000000
        k(   21) = (   0.1250000  -0.1250000   0.1250000), wk =   0.0156250
        k(   22) = (   0.6250000  -0.6250000   0.6250000), wk =   0.0000000
        k(   23) = (  -0.3750000  -0.3750000  -0.1250000), wk =   0.0937500
        k(   24) = (   0.1250000  -0.8750000   0.3750000), wk =   0.0000000
        k(   25) = (  -0.1250000  -0.3750000   0.3750000), wk =   0.0468750
        k(   26) = (   0.3750000  -0.8750000   0.8750000), wk =   0.0000000
        k(   27) = (   0.3750000   0.3750000   0.6250000), wk =   0.0937500
        k(   28) = (   0.8750000  -0.1250000   1.1250000), wk =   0.0000000
        k(   29) = (   0.6250000   0.3750000  -0.3750000), wk =   0.0468750
        k(   30) = (   1.1250000  -0.1250000   0.1250000), wk =   0.0000000
        k(   31) = (   0.1250000   0.1250000   0.3750000), wk =   0.0937500
        k(   32) = (   0.6250000  -0.3750000   0.8750000), wk =   0.0000000
        k(   33) = (   0.3750000   0.1250000  -0.1250000), wk =   0.0468750
        k(   34) = (   0.8750000  -0.3750000   0.3750000), wk =   0.0000000
        k(   35) = (  -0.1250000  -0.6250000  -0.1250000), wk =   0.0468750
        k(   36) = (   0.3750000  -1.1250000   0.3750000), wk =   0.0000000
        k(   37) = (   0.1250000  -0.6250000   0.1250000), wk =   0.0468750
        k(   38) = (   0.6250000  -1.1250000   0.6250000), wk =   0.0000000
        k(   39) = (   0.6250000   0.1250000   0.8750000), wk =   0.0937500
        k(   40) = (   1.1250000  -0.3750000   1.3750000), wk =   0.0000000
        k(   41) = (  -0.8750000   0.1250000   0.6250000), wk =   0.0937500
        k(   42) = (  -0.3750000  -0.3750000   1.1250000), wk =   0.0000000
        k(   43) = (   0.8750000   0.1250000  -0.6250000), wk =   0.0937500
        k(   44) = (   1.3750000  -0.3750000  -0.1250000), wk =   0.0000000
        k(   45) = (   0.3750000  -0.1250000   0.6250000), wk =   0.0937500
        k(   46) = (   0.8750000  -0.6250000   1.1250000), wk =   0.0000000
        k(   47) = (  -0.6250000  -0.1250000   0.3750000), wk =   0.0937500
        k(   48) = (  -0.1250000  -0.6250000   0.8750000), wk =   0.0000000
        k(   49) = (   0.6250000  -0.1250000  -0.3750000), wk =   0.0937500
        k(   50) = (   1.1250000  -0.6250000   0.1250000), wk =   0.0000000
        k(   51) = (  -0.1250000   0.8750000  -0.1250000), wk =   0.0468750
        k(   52) = (   0.3750000   0.3750000   0.3750000), wk =   0.0000000
        k(   53) = (   0.1250000   0.8750000   0.1250000), wk =   0.0468750
        k(   54) = (   0.6250000   0.3750000   0.6250000), wk =   0.0000000
        k(   55) = (   0.3750000  -0.3750000   0.3750000), wk =   0.0156250
        k(   56) = (   0.8750000  -0.8750000   0.8750000), wk =   0.0000000
        k(   57) = (   0.3750000   0.3750000   1.1250000), wk =   0.0937500
        k(   58) = (   0.8750000  -0.1250000   1.6250000), wk =   0.0000000
        k(   59) = (   1.1250000   0.3750000  -0.3750000), wk =   0.0468750
        k(   60) = (   1.6250000  -0.1250000   0.1250000), wk =   0.0000000

     Dense  grid:     2891 G-vectors     FFT dimensions: (  20,  20,  20)

     Estimated max dynamical RAM per process >       0.33MB

     Estimated total allocated dynamical RAM >       1.33MB

     Check: negative/imaginary core charge=   -0.000006    0.000000

     The potential is recalculated from file :
     ./_ph0/silicon.10.405.save/charge-density.dat

     Starting wfc are    8 atomic wfcs

     Band Structure Calculation
     Davidson diagonalization with overlap

     ethr =  1.25E-10,  avg # of iterations = 11.7

     total cpu time spent up to now is        1.7 secs

     End of band structure calculation

          k =-0.1250 0.1250 0.1250 (   353 PWs)   bands (ev):

    -5.7059   4.1845   5.4959   5.4959

          k = 0.3750-0.3750 0.6250 (   364 PWs)   bands (ev):

    -3.5933  -0.8004   3.5593   4.2665

          k =-0.3750 0.3750-0.1250 (   362 PWs)   bands (ev):

    -4.7012   1.2273   3.5502   5.0194

          k = 0.1250-0.1250 0.3750 (   358 PWs)   bands (ev):

    -5.1886   2.5759   4.5110   4.5628

          k = 0.3750-0.3750 0.6250 (   364 PWs)   bands (ev):

    -3.5933  -0.8004   3.5593   4.2665

          k = 0.8750-0.8750 1.1250 (   353 PWs)   bands (ev):

    -5.7059   4.1845   5.4959   5.4959

          k = 0.1250-0.1250 0.3750 (   358 PWs)   bands (ev):

    -5.1886   2.5759   4.5110   4.5628

          k = 0.6250-0.6250 0.8750 (   362 PWs)   bands (ev):

    -4.7012   1.2273   3.5502   5.0194

          k =-0.1250 0.6250 0.1250 (   357 PWs)   bands (ev):

    -4.1783   0.8710   3.2142   3.6536

          k = 0.3750 0.1250 0.6250 (   365 PWs)   bands (ev):

    -3.7746   0.0283   2.5831   3.9243

          k = 0.6250-0.1250 0.8750 (   368 PWs)   bands (ev):

    -2.5793  -1.0594   1.9010   2.9488

          k = 1.1250-0.6250 1.3750 (   362 PWs)   bands (ev):

    -4.7012   1.2273   3.5502   5.0194

          k = 0.3750 0.1250 0.6250 (   365 PWs)   bands (ev):

    -3.7746   0.0283   2.5831   3.9243

          k = 0.8750-0.3750 1.1250 (   357 PWs)   bands (ev):

    -4.1783   0.8710   3.2142   3.6536

          k =-0.1250-0.8750 0.1250 (   364 PWs)   bands (ev):

    -2.7371  -0.9669   2.4927   3.1950

          k = 0.3750-1.3750 0.6250 (   364 PWs)   bands (ev):

    -3.5933  -0.8004   3.5593   4.2665

          k =-0.3750 0.3750 0.3750 (   359 PWs)   bands (ev):

    -4.2797  -0.0263   4.7191   4.7191

          k = 0.1250-0.1250 0.8750 (   364 PWs)   bands (ev):

    -2.7371  -0.9669   2.4927   3.1950

          k = 0.3750-0.3750 1.1250 (   369 PWs)   bands (ev):

    -3.1071  -0.7433   1.9491   3.9574

          k = 0.8750-0.8750 1.6250 (   357 PWs)   bands (ev):

    -4.1783   0.8710   3.2142   3.6536

          k = 0.1250-0.1250 0.1250 (   353 PWs)   bands (ev):

    -5.7059   4.1845   5.4959   5.4959

          k = 0.6250-0.6250 0.6250 (   359 PWs)   bands (ev):

    -4.2797  -0.0263   4.7191   4.7191

          k =-0.3750-0.3750-0.1250 (   362 PWs)   bands (ev):

    -4.7012   1.2273   3.5502   5.0194

          k = 0.1250-0.8750 0.3750 (   368 PWs)   bands (ev):

    -2.5793  -1.0594   1.9010   2.9488

          k =-0.1250-0.3750 0.3750 (   362 PWs)   bands (ev):

    -4.7012   1.2273   3.5502   5.0194

          k = 0.3750-0.8750 0.8750 (   357 PWs)   bands (ev):

    -4.1783   0.8710   3.2142   3.6536

          k = 0.3750 0.3750 0.6250 (   364 PWs)   bands (ev):

    -3.5933  -0.8004   3.5593   4.2665

          k = 0.8750-0.1250 1.1250 (   364 PWs)   bands (ev):

    -2.7371  -0.9669   2.4927   3.1950

          k = 0.6250 0.3750-0.3750 (   364 PWs)   bands (ev):

    -3.5933  -0.8004   3.5593   4.2665

          k = 1.1250-0.1250 0.1250 (   364 PWs)   bands (ev):

    -2.7371  -0.9669   2.4927   3.1950

          k = 0.1250 0.1250 0.3750 (   358 PWs)   bands (ev):

    -5.1886   2.5759   4.5110   4.5628

          k = 0.6250-0.3750 0.8750 (   365 PWs)   bands (ev):

    -3.7746   0.0283   2.5831   3.9243

          k = 0.3750 0.1250-0.1250 (   358 PWs)   bands (ev):

    -5.1886   2.5759   4.5110   4.5628

          k = 0.8750-0.3750 0.3750 (   369 PWs)   bands (ev):

    -3.1071  -0.7433   1.9491   3.9574

          k =-0.1250-0.6250-0.1250 (   357 PWs)   bands (ev):

    -4.1783   0.8710   3.2142   3.6536

          k = 0.3750-1.1250 0.3750 (   369 PWs)   bands (ev):

    -3.1071  -0.7433   1.9491   3.9574

          k = 0.1250-0.6250 0.1250 (   357 PWs)   bands (ev):

    -4.1783   0.8710   3.2142   3.6536

          k = 0.6250-1.1250 0.6250 (   362 PWs)   bands (ev):

    -4.7012   1.2273   3.5502   5.0194

          k = 0.6250 0.1250 0.8750 (   368 PWs)   bands (ev):

    -2.5793  -1.0594   1.9010   2.9488

          k = 1.1250-0.3750 1.3750 (   365 PWs)   bands (ev):

    -3.7746   0.0283   2.5831   3.9243

          k =-0.8750 0.1250 0.6250 (   368 PWs)   bands (ev):

    -2.5793  -1.0594   1.9010   2.9488

          k =-0.3750-0.3750 1.1250 (   369 PWs)   bands (ev):

    -3.1071  -0.7433   1.9491   3.9574

          k = 0.8750 0.1250-0.6250 (   368 PWs)   bands (ev):

    -2.5793  -1.0594   1.9010   2.9488

          k = 1.3750-0.3750-0.1250 (   365 PWs)   bands (ev):

    -3.7746   0.0283   2.5831   3.9243

          k = 0.3750-0.1250 0.6250 (   365 PWs)   bands (ev):

    -3.7746   0.0283   2.5831   3.9243

          k = 0.8750-0.6250 1.1250 (   358 PWs)   bands (ev):

    -5.1886   2.5759   4.5110   4.5628

          k =-0.6250-0.1250 0.3750 (   365 PWs)   bands (ev):

    -3.7746   0.0283   2.5831   3.9243

          k =-0.1250-0.6250 0.8750 (   368 PWs)   bands (ev):

    -2.5793  -1.0594   1.9010   2.9488

          k = 0.6250-0.1250-0.3750 (   365 PWs)   bands (ev):

    -3.7746   0.0283   2.5831   3.9243

          k = 1.1250-0.6250 0.1250 (   368 PWs)   bands (ev):

    -2.5793  -1.0594   1.9010   2.9488

          k =-0.1250 0.8750-0.1250 (   364 PWs)   bands (ev):

    -2.7371  -0.9669   2.4927   3.1950

          k = 0.3750 0.3750 0.3750 (   359 PWs)   bands (ev):

    -4.2797  -0.0263   4.7191   4.7191

          k = 0.1250 0.8750 0.1250 (   364 PWs)   bands (ev):

    -2.7371  -0.9669   2.4927   3.1950

          k = 0.6250 0.3750 0.6250 (   364 PWs)   bands (ev):

    -3.5933  -0.8004   3.5593   4.2665

          k = 0.3750-0.3750 0.3750 (   359 PWs)   bands (ev):

    -4.2797  -0.0263   4.7191   4.7191

          k = 0.8750-0.8750 0.8750 (   353 PWs)   bands (ev):

    -5.7059   4.1845   5.4959   5.4959

          k = 0.3750 0.3750 1.1250 (   369 PWs)   bands (ev):

    -3.1071  -0.7433   1.9491   3.9574

          k = 0.8750-0.1250 1.6250 (   368 PWs)   bands (ev):

    -2.5793  -1.0594   1.9010   2.9488

          k = 1.1250 0.3750-0.3750 (   369 PWs)   bands (ev):

    -3.1071  -0.7433   1.9491   3.9574

          k = 1.6250-0.1250 0.1250 (   358 PWs)   bands (ev):

    -5.1886   2.5759   4.5110   4.5628

     highest occupied level (ev):     5.4959

     Writing output data file silicon.10.405.save

                                                                                

     bravais-lattice index     =            2
     lattice parameter (alat)  =      10.4050  a.u.
     unit-cell volume          =     281.6218 (a.u.)^3
     number of atoms/cell      =            2
     number of atomic types    =            1
     kinetic-energy cut-off    =      18.0000  Ry
     charge density cut-off    =      72.0000  Ry
     convergence threshold     =      1.0E-12
     beta                      =       0.7000
     number of iterations used =            4
     Exchange-correlation      = SLA  PW   PBE  PBE ( 1  4  3  4 0 0)


     celldm(1)=   10.40500  celldm(2)=    0.00000  celldm(3)=    0.00000
     celldm(4)=    0.00000  celldm(5)=    0.00000  celldm(6)=    0.00000

     crystal axes: (cart. coord. in units of alat)
               a(1) = ( -0.5000  0.0000  0.5000 )  
               a(2) = (  0.0000  0.5000  0.5000 )  
               a(3) = ( -0.5000  0.5000  0.0000 )  

     reciprocal axes: (cart. coord. in units 2 pi/alat)
               b(1) = ( -1.0000 -1.0000  1.0000 )  
               b(2) = (  1.0000  1.0000  1.0000 )  
               b(3) = ( -1.0000  1.0000 -1.0000 )  


     Atoms inside the unit cell: 

     Cartesian axes

     site n.  atom      mass           positions (alat units)
        1     Si  28.0860   tau(    1) = (    0.00000    0.00000    0.00000  )
        2     Si  28.0860   tau(    2) = (    0.25000    0.25000    0.25000  )

     Computing dynamical matrix for 
                    q = (   0.5000000  -0.5000000   0.5000000 )

     13 Sym.Ops. (with q -> -q+G )


     G cutoff =  197.4499  (    722 G-vectors)     FFT grid: ( 20, 20, 20)
     number of k points=    60

     PseudoPot. # 1 for Si read from file:
     /home/max/quantum_espresso/qe-6.1/pseudo/si_pbe_v1.uspp.F.UPF.txt
     MD5 check sum: a056efeee980c13900f22a371efd63c1
     Pseudo is Ultrasoft + core correction, Zval =  4.0
     Generated by new atomic code, or converted to UPF format
     Using radial grid of  899 points,  6 beta functions with: 
                l(1) =   0
                l(2) =   0
                l(3) =   1
                l(4) =   1
                l(5) =   2
                l(6) =   2
     Q(r) pseudized with  8 coefficients,  rinner =    0.900   0.900   0.900
                                                       0.900   0.900


     Atomic displacements:
     There are   4 irreducible representations

     Representation     1      1 modes -  To be done

     Representation     2      1 modes -  To be done

     Representation     3      2 modes -  To be done

     Representation     4      2 modes -  To be done



     Alpha used in Ewald sum =   0.7000
     PHONON       :    16.65s CPU        18.31s WALL



     Representation #  1 mode #   1

     Self-consistent Calculation

      iter #   1 total cpu time :    18.4 secs   av.it.:   4.8
      thresh= 1.000E-02 alpha_mix =  0.700 |ddv_scf|^2 =  2.427E-05

      iter #   2 total cpu time :    18.6 secs   av.it.:   8.4
      thresh= 4.927E-04 alpha_mix =  0.700 |ddv_scf|^2 =  2.221E-05

      iter #   3 total cpu time :    18.9 secs   av.it.:   7.5
      thresh= 4.712E-04 alpha_mix =  0.700 |ddv_scf|^2 =  3.823E-08

      iter #   4 total cpu time :    19.2 secs   av.it.:   7.6
      thresh= 1.955E-05 alpha_mix =  0.700 |ddv_scf|^2 =  1.469E-10

      iter #   5 total cpu time :    19.3 secs   av.it.:   7.8
      thresh= 1.212E-06 alpha_mix =  0.700 |ddv_scf|^2 =  4.185E-12

      iter #   6 total cpu time :    19.5 secs   av.it.:   7.7
      thresh= 2.046E-07 alpha_mix =  0.700 |ddv_scf|^2 =  7.408E-14

     End of self-consistent calculation

     Convergence has been achieved 


     Representation #  2 mode #   2

     Self-consistent Calculation

      iter #   1 total cpu time :    19.6 secs   av.it.:   5.6
      thresh= 1.000E-02 alpha_mix =  0.700 |ddv_scf|^2 =  3.409E-04

      iter #   2 total cpu time :    19.7 secs   av.it.:   8.3
      thresh= 1.846E-03 alpha_mix =  0.700 |ddv_scf|^2 =  1.054E-03

      iter #   3 total cpu time :    19.9 secs   av.it.:   7.1
      thresh= 3.247E-03 alpha_mix =  0.700 |ddv_scf|^2 =  1.467E-07

      iter #   4 total cpu time :    20.0 secs   av.it.:   8.2
      thresh= 3.830E-05 alpha_mix =  0.700 |ddv_scf|^2 =  1.004E-08

      iter #   5 total cpu time :    20.2 secs   av.it.:   8.4
      thresh= 1.002E-05 alpha_mix =  0.700 |ddv_scf|^2 =  1.675E-10

      iter #   6 total cpu time :    20.3 secs   av.it.:   8.2
      thresh= 1.294E-06 alpha_mix =  0.700 |ddv_scf|^2 =  3.982E-12

      iter #   7 total cpu time :    20.4 secs   av.it.:   7.5
      thresh= 1.996E-07 alpha_mix =  0.700 |ddv_scf|^2 =  1.941E-14

     End of self-consistent calculation

     Convergence has been achieved 


     Representation #  3 modes #   3  4

     Self-consistent Calculation

      iter #   1 total cpu time :    20.7 secs   av.it.:   4.7
      thresh= 1.000E-02 alpha_mix =  0.700 |ddv_scf|^2 =  3.422E-07

      iter #   2 total cpu time :    21.3 secs   av.it.:   9.0
      thresh= 5.849E-05 alpha_mix =  0.700 |ddv_scf|^2 =  2.952E-08

      iter #   3 total cpu time :    21.5 secs   av.it.:   8.3
      thresh= 1.718E-05 alpha_mix =  0.700 |ddv_scf|^2 =  5.131E-10

      iter #   4 total cpu time :    21.8 secs   av.it.:   8.9
      thresh= 2.265E-06 alpha_mix =  0.700 |ddv_scf|^2 =  6.455E-12

      iter #   5 total cpu time :    22.1 secs   av.it.:   8.7
      thresh= 2.541E-07 alpha_mix =  0.700 |ddv_scf|^2 =  3.599E-14

     End of self-consistent calculation

     Convergence has been achieved 


     Representation #  4 modes #   5  6

     Self-consistent Calculation

      iter #   1 total cpu time :    22.3 secs   av.it.:   5.0
      thresh= 1.000E-02 alpha_mix =  0.700 |ddv_scf|^2 =  9.420E-07

      iter #   2 total cpu time :    22.7 secs   av.it.:   9.5
      thresh= 9.705E-05 alpha_mix =  0.700 |ddv_scf|^2 =  7.491E-08

      iter #   3 total cpu time :    23.3 secs   av.it.:   9.3
      thresh= 2.737E-05 alpha_mix =  0.700 |ddv_scf|^2 =  4.483E-09

      iter #   4 total cpu time :    23.6 secs   av.it.:   8.5
      thresh= 6.696E-06 alpha_mix =  0.700 |ddv_scf|^2 =  6.542E-12

      iter #   5 total cpu time :    23.8 secs   av.it.:   8.8
      thresh= 2.558E-07 alpha_mix =  0.700 |ddv_scf|^2 =  2.573E-14

     End of self-consistent calculation

     Convergence has been achieved 

     Number of q in the star =    4
     List of q in the star:
          1   0.500000000  -0.500000000   0.500000000
          2   0.500000000   0.500000000   0.500000000
          3  -0.500000000   0.500000000   0.500000000
          4   0.500000000   0.500000000  -0.500000000

     Diagonalizing the dynamical matrix

     q = (    0.500000000  -0.500000000   0.500000000 ) 

 **************************************************************************
     freq (    1) =       5.107821 [THz] =     170.378562 [cm-1]
     freq (    2) =       5.107821 [THz] =     170.378562 [cm-1]
     freq (    3) =      11.897673 [THz] =     396.863639 [cm-1]
     freq (    4) =      12.177903 [THz] =     406.211115 [cm-1]
     freq (    5) =      14.692781 [THz] =     490.098434 [cm-1]
     freq (    6) =      14.692781 [THz] =     490.098434 [cm-1]
 **************************************************************************

     Calculation of q =    0.0000000   0.5000000   0.0000000

   Info: using nr1, nr2, nr3 values from input

   Info: using nr1, nr2, nr3 values from input

     Parallelization info
     --------------------
     sticks:   dense  smooth     PW     G-vecs:    dense   smooth      PW
     Min          66      66     27                  722      722     181
     Max          67      67     28                  724      724     182
     Sum         265     265    109                 2891     2891     725



     bravais-lattice index     =            2
     lattice parameter (alat)  =      10.4050  a.u.
     unit-cell volume          =     281.6218 (a.u.)^3
     number of atoms/cell      =            2
     number of atomic types    =            1
     number of electrons       =         8.00
     number of Kohn-Sham states=            4
     kinetic-energy cutoff     =      18.0000  Ry
     charge density cutoff     =      72.0000  Ry
     Exchange-correlation      = SLA  PW   PBE  PBE ( 1  4  3  4 0 0)

     celldm(1)=  10.405000  celldm(2)=   0.000000  celldm(3)=   0.000000
     celldm(4)=   0.000000  celldm(5)=   0.000000  celldm(6)=   0.000000

     crystal axes: (cart. coord. in units of alat)
               a(1) = (  -0.500000   0.000000   0.500000 )  
               a(2) = (   0.000000   0.500000   0.500000 )  
               a(3) = (  -0.500000   0.500000   0.000000 )  

     reciprocal axes: (cart. coord. in units 2 pi/alat)
               b(1) = ( -1.000000 -1.000000  1.000000 )  
               b(2) = (  1.000000  1.000000  1.000000 )  
               b(3) = ( -1.000000  1.000000 -1.000000 )  


     PseudoPot. # 1 for Si read from file:
     /home/max/quantum_espresso/qe-6.1/pseudo/si_pbe_v1.uspp.F.UPF.txt
     MD5 check sum: a056efeee980c13900f22a371efd63c1
     Pseudo is Ultrasoft + core correction, Zval =  4.0
     Generated by new atomic code, or converted to UPF format
     Using radial grid of  899 points,  6 beta functions with: 
                l(1) =   0
                l(2) =   0
                l(3) =   1
                l(4) =   1
                l(5) =   2
                l(6) =   2
     Q(r) pseudized with  8 coefficients,  rinner =    0.900   0.900   0.900
                                                       0.900   0.900

     atomic species   valence    mass     pseudopotential
        Si             4.00    28.08600     Si( 1.00)

     48 Sym. Ops., with inversion, found



   Cartesian axes

     site n.     atom                  positions (alat units)
         1           Si  tau(   1) = (   0.0000000   0.0000000   0.0000000  )
         2           Si  tau(   2) = (   0.2500000   0.2500000   0.2500000  )

     number of k points=    80
                       cart. coord. in units 2pi/alat
        k(    1) = (  -0.1250000   0.1250000   0.1250000), wk =   0.0312500
        k(    2) = (  -0.1250000   0.6250000   0.1250000), wk =   0.0000000
        k(    3) = (  -0.3750000   0.3750000  -0.1250000), wk =   0.0625000
        k(    4) = (  -0.3750000   0.8750000  -0.1250000), wk =   0.0000000
        k(    5) = (   0.3750000  -0.3750000   0.6250000), wk =   0.0625000
        k(    6) = (   0.3750000   0.1250000   0.6250000), wk =   0.0000000
        k(    7) = (   0.1250000  -0.1250000   0.3750000), wk =   0.0625000
        k(    8) = (   0.1250000   0.3750000   0.3750000), wk =   0.0000000
        k(    9) = (  -0.1250000   0.6250000   0.1250000), wk =   0.0312500
        k(   10) = (  -0.1250000   1.1250000   0.1250000), wk =   0.0000000
        k(   11) = (   0.6250000  -0.1250000   0.8750000), wk =   0.0625000
        k(   12) = (   0.6250000   0.3750000   0.8750000), wk =   0.0000000
        k(   13) = (   0.3750000   0.1250000   0.6250000), wk =   0.0625000
        k(   14) = (   0.3750000   0.6250000   0.6250000), wk =   0.0000000
        k(   15) = (  -0.1250000  -0.8750000   0.1250000), wk =   0.0312500
        k(   16) = (  -0.1250000  -0.3750000   0.1250000), wk =   0.0000000
        k(   17) = (  -0.3750000   0.3750000   0.3750000), wk =   0.0312500
        k(   18) = (  -0.3750000   0.8750000   0.3750000), wk =   0.0000000
        k(   19) = (   0.3750000  -0.3750000   1.1250000), wk =   0.0625000
        k(   20) = (   0.3750000   0.1250000   1.1250000), wk =   0.0000000
        k(   21) = (  -0.1250000  -0.1250000   0.1250000), wk =   0.0312500
        k(   22) = (  -0.1250000   0.3750000   0.1250000), wk =   0.0000000
        k(   23) = (   0.1250000  -0.3750000   0.3750000), wk =   0.0625000
        k(   24) = (   0.1250000   0.1250000   0.3750000), wk =   0.0000000
        k(   25) = (   0.3750000  -0.1250000   0.3750000), wk =   0.0312500
        k(   26) = (   0.3750000   0.3750000   0.3750000), wk =   0.0000000
        k(   27) = (   0.3750000   0.1250000   0.3750000), wk =   0.0312500
        k(   28) = (   0.3750000   0.6250000   0.3750000), wk =   0.0000000
        k(   29) = (  -0.6250000   0.3750000  -0.3750000), wk =   0.0625000
        k(   30) = (  -0.6250000   0.8750000  -0.3750000), wk =   0.0000000
        k(   31) = (  -0.3750000   0.6250000  -0.3750000), wk =   0.0312500
        k(   32) = (  -0.3750000   1.1250000  -0.3750000), wk =   0.0000000
        k(   33) = (  -0.3750000  -0.6250000  -0.3750000), wk =   0.0312500
        k(   34) = (  -0.3750000  -0.1250000  -0.3750000), wk =   0.0000000
        k(   35) = (  -0.3750000   0.1250000  -0.1250000), wk =   0.0625000
        k(   36) = (  -0.3750000   0.6250000  -0.1250000), wk =   0.0000000
        k(   37) = (  -0.1250000   0.3750000  -0.1250000), wk =   0.0312500
        k(   38) = (  -0.1250000   0.8750000  -0.1250000), wk =   0.0000000
        k(   39) = (  -0.1250000  -0.3750000  -0.1250000), wk =   0.0312500
        k(   40) = (  -0.1250000   0.1250000  -0.1250000), wk =   0.0000000
        k(   41) = (  -0.1250000  -0.6250000   0.1250000), wk =   0.0312500
        k(   42) = (  -0.1250000  -0.1250000   0.1250000), wk =   0.0000000
        k(   43) = (   0.6250000  -0.1250000  -0.1250000), wk =   0.0625000
        k(   44) = (   0.6250000   0.3750000  -0.1250000), wk =   0.0000000
        k(   45) = (   0.6250000   0.1250000   0.1250000), wk =   0.0625000
        k(   46) = (   0.6250000   0.6250000   0.1250000), wk =   0.0000000
        k(   47) = (  -0.8750000   0.1250000  -0.6250000), wk =   0.0625000
        k(   48) = (  -0.8750000   0.6250000  -0.6250000), wk =   0.0000000
        k(   49) = (  -0.1250000   0.6250000  -0.8750000), wk =   0.0625000
        k(   50) = (  -0.1250000   1.1250000  -0.8750000), wk =   0.0000000
        k(   51) = (  -0.1250000   0.8750000  -0.6250000), wk =   0.0625000
        k(   52) = (  -0.1250000   1.3750000  -0.6250000), wk =   0.0000000
        k(   53) = (  -0.1250000  -0.8750000  -0.6250000), wk =   0.0625000
        k(   54) = (  -0.1250000  -0.3750000  -0.6250000), wk =   0.0000000
        k(   55) = (   0.8750000  -0.6250000   0.1250000), wk =   0.0625000
        k(   56) = (   0.8750000  -0.1250000   0.1250000), wk =   0.0000000
        k(   57) = (  -0.6250000  -0.1250000  -0.3750000), wk =   0.0625000
        k(   58) = (  -0.6250000   0.3750000  -0.3750000), wk =   0.0000000
        k(   59) = (   0.1250000   0.3750000  -0.6250000), wk =   0.0625000
        k(   60) = (   0.1250000   0.8750000  -0.6250000), wk =   0.0000000
        k(   61) = (   0.1250000   0.6250000  -0.3750000), wk =   0.0625000
        k(   62) = (   0.1250000   1.1250000  -0.3750000), wk =   0.0000000
        k(   63) = (   0.1250000  -0.6250000  -0.3750000), wk =   0.0625000
        k(   64) = (   0.1250000  -0.1250000  -0.3750000), wk =   0.0000000
        k(   65) = (   0.6250000  -0.3750000  -0.1250000), wk =   0.0625000
        k(   66) = (   0.6250000   0.1250000  -0.1250000), wk =   0.0000000
        k(   67) = (  -0.1250000   0.8750000   0.1250000), wk =   0.0312500
        k(   68) = (  -0.1250000   1.3750000   0.1250000), wk =   0.0000000
        k(   69) = (  -0.8750000  -0.1250000  -0.1250000), wk =   0.0625000
        k(   70) = (  -0.8750000   0.3750000  -0.1250000), wk =   0.0000000
        k(   71) = (  -0.8750000   0.1250000   0.1250000), wk =   0.0625000
        k(   72) = (  -0.8750000   0.6250000   0.1250000), wk =   0.0000000
        k(   73) = (  -0.3750000  -0.3750000   0.3750000), wk =   0.0312500
        k(   74) = (  -0.3750000   0.1250000   0.3750000), wk =   0.0000000
        k(   75) = (  -1.1250000   0.3750000  -0.3750000), wk =   0.0625000
        k(   76) = (  -1.1250000   0.8750000  -0.3750000), wk =   0.0000000
        k(   77) = (  -0.3750000   1.1250000  -0.3750000), wk =   0.0312500
        k(   78) = (  -0.3750000   1.6250000  -0.3750000), wk =   0.0000000
        k(   79) = (  -0.3750000  -1.1250000  -0.3750000), wk =   0.0312500
        k(   80) = (  -0.3750000  -0.6250000  -0.3750000), wk =   0.0000000

     Dense  grid:     2891 G-vectors     FFT dimensions: (  20,  20,  20)

     Estimated max dynamical RAM per process >       0.33MB

     Estimated total allocated dynamical RAM >       1.33MB

     Check: negative/imaginary core charge=   -0.000006    0.000000

     The potential is recalculated from file :
     ./_ph0/silicon.10.405.save/charge-density.dat

     Starting wfc are    8 atomic wfcs

     Band Structure Calculation
     Davidson diagonalization with overlap

     ethr =  1.25E-10,  avg # of iterations = 11.7

     total cpu time spent up to now is        2.3 secs

     End of band structure calculation

          k =-0.1250 0.1250 0.1250 (   353 PWs)   bands (ev):

    -5.7059   4.1845   5.4959   5.4959

          k =-0.1250 0.6250 0.1250 (   357 PWs)   bands (ev):

    -4.1783   0.8710   3.2142   3.6536

          k =-0.3750 0.3750-0.1250 (   362 PWs)   bands (ev):

    -4.7012   1.2273   3.5502   5.0194

          k =-0.3750 0.8750-0.1250 (   368 PWs)   bands (ev):

    -2.5793  -1.0594   1.9010   2.9488

          k = 0.3750-0.3750 0.6250 (   364 PWs)   bands (ev):

    -3.5933  -0.8004   3.5593   4.2665

          k = 0.3750 0.1250 0.6250 (   365 PWs)   bands (ev):

    -3.7746   0.0283   2.5831   3.9243

          k = 0.1250-0.1250 0.3750 (   358 PWs)   bands (ev):

    -5.1886   2.5759   4.5110   4.5628

          k = 0.1250 0.3750 0.3750 (   362 PWs)   bands (ev):

    -4.7012   1.2273   3.5502   5.0194

          k =-0.1250 0.6250 0.1250 (   357 PWs)   bands (ev):

    -4.1783   0.8710   3.2142   3.6536

          k =-0.1250 1.1250 0.1250 (   364 PWs)   bands (ev):

    -2.7371  -0.9669   2.4927   3.1950

          k = 0.6250-0.1250 0.8750 (   368 PWs)   bands (ev):

    -2.5793  -1.0594   1.9010   2.9488

          k = 0.6250 0.3750 0.8750 (   365 PWs)   bands (ev):

    -3.7746   0.0283   2.5831   3.9243

          k = 0.3750 0.1250 0.6250 (   365 PWs)   bands (ev):

    -3.7746   0.0283   2.5831   3.9243

          k = 0.3750 0.6250 0.6250 (   364 PWs)   bands (ev):

    -3.5933  -0.8004   3.5593   4.2665

          k =-0.1250-0.8750 0.1250 (   364 PWs)   bands (ev):

    -2.7371  -0.9669   2.4927   3.1950

          k =-0.1250-0.3750 0.1250 (   358 PWs)   bands (ev):

    -5.1886   2.5759   4.5110   4.5628

          k =-0.3750 0.3750 0.3750 (   359 PWs)   bands (ev):

    -4.2797  -0.0263   4.7191   4.7191

          k =-0.3750 0.8750 0.3750 (   369 PWs)   bands (ev):

    -3.1071  -0.7433   1.9491   3.9574

          k = 0.3750-0.3750 1.1250 (   369 PWs)   bands (ev):

    -3.1071  -0.7433   1.9491   3.9574

          k = 0.3750 0.1250 1.1250 (   368 PWs)   bands (ev):

    -2.5793  -1.0594   1.9010   2.9488

          k =-0.1250-0.1250 0.1250 (   353 PWs)   bands (ev):

    -5.7059   4.1845   5.4959   5.4959

          k =-0.1250 0.3750 0.1250 (   358 PWs)   bands (ev):

    -5.1886   2.5759   4.5110   4.5628

          k = 0.1250-0.3750 0.3750 (   362 PWs)   bands (ev):

    -4.7012   1.2273   3.5502   5.0194

          k = 0.1250 0.1250 0.3750 (   358 PWs)   bands (ev):

    -5.1886   2.5759   4.5110   4.5628

          k = 0.3750-0.1250 0.3750 (   362 PWs)   bands (ev):

    -4.7012   1.2273   3.5502   5.0194

          k = 0.3750 0.3750 0.3750 (   359 PWs)   bands (ev):

    -4.2797  -0.0263   4.7191   4.7191

          k = 0.3750 0.1250 0.3750 (   362 PWs)   bands (ev):

    -4.7012   1.2273   3.5502   5.0194

          k = 0.3750 0.6250 0.3750 (   364 PWs)   bands (ev):

    -3.5933  -0.8004   3.5593   4.2665

          k =-0.6250 0.3750-0.3750 (   364 PWs)   bands (ev):

    -3.5933  -0.8004   3.5593   4.2665

          k =-0.6250 0.8750-0.3750 (   365 PWs)   bands (ev):

    -3.7746   0.0283   2.5831   3.9243

          k =-0.3750 0.6250-0.3750 (   364 PWs)   bands (ev):

    -3.5933  -0.8004   3.5593   4.2665

          k =-0.3750 1.1250-0.3750 (   369 PWs)   bands (ev):

    -3.1071  -0.7433   1.9491   3.9574

          k =-0.3750-0.6250-0.3750 (   364 PWs)   bands (ev):

    -3.5933  -0.8004   3.5593   4.2665

          k =-0.3750-0.1250-0.3750 (   362 PWs)   bands (ev):

    -4.7012   1.2273   3.5502   5.0194

          k =-0.3750 0.1250-0.1250 (   358 PWs)   bands (ev):

    -5.1886   2.5759   4.5110   4.5628

          k =-0.3750 0.6250-0.1250 (   365 PWs)   bands (ev):

    -3.7746   0.0283   2.5831   3.9243

          k =-0.1250 0.3750-0.1250 (   358 PWs)   bands (ev):

    -5.1886   2.5759   4.5110   4.5628

          k =-0.1250 0.8750-0.1250 (   364 PWs)   bands (ev):

    -2.7371  -0.9669   2.4927   3.1950

          k =-0.1250-0.3750-0.1250 (   358 PWs)   bands (ev):

    -5.1886   2.5759   4.5110   4.5628

          k =-0.1250 0.1250-0.1250 (   353 PWs)   bands (ev):

    -5.7059   4.1845   5.4959   5.4959

          k =-0.1250-0.6250 0.1250 (   357 PWs)   bands (ev):

    -4.1783   0.8710   3.2142   3.6536

          k =-0.1250-0.1250 0.1250 (   353 PWs)   bands (ev):

    -5.7059   4.1845   5.4959   5.4959

          k = 0.6250-0.1250-0.1250 (   357 PWs)   bands (ev):

    -4.1783   0.8710   3.2142   3.6536

          k = 0.6250 0.3750-0.1250 (   365 PWs)   bands (ev):

    -3.7746   0.0283   2.5831   3.9243

          k = 0.6250 0.1250 0.1250 (   357 PWs)   bands (ev):

    -4.1783   0.8710   3.2142   3.6536

          k = 0.6250 0.6250 0.1250 (   369 PWs)   bands (ev):

    -3.1071  -0.7433   1.9491   3.9574

          k =-0.8750 0.1250-0.6250 (   368 PWs)   bands (ev):

    -2.5793  -1.0594   1.9010   2.9488

          k =-0.8750 0.6250-0.6250 (   362 PWs)   bands (ev):

    -4.7012   1.2273   3.5502   5.0194

          k =-0.1250 0.6250-0.8750 (   368 PWs)   bands (ev):

    -2.5793  -1.0594   1.9010   2.9488

          k =-0.1250 1.1250-0.8750 (   364 PWs)   bands (ev):

    -2.7371  -0.9669   2.4927   3.1950

          k =-0.1250 0.8750-0.6250 (   368 PWs)   bands (ev):

    -2.5793  -1.0594   1.9010   2.9488

          k =-0.1250 1.3750-0.6250 (   369 PWs)   bands (ev):

    -3.1071  -0.7433   1.9491   3.9574

          k =-0.1250-0.8750-0.6250 (   368 PWs)   bands (ev):

    -2.5793  -1.0594   1.9010   2.9488

          k =-0.1250-0.3750-0.6250 (   365 PWs)   bands (ev):

    -3.7746   0.0283   2.5831   3.9243

          k = 0.8750-0.6250 0.1250 (   368 PWs)   bands (ev):

    -2.5793  -1.0594   1.9010   2.9488

          k = 0.8750-0.1250 0.1250 (   364 PWs)   bands (ev):

    -2.7371  -0.9669   2.4927   3.1950

          k =-0.6250-0.1250-0.3750 (   365 PWs)   bands (ev):

    -3.7746   0.0283   2.5831   3.9243

          k =-0.6250 0.3750-0.3750 (   364 PWs)   bands (ev):

    -3.5933  -0.8004   3.5593   4.2665

          k = 0.1250 0.3750-0.6250 (   365 PWs)   bands (ev):

    -3.7746   0.0283   2.5831   3.9243

          k = 0.1250 0.8750-0.6250 (   368 PWs)   bands (ev):

    -2.5793  -1.0594   1.9010   2.9488

          k = 0.1250 0.6250-0.3750 (   365 PWs)   bands (ev):

    -3.7746   0.0283   2.5831   3.9243

          k = 0.1250 1.1250-0.3750 (   368 PWs)   bands (ev):

    -2.5793  -1.0594   1.9010   2.9488

          k = 0.1250-0.6250-0.3750 (   365 PWs)   bands (ev):

    -3.7746   0.0283   2.5831   3.9243

          k = 0.1250-0.1250-0.3750 (   358 PWs)   bands (ev):

    -5.1886   2.5759   4.5110   4.5628

          k = 0.6250-0.3750-0.1250 (   365 PWs)   bands (ev):

    -3.7746   0.0283   2.5831   3.9243

          k = 0.6250 0.1250-0.1250 (   357 PWs)   bands (ev):

    -4.1783   0.8710   3.2142   3.6536

          k =-0.1250 0.8750 0.1250 (   364 PWs)   bands (ev):

    -2.7371  -0.9669   2.4927   3.1950

          k =-0.1250 1.3750 0.1250 (   357 PWs)   bands (ev):

    -4.1783   0.8710   3.2142   3.6536

          k =-0.8750-0.1250-0.1250 (   364 PWs)   bands (ev):

    -2.7371  -0.9669   2.4927   3.1950

          k =-0.8750 0.3750-0.1250 (   368 PWs)   bands (ev):

    -2.5793  -1.0594   1.9010   2.9488

          k =-0.8750 0.1250 0.1250 (   364 PWs)   bands (ev):

    -2.7371  -0.9669   2.4927   3.1950

          k =-0.8750 0.6250 0.1250 (   368 PWs)   bands (ev):

    -2.5793  -1.0594   1.9010   2.9488

          k =-0.3750-0.3750 0.3750 (   359 PWs)   bands (ev):

    -4.2797  -0.0263   4.7191   4.7191

          k =-0.3750 0.1250 0.3750 (   362 PWs)   bands (ev):

    -4.7012   1.2273   3.5502   5.0194

          k =-1.1250 0.3750-0.3750 (   369 PWs)   bands (ev):

    -3.1071  -0.7433   1.9491   3.9574

          k =-1.1250 0.8750-0.3750 (   357 PWs)   bands (ev):

    -4.1783   0.8710   3.2142   3.6536

          k =-0.3750 1.1250-0.3750 (   369 PWs)   bands (ev):

    -3.1071  -0.7433   1.9491   3.9574

          k =-0.3750 1.6250-0.3750 (   359 PWs)   bands (ev):

    -4.2797  -0.0263   4.7191   4.7191

          k =-0.3750-1.1250-0.3750 (   369 PWs)   bands (ev):

    -3.1071  -0.7433   1.9491   3.9574

          k =-0.3750-0.6250-0.3750 (   364 PWs)   bands (ev):

    -3.5933  -0.8004   3.5593   4.2665

     highest occupied level (ev):     5.4959

     Writing output data file silicon.10.405.save

                                                                                

     bravais-lattice index     =            2
     lattice parameter (alat)  =      10.4050  a.u.
     unit-cell volume          =     281.6218 (a.u.)^3
     number of atoms/cell      =            2
     number of atomic types    =            1
     kinetic-energy cut-off    =      18.0000  Ry
     charge density cut-off    =      72.0000  Ry
     convergence threshold     =      1.0E-12
     beta                      =       0.7000
     number of iterations used =            4
     Exchange-correlation      = SLA  PW   PBE  PBE ( 1  4  3  4 0 0)


     celldm(1)=   10.40500  celldm(2)=    0.00000  celldm(3)=    0.00000
     celldm(4)=    0.00000  celldm(5)=    0.00000  celldm(6)=    0.00000

     crystal axes: (cart. coord. in units of alat)
               a(1) = ( -0.5000  0.0000  0.5000 )  
               a(2) = (  0.0000  0.5000  0.5000 )  
               a(3) = ( -0.5000  0.5000  0.0000 )  

     reciprocal axes: (cart. coord. in units 2 pi/alat)
               b(1) = ( -1.0000 -1.0000  1.0000 )  
               b(2) = (  1.0000  1.0000  1.0000 )  
               b(3) = ( -1.0000  1.0000 -1.0000 )  


     Atoms inside the unit cell: 

     Cartesian axes

     site n.  atom      mass           positions (alat units)
        1     Si  28.0860   tau(    1) = (    0.00000    0.00000    0.00000  )
        2     Si  28.0860   tau(    2) = (    0.25000    0.25000    0.25000  )

     Computing dynamical matrix for 
                    q = (   0.0000000   0.5000000   0.0000000 )

      8 Sym.Ops. (no q -> -q+G )


     G cutoff =  197.4499  (    722 G-vectors)     FFT grid: ( 20, 20, 20)
     number of k points=    80

     PseudoPot. # 1 for Si read from file:
     /home/max/quantum_espresso/qe-6.1/pseudo/si_pbe_v1.uspp.F.UPF.txt
     MD5 check sum: a056efeee980c13900f22a371efd63c1
     Pseudo is Ultrasoft + core correction, Zval =  4.0
     Generated by new atomic code, or converted to UPF format
     Using radial grid of  899 points,  6 beta functions with: 
                l(1) =   0
                l(2) =   0
                l(3) =   1
                l(4) =   1
                l(5) =   2
                l(6) =   2
     Q(r) pseudized with  8 coefficients,  rinner =    0.900   0.900   0.900
                                                       0.900   0.900

     Mode symmetry, C_4v (4mm)  point group:


     Atomic displacements:
     There are   4 irreducible representations

     Representation     1      1 modes -A_1  G_1 D_1  To be done

     Representation     2      1 modes -B_2  G_4 D_2'  To be done

     Representation     3      2 modes -E    G_5 D_5  To be done

     Representation     4      2 modes -E    G_5 D_5  To be done



     Alpha used in Ewald sum =   0.7000
     PHONON       :    22.54s CPU        24.87s WALL



     Representation #  1 mode #   1

     Self-consistent Calculation

      iter #   1 total cpu time :    25.2 secs   av.it.:   5.8
      thresh= 1.000E-02 alpha_mix =  0.700 |ddv_scf|^2 =  2.922E-03

      iter #   2 total cpu time :    25.4 secs   av.it.:   7.6
      thresh= 5.405E-03 alpha_mix =  0.700 |ddv_scf|^2 =  3.884E-02

      iter #   3 total cpu time :    25.5 secs   av.it.:   6.7
      thresh= 1.000E-02 alpha_mix =  0.700 |ddv_scf|^2 =  1.455E-07

      iter #   4 total cpu time :    25.7 secs   av.it.:   8.2
      thresh= 3.814E-05 alpha_mix =  0.700 |ddv_scf|^2 =  1.655E-08

      iter #   5 total cpu time :    25.9 secs   av.it.:   7.8
      thresh= 1.286E-05 alpha_mix =  0.700 |ddv_scf|^2 =  6.920E-10

      iter #   6 total cpu time :    26.0 secs   av.it.:   7.9
      thresh= 2.631E-06 alpha_mix =  0.700 |ddv_scf|^2 =  2.871E-12

      iter #   7 total cpu time :    26.2 secs   av.it.:   7.9
      thresh= 1.694E-07 alpha_mix =  0.700 |ddv_scf|^2 =  5.260E-13

     End of self-consistent calculation

     Convergence has been achieved 


     Representation #  2 mode #   2

     Self-consistent Calculation

      iter #   1 total cpu time :    26.4 secs   av.it.:   4.9
      thresh= 1.000E-02 alpha_mix =  0.700 |ddv_scf|^2 =  5.138E-06

      iter #   2 total cpu time :    26.6 secs   av.it.:   8.7
      thresh= 2.267E-04 alpha_mix =  0.700 |ddv_scf|^2 =  1.345E-06

      iter #   3 total cpu time :    27.1 secs   av.it.:   8.5
      thresh= 1.160E-04 alpha_mix =  0.700 |ddv_scf|^2 =  3.175E-08

      iter #   4 total cpu time :    27.3 secs   av.it.:   8.2
      thresh= 1.782E-05 alpha_mix =  0.700 |ddv_scf|^2 =  7.762E-10

      iter #   5 total cpu time :    27.4 secs   av.it.:   8.6
      thresh= 2.786E-06 alpha_mix =  0.700 |ddv_scf|^2 =  8.544E-12

      iter #   6 total cpu time :    27.6 secs   av.it.:   7.8
      thresh= 2.923E-07 alpha_mix =  0.700 |ddv_scf|^2 =  9.426E-14

     End of self-consistent calculation

     Convergence has been achieved 


     Representation #  3 modes #   3  4

     Self-consistent Calculation

      iter #   1 total cpu time :    27.9 secs   av.it.:   5.0
      thresh= 1.000E-02 alpha_mix =  0.700 |ddv_scf|^2 =  9.393E-07

      iter #   2 total cpu time :    28.3 secs   av.it.:   9.8
      thresh= 9.692E-05 alpha_mix =  0.700 |ddv_scf|^2 =  1.192E-07

      iter #   3 total cpu time :    28.9 secs   av.it.:   9.5
      thresh= 3.453E-05 alpha_mix =  0.700 |ddv_scf|^2 =  4.949E-09

      iter #   4 total cpu time :    29.4 secs   av.it.:   8.9
      thresh= 7.035E-06 alpha_mix =  0.700 |ddv_scf|^2 =  8.855E-12

      iter #   5 total cpu time :    29.8 secs   av.it.:   9.1
      thresh= 2.976E-07 alpha_mix =  0.700 |ddv_scf|^2 =  3.023E-13

     End of self-consistent calculation

     Convergence has been achieved 


     Representation #  4 modes #   5  6

     Self-consistent Calculation

      iter #   1 total cpu time :    30.1 secs   av.it.:   5.0
      thresh= 1.000E-02 alpha_mix =  0.700 |ddv_scf|^2 =  9.432E-07

      iter #   2 total cpu time :    30.5 secs   av.it.:   9.8
      thresh= 9.712E-05 alpha_mix =  0.700 |ddv_scf|^2 =  1.197E-07

      iter #   3 total cpu time :    31.3 secs   av.it.:   9.5
      thresh= 3.460E-05 alpha_mix =  0.700 |ddv_scf|^2 =  7.387E-09

      iter #   4 total cpu time :    31.7 secs   av.it.:   8.9
      thresh= 8.594E-06 alpha_mix =  0.700 |ddv_scf|^2 =  1.551E-11

      iter #   5 total cpu time :    32.1 secs   av.it.:   9.2
      thresh= 3.939E-07 alpha_mix =  0.700 |ddv_scf|^2 =  4.585E-14

     End of self-consistent calculation

     Convergence has been achieved 

     Number of q in the star =    6
     List of q in the star:
          1   0.000000000   0.500000000   0.000000000
          2   0.000000000  -0.500000000   0.000000000
          3   0.500000000   0.000000000   0.000000000
          4   0.000000000   0.000000000   0.500000000
          5   0.000000000   0.000000000  -0.500000000
          6  -0.500000000   0.000000000   0.000000000

     Diagonalizing the dynamical matrix

     q = (    0.000000000   0.500000000   0.000000000 ) 

 **************************************************************************
     freq (    1) =       4.405578 [THz] =     146.954249 [cm-1]
     freq (    2) =       4.405578 [THz] =     146.954249 [cm-1]
     freq (    3) =       7.001594 [THz] =     233.548029 [cm-1]
     freq (    4) =      14.200218 [THz] =     473.668290 [cm-1]
     freq (    5) =      14.200218 [THz] =     473.668290 [cm-1]
     freq (    6) =      14.909459 [THz] =     497.326006 [cm-1]
 **************************************************************************

     Mode symmetry, C_4v (4mm)  point group:

     freq (  1 -  2) =        147.0  [cm-1]   --> E    G_5 D_5       
     freq (  3 -  3) =        233.5  [cm-1]   --> A_1  G_1 D_1       
     freq (  4 -  5) =        473.7  [cm-1]   --> E    G_5 D_5       
     freq (  6 -  6) =        497.3  [cm-1]   --> B_2  G_4 D_2'      

     Calculation of q =    0.7500000  -0.2500000   0.7500000

   Info: using nr1, nr2, nr3 values from input

   Info: using nr1, nr2, nr3 values from input

     Parallelization info
     --------------------
     sticks:   dense  smooth     PW     G-vecs:    dense   smooth      PW
     Min          65      65     30                  722      722     216
     Max          67      67     31                  723      723     218
     Sum         265     265    121                 2891     2891     869



     bravais-lattice index     =            2
     lattice parameter (alat)  =      10.4050  a.u.
     unit-cell volume          =     281.6218 (a.u.)^3
     number of atoms/cell      =            2
     number of atomic types    =            1
     number of electrons       =         8.00
     number of Kohn-Sham states=            4
     kinetic-energy cutoff     =      18.0000  Ry
     charge density cutoff     =      72.0000  Ry
     Exchange-correlation      = SLA  PW   PBE  PBE ( 1  4  3  4 0 0)

     celldm(1)=  10.405000  celldm(2)=   0.000000  celldm(3)=   0.000000
     celldm(4)=   0.000000  celldm(5)=   0.000000  celldm(6)=   0.000000

     crystal axes: (cart. coord. in units of alat)
               a(1) = (  -0.500000   0.000000   0.500000 )  
               a(2) = (   0.000000   0.500000   0.500000 )  
               a(3) = (  -0.500000   0.500000   0.000000 )  

     reciprocal axes: (cart. coord. in units 2 pi/alat)
               b(1) = ( -1.000000 -1.000000  1.000000 )  
               b(2) = (  1.000000  1.000000  1.000000 )  
               b(3) = ( -1.000000  1.000000 -1.000000 )  


     PseudoPot. # 1 for Si read from file:
     /home/max/quantum_espresso/qe-6.1/pseudo/si_pbe_v1.uspp.F.UPF.txt
     MD5 check sum: a056efeee980c13900f22a371efd63c1
     Pseudo is Ultrasoft + core correction, Zval =  4.0
     Generated by new atomic code, or converted to UPF format
     Using radial grid of  899 points,  6 beta functions with: 
                l(1) =   0
                l(2) =   0
                l(3) =   1
                l(4) =   1
                l(5) =   2
                l(6) =   2
     Q(r) pseudized with  8 coefficients,  rinner =    0.900   0.900   0.900
                                                       0.900   0.900

     atomic species   valence    mass     pseudopotential
        Si             4.00    28.08600     Si( 1.00)

     48 Sym. Ops., with inversion, found



   Cartesian axes

     site n.     atom                  positions (alat units)
         1           Si  tau(   1) = (   0.0000000   0.0000000   0.0000000  )
         2           Si  tau(   2) = (   0.2500000   0.2500000   0.2500000  )

     number of k points=   288

     Number of k-points >= 100: set verbosity='high' to print them.

     Dense  grid:     2891 G-vectors     FFT dimensions: (  20,  20,  20)

     Estimated max dynamical RAM per process >       0.33MB

     Estimated total allocated dynamical RAM >       1.33MB

     Check: negative/imaginary core charge=   -0.000006    0.000000

     The potential is recalculated from file :
     ./_ph0/silicon.10.405.save/charge-density.dat

     Starting wfc are    8 atomic wfcs

     Band Structure Calculation
     Davidson diagonalization with overlap

     ethr =  1.25E-10,  avg # of iterations = 11.6

     total cpu time spent up to now is        4.5 secs

     End of band structure calculation

     Number of k-points >= 100: set verbosity='high' to print the bands.

     highest occupied level (ev):     5.4959

     Writing output data file silicon.10.405.save

                                                                                

     bravais-lattice index     =            2
     lattice parameter (alat)  =      10.4050  a.u.
     unit-cell volume          =     281.6218 (a.u.)^3
     number of atoms/cell      =            2
     number of atomic types    =            1
     kinetic-energy cut-off    =      18.0000  Ry
     charge density cut-off    =      72.0000  Ry
     convergence threshold     =      1.0E-12
     beta                      =       0.7000
     number of iterations used =            4
     Exchange-correlation      = SLA  PW   PBE  PBE ( 1  4  3  4 0 0)


     celldm(1)=   10.40500  celldm(2)=    0.00000  celldm(3)=    0.00000
     celldm(4)=    0.00000  celldm(5)=    0.00000  celldm(6)=    0.00000

     crystal axes: (cart. coord. in units of alat)
               a(1) = ( -0.5000  0.0000  0.5000 )  
               a(2) = (  0.0000  0.5000  0.5000 )  
               a(3) = ( -0.5000  0.5000  0.0000 )  

     reciprocal axes: (cart. coord. in units 2 pi/alat)
               b(1) = ( -1.0000 -1.0000  1.0000 )  
               b(2) = (  1.0000  1.0000  1.0000 )  
               b(3) = ( -1.0000  1.0000 -1.0000 )  


     Atoms inside the unit cell: 

     Cartesian axes

     site n.  atom      mass           positions (alat units)
        1     Si  28.0860   tau(    1) = (    0.00000    0.00000    0.00000  )
        2     Si  28.0860   tau(    2) = (    0.25000    0.25000    0.25000  )

     Computing dynamical matrix for 
                    q = (   0.7500000  -0.2500000   0.7500000 )

      2 Sym.Ops. (no q -> -q+G )


     G cutoff =  197.4499  (    723 G-vectors)     FFT grid: ( 20, 20, 20)
     number of k points=   288

     PseudoPot. # 1 for Si read from file:
     /home/max/quantum_espresso/qe-6.1/pseudo/si_pbe_v1.uspp.F.UPF.txt
     MD5 check sum: a056efeee980c13900f22a371efd63c1
     Pseudo is Ultrasoft + core correction, Zval =  4.0
     Generated by new atomic code, or converted to UPF format
     Using radial grid of  899 points,  6 beta functions with: 
                l(1) =   0
                l(2) =   0
                l(3) =   1
                l(4) =   1
                l(5) =   2
                l(6) =   2
     Q(r) pseudized with  8 coefficients,  rinner =    0.900   0.900   0.900
                                                       0.900   0.900

     Mode symmetry, C_s (m)     point group:


     Atomic displacements:
     There are   6 irreducible representations

     Representation     1      1 modes -A'  To be done

     Representation     2      1 modes -A'  To be done

     Representation     3      1 modes -A'  To be done

     Representation     4      1 modes -A'  To be done

     Representation     5      1 modes -A''  To be done

     Representation     6      1 modes -A''  To be done



     Alpha used in Ewald sum =   0.7000
     PHONON       :    32.22s CPU        35.25s WALL



     Representation #  1 mode #   1

     Self-consistent Calculation

      iter #   1 total cpu time :    35.7 secs   av.it.:   5.3
      thresh= 1.000E-02 alpha_mix =  0.700 |ddv_scf|^2 =  6.036E-05

      iter #   2 total cpu time :    36.4 secs   av.it.:   8.9
      thresh= 7.769E-04 alpha_mix =  0.700 |ddv_scf|^2 =  1.604E-04

      iter #   3 total cpu time :    37.4 secs   av.it.:   7.5
      thresh= 1.267E-03 alpha_mix =  0.700 |ddv_scf|^2 =  1.128E-06

      iter #   4 total cpu time :    38.0 secs   av.it.:   8.4
      thresh= 1.062E-04 alpha_mix =  0.700 |ddv_scf|^2 =  5.813E-08

      iter #   5 total cpu time :    38.6 secs   av.it.:   8.3
      thresh= 2.411E-05 alpha_mix =  0.700 |ddv_scf|^2 =  7.332E-09

      iter #   6 total cpu time :    39.6 secs   av.it.:   8.5
      thresh= 8.563E-06 alpha_mix =  0.700 |ddv_scf|^2 =  9.878E-11

      iter #   7 total cpu time :    40.2 secs   av.it.:   8.7
      thresh= 9.939E-07 alpha_mix =  0.700 |ddv_scf|^2 =  3.419E-12

      iter #   8 total cpu time :    41.2 secs   av.it.:   8.6
      thresh= 1.849E-07 alpha_mix =  0.700 |ddv_scf|^2 =  2.546E-13

     End of self-consistent calculation

     Convergence has been achieved 


     Representation #  2 mode #   2

     Self-consistent Calculation

      iter #   1 total cpu time :    41.7 secs   av.it.:   5.4
      thresh= 1.000E-02 alpha_mix =  0.700 |ddv_scf|^2 =  1.077E-04

      iter #   2 total cpu time :    42.4 secs   av.it.:   8.7
      thresh= 1.038E-03 alpha_mix =  0.700 |ddv_scf|^2 =  3.093E-04

      iter #   3 total cpu time :    43.3 secs   av.it.:   7.4
      thresh= 1.759E-03 alpha_mix =  0.700 |ddv_scf|^2 =  8.100E-07

      iter #   4 total cpu time :    44.0 secs   av.it.:   8.5
      thresh= 9.000E-05 alpha_mix =  0.700 |ddv_scf|^2 =  5.607E-08

      iter #   5 total cpu time :    44.6 secs   av.it.:   8.2
      thresh= 2.368E-05 alpha_mix =  0.700 |ddv_scf|^2 =  1.068E-08

      iter #   6 total cpu time :    45.5 secs   av.it.:   8.5
      thresh= 1.033E-05 alpha_mix =  0.700 |ddv_scf|^2 =  9.999E-11

      iter #   7 total cpu time :    46.2 secs   av.it.:   8.7
      thresh= 1.000E-06 alpha_mix =  0.700 |ddv_scf|^2 =  2.974E-12

      iter #   8 total cpu time :    47.2 secs   av.it.:   8.6
      thresh= 1.725E-07 alpha_mix =  0.700 |ddv_scf|^2 =  7.161E-13

     End of self-consistent calculation

     Convergence has been achieved 


     Representation #  3 mode #   3

     Self-consistent Calculation

      iter #   1 total cpu time :    47.7 secs   av.it.:   5.3
      thresh= 1.000E-02 alpha_mix =  0.700 |ddv_scf|^2 =  8.455E-05

      iter #   2 total cpu time :    48.4 secs   av.it.:   8.8
      thresh= 9.195E-04 alpha_mix =  0.700 |ddv_scf|^2 =  2.265E-04

      iter #   3 total cpu time :    49.3 secs   av.it.:   7.4
      thresh= 1.505E-03 alpha_mix =  0.700 |ddv_scf|^2 =  1.379E-06

      iter #   4 total cpu time :    49.9 secs   av.it.:   8.2
      thresh= 1.174E-04 alpha_mix =  0.700 |ddv_scf|^2 =  5.791E-08

      iter #   5 total cpu time :    50.5 secs   av.it.:   8.4
      thresh= 2.406E-05 alpha_mix =  0.700 |ddv_scf|^2 =  1.097E-08

      iter #   6 total cpu time :    51.5 secs   av.it.:   8.5
      thresh= 1.048E-05 alpha_mix =  0.700 |ddv_scf|^2 =  5.777E-11

      iter #   7 total cpu time :    52.2 secs   av.it.:   8.7
      thresh= 7.601E-07 alpha_mix =  0.700 |ddv_scf|^2 =  2.232E-12

      iter #   8 total cpu time :    53.1 secs   av.it.:   8.8
      thresh= 1.494E-07 alpha_mix =  0.700 |ddv_scf|^2 =  5.993E-13

     End of self-consistent calculation

     Convergence has been achieved 


     Representation #  4 mode #   4

     Self-consistent Calculation

      iter #   1 total cpu time :    53.7 secs   av.it.:   5.2
      thresh= 1.000E-02 alpha_mix =  0.700 |ddv_scf|^2 =  3.722E-05

      iter #   2 total cpu time :    54.3 secs   av.it.:   8.9
[...]
        k(   59) = (  -0.8750000   0.1250000  -0.1250000), wk =   0.0625000
        k(   60) = (  -1.3750000  -0.8750000  -0.1250000), wk =   0.0000000
        k(   61) = (  -1.1250000   0.3750000  -0.3750000), wk =   0.0625000
        k(   62) = (  -1.6250000  -0.6250000  -0.3750000), wk =   0.0000000
        k(   63) = (  -0.3750000   0.3750000   1.1250000), wk =   0.0625000
        k(   64) = (  -0.8750000  -0.6250000   1.1250000), wk =   0.0000000

     Dense  grid:     2891 G-vectors     FFT dimensions: (  20,  20,  20)

     Estimated max dynamical RAM per process >       0.33MB

     Estimated total allocated dynamical RAM >       1.33MB

     Check: negative/imaginary core charge=   -0.000006    0.000000

     The potential is recalculated from file :
     ./_ph0/silicon.10.405.save/charge-density.dat

     Starting wfc are    8 atomic wfcs

     Band Structure Calculation
     Davidson diagonalization with overlap

     ethr =  1.25E-10,  avg # of iterations = 11.6

     total cpu time spent up to now is        6.9 secs

     End of band structure calculation

          k =-0.1250 0.1250 0.1250 (   353 PWs)   bands (ev):

    -5.7059   4.1845   5.4959   5.4959

          k =-0.6250-0.8750 0.1250 (   368 PWs)   bands (ev):

    -2.5793  -1.0594   1.9010   2.9488

          k =-0.3750 0.3750-0.1250 (   362 PWs)   bands (ev):

    -4.7012   1.2273   3.5502   5.0194

          k =-0.8750-0.6250-0.1250 (   368 PWs)   bands (ev):

    -2.5793  -1.0594   1.9010   2.9488

          k = 0.3750-0.3750 0.6250 (   364 PWs)   bands (ev):

    -3.5933  -0.8004   3.5593   4.2665

          k =-0.1250-1.3750 0.6250 (   369 PWs)   bands (ev):

    -3.1071  -0.7433   1.9491   3.9574

          k = 0.1250-0.1250 0.3750 (   358 PWs)   bands (ev):

    -5.1886   2.5759   4.5110   4.5628

          k =-0.3750-1.1250 0.3750 (   369 PWs)   bands (ev):

    -3.1071  -0.7433   1.9491   3.9574

          k =-0.1250 0.6250 0.1250 (   357 PWs)   bands (ev):

    -4.1783   0.8710   3.2142   3.6536

          k =-0.6250-0.3750 0.1250 (   365 PWs)   bands (ev):

    -3.7746   0.0283   2.5831   3.9243

          k = 0.6250-0.1250 0.8750 (   368 PWs)   bands (ev):

    -2.5793  -1.0594   1.9010   2.9488

          k = 0.1250-1.1250 0.8750 (   364 PWs)   bands (ev):

    -2.7371  -0.9669   2.4927   3.1950

          k = 0.3750 0.1250 0.6250 (   365 PWs)   bands (ev):

    -3.7746   0.0283   2.5831   3.9243

          k =-0.1250-0.8750 0.6250 (   368 PWs)   bands (ev):

    -2.5793  -1.0594   1.9010   2.9488

          k =-0.1250-0.8750 0.1250 (   364 PWs)   bands (ev):

    -2.7371  -0.9669   2.4927   3.1950

          k =-0.6250-1.8750 0.1250 (   357 PWs)   bands (ev):

    -4.1783   0.8710   3.2142   3.6536

          k =-0.3750 0.3750 0.3750 (   359 PWs)   bands (ev):

    -4.2797  -0.0263   4.7191   4.7191

          k =-0.8750-0.6250 0.3750 (   365 PWs)   bands (ev):

    -3.7746   0.0283   2.5831   3.9243

          k = 0.3750-0.3750 1.1250 (   369 PWs)   bands (ev):

    -3.1071  -0.7433   1.9491   3.9574

          k =-0.1250-1.3750 1.1250 (   368 PWs)   bands (ev):

    -2.5793  -1.0594   1.9010   2.9488

          k = 0.1250-0.3750 0.3750 (   362 PWs)   bands (ev):

    -4.7012   1.2273   3.5502   5.0194

          k =-0.3750-1.3750 0.3750 (   364 PWs)   bands (ev):

    -3.5933  -0.8004   3.5593   4.2665

          k = 0.3750-0.3750-0.1250 (   362 PWs)   bands (ev):

    -4.7012   1.2273   3.5502   5.0194

          k =-0.1250-1.3750-0.1250 (   357 PWs)   bands (ev):

    -4.1783   0.8710   3.2142   3.6536

          k =-0.6250 0.3750-0.3750 (   364 PWs)   bands (ev):

    -3.5933  -0.8004   3.5593   4.2665

          k =-1.1250-0.6250-0.3750 (   365 PWs)   bands (ev):

    -3.7746   0.0283   2.5831   3.9243

          k =-0.3750 0.3750 0.6250 (   364 PWs)   bands (ev):

    -3.5933  -0.8004   3.5593   4.2665

          k =-0.8750-0.6250 0.6250 (   362 PWs)   bands (ev):

    -4.7012   1.2273   3.5502   5.0194

          k =-0.3750 0.1250-0.1250 (   358 PWs)   bands (ev):

    -5.1886   2.5759   4.5110   4.5628

          k =-0.8750-0.8750-0.1250 (   364 PWs)   bands (ev):

    -2.7371  -0.9669   2.4927   3.1950

          k =-0.1250 0.1250 0.3750 (   358 PWs)   bands (ev):

    -5.1886   2.5759   4.5110   4.5628

          k =-0.6250-0.8750 0.3750 (   365 PWs)   bands (ev):

    -3.7746   0.0283   2.5831   3.9243

          k = 0.1250 0.6250-0.1250 (   357 PWs)   bands (ev):

    -4.1783   0.8710   3.2142   3.6536

          k =-0.3750-0.3750-0.1250 (   362 PWs)   bands (ev):

    -4.7012   1.2273   3.5502   5.0194

          k = 0.6250 0.1250-0.1250 (   357 PWs)   bands (ev):

    -4.1783   0.8710   3.2142   3.6536

          k = 0.1250-0.8750-0.1250 (   364 PWs)   bands (ev):

    -2.7371  -0.9669   2.4927   3.1950

          k =-0.8750 0.1250-0.6250 (   368 PWs)   bands (ev):

    -2.5793  -1.0594   1.9010   2.9488

          k =-1.3750-0.8750-0.6250 (   362 PWs)   bands (ev):

    -4.7012   1.2273   3.5502   5.0194

          k = 0.8750-0.1250 0.6250 (   368 PWs)   bands (ev):

    -2.5793  -1.0594   1.9010   2.9488

          k = 0.3750-1.1250 0.6250 (   365 PWs)   bands (ev):

    -3.7746   0.0283   2.5831   3.9243

          k =-0.6250 0.1250 0.8750 (   368 PWs)   bands (ev):

    -2.5793  -1.0594   1.9010   2.9488

          k =-1.1250-0.8750 0.8750 (   353 PWs)   bands (ev):

    -5.7059   4.1845   5.4959   5.4959

          k =-0.1250 0.8750 0.6250 (   368 PWs)   bands (ev):

    -2.5793  -1.0594   1.9010   2.9488

          k =-0.6250-0.1250 0.6250 (   369 PWs)   bands (ev):

    -3.1071  -0.7433   1.9491   3.9574

          k = 0.1250 0.8750-0.6250 (   368 PWs)   bands (ev):

    -2.5793  -1.0594   1.9010   2.9488

          k =-0.3750-0.1250-0.6250 (   365 PWs)   bands (ev):

    -3.7746   0.0283   2.5831   3.9243

          k =-0.6250-0.1250-0.3750 (   365 PWs)   bands (ev):

    -3.7746   0.0283   2.5831   3.9243

          k =-1.1250-1.1250-0.3750 (   357 PWs)   bands (ev):

    -4.1783   0.8710   3.2142   3.6536

          k = 0.6250 0.1250 0.3750 (   365 PWs)   bands (ev):

    -3.7746   0.0283   2.5831   3.9243

          k = 0.1250-0.8750 0.3750 (   368 PWs)   bands (ev):

    -2.5793  -1.0594   1.9010   2.9488

          k =-0.3750-0.1250 0.6250 (   365 PWs)   bands (ev):

    -3.7746   0.0283   2.5831   3.9243

          k =-0.8750-1.1250 0.6250 (   358 PWs)   bands (ev):

    -5.1886   2.5759   4.5110   4.5628

          k = 0.1250 0.6250 0.3750 (   365 PWs)   bands (ev):

    -3.7746   0.0283   2.5831   3.9243

          k =-0.3750-0.3750 0.3750 (   359 PWs)   bands (ev):

    -4.2797  -0.0263   4.7191   4.7191

          k =-0.1250 0.6250-0.3750 (   365 PWs)   bands (ev):

    -3.7746   0.0283   2.5831   3.9243

          k =-0.6250-0.3750-0.3750 (   364 PWs)   bands (ev):

    -3.5933  -0.8004   3.5593   4.2665

          k = 0.1250-0.8750-0.1250 (   364 PWs)   bands (ev):

    -2.7371  -0.9669   2.4927   3.1950

          k =-0.3750-1.8750-0.1250 (   358 PWs)   bands (ev):

    -5.1886   2.5759   4.5110   4.5628

          k =-0.8750 0.1250-0.1250 (   364 PWs)   bands (ev):

    -2.7371  -0.9669   2.4927   3.1950

          k =-1.3750-0.8750-0.1250 (   368 PWs)   bands (ev):

    -2.5793  -1.0594   1.9010   2.9488

          k =-1.1250 0.3750-0.3750 (   369 PWs)   bands (ev):

    -3.1071  -0.7433   1.9491   3.9574

          k =-1.6250-0.6250-0.3750 (   364 PWs)   bands (ev):

    -3.5933  -0.8004   3.5593   4.2665

          k =-0.3750 0.3750 1.1250 (   369 PWs)   bands (ev):

    -3.1071  -0.7433   1.9491   3.9574

          k =-0.8750-0.6250 1.1250 (   358 PWs)   bands (ev):

    -5.1886   2.5759   4.5110   4.5628

     highest occupied level (ev):     5.4959

     Writing output data file silicon.10.405.save

                                                                                

     bravais-lattice index     =            2
     lattice parameter (alat)  =      10.4050  a.u.
     unit-cell volume          =     281.6218 (a.u.)^3
     number of atoms/cell      =            2
     number of atomic types    =            1
     kinetic-energy cut-off    =      18.0000  Ry
     charge density cut-off    =      72.0000  Ry
     convergence threshold     =      1.0E-12
     beta                      =       0.7000
     number of iterations used =            4
     Exchange-correlation      = SLA  PW   PBE  PBE ( 1  4  3  4 0 0)


     celldm(1)=   10.40500  celldm(2)=    0.00000  celldm(3)=    0.00000
     celldm(4)=    0.00000  celldm(5)=    0.00000  celldm(6)=    0.00000

     crystal axes: (cart. coord. in units of alat)
               a(1) = ( -0.5000  0.0000  0.5000 )  
               a(2) = (  0.0000  0.5000  0.5000 )  
               a(3) = ( -0.5000  0.5000  0.0000 )  

     reciprocal axes: (cart. coord. in units 2 pi/alat)
               b(1) = ( -1.0000 -1.0000  1.0000 )  
               b(2) = (  1.0000  1.0000  1.0000 )  
               b(3) = ( -1.0000  1.0000 -1.0000 )  


     Atoms inside the unit cell: 

     Cartesian axes

     site n.  atom      mass           positions (alat units)
        1     Si  28.0860   tau(    1) = (    0.00000    0.00000    0.00000  )
        2     Si  28.0860   tau(    2) = (    0.25000    0.25000    0.25000  )

     Computing dynamical matrix for 
                    q = (  -0.5000000  -1.0000000   0.0000000 )

      8 Sym.Ops. (no q -> -q+G )


     G cutoff =  197.4499  (    722 G-vectors)     FFT grid: ( 20, 20, 20)
     number of k points=    64

     PseudoPot. # 1 for Si read from file:
     /home/max/quantum_espresso/qe-6.1/pseudo/si_pbe_v1.uspp.F.UPF.txt
     MD5 check sum: a056efeee980c13900f22a371efd63c1
     Pseudo is Ultrasoft + core correction, Zval =  4.0
     Generated by new atomic code, or converted to UPF format
     Using radial grid of  899 points,  6 beta functions with: 
                l(1) =   0
                l(2) =   0
                l(3) =   1
                l(4) =   1
                l(5) =   2
                l(6) =   2
     Q(r) pseudized with  8 coefficients,  rinner =    0.900   0.900   0.900
                                                       0.900   0.900


     Atomic displacements:
     There are   3 irreducible representations

     Representation     1      2 modes -  To be done

     Representation     2      2 modes -  To be done

     Representation     3      2 modes -  To be done



     Alpha used in Ewald sum =   0.7000
     PHONON       :  1m19.01s CPU     1m27.13s WALL



     Representation #  1 modes #   1  2

     Self-consistent Calculation

      iter #   1 total cpu time :    87.4 secs   av.it.:   5.3
      thresh= 1.000E-02 alpha_mix =  0.700 |ddv_scf|^2 =  6.339E-06

      iter #   2 total cpu time :    87.7 secs   av.it.:   9.8
      thresh= 2.518E-04 alpha_mix =  0.700 |ddv_scf|^2 =  3.409E-06

      iter #   3 total cpu time :    88.0 secs   av.it.:   9.3
      thresh= 1.846E-04 alpha_mix =  0.700 |ddv_scf|^2 =  8.559E-09

      iter #   4 total cpu time :    88.3 secs   av.it.:   9.1
      thresh= 9.252E-06 alpha_mix =  0.700 |ddv_scf|^2 =  2.862E-11

      iter #   5 total cpu time :    88.6 secs   av.it.:   9.0
      thresh= 5.350E-07 alpha_mix =  0.700 |ddv_scf|^2 =  7.272E-13

     End of self-consistent calculation

     Convergence has been achieved 


     Representation #  2 modes #   3  4

     Self-consistent Calculation

      iter #   1 total cpu time :    89.2 secs   av.it.:   5.2
      thresh= 1.000E-02 alpha_mix =  0.700 |ddv_scf|^2 =  9.695E-06

      iter #   2 total cpu time :    89.5 secs   av.it.:   9.9
      thresh= 3.114E-04 alpha_mix =  0.700 |ddv_scf|^2 =  1.320E-05

      iter #   3 total cpu time :    89.9 secs   av.it.:   9.1
      thresh= 3.633E-04 alpha_mix =  0.700 |ddv_scf|^2 =  1.020E-08

      iter #   4 total cpu time :    90.2 secs   av.it.:   8.9
      thresh= 1.010E-05 alpha_mix =  0.700 |ddv_scf|^2 =  9.767E-11

      iter #   5 total cpu time :    90.5 secs   av.it.:   9.4
      thresh= 9.883E-07 alpha_mix =  0.700 |ddv_scf|^2 =  1.871E-12

      iter #   6 total cpu time :    91.1 secs   av.it.:   9.1
      thresh= 1.368E-07 alpha_mix =  0.700 |ddv_scf|^2 =  1.631E-14

     End of self-consistent calculation

     Convergence has been achieved 


     Representation #  3 modes #   5  6

     Self-consistent Calculation

      iter #   1 total cpu time :    91.3 secs   av.it.:   5.1
      thresh= 1.000E-02 alpha_mix =  0.700 |ddv_scf|^2 =  2.629E-06

      iter #   2 total cpu time :    91.7 secs   av.it.:   9.7
      thresh= 1.621E-04 alpha_mix =  0.700 |ddv_scf|^2 =  1.438E-06

      iter #   3 total cpu time :    92.0 secs   av.it.:   9.1
      thresh= 1.199E-04 alpha_mix =  0.700 |ddv_scf|^2 =  8.145E-09

      iter #   4 total cpu time :    92.3 secs   av.it.:   8.7
      thresh= 9.025E-06 alpha_mix =  0.700 |ddv_scf|^2 =  4.907E-11

      iter #   5 total cpu time :    92.6 secs   av.it.:   9.1
      thresh= 7.005E-07 alpha_mix =  0.700 |ddv_scf|^2 =  7.437E-13

     End of self-consistent calculation

     Convergence has been achieved 

     Number of q in the star =    6
     List of q in the star:
          1  -0.500000000  -1.000000000   0.000000000
          2   0.000000000   1.000000000   0.500000000
          3   0.000000000  -1.000000000  -0.500000000
          4   0.500000000   1.000000000   0.000000000
          5  -1.000000000  -0.500000000   0.000000000
          6   0.000000000  -0.500000000  -1.000000000

     Diagonalizing the dynamical matrix

     q = (   -0.500000000  -1.000000000   0.000000000 ) 

 **************************************************************************
     freq (    1) =       7.810581 [THz] =     260.532922 [cm-1]
     freq (    2) =       7.810581 [THz] =     260.532922 [cm-1]
     freq (    3) =      11.015992 [THz] =     367.453946 [cm-1]
     freq (    4) =      11.015992 [THz] =     367.453946 [cm-1]
     freq (    5) =      13.733118 [THz] =     458.087524 [cm-1]
     freq (    6) =      13.733118 [THz] =     458.087524 [cm-1]
 **************************************************************************

     init_run     :      0.52s CPU      0.53s WALL (       7 calls)
     electrons    :      5.03s CPU      5.62s WALL (       7 calls)

     Called by init_run:
     wfcinit      :      0.00s CPU      0.00s WALL (       7 calls)
     potinit      :      0.02s CPU      0.02s WALL (       7 calls)

     Called by electrons:
     c_bands      :      5.03s CPU      5.60s WALL (       7 calls)
     v_of_rho     :      0.01s CPU      0.01s WALL (       8 calls)
     newd         :      0.03s CPU      0.03s WALL (       8 calls)

     Called by c_bands:
     init_us_2    :      0.68s CPU      0.74s WALL (   17588 calls)
     cegterg      :      4.22s CPU      4.68s WALL (     796 calls)

     Called by sum_band:

     Called by *egterg:
     h_psi        :     45.41s CPU     49.98s WALL (  152214 calls)
     s_psi        :      5.83s CPU      6.26s WALL (  309148 calls)
     g_psi        :      0.03s CPU      0.03s WALL (    9268 calls)
     cdiaghg      :      0.50s CPU      0.59s WALL (   10064 calls)

     Called by h_psi:
     h_psi:pot    :     45.22s CPU     49.78s WALL (  152214 calls)
     h_psi:calbec :      4.75s CPU      5.29s WALL (  152214 calls)
     vloc_psi     :     37.34s CPU     41.11s WALL (  152214 calls)
     add_vuspsi   :      2.91s CPU      3.15s WALL (  152214 calls)

     General routines
     calbec       :     10.83s CPU     12.08s WALL (  345520 calls)
     fft          :      0.49s CPU      0.58s WALL (    5239 calls)
     ffts         :      0.16s CPU      0.17s WALL (    2748 calls)
     fftw         :     43.89s CPU     48.40s WALL ( 1378560 calls)
     davcio       :      0.32s CPU      0.37s WALL (   79045 calls)

     Parallel routines
     fft_scatter  :     12.26s CPU     14.33s WALL ( 1386547 calls)

     PHONON       :  1m24.05s CPU     1m32.59s WALL

     INITIALIZATION: 
     phq_setup    :      0.05s CPU      0.05s WALL (       8 calls)
     phq_init     :      2.50s CPU      2.76s WALL (       8 calls)

     phq_init     :      2.50s CPU      2.76s WALL (       8 calls)
     set_drhoc    :      0.29s CPU      0.29s WALL (      24 calls)
     init_vloc    :      0.01s CPU      0.01s WALL (       8 calls)
     init_us_1    :      0.48s CPU      0.48s WALL (       8 calls)
     newd         :      0.03s CPU      0.03s WALL (       8 calls)
     dvanqq       :      0.24s CPU      0.24s WALL (       8 calls)
     drho         :      1.40s CPU      1.66s WALL (       8 calls)

     DYNAMICAL MATRIX:
     dynmat0      :      0.62s CPU      0.62s WALL (       8 calls)
     phqscf       :     73.38s CPU     80.88s WALL (       8 calls)
     dynmatrix    :      0.01s CPU      0.01s WALL (       8 calls)

     phqscf       :     73.38s CPU     80.88s WALL (       8 calls)
     solve_linter :     72.61s CPU     80.08s WALL (      32 calls)
     drhodv       :      0.55s CPU      0.57s WALL (      32 calls)

     dynmat0      :      0.62s CPU      0.62s WALL (       8 calls)
     dynmat_us    :      0.34s CPU      0.34s WALL (       8 calls)
     d2ionq       :      0.02s CPU      0.02s WALL (       8 calls)
     dynmatcc     :      0.25s CPU      0.25s WALL (       8 calls)

     dynmat_us    :      0.34s CPU      0.34s WALL (       8 calls)
     addusdynmat  :      0.00s CPU      0.00s WALL (       8 calls)

     phqscf       :     73.38s CPU     80.88s WALL (       8 calls)
     solve_linter :     72.61s CPU     80.08s WALL (      32 calls)

     solve_linter :     72.61s CPU     80.08s WALL (      32 calls)
     dvqpsi_us    :      1.68s CPU      1.84s WALL (    2508 calls)
     ortho        :      1.18s CPU      1.34s WALL (   15550 calls)
     cgsolve      :     56.84s CPU     62.69s WALL (   15550 calls)
     incdrhoscf   :      5.17s CPU      5.68s WALL (   15550 calls)
     addusddens   :      1.21s CPU      1.32s WALL (     228 calls)
     vpsifft      :      3.65s CPU      4.11s WALL (   12922 calls)
     dv_of_drho   :      0.21s CPU      0.23s WALL (     295 calls)
     mix_pot      :      0.06s CPU      0.06s WALL (     201 calls)
     psymdvscf    :      0.83s CPU      0.87s WALL (     196 calls)
     newdq        :      1.26s CPU      1.40s WALL (     201 calls)
     adddvscf     :      0.46s CPU      0.50s WALL (   13042 calls)
     drhodvus     :      0.00s CPU      0.00s WALL (      32 calls)

     dvqpsi_us    :      1.68s CPU      1.84s WALL (    2508 calls)
     dvqpsi_us_on :      0.81s CPU      0.92s WALL (    2508 calls)

     cgsolve      :     56.84s CPU     62.69s WALL (   15550 calls)
     ch_psi       :     54.41s CPU     59.93s WALL (  141354 calls)

     ch_psi       :     54.41s CPU     59.93s WALL (  141354 calls)
     h_psi        :     45.41s CPU     49.98s WALL (  152214 calls)
     last         :      9.38s CPU     10.49s WALL (  141354 calls)

     h_psi        :     45.41s CPU     49.98s WALL (  152214 calls)
     add_vuspsi   :      2.91s CPU      3.15s WALL (  152214 calls)

     incdrhoscf   :      5.17s CPU      5.68s WALL (   15550 calls)
     addusdbec    :      0.82s CPU      0.90s WALL (   17998 calls)

     drhodvus     :      0.00s CPU      0.00s WALL (      32 calls)

      General routines
     calbec       :     10.83s CPU     12.08s WALL (  345520 calls)
     fft          :      0.49s CPU      0.58s WALL (    5239 calls)
     ffts         :      0.16s CPU      0.17s WALL (    2748 calls)
     fftw         :     43.89s CPU     48.40s WALL ( 1378560 calls)
     davcio       :      0.32s CPU      0.37s WALL (   79045 calls)
     write_rec    :      0.20s CPU      0.23s WALL (     233 calls)


     PHONON       :  1m24.05s CPU     1m32.60s WALL


   This run was terminated on:  17:45:28   9Nov2017            

=------------------------------------------------------------------------------=
   JOB DONE.
=------------------------------------------------------------------------------=
