
     Program PWSCF v.6.1 (svn rev. 13369) starts on 10Nov2017 at 10:15:19 

     This program is part of the open-source Quantum ESPRESSO suite
     for quantum simulation of materials; please cite
         "P. Giannozzi et al., J. Phys.:Condens. Matter 21 395502 (2009);
          URL http://www.quantum-espresso.org", 
     in publications or presentations arising from this work. More details at
     http://www.quantum-espresso.org/quote

     Parallel version (MPI), running on     4 processors
     R & G space division:  proc/nbgrp/npool/nimage =       4
     Waiting for input...
     Reading input from standard input
     Message from routine read_cards :
     DEPRECATED: no units specified in ATOMIC_POSITIONS card
     Message from routine read_cards :
     ATOMIC_POSITIONS: units set to alat

     Current dimensions of program PWSCF are:
     Max number of different atomic species (ntypx) = 10
     Max number of k-points (npk) =  40000
     Max angular momentum in pseudopotentials (lmaxx) =  3

     Subspace diagonalization in iterative solution of the eigenvalue problem:
     a serial algorithm will be used


     Parallelization info
     --------------------
     sticks:   dense  smooth     PW     G-vecs:    dense   smooth      PW
     Min         228     112     37                 4512     1593     309
     Max         229     113     38                 4514     1594     312
     Sum         913     451    151                18053     6375    1243



     bravais-lattice index     =            2
     lattice parameter (alat)  =      10.4600  a.u.
     unit-cell volume          =     286.1113 (a.u.)^3
     number of atoms/cell      =            2
     number of atomic types    =            1
     number of electrons       =         8.00
     number of Kohn-Sham states=            4
     kinetic-energy cutoff     =      30.0000  Ry
     charge density cutoff     =     240.0000  Ry
     convergence threshold     =      1.0E-08
     mixing beta               =       0.7000
     number of iterations used =            8  plain     mixing
     Exchange-correlation      = SLA  PW   PBE  PBE ( 1  4  3  4 0 0)

     celldm(1)=  10.460000  celldm(2)=   0.000000  celldm(3)=   0.000000
     celldm(4)=   0.000000  celldm(5)=   0.000000  celldm(6)=   0.000000

     crystal axes: (cart. coord. in units of alat)
               a(1) = (  -0.500000   0.000000   0.500000 )  
               a(2) = (   0.000000   0.500000   0.500000 )  
               a(3) = (  -0.500000   0.500000   0.000000 )  

     reciprocal axes: (cart. coord. in units 2 pi/alat)
               b(1) = ( -1.000000 -1.000000  1.000000 )  
               b(2) = (  1.000000  1.000000  1.000000 )  
               b(3) = ( -1.000000  1.000000 -1.000000 )  


     PseudoPot. # 1 for Si read from file:
     /home/max/quantum_espresso/qe-6.1/pseudo/si_pbe_v1.uspp.F.UPF.txt
     MD5 check sum: a056efeee980c13900f22a371efd63c1
     Pseudo is Ultrasoft + core correction, Zval =  4.0
     Generated by new atomic code, or converted to UPF format
     Using radial grid of  899 points,  6 beta functions with: 
                l(1) =   0
                l(2) =   0
                l(3) =   1
                l(4) =   1
                l(5) =   2
                l(6) =   2
     Q(r) pseudized with  8 coefficients,  rinner =    0.900   0.900   0.900
                                                       0.900   0.900

     atomic species   valence    mass     pseudopotential
        Si             4.00    28.08600     Si( 1.00)

     48 Sym. Ops., with inversion, found (24 have fractional translation)



   Cartesian axes

     site n.     atom                  positions (alat units)
         1           Si  tau(   1) = (   0.0000000   0.0000000   0.0000000  )
         2           Si  tau(   2) = (   0.2500000   0.2500000   0.2500000  )

     number of k points=    28
                       cart. coord. in units 2pi/alat
        k(    1) = (  -0.0833333   0.0833333   0.0833333), wk =   0.0185185
        k(    2) = (  -0.2500000   0.2500000  -0.0833333), wk =   0.0555556
        k(    3) = (  -0.4166667   0.4166667  -0.2500000), wk =   0.0555556
        k(    4) = (   0.4166667  -0.4166667   0.5833333), wk =   0.0555556
        k(    5) = (   0.2500000  -0.2500000   0.4166667), wk =   0.0555556
        k(    6) = (   0.0833333  -0.0833333   0.2500000), wk =   0.0555556
        k(    7) = (  -0.0833333   0.4166667   0.0833333), wk =   0.0555556
        k(    8) = (  -0.2500000   0.5833333  -0.0833333), wk =   0.1111111
        k(    9) = (   0.5833333  -0.2500000   0.7500000), wk =   0.1111111
        k(   10) = (   0.4166667  -0.0833333   0.5833333), wk =   0.1111111
        k(   11) = (   0.2500000   0.0833333   0.4166667), wk =   0.1111111
        k(   12) = (  -0.0833333   0.7500000   0.0833333), wk =   0.0555556
        k(   13) = (   0.7500000  -0.0833333   0.9166667), wk =   0.1111111
        k(   14) = (   0.5833333   0.0833333   0.7500000), wk =   0.1111111
        k(   15) = (   0.4166667   0.2500000   0.5833333), wk =   0.1111111
        k(   16) = (  -0.0833333  -0.9166667   0.0833333), wk =   0.0555556
        k(   17) = (  -0.2500000  -0.7500000  -0.0833333), wk =   0.1111111
        k(   18) = (  -0.0833333  -0.5833333   0.0833333), wk =   0.0555556
        k(   19) = (  -0.2500000   0.2500000   0.2500000), wk =   0.0185185
        k(   20) = (  -0.4166667   0.4166667   0.0833333), wk =   0.0555556
        k(   21) = (   0.4166667  -0.4166667   0.9166667), wk =   0.0555556
        k(   22) = (   0.2500000  -0.2500000   0.7500000), wk =   0.0555556
        k(   23) = (  -0.2500000   0.5833333   0.2500000), wk =   0.0555556
        k(   24) = (   0.5833333  -0.2500000   1.0833333), wk =   0.1111111
        k(   25) = (   0.4166667  -0.0833333   0.9166667), wk =   0.1111111
        k(   26) = (  -0.2500000  -1.0833333   0.2500000), wk =   0.0555556
        k(   27) = (  -0.4166667   0.4166667   0.4166667), wk =   0.0185185
        k(   28) = (   0.4166667  -0.4166667   1.2500000), wk =   0.0555556

     Dense  grid:    18053 G-vectors     FFT dimensions: (  40,  40,  40)

     Smooth grid:     6375 G-vectors     FFT dimensions: (  25,  25,  25)

     Estimated max dynamical RAM per process >       3.45MB

     Estimated total allocated dynamical RAM >      13.80MB

     Initial potential from superposition of free atoms

     starting charge    7.99866, renormalised to    8.00000
     Starting wfc are    8 randomized atomic wfcs

     total cpu time spent up to now is        0.5 secs

     per-process dynamical memory:    10.9 Mb

     Self-consistent Calculation

     iteration #  1     ecut=    30.00 Ry     beta=0.70
     Davidson diagonalization with overlap
     ethr =  1.00E-02,  avg # of iterations =  2.0

     Threshold (ethr) on eigenvalues was too large:
     Diagonalizing with lowered threshold

     Davidson diagonalization with overlap
     ethr =  6.37E-04,  avg # of iterations =  1.0

     total cpu time spent up to now is        1.1 secs

     total energy              =     -19.19043909 Ry
     Harris-Foulkes estimate   =     -19.20144870 Ry
     estimated scf accuracy    <       0.05053696 Ry

     iteration #  2     ecut=    30.00 Ry     beta=0.70
     Davidson diagonalization with overlap
     ethr =  6.32E-04,  avg # of iterations =  1.0

     total cpu time spent up to now is        1.3 secs

     total energy              =     -19.19194829 Ry
     Harris-Foulkes estimate   =     -19.19211775 Ry
     estimated scf accuracy    <       0.00245028 Ry

     iteration #  3     ecut=    30.00 Ry     beta=0.70
     Davidson diagonalization with overlap
     ethr =  3.06E-05,  avg # of iterations =  2.1

     total cpu time spent up to now is        1.6 secs

     total energy              =     -19.19224405 Ry
     Harris-Foulkes estimate   =     -19.19225371 Ry
     estimated scf accuracy    <       0.00003600 Ry

     iteration #  4     ecut=    30.00 Ry     beta=0.70
     Davidson diagonalization with overlap
     ethr =  4.50E-07,  avg # of iterations =  3.4

     total cpu time spent up to now is        1.9 secs

     total energy              =     -19.19228164 Ry
     Harris-Foulkes estimate   =     -19.19228200 Ry
     estimated scf accuracy    <       0.00000156 Ry

     iteration #  5     ecut=    30.00 Ry     beta=0.70
     Davidson diagonalization with overlap
     ethr =  1.95E-08,  avg # of iterations =  2.1

     total cpu time spent up to now is        2.1 secs

     End of self-consistent calculation

          k =-0.0833 0.0833 0.0833 (   803 PWs)   bands (ev):

    -5.8773   4.7480   5.4757   5.4757

          k =-0.2500 0.2500-0.0833 (   803 PWs)   bands (ev):

    -5.4228   2.7113   4.3010   5.2681

          k =-0.4167 0.4167-0.2500 (   794 PWs)   bands (ev):

    -4.3871   0.0712   3.8404   4.6591

          k = 0.4167-0.4167 0.5833 (   793 PWs)   bands (ev):

    -3.7366  -1.0076   3.8944   4.2989

          k = 0.2500-0.2500 0.4167 (   796 PWs)   bands (ev):

    -4.7760   0.8779   4.3630   4.3713

          k = 0.0833-0.0833 0.2500 (   799 PWs)   bands (ev):

    -5.6477   3.6853   4.8664   5.0241

          k =-0.0833 0.4167 0.0833 (   806 PWs)   bands (ev):

    -5.1924   2.4909   4.1427   4.1714

          k =-0.2500 0.5833-0.0833 (   795 PWs)   bands (ev):

    -4.3263   0.7170   2.8982   3.7988

          k = 0.5833-0.2500 0.7500 (   797 PWs)   bands (ev):

    -3.2793  -0.9270   2.3090   3.5874

          k = 0.4167-0.0833 0.5833 (   794 PWs)   bands (ev):

    -3.9545   0.0635   2.2878   4.0440

          k = 0.2500 0.0833 0.4167 (   800 PWs)   bands (ev):

    -4.9783   1.7072   3.5599   4.6702

          k =-0.0833 0.7500 0.0833 (   789 PWs)   bands (ev):

    -3.6462  -0.1042   2.8716   3.1868

          k = 0.7500-0.0833 0.9167 (   784 PWs)   bands (ev):

    -2.5129  -1.3885   2.0847   2.8092

          k = 0.5833 0.0833 0.7500 (   792 PWs)   bands (ev):

    -2.8782  -1.0445   1.6223   3.3258

          k = 0.4167 0.2500 0.5833 (   796 PWs)   bands (ev):

    -3.8539  -0.5499   3.1551   4.1340

          k =-0.0833-0.9167 0.0833 (   781 PWs)   bands (ev):

    -2.5942  -1.3935   2.6160   2.9804

          k =-0.2500-0.7500-0.0833 (   790 PWs)   bands (ev):

    -3.4892  -0.3130   2.3802   3.1336

          k =-0.0833-0.5833 0.0833 (   806 PWs)   bands (ev):

    -4.5203   1.2137   3.3850   3.5914

          k =-0.2500 0.2500 0.2500 (   797 PWs)   bands (ev):

    -5.2045   1.7836   4.8878   4.8878

          k =-0.4167 0.4167 0.0833 (   799 PWs)   bands (ev):

    -4.5588   0.8528   2.8625   4.7220

          k = 0.4167-0.4167 0.9167 (   790 PWs)   bands (ev):

    -3.4447  -0.5462   1.8189   3.9781

          k = 0.2500-0.2500 0.7500 (   788 PWs)   bands (ev):

    -3.3923  -0.6234   2.2645   3.5220

          k =-0.2500 0.5833 0.2500 (   800 PWs)   bands (ev):

    -4.1571   0.0881   3.2792   3.8777

          k = 0.5833-0.2500 1.0833 (   791 PWs)   bands (ev):

    -3.2075  -0.6746   1.9172   3.1369

          k = 0.4167-0.0833 0.9167 (   783 PWs)   bands (ev):

    -2.4197  -1.3961   1.7760   2.5093

          k =-0.2500-1.0833 0.2500 (   790 PWs)   bands (ev):

    -2.6219  -1.2922   1.6558   3.3363

          k =-0.4167 0.4167 0.4167 (   796 PWs)   bands (ev):

    -4.0803  -0.6275   4.5111   4.5111

          k = 0.4167-0.4167 1.2500 (   795 PWs)   bands (ev):

    -3.5109  -0.9329   2.7529   4.0973

     highest occupied level (ev):     5.4757

!    total energy              =     -19.19228189 Ry
     Harris-Foulkes estimate   =     -19.19228189 Ry
     estimated scf accuracy    <          4.0E-09 Ry

     The total energy is the sum of the following terms:

     one-electron contribution =       4.67544593 Ry
     hartree contribution      =       1.16630205 Ry
     xc contribution           =      -8.55434178 Ry
     ewald contribution        =     -16.47968809 Ry

     convergence has been achieved in   5 iterations

     Writing output data file silicon.10.46.save

     init_run     :      0.36s CPU      0.40s WALL (       1 calls)
     electrons    :      1.32s CPU      1.64s WALL (       1 calls)

     Called by init_run:
     wfcinit      :      0.09s CPU      0.09s WALL (       1 calls)
     potinit      :      0.03s CPU      0.03s WALL (       1 calls)

     Called by electrons:
     c_bands      :      0.74s CPU      0.88s WALL (       6 calls)
     sum_band     :      0.33s CPU      0.43s WALL (       6 calls)
     v_of_rho     :      0.12s CPU      0.17s WALL (       6 calls)
     newd         :      0.14s CPU      0.17s WALL (       6 calls)
     mix_rho      :      0.01s CPU      0.01s WALL (       6 calls)

     Called by c_bands:
     init_us_2    :      0.05s CPU      0.06s WALL (     364 calls)
     cegterg      :      0.63s CPU      0.74s WALL (     168 calls)

     Called by sum_band:
     sum_band:bec :      0.00s CPU      0.00s WALL (     168 calls)
     addusdens    :      0.14s CPU      0.19s WALL (       6 calls)

     Called by *egterg:
     h_psi        :      0.55s CPU      0.65s WALL (     521 calls)
     s_psi        :      0.04s CPU      0.05s WALL (     521 calls)
     g_psi        :      0.00s CPU      0.00s WALL (     325 calls)
     cdiaghg      :      0.04s CPU      0.04s WALL (     465 calls)

     Called by h_psi:
     h_psi:pot    :      0.55s CPU      0.64s WALL (     521 calls)
     h_psi:calbec :      0.06s CPU      0.08s WALL (     521 calls)
     vloc_psi     :      0.44s CPU      0.51s WALL (     521 calls)
     add_vuspsi   :      0.05s CPU      0.05s WALL (     521 calls)

     General routines
     calbec       :      0.09s CPU      0.11s WALL (     689 calls)
     fft          :      0.09s CPU      0.16s WALL (      96 calls)
     ffts         :      0.00s CPU      0.00s WALL (      12 calls)
     fftw         :      0.44s CPU      0.53s WALL (    4638 calls)
     interpolate  :      0.01s CPU      0.01s WALL (      12 calls)
     davcio       :      0.00s CPU      0.00s WALL (      28 calls)

     Parallel routines
     fft_scatter  :      0.23s CPU      0.37s WALL (    4746 calls)

     PWSCF        :     1.88s CPU         2.27s WALL


   This run was terminated on:  10:15:21  10Nov2017            

=------------------------------------------------------------------------------=
   JOB DONE.
=------------------------------------------------------------------------------=
