
     Program PHONON v.6.1 (svn rev. 13369) starts on  9Nov2017 at 12:51:11 

     This program is part of the open-source Quantum ESPRESSO suite
     for quantum simulation of materials; please cite
         "P. Giannozzi et al., J. Phys.:Condens. Matter 21 395502 (2009);
          URL http://www.quantum-espresso.org", 
     in publications or presentations arising from this work. More details at
     http://www.quantum-espresso.org/quote

     Parallel version (MPI), running on     4 processors
     R & G space division:  proc/nbgrp/npool/nimage =       4

     Reading data from directory:
     ./silicon.10.348.save

   Info: using nr1, nr2, nr3 values from input

   Info: using nr1, nr2, nr3 values from input

     IMPORTANT: XC functional enforced from input :
     Exchange-correlation      = SLA  PW   PBE  PBE ( 1  4  3  4 0 0)
     Any further DFT definition will be discarded
     Please, verify this is what you really want


     Parallelization info
     --------------------
     sticks:   dense  smooth     PW     G-vecs:    dense   smooth      PW
     Min          64      64     22                  709      709     140
     Max          67      67     23                  710      710     141
     Sum         265     265     91                 2837     2837     561


     Check: negative/imaginary core charge=   -0.000006    0.000000


     Dynamical matrices for ( 4, 4, 4)  uniform grid of q-points
     (   8q-points):
       N         xq(1)         xq(2)         xq(3) 
       1   0.000000000   0.000000000   0.000000000
       2  -0.250000000   0.250000000  -0.250000000
       3   0.500000000  -0.500000000   0.500000000
       4   0.000000000   0.500000000   0.000000000
       5   0.750000000  -0.250000000   0.750000000
       6   0.500000000   0.000000000   0.500000000
       7   0.000000000  -1.000000000   0.000000000
       8  -0.500000000  -1.000000000   0.000000000

     Calculation of q =    0.0000000   0.0000000   0.0000000

                                                                                

     bravais-lattice index     =            2
     lattice parameter (alat)  =      10.3480  a.u.
     unit-cell volume          =     277.0188 (a.u.)^3
     number of atoms/cell      =            2
     number of atomic types    =            1
     kinetic-energy cut-off    =      18.0000  Ry
     charge density cut-off    =      72.0000  Ry
     convergence threshold     =      1.0E-12
     beta                      =       0.7000
     number of iterations used =            4
     Exchange-correlation      = SLA  PW   PBE  PBE ( 1  4  3  4 0 0)


     celldm(1)=   10.34800  celldm(2)=    0.00000  celldm(3)=    0.00000
     celldm(4)=    0.00000  celldm(5)=    0.00000  celldm(6)=    0.00000

     crystal axes: (cart. coord. in units of alat)
               a(1) = ( -0.5000  0.0000  0.5000 )  
               a(2) = (  0.0000  0.5000  0.5000 )  
               a(3) = ( -0.5000  0.5000  0.0000 )  

     reciprocal axes: (cart. coord. in units 2 pi/alat)
               b(1) = ( -1.0000 -1.0000  1.0000 )  
               b(2) = (  1.0000  1.0000  1.0000 )  
               b(3) = ( -1.0000  1.0000 -1.0000 )  


     Atoms inside the unit cell: 

     Cartesian axes

     site n.  atom      mass           positions (alat units)
        1     Si  28.0860   tau(    1) = (    0.00000    0.00000    0.00000  )
        2     Si  28.0860   tau(    2) = (    0.25000    0.25000    0.25000  )

     Computing dynamical matrix for 
                    q = (   0.0000000   0.0000000   0.0000000 )

     49 Sym.Ops. (with q -> -q+G )


     G cutoff =  195.2925  (    710 G-vectors)     FFT grid: ( 20, 20, 20)
     number of k points=    10

     PseudoPot. # 1 for Si read from file:
     /home/max/quantum_espresso/qe-6.1/pseudo/si_pbe_v1.uspp.F.UPF.txt
     MD5 check sum: a056efeee980c13900f22a371efd63c1
     Pseudo is Ultrasoft + core correction, Zval =  4.0
     Generated by new atomic code, or converted to UPF format
     Using radial grid of  899 points,  6 beta functions with: 
                l(1) =   0
                l(2) =   0
                l(3) =   1
                l(4) =   1
                l(5) =   2
                l(6) =   2
     Q(r) pseudized with  8 coefficients,  rinner =    0.900   0.900   0.900
                                                       0.900   0.900

     Mode symmetry, O_h (m-3m)  point group:


     Electric field:
     Dielectric constant
     Born effective charges in two ways 


     Atomic displacements:
     There are   2 irreducible representations

     Representation     1      3 modes -T_2g G_25' G_5+  To be done

     Representation     2      3 modes -T_1u G_15  G_4-  To be done



     Alpha used in Ewald sum =   0.7000
     PHONON       :     0.54s CPU         0.59s WALL


     Electric Fields Calculation

      iter #   1 total cpu time :     1.0 secs   av.it.:   5.6
      thresh= 1.000E-02 alpha_mix =  0.700 |ddv_scf|^2 =  9.369E-07

      iter #   2 total cpu time :     1.2 secs   av.it.:   9.9
      thresh= 9.679E-05 alpha_mix =  0.700 |ddv_scf|^2 =  5.980E-08

      iter #   3 total cpu time :     1.4 secs   av.it.:   9.8
      thresh= 2.445E-05 alpha_mix =  0.700 |ddv_scf|^2 =  4.707E-09

      iter #   4 total cpu time :     1.6 secs   av.it.:   9.0
      thresh= 6.861E-06 alpha_mix =  0.700 |ddv_scf|^2 =  2.828E-11

      iter #   5 total cpu time :     1.8 secs   av.it.:   9.1
      thresh= 5.318E-07 alpha_mix =  0.700 |ddv_scf|^2 =  1.466E-14

     End of electric fields calculation

          Dielectric constant in cartesian axis 

          (      13.901432026      -0.000000000       0.000000000 )
          (      -0.000000000      13.901432026       0.000000000 )
          (       0.000000000       0.000000000      13.901432026 )

          Effective charges (d Force / dE) in cartesian axis

           atom      1   Si 
      Ex  (       -0.03550        0.00000        0.00000 )
      Ey  (        0.00000       -0.03550        0.00000 )
      Ez  (        0.00000        0.00000       -0.03550 )
           atom      2   Si 
      Ex  (       -0.03550        0.00000        0.00000 )
      Ey  (        0.00000       -0.03550       -0.00000 )
      Ez  (        0.00000       -0.00000       -0.03550 )


     Representation #  1 modes #   1  2  3

     Self-consistent Calculation

      iter #   1 total cpu time :     2.2 secs   av.it.:   4.9
      thresh= 1.000E-02 alpha_mix =  0.700 |ddv_scf|^2 =  2.238E-07

      iter #   2 total cpu time :     2.6 secs   av.it.:   9.8
      thresh= 4.731E-05 alpha_mix =  0.700 |ddv_scf|^2 =  1.387E-08

      iter #   3 total cpu time :     2.8 secs   av.it.:   9.2
      thresh= 1.178E-05 alpha_mix =  0.700 |ddv_scf|^2 =  8.605E-10

      iter #   4 total cpu time :     3.0 secs   av.it.:   9.0
      thresh= 2.933E-06 alpha_mix =  0.700 |ddv_scf|^2 =  1.905E-12

      iter #   5 total cpu time :     3.2 secs   av.it.:   9.5
      thresh= 1.380E-07 alpha_mix =  0.700 |ddv_scf|^2 =  1.343E-14

     End of self-consistent calculation

     Convergence has been achieved 


     Representation #  2 modes #   4  5  6

     Self-consistent Calculation

      iter #   1 total cpu time :     3.5 secs   av.it.:   5.0
      thresh= 1.000E-02 alpha_mix =  0.700 |ddv_scf|^2 =  1.854E-07

      iter #   2 total cpu time :     3.7 secs   av.it.:   9.6
      thresh= 4.306E-05 alpha_mix =  0.700 |ddv_scf|^2 =  1.506E-08

      iter #   3 total cpu time :     3.9 secs   av.it.:   9.3
      thresh= 1.227E-05 alpha_mix =  0.700 |ddv_scf|^2 =  9.145E-10

      iter #   4 total cpu time :     4.1 secs   av.it.:   9.5
      thresh= 3.024E-06 alpha_mix =  0.700 |ddv_scf|^2 =  5.336E-12

      iter #   5 total cpu time :     4.3 secs   av.it.:   9.0
      thresh= 2.310E-07 alpha_mix =  0.700 |ddv_scf|^2 =  4.668E-15

     End of self-consistent calculation

     Convergence has been achieved 

     Number of q in the star =    1
     List of q in the star:
          1   0.000000000   0.000000000   0.000000000

          Dielectric constant in cartesian axis 

          (      13.901432026      -0.000000000       0.000000000 )
          (      -0.000000000      13.901432026       0.000000000 )
          (       0.000000000       0.000000000      13.901432026 )

          Effective charges (d Force / dE) in cartesian axis

           atom      1   Si 
      Ex  (       -0.03550        0.00000        0.00000 )
      Ey  (        0.00000       -0.03550        0.00000 )
      Ez  (        0.00000        0.00000       -0.03550 )
           atom      2   Si 
      Ex  (       -0.03550        0.00000        0.00000 )
      Ey  (        0.00000       -0.03550       -0.00000 )
      Ez  (        0.00000       -0.00000       -0.03550 )

          Effective charges (d P / du) in cartesian axis 

           atom      1   Si 
      Px  (       -0.07527       -0.00000       -0.00000 )
      Py  (       -0.00000       -0.07527        0.00000 )
      Pz  (       -0.00000        0.00000       -0.07527 )
           atom      2   Si 
      Px  (       -0.07527        0.00000        0.00000 )
      Py  (        0.00000       -0.07527        0.00000 )
      Pz  (        0.00000        0.00000       -0.07527 )

     Diagonalizing the dynamical matrix

     q = (    0.000000000   0.000000000   0.000000000 ) 

 **************************************************************************
     freq (    1) =       1.890610 [THz] =      63.063968 [cm-1]
     freq (    2) =       1.890610 [THz] =      63.063968 [cm-1]
     freq (    3) =       1.890610 [THz] =      63.063968 [cm-1]
     freq (    4) =      15.325804 [THz] =     511.213795 [cm-1]
     freq (    5) =      15.325804 [THz] =     511.213795 [cm-1]
     freq (    6) =      15.325804 [THz] =     511.213795 [cm-1]
 **************************************************************************

     Mode symmetry, O_h (m-3m)  point group:

     freq (  1 -  3) =         63.1  [cm-1]   --> T_1u G_15  G_4- I  
     freq (  4 -  6) =        511.2  [cm-1]   --> T_2g G_25' G_5+ R  

     Calculation of q =   -0.2500000   0.2500000  -0.2500000

   Info: using nr1, nr2, nr3 values from input

   Info: using nr1, nr2, nr3 values from input

     Parallelization info
     --------------------
     sticks:   dense  smooth     PW     G-vecs:    dense   smooth      PW
     Min          64      64     24                  709      709     161
     Max          67      67     25                  710      710     162
     Sum         265     265     97                 2837     2837     645



     bravais-lattice index     =            2
     lattice parameter (alat)  =      10.3480  a.u.
     unit-cell volume          =     277.0188 (a.u.)^3
     number of atoms/cell      =            2
     number of atomic types    =            1
     number of electrons       =         8.00
     number of Kohn-Sham states=            4
     kinetic-energy cutoff     =      18.0000  Ry
     charge density cutoff     =      72.0000  Ry
     Exchange-correlation      = SLA  PW   PBE  PBE ( 1  4  3  4 0 0)

     celldm(1)=  10.348000  celldm(2)=   0.000000  celldm(3)=   0.000000
     celldm(4)=   0.000000  celldm(5)=   0.000000  celldm(6)=   0.000000

     crystal axes: (cart. coord. in units of alat)
               a(1) = (  -0.500000   0.000000   0.500000 )  
               a(2) = (   0.000000   0.500000   0.500000 )  
               a(3) = (  -0.500000   0.500000   0.000000 )  

     reciprocal axes: (cart. coord. in units 2 pi/alat)
               b(1) = ( -1.000000 -1.000000  1.000000 )  
               b(2) = (  1.000000  1.000000  1.000000 )  
               b(3) = ( -1.000000  1.000000 -1.000000 )  


     PseudoPot. # 1 for Si read from file:
     /home/max/quantum_espresso/qe-6.1/pseudo/si_pbe_v1.uspp.F.UPF.txt
     MD5 check sum: a056efeee980c13900f22a371efd63c1
     Pseudo is Ultrasoft + core correction, Zval =  4.0
     Generated by new atomic code, or converted to UPF format
     Using radial grid of  899 points,  6 beta functions with: 
                l(1) =   0
                l(2) =   0
                l(3) =   1
                l(4) =   1
                l(5) =   2
                l(6) =   2
     Q(r) pseudized with  8 coefficients,  rinner =    0.900   0.900   0.900
                                                       0.900   0.900

     atomic species   valence    mass     pseudopotential
        Si             4.00    28.08600     Si( 1.00)

     48 Sym. Ops., with inversion, found



   Cartesian axes

     site n.     atom                  positions (alat units)
         1           Si  tau(   1) = (   0.0000000   0.0000000   0.0000000  )
         2           Si  tau(   2) = (   0.2500000   0.2500000   0.2500000  )

     number of k points=   120

     Number of k-points >= 100: set verbosity='high' to print them.

     Dense  grid:     2837 G-vectors     FFT dimensions: (  20,  20,  20)

     Estimated max dynamical RAM per process >       0.33MB

     Estimated total allocated dynamical RAM >       1.32MB

     Check: negative/imaginary core charge=   -0.000006    0.000000

     The potential is recalculated from file :
     ./_ph0/silicon.10.348.save/charge-density.dat

     Starting wfc are    8 atomic wfcs

     Band Structure Calculation
     Davidson diagonalization with overlap

     ethr =  1.25E-10,  avg # of iterations = 11.7

     total cpu time spent up to now is        0.9 secs

     End of band structure calculation

     Number of k-points >= 100: set verbosity='high' to print the bands.

     highest occupied level (ev):     5.6584

     Writing output data file silicon.10.348.save

                                                                                

     bravais-lattice index     =            2
     lattice parameter (alat)  =      10.3480  a.u.
     unit-cell volume          =     277.0188 (a.u.)^3
     number of atoms/cell      =            2
     number of atomic types    =            1
     kinetic-energy cut-off    =      18.0000  Ry
     charge density cut-off    =      72.0000  Ry
     convergence threshold     =      1.0E-12
     beta                      =       0.7000
     number of iterations used =            4
     Exchange-correlation      = SLA  PW   PBE  PBE ( 1  4  3  4 0 0)


     celldm(1)=   10.34800  celldm(2)=    0.00000  celldm(3)=    0.00000
     celldm(4)=    0.00000  celldm(5)=    0.00000  celldm(6)=    0.00000

     crystal axes: (cart. coord. in units of alat)
               a(1) = ( -0.5000  0.0000  0.5000 )  
               a(2) = (  0.0000  0.5000  0.5000 )  
               a(3) = ( -0.5000  0.5000  0.0000 )  

     reciprocal axes: (cart. coord. in units 2 pi/alat)
               b(1) = ( -1.0000 -1.0000  1.0000 )  
               b(2) = (  1.0000  1.0000  1.0000 )  
               b(3) = ( -1.0000  1.0000 -1.0000 )  


     Atoms inside the unit cell: 

     Cartesian axes

     site n.  atom      mass           positions (alat units)
        1     Si  28.0860   tau(    1) = (    0.00000    0.00000    0.00000  )
        2     Si  28.0860   tau(    2) = (    0.25000    0.25000    0.25000  )

     Computing dynamical matrix for 
                    q = (  -0.2500000   0.2500000  -0.2500000 )

      6 Sym.Ops. (no q -> -q+G )


     G cutoff =  195.2925  (    710 G-vectors)     FFT grid: ( 20, 20, 20)
     number of k points=   120

     PseudoPot. # 1 for Si read from file:
     /home/max/quantum_espresso/qe-6.1/pseudo/si_pbe_v1.uspp.F.UPF.txt
     MD5 check sum: a056efeee980c13900f22a371efd63c1
     Pseudo is Ultrasoft + core correction, Zval =  4.0
     Generated by new atomic code, or converted to UPF format
     Using radial grid of  899 points,  6 beta functions with: 
                l(1) =   0
                l(2) =   0
                l(3) =   1
                l(4) =   1
                l(5) =   2
                l(6) =   2
     Q(r) pseudized with  8 coefficients,  rinner =    0.900   0.900   0.900
                                                       0.900   0.900

     Mode symmetry, C_3v (3m)   point group:


     Atomic displacements:
     There are   4 irreducible representations

     Representation     1      1 modes -A_1  L_1  To be done

     Representation     2      1 modes -A_1  L_1  To be done

     Representation     3      2 modes -E    L_3  To be done

     Representation     4      2 modes -E    L_3  To be done



     Alpha used in Ewald sum =   0.7000
     PHONON       :     5.60s CPU         5.90s WALL



     Representation #  1 mode #   1

     Self-consistent Calculation

      iter #   1 total cpu time :     6.2 secs   av.it.:   5.5
      thresh= 1.000E-02 alpha_mix =  0.700 |ddv_scf|^2 =  2.462E-03

      iter #   2 total cpu time :     6.6 secs   av.it.:   7.5
      thresh= 4.962E-03 alpha_mix =  0.700 |ddv_scf|^2 =  3.721E-02

      iter #   3 total cpu time :     6.9 secs   av.it.:   6.3
      thresh= 1.000E-02 alpha_mix =  0.700 |ddv_scf|^2 =  1.708E-06

      iter #   4 total cpu time :     7.2 secs   av.it.:   8.2
      thresh= 1.307E-04 alpha_mix =  0.700 |ddv_scf|^2 =  1.154E-07

      iter #   5 total cpu time :     7.5 secs   av.it.:   8.1
      thresh= 3.397E-05 alpha_mix =  0.700 |ddv_scf|^2 =  4.739E-09

      iter #   6 total cpu time :     7.8 secs   av.it.:   8.0
      thresh= 6.884E-06 alpha_mix =  0.700 |ddv_scf|^2 =  4.275E-09

      iter #   7 total cpu time :     8.1 secs   av.it.:   6.2
      thresh= 6.538E-06 alpha_mix =  0.700 |ddv_scf|^2 =  4.928E-10

      iter #   8 total cpu time :     8.4 secs   av.it.:   7.3
      thresh= 2.220E-06 alpha_mix =  0.700 |ddv_scf|^2 =  4.065E-12

      iter #   9 total cpu time :     8.8 secs   av.it.:   7.1
      thresh= 2.016E-07 alpha_mix =  0.700 |ddv_scf|^2 =  1.717E-13

     End of self-consistent calculation

     Convergence has been achieved 


     Representation #  2 mode #   2

     Self-consistent Calculation

      iter #   1 total cpu time :     9.1 secs   av.it.:   5.5
      thresh= 1.000E-02 alpha_mix =  0.700 |ddv_scf|^2 =  2.462E-03

      iter #   2 total cpu time :     9.4 secs   av.it.:   7.5
      thresh= 4.962E-03 alpha_mix =  0.700 |ddv_scf|^2 =  3.721E-02

      iter #   3 total cpu time :     9.6 secs   av.it.:   6.3
      thresh= 1.000E-02 alpha_mix =  0.700 |ddv_scf|^2 =  1.708E-06

      iter #   4 total cpu time :     9.9 secs   av.it.:   8.2
      thresh= 1.307E-04 alpha_mix =  0.700 |ddv_scf|^2 =  1.154E-07

      iter #   5 total cpu time :    10.3 secs   av.it.:   8.1
      thresh= 3.397E-05 alpha_mix =  0.700 |ddv_scf|^2 =  4.739E-09

      iter #   6 total cpu time :    10.8 secs   av.it.:   8.0
      thresh= 6.884E-06 alpha_mix =  0.700 |ddv_scf|^2 =  4.275E-09

      iter #   7 total cpu time :    11.0 secs   av.it.:   6.2
      thresh= 6.538E-06 alpha_mix =  0.700 |ddv_scf|^2 =  4.928E-10

      iter #   8 total cpu time :    11.3 secs   av.it.:   7.3
      thresh= 2.220E-06 alpha_mix =  0.700 |ddv_scf|^2 =  4.065E-12

      iter #   9 total cpu time :    11.6 secs   av.it.:   7.1
      thresh= 2.016E-07 alpha_mix =  0.700 |ddv_scf|^2 =  1.717E-13

     End of self-consistent calculation

     Convergence has been achieved 


     Representation #  3 modes #   3  4

     Self-consistent Calculation

      iter #   1 total cpu time :    12.1 secs   av.it.:   5.0
      thresh= 1.000E-02 alpha_mix =  0.700 |ddv_scf|^2 =  5.719E-07

      iter #   2 total cpu time :    12.9 secs   av.it.:   9.5
      thresh= 7.562E-05 alpha_mix =  0.700 |ddv_scf|^2 =  4.304E-08

      iter #   3 total cpu time :    13.6 secs   av.it.:   9.2
      thresh= 2.075E-05 alpha_mix =  0.700 |ddv_scf|^2 =  3.726E-09

      iter #   4 total cpu time :    14.2 secs   av.it.:   9.0
      thresh= 6.104E-06 alpha_mix =  0.700 |ddv_scf|^2 =  1.119E-11

      iter #   5 total cpu time :    15.0 secs   av.it.:   9.2
      thresh= 3.345E-07 alpha_mix =  0.700 |ddv_scf|^2 =  4.991E-13

     End of self-consistent calculation

     Convergence has been achieved 


     Representation #  4 modes #   5  6

     Self-consistent Calculation

      iter #   1 total cpu time :    15.5 secs   av.it.:   5.0
      thresh= 1.000E-02 alpha_mix =  0.700 |ddv_scf|^2 =  5.717E-07

      iter #   2 total cpu time :    16.2 secs   av.it.:   9.6
      thresh= 7.561E-05 alpha_mix =  0.700 |ddv_scf|^2 =  4.300E-08

      iter #   3 total cpu time :    17.1 secs   av.it.:   9.4
      thresh= 2.074E-05 alpha_mix =  0.700 |ddv_scf|^2 =  3.723E-09

      iter #   4 total cpu time :    17.7 secs   av.it.:   9.1
      thresh= 6.101E-06 alpha_mix =  0.700 |ddv_scf|^2 =  1.119E-11

      iter #   5 total cpu time :    18.5 secs   av.it.:   9.3
      thresh= 3.346E-07 alpha_mix =  0.700 |ddv_scf|^2 =  4.995E-13

     End of self-consistent calculation

     Convergence has been achieved 

     Number of q in the star =    8
     List of q in the star:
          1  -0.250000000   0.250000000  -0.250000000
          2   0.250000000  -0.250000000  -0.250000000
          3   0.250000000  -0.250000000   0.250000000
          4   0.250000000   0.250000000   0.250000000
          5  -0.250000000  -0.250000000  -0.250000000
          6  -0.250000000  -0.250000000   0.250000000
          7  -0.250000000   0.250000000   0.250000000
          8   0.250000000   0.250000000  -0.250000000

     Diagonalizing the dynamical matrix

     q = (   -0.250000000   0.250000000  -0.250000000 ) 

 **************************************************************************
     freq (    1) =       3.398579 [THz] =     113.364399 [cm-1]
     freq (    2) =       3.398579 [THz] =     113.364399 [cm-1]
     freq (    3) =       6.912240 [THz] =     230.567500 [cm-1]
     freq (    4) =      14.405432 [THz] =     480.513479 [cm-1]
     freq (    5) =      14.711968 [THz] =     490.738418 [cm-1]
     freq (    6) =      14.711968 [THz] =     490.738418 [cm-1]
 **************************************************************************

     Mode symmetry, C_3v (3m)   point group:

     freq (  1 -  2) =        113.4  [cm-1]   --> E    L_3           
     freq (  3 -  3) =        230.6  [cm-1]   --> A_1  L_1           
     freq (  4 -  4) =        480.5  [cm-1]   --> A_1  L_1           
     freq (  5 -  6) =        490.7  [cm-1]   --> E    L_3           

     Calculation of q =    0.5000000  -0.5000000   0.5000000

   Info: using nr1, nr2, nr3 values from input

   Info: using nr1, nr2, nr3 values from input

     Parallelization info
     --------------------
     sticks:   dense  smooth     PW     G-vecs:    dense   smooth      PW
     Min          64      64     27                  709      709     186
     Max          67      67     28                  710      710     189
     Sum         265     265    109                 2837     2837     749



     bravais-lattice index     =            2
     lattice parameter (alat)  =      10.3480  a.u.
     unit-cell volume          =     277.0188 (a.u.)^3
     number of atoms/cell      =            2
     number of atomic types    =            1
     number of electrons       =         8.00
     number of Kohn-Sham states=            4
     kinetic-energy cutoff     =      18.0000  Ry
     charge density cutoff     =      72.0000  Ry
     Exchange-correlation      = SLA  PW   PBE  PBE ( 1  4  3  4 0 0)

     celldm(1)=  10.348000  celldm(2)=   0.000000  celldm(3)=   0.000000
     celldm(4)=   0.000000  celldm(5)=   0.000000  celldm(6)=   0.000000

     crystal axes: (cart. coord. in units of alat)
               a(1) = (  -0.500000   0.000000   0.500000 )  
               a(2) = (   0.000000   0.500000   0.500000 )  
               a(3) = (  -0.500000   0.500000   0.000000 )  

     reciprocal axes: (cart. coord. in units 2 pi/alat)
               b(1) = ( -1.000000 -1.000000  1.000000 )  
               b(2) = (  1.000000  1.000000  1.000000 )  
               b(3) = ( -1.000000  1.000000 -1.000000 )  


     PseudoPot. # 1 for Si read from file:
     /home/max/quantum_espresso/qe-6.1/pseudo/si_pbe_v1.uspp.F.UPF.txt
     MD5 check sum: a056efeee980c13900f22a371efd63c1
     Pseudo is Ultrasoft + core correction, Zval =  4.0
     Generated by new atomic code, or converted to UPF format
     Using radial grid of  899 points,  6 beta functions with: 
                l(1) =   0
                l(2) =   0
                l(3) =   1
                l(4) =   1
                l(5) =   2
                l(6) =   2
     Q(r) pseudized with  8 coefficients,  rinner =    0.900   0.900   0.900
                                                       0.900   0.900

     atomic species   valence    mass     pseudopotential
        Si             4.00    28.08600     Si( 1.00)

     48 Sym. Ops., with inversion, found



   Cartesian axes

     site n.     atom                  positions (alat units)
         1           Si  tau(   1) = (   0.0000000   0.0000000   0.0000000  )
         2           Si  tau(   2) = (   0.2500000   0.2500000   0.2500000  )

     number of k points=    60
                       cart. coord. in units 2pi/alat
        k(    1) = (  -0.1250000   0.1250000   0.1250000), wk =   0.0468750
        k(    2) = (   0.3750000  -0.3750000   0.6250000), wk =   0.0000000
        k(    3) = (  -0.3750000   0.3750000  -0.1250000), wk =   0.0468750
        k(    4) = (   0.1250000  -0.1250000   0.3750000), wk =   0.0000000
        k(    5) = (   0.3750000  -0.3750000   0.6250000), wk =   0.0468750
        k(    6) = (   0.8750000  -0.8750000   1.1250000), wk =   0.0000000
        k(    7) = (   0.1250000  -0.1250000   0.3750000), wk =   0.0468750
        k(    8) = (   0.6250000  -0.6250000   0.8750000), wk =   0.0000000
        k(    9) = (  -0.1250000   0.6250000   0.1250000), wk =   0.0937500
        k(   10) = (   0.3750000   0.1250000   0.6250000), wk =   0.0000000
        k(   11) = (   0.6250000  -0.1250000   0.8750000), wk =   0.0937500
        k(   12) = (   1.1250000  -0.6250000   1.3750000), wk =   0.0000000
        k(   13) = (   0.3750000   0.1250000   0.6250000), wk =   0.0937500
        k(   14) = (   0.8750000  -0.3750000   1.1250000), wk =   0.0000000
        k(   15) = (  -0.1250000  -0.8750000   0.1250000), wk =   0.0937500
        k(   16) = (   0.3750000  -1.3750000   0.6250000), wk =   0.0000000
        k(   17) = (  -0.3750000   0.3750000   0.3750000), wk =   0.0468750
        k(   18) = (   0.1250000  -0.1250000   0.8750000), wk =   0.0000000
        k(   19) = (   0.3750000  -0.3750000   1.1250000), wk =   0.0468750
        k(   20) = (   0.8750000  -0.8750000   1.6250000), wk =   0.0000000
        k(   21) = (   0.1250000  -0.1250000   0.1250000), wk =   0.0156250
        k(   22) = (   0.6250000  -0.6250000   0.6250000), wk =   0.0000000
        k(   23) = (  -0.3750000  -0.3750000  -0.1250000), wk =   0.0937500
        k(   24) = (   0.1250000  -0.8750000   0.3750000), wk =   0.0000000
        k(   25) = (  -0.1250000  -0.3750000   0.3750000), wk =   0.0468750
        k(   26) = (   0.3750000  -0.8750000   0.8750000), wk =   0.0000000
        k(   27) = (   0.3750000   0.3750000   0.6250000), wk =   0.0937500
        k(   28) = (   0.8750000  -0.1250000   1.1250000), wk =   0.0000000
        k(   29) = (   0.6250000   0.3750000  -0.3750000), wk =   0.0468750
        k(   30) = (   1.1250000  -0.1250000   0.1250000), wk =   0.0000000
        k(   31) = (   0.1250000   0.1250000   0.3750000), wk =   0.0937500
        k(   32) = (   0.6250000  -0.3750000   0.8750000), wk =   0.0000000
        k(   33) = (   0.3750000   0.1250000  -0.1250000), wk =   0.0468750
        k(   34) = (   0.8750000  -0.3750000   0.3750000), wk =   0.0000000
        k(   35) = (  -0.1250000  -0.6250000  -0.1250000), wk =   0.0468750
        k(   36) = (   0.3750000  -1.1250000   0.3750000), wk =   0.0000000
        k(   37) = (   0.1250000  -0.6250000   0.1250000), wk =   0.0468750
        k(   38) = (   0.6250000  -1.1250000   0.6250000), wk =   0.0000000
        k(   39) = (   0.6250000   0.1250000   0.8750000), wk =   0.0937500
        k(   40) = (   1.1250000  -0.3750000   1.3750000), wk =   0.0000000
        k(   41) = (  -0.8750000   0.1250000   0.6250000), wk =   0.0937500
        k(   42) = (  -0.3750000  -0.3750000   1.1250000), wk =   0.0000000
        k(   43) = (   0.8750000   0.1250000  -0.6250000), wk =   0.0937500
        k(   44) = (   1.3750000  -0.3750000  -0.1250000), wk =   0.0000000
        k(   45) = (   0.3750000  -0.1250000   0.6250000), wk =   0.0937500
        k(   46) = (   0.8750000  -0.6250000   1.1250000), wk =   0.0000000
        k(   47) = (  -0.6250000  -0.1250000   0.3750000), wk =   0.0937500
        k(   48) = (  -0.1250000  -0.6250000   0.8750000), wk =   0.0000000
        k(   49) = (   0.6250000  -0.1250000  -0.3750000), wk =   0.0937500
        k(   50) = (   1.1250000  -0.6250000   0.1250000), wk =   0.0000000
        k(   51) = (  -0.1250000   0.8750000  -0.1250000), wk =   0.0468750
        k(   52) = (   0.3750000   0.3750000   0.3750000), wk =   0.0000000
        k(   53) = (   0.1250000   0.8750000   0.1250000), wk =   0.0468750
        k(   54) = (   0.6250000   0.3750000   0.6250000), wk =   0.0000000
        k(   55) = (   0.3750000  -0.3750000   0.3750000), wk =   0.0156250
        k(   56) = (   0.8750000  -0.8750000   0.8750000), wk =   0.0000000
        k(   57) = (   0.3750000   0.3750000   1.1250000), wk =   0.0937500
        k(   58) = (   0.8750000  -0.1250000   1.6250000), wk =   0.0000000
        k(   59) = (   1.1250000   0.3750000  -0.3750000), wk =   0.0468750
        k(   60) = (   1.6250000  -0.1250000   0.1250000), wk =   0.0000000

     Dense  grid:     2837 G-vectors     FFT dimensions: (  20,  20,  20)

     Estimated max dynamical RAM per process >       0.33MB

     Estimated total allocated dynamical RAM >       1.32MB

     Check: negative/imaginary core charge=   -0.000006    0.000000

     The potential is recalculated from file :
     ./_ph0/silicon.10.348.save/charge-density.dat

     Starting wfc are    8 atomic wfcs

     Band Structure Calculation
     Davidson diagonalization with overlap

     ethr =  1.25E-10,  avg # of iterations = 11.7

     total cpu time spent up to now is        1.5 secs

     End of band structure calculation

          k =-0.1250 0.1250 0.1250 (   344 PWs)   bands (ev):

    -5.6458   4.3492   5.6584   5.6584

          k = 0.3750-0.3750 0.6250 (   361 PWs)   bands (ev):

    -3.4960  -0.6991   3.7012   4.4112

          k =-0.3750 0.3750-0.1250 (   355 PWs)   bands (ev):

    -4.6256   1.3641   3.6846   5.1775

          k = 0.1250-0.1250 0.3750 (   353 PWs)   bands (ev):

    -5.1211   2.7331   4.6561   4.7172

          k = 0.3750-0.3750 0.6250 (   361 PWs)   bands (ev):

    -3.4960  -0.6991   3.7012   4.4112

          k = 0.8750-0.8750 1.1250 (   344 PWs)   bands (ev):

    -5.6458   4.3492   5.6584   5.6584

          k = 0.1250-0.1250 0.3750 (   353 PWs)   bands (ev):

    -5.1211   2.7331   4.6561   4.7172

          k = 0.6250-0.6250 0.8750 (   355 PWs)   bands (ev):

    -4.6256   1.3641   3.6846   5.1775

          k =-0.1250 0.6250 0.1250 (   351 PWs)   bands (ev):

    -4.0958   1.0224   3.3398   3.7863

          k = 0.3750 0.1250 0.6250 (   360 PWs)   bands (ev):

    -3.6841   0.1583   2.7015   4.0607

          k = 0.6250-0.1250 0.8750 (   361 PWs)   bands (ev):

    -2.4678  -0.9323   1.9989   3.0653

          k = 1.1250-0.6250 1.3750 (   355 PWs)   bands (ev):

    -4.6256   1.3641   3.6846   5.1775

          k = 0.3750 0.1250 0.6250 (   360 PWs)   bands (ev):

    -3.6841   0.1583   2.7015   4.0607

          k = 0.8750-0.3750 1.1250 (   351 PWs)   bands (ev):

    -4.0958   1.0224   3.3398   3.7863

          k =-0.1250-0.8750 0.1250 (   360 PWs)   bands (ev):

    -2.6327  -0.8361   2.6020   3.3214

          k = 0.3750-1.3750 0.6250 (   361 PWs)   bands (ev):

    -3.4960  -0.6991   3.7012   4.4112

          k =-0.3750 0.3750 0.3750 (   353 PWs)   bands (ev):

    -4.1967   0.0854   4.8726   4.8726

          k = 0.1250-0.1250 0.8750 (   360 PWs)   bands (ev):

    -2.6327  -0.8361   2.6020   3.3214

          k = 0.3750-0.3750 1.1250 (   363 PWs)   bands (ev):

    -3.0030  -0.6240   2.0539   4.0969

          k = 0.8750-0.8750 1.6250 (   351 PWs)   bands (ev):

    -4.0958   1.0224   3.3398   3.7863

          k = 0.1250-0.1250 0.1250 (   344 PWs)   bands (ev):

    -5.6458   4.3492   5.6584   5.6584

          k = 0.6250-0.6250 0.6250 (   353 PWs)   bands (ev):

    -4.1967   0.0854   4.8726   4.8726

          k =-0.3750-0.3750-0.1250 (   355 PWs)   bands (ev):

    -4.6256   1.3641   3.6846   5.1775

          k = 0.1250-0.8750 0.3750 (   361 PWs)   bands (ev):

    -2.4678  -0.9323   1.9989   3.0653

          k =-0.1250-0.3750 0.3750 (   355 PWs)   bands (ev):

    -4.6256   1.3641   3.6846   5.1775

          k = 0.3750-0.8750 0.8750 (   351 PWs)   bands (ev):

    -4.0958   1.0224   3.3398   3.7863

          k = 0.3750 0.3750 0.6250 (   361 PWs)   bands (ev):

    -3.4960  -0.6991   3.7012   4.4112

          k = 0.8750-0.1250 1.1250 (   360 PWs)   bands (ev):

    -2.6327  -0.8361   2.6020   3.3214

          k = 0.6250 0.3750-0.3750 (   361 PWs)   bands (ev):

    -3.4960  -0.6991   3.7012   4.4112

          k = 1.1250-0.1250 0.1250 (   360 PWs)   bands (ev):

    -2.6327  -0.8361   2.6020   3.3214

          k = 0.1250 0.1250 0.3750 (   353 PWs)   bands (ev):

    -5.1211   2.7331   4.6561   4.7172

          k = 0.6250-0.3750 0.8750 (   360 PWs)   bands (ev):

    -3.6841   0.1583   2.7015   4.0607

          k = 0.3750 0.1250-0.1250 (   353 PWs)   bands (ev):

    -5.1211   2.7331   4.6561   4.7172

          k = 0.8750-0.3750 0.3750 (   363 PWs)   bands (ev):

    -3.0030  -0.6240   2.0539   4.0969

          k =-0.1250-0.6250-0.1250 (   351 PWs)   bands (ev):

    -4.0958   1.0224   3.3398   3.7863

          k = 0.3750-1.1250 0.3750 (   363 PWs)   bands (ev):

    -3.0030  -0.6240   2.0539   4.0969

          k = 0.1250-0.6250 0.1250 (   351 PWs)   bands (ev):

    -4.0958   1.0224   3.3398   3.7863

          k = 0.6250-1.1250 0.6250 (   355 PWs)   bands (ev):

    -4.6256   1.3641   3.6846   5.1775

          k = 0.6250 0.1250 0.8750 (   361 PWs)   bands (ev):

    -2.4678  -0.9323   1.9989   3.0653

          k = 1.1250-0.3750 1.3750 (   360 PWs)   bands (ev):

    -3.6841   0.1583   2.7015   4.0607

          k =-0.8750 0.1250 0.6250 (   361 PWs)   bands (ev):

    -2.4678  -0.9323   1.9989   3.0653

          k =-0.3750-0.3750 1.1250 (   363 PWs)   bands (ev):

    -3.0030  -0.6240   2.0539   4.0969

          k = 0.8750 0.1250-0.6250 (   361 PWs)   bands (ev):

    -2.4678  -0.9323   1.9989   3.0653

          k = 1.3750-0.3750-0.1250 (   360 PWs)   bands (ev):

    -3.6841   0.1583   2.7015   4.0607

          k = 0.3750-0.1250 0.6250 (   360 PWs)   bands (ev):

    -3.6841   0.1583   2.7015   4.0607

          k = 0.8750-0.6250 1.1250 (   353 PWs)   bands (ev):

    -5.1211   2.7331   4.6561   4.7172

          k =-0.6250-0.1250 0.3750 (   360 PWs)   bands (ev):

    -3.6841   0.1583   2.7015   4.0607

          k =-0.1250-0.6250 0.8750 (   361 PWs)   bands (ev):

    -2.4678  -0.9323   1.9989   3.0653

          k = 0.6250-0.1250-0.3750 (   360 PWs)   bands (ev):

    -3.6841   0.1583   2.7015   4.0607

          k = 1.1250-0.6250 0.1250 (   361 PWs)   bands (ev):

    -2.4678  -0.9323   1.9989   3.0653

          k =-0.1250 0.8750-0.1250 (   360 PWs)   bands (ev):

    -2.6327  -0.8361   2.6020   3.3214

          k = 0.3750 0.3750 0.3750 (   353 PWs)   bands (ev):

    -4.1967   0.0854   4.8726   4.8726

          k = 0.1250 0.8750 0.1250 (   360 PWs)   bands (ev):

    -2.6327  -0.8361   2.6020   3.3214

          k = 0.6250 0.3750 0.6250 (   361 PWs)   bands (ev):

    -3.4960  -0.6991   3.7012   4.4112

          k = 0.3750-0.3750 0.3750 (   353 PWs)   bands (ev):

    -4.1967   0.0854   4.8726   4.8726

          k = 0.8750-0.8750 0.8750 (   344 PWs)   bands (ev):

    -5.6458   4.3492   5.6584   5.6584

          k = 0.3750 0.3750 1.1250 (   363 PWs)   bands (ev):

    -3.0030  -0.6240   2.0539   4.0969

          k = 0.8750-0.1250 1.6250 (   361 PWs)   bands (ev):

    -2.4678  -0.9323   1.9989   3.0653

          k = 1.1250 0.3750-0.3750 (   363 PWs)   bands (ev):

    -3.0030  -0.6240   2.0539   4.0969

          k = 1.6250-0.1250 0.1250 (   353 PWs)   bands (ev):

    -5.1211   2.7331   4.6561   4.7172

     highest occupied level (ev):     5.6584

     Writing output data file silicon.10.348.save

                                                                                

     bravais-lattice index     =            2
     lattice parameter (alat)  =      10.3480  a.u.
     unit-cell volume          =     277.0188 (a.u.)^3
     number of atoms/cell      =            2
     number of atomic types    =            1
     kinetic-energy cut-off    =      18.0000  Ry
     charge density cut-off    =      72.0000  Ry
     convergence threshold     =      1.0E-12
     beta                      =       0.7000
     number of iterations used =            4
     Exchange-correlation      = SLA  PW   PBE  PBE ( 1  4  3  4 0 0)


     celldm(1)=   10.34800  celldm(2)=    0.00000  celldm(3)=    0.00000
     celldm(4)=    0.00000  celldm(5)=    0.00000  celldm(6)=    0.00000

     crystal axes: (cart. coord. in units of alat)
               a(1) = ( -0.5000  0.0000  0.5000 )  
               a(2) = (  0.0000  0.5000  0.5000 )  
               a(3) = ( -0.5000  0.5000  0.0000 )  

     reciprocal axes: (cart. coord. in units 2 pi/alat)
               b(1) = ( -1.0000 -1.0000  1.0000 )  
               b(2) = (  1.0000  1.0000  1.0000 )  
               b(3) = ( -1.0000  1.0000 -1.0000 )  


     Atoms inside the unit cell: 

     Cartesian axes

     site n.  atom      mass           positions (alat units)
        1     Si  28.0860   tau(    1) = (    0.00000    0.00000    0.00000  )
        2     Si  28.0860   tau(    2) = (    0.25000    0.25000    0.25000  )

     Computing dynamical matrix for 
                    q = (   0.5000000  -0.5000000   0.5000000 )

     13 Sym.Ops. (with q -> -q+G )


     G cutoff =  195.2925  (    710 G-vectors)     FFT grid: ( 20, 20, 20)
     number of k points=    60

     PseudoPot. # 1 for Si read from file:
     /home/max/quantum_espresso/qe-6.1/pseudo/si_pbe_v1.uspp.F.UPF.txt
     MD5 check sum: a056efeee980c13900f22a371efd63c1
     Pseudo is Ultrasoft + core correction, Zval =  4.0
     Generated by new atomic code, or converted to UPF format
     Using radial grid of  899 points,  6 beta functions with: 
                l(1) =   0
                l(2) =   0
                l(3) =   1
                l(4) =   1
                l(5) =   2
                l(6) =   2
     Q(r) pseudized with  8 coefficients,  rinner =    0.900   0.900   0.900
                                                       0.900   0.900


     Atomic displacements:
     There are   4 irreducible representations

     Representation     1      1 modes -  To be done

     Representation     2      1 modes -  To be done

     Representation     3      2 modes -  To be done

     Representation     4      2 modes -  To be done



     Alpha used in Ewald sum =   0.7000
     PHONON       :    18.23s CPU        19.39s WALL



     Representation #  1 mode #   1

     Self-consistent Calculation

      iter #   1 total cpu time :    19.5 secs   av.it.:   4.8
      thresh= 1.000E-02 alpha_mix =  0.700 |ddv_scf|^2 =  2.481E-05

      iter #   2 total cpu time :    19.7 secs   av.it.:   8.3
      thresh= 4.981E-04 alpha_mix =  0.700 |ddv_scf|^2 =  2.214E-05

      iter #   3 total cpu time :    19.8 secs   av.it.:   7.5
      thresh= 4.705E-04 alpha_mix =  0.700 |ddv_scf|^2 =  4.371E-08

      iter #   4 total cpu time :    20.0 secs   av.it.:   7.4
      thresh= 2.091E-05 alpha_mix =  0.700 |ddv_scf|^2 =  1.326E-10

      iter #   5 total cpu time :    20.2 secs   av.it.:   7.9
      thresh= 1.152E-06 alpha_mix =  0.700 |ddv_scf|^2 =  3.605E-12

      iter #   6 total cpu time :    20.3 secs   av.it.:   7.9
      thresh= 1.899E-07 alpha_mix =  0.700 |ddv_scf|^2 =  4.369E-14

     End of self-consistent calculation

     Convergence has been achieved 


     Representation #  2 mode #   2

     Self-consistent Calculation

      iter #   1 total cpu time :    20.7 secs   av.it.:   5.6
      thresh= 1.000E-02 alpha_mix =  0.700 |ddv_scf|^2 =  3.445E-04

      iter #   2 total cpu time :    20.8 secs   av.it.:   8.3
      thresh= 1.856E-03 alpha_mix =  0.700 |ddv_scf|^2 =  1.062E-03

      iter #   3 total cpu time :    21.0 secs   av.it.:   7.1
      thresh= 3.259E-03 alpha_mix =  0.700 |ddv_scf|^2 =  1.315E-07

      iter #   4 total cpu time :    21.1 secs   av.it.:   8.1
      thresh= 3.626E-05 alpha_mix =  0.700 |ddv_scf|^2 =  8.539E-09

      iter #   5 total cpu time :    21.3 secs   av.it.:   8.4
      thresh= 9.241E-06 alpha_mix =  0.700 |ddv_scf|^2 =  1.348E-10

      iter #   6 total cpu time :    21.5 secs   av.it.:   8.2
      thresh= 1.161E-06 alpha_mix =  0.700 |ddv_scf|^2 =  2.524E-12

      iter #   7 total cpu time :    21.6 secs   av.it.:   7.8
      thresh= 1.589E-07 alpha_mix =  0.700 |ddv_scf|^2 =  4.994E-15

     End of self-consistent calculation

     Convergence has been achieved 


     Representation #  3 modes #   3  4

     Self-consistent Calculation

      iter #   1 total cpu time :    21.9 secs   av.it.:   4.7
      thresh= 1.000E-02 alpha_mix =  0.700 |ddv_scf|^2 =  3.333E-07

      iter #   2 total cpu time :    22.2 secs   av.it.:   9.0
      thresh= 5.773E-05 alpha_mix =  0.700 |ddv_scf|^2 =  2.826E-08

      iter #   3 total cpu time :    22.7 secs   av.it.:   8.3
      thresh= 1.681E-05 alpha_mix =  0.700 |ddv_scf|^2 =  5.009E-10

      iter #   4 total cpu time :    23.1 secs   av.it.:   8.9
      thresh= 2.238E-06 alpha_mix =  0.700 |ddv_scf|^2 =  6.210E-12

      iter #   5 total cpu time :    23.4 secs   av.it.:   8.7
      thresh= 2.492E-07 alpha_mix =  0.700 |ddv_scf|^2 =  3.122E-14

     End of self-consistent calculation

     Convergence has been achieved 


     Representation #  4 modes #   5  6

     Self-consistent Calculation

      iter #   1 total cpu time :    23.7 secs   av.it.:   4.9
      thresh= 1.000E-02 alpha_mix =  0.700 |ddv_scf|^2 =  9.864E-07

      iter #   2 total cpu time :    24.0 secs   av.it.:   9.4
      thresh= 9.932E-05 alpha_mix =  0.700 |ddv_scf|^2 =  7.751E-08

      iter #   3 total cpu time :    24.4 secs   av.it.:   9.3
      thresh= 2.784E-05 alpha_mix =  0.700 |ddv_scf|^2 =  5.032E-09

      iter #   4 total cpu time :    24.9 secs   av.it.:   8.5
      thresh= 7.094E-06 alpha_mix =  0.700 |ddv_scf|^2 =  6.467E-12

      iter #   5 total cpu time :    25.2 secs   av.it.:   8.9
      thresh= 2.543E-07 alpha_mix =  0.700 |ddv_scf|^2 =  2.330E-14

     End of self-consistent calculation

     Convergence has been achieved 

     Number of q in the star =    4
     List of q in the star:
          1   0.500000000  -0.500000000   0.500000000
          2   0.500000000   0.500000000   0.500000000
          3  -0.500000000   0.500000000   0.500000000
          4   0.500000000   0.500000000  -0.500000000

     Diagonalizing the dynamical matrix

     q = (    0.500000000  -0.500000000   0.500000000 ) 

 **************************************************************************
     freq (    1) =       4.793351 [THz] =     159.888984 [cm-1]
     freq (    2) =       4.793351 [THz] =     159.888984 [cm-1]
     freq (    3) =      11.808542 [THz] =     393.890570 [cm-1]
     freq (    4) =      12.104633 [THz] =     403.767098 [cm-1]
     freq (    5) =      14.636901 [THz] =     488.234465 [cm-1]
     freq (    6) =      14.636901 [THz] =     488.234465 [cm-1]
 **************************************************************************

     Calculation of q =    0.0000000   0.5000000   0.0000000

   Info: using nr1, nr2, nr3 values from input

   Info: using nr1, nr2, nr3 values from input

     Parallelization info
     --------------------
     sticks:   dense  smooth     PW     G-vecs:    dense   smooth      PW
     Min          64      64     27                  709      709     175
     Max          67      67     28                  710      710     176
     Sum         265     265    109                 2837     2837     701



     bravais-lattice index     =            2
     lattice parameter (alat)  =      10.3480  a.u.
     unit-cell volume          =     277.0188 (a.u.)^3
     number of atoms/cell      =            2
     number of atomic types    =            1
     number of electrons       =         8.00
     number of Kohn-Sham states=            4
     kinetic-energy cutoff     =      18.0000  Ry
     charge density cutoff     =      72.0000  Ry
     Exchange-correlation      = SLA  PW   PBE  PBE ( 1  4  3  4 0 0)

     celldm(1)=  10.348000  celldm(2)=   0.000000  celldm(3)=   0.000000
     celldm(4)=   0.000000  celldm(5)=   0.000000  celldm(6)=   0.000000

     crystal axes: (cart. coord. in units of alat)
               a(1) = (  -0.500000   0.000000   0.500000 )  
               a(2) = (   0.000000   0.500000   0.500000 )  
               a(3) = (  -0.500000   0.500000   0.000000 )  

     reciprocal axes: (cart. coord. in units 2 pi/alat)
               b(1) = ( -1.000000 -1.000000  1.000000 )  
               b(2) = (  1.000000  1.000000  1.000000 )  
               b(3) = ( -1.000000  1.000000 -1.000000 )  


     PseudoPot. # 1 for Si read from file:
     /home/max/quantum_espresso/qe-6.1/pseudo/si_pbe_v1.uspp.F.UPF.txt
     MD5 check sum: a056efeee980c13900f22a371efd63c1
     Pseudo is Ultrasoft + core correction, Zval =  4.0
     Generated by new atomic code, or converted to UPF format
     Using radial grid of  899 points,  6 beta functions with: 
                l(1) =   0
                l(2) =   0
                l(3) =   1
                l(4) =   1
                l(5) =   2
                l(6) =   2
     Q(r) pseudized with  8 coefficients,  rinner =    0.900   0.900   0.900
                                                       0.900   0.900

     atomic species   valence    mass     pseudopotential
        Si             4.00    28.08600     Si( 1.00)

     48 Sym. Ops., with inversion, found



   Cartesian axes

     site n.     atom                  positions (alat units)
         1           Si  tau(   1) = (   0.0000000   0.0000000   0.0000000  )
         2           Si  tau(   2) = (   0.2500000   0.2500000   0.2500000  )

     number of k points=    80
                       cart. coord. in units 2pi/alat
        k(    1) = (  -0.1250000   0.1250000   0.1250000), wk =   0.0312500
        k(    2) = (  -0.1250000   0.6250000   0.1250000), wk =   0.0000000
        k(    3) = (  -0.3750000   0.3750000  -0.1250000), wk =   0.0625000
        k(    4) = (  -0.3750000   0.8750000  -0.1250000), wk =   0.0000000
        k(    5) = (   0.3750000  -0.3750000   0.6250000), wk =   0.0625000
        k(    6) = (   0.3750000   0.1250000   0.6250000), wk =   0.0000000
        k(    7) = (   0.1250000  -0.1250000   0.3750000), wk =   0.0625000
        k(    8) = (   0.1250000   0.3750000   0.3750000), wk =   0.0000000
        k(    9) = (  -0.1250000   0.6250000   0.1250000), wk =   0.0312500
        k(   10) = (  -0.1250000   1.1250000   0.1250000), wk =   0.0000000
        k(   11) = (   0.6250000  -0.1250000   0.8750000), wk =   0.0625000
        k(   12) = (   0.6250000   0.3750000   0.8750000), wk =   0.0000000
        k(   13) = (   0.3750000   0.1250000   0.6250000), wk =   0.0625000
        k(   14) = (   0.3750000   0.6250000   0.6250000), wk =   0.0000000
        k(   15) = (  -0.1250000  -0.8750000   0.1250000), wk =   0.0312500
        k(   16) = (  -0.1250000  -0.3750000   0.1250000), wk =   0.0000000
        k(   17) = (  -0.3750000   0.3750000   0.3750000), wk =   0.0312500
        k(   18) = (  -0.3750000   0.8750000   0.3750000), wk =   0.0000000
        k(   19) = (   0.3750000  -0.3750000   1.1250000), wk =   0.0625000
        k(   20) = (   0.3750000   0.1250000   1.1250000), wk =   0.0000000
        k(   21) = (  -0.1250000  -0.1250000   0.1250000), wk =   0.0312500
        k(   22) = (  -0.1250000   0.3750000   0.1250000), wk =   0.0000000
        k(   23) = (   0.1250000  -0.3750000   0.3750000), wk =   0.0625000
        k(   24) = (   0.1250000   0.1250000   0.3750000), wk =   0.0000000
        k(   25) = (   0.3750000  -0.1250000   0.3750000), wk =   0.0312500
        k(   26) = (   0.3750000   0.3750000   0.3750000), wk =   0.0000000
        k(   27) = (   0.3750000   0.1250000   0.3750000), wk =   0.0312500
        k(   28) = (   0.3750000   0.6250000   0.3750000), wk =   0.0000000
        k(   29) = (  -0.6250000   0.3750000  -0.3750000), wk =   0.0625000
        k(   30) = (  -0.6250000   0.8750000  -0.3750000), wk =   0.0000000
        k(   31) = (  -0.3750000   0.6250000  -0.3750000), wk =   0.0312500
        k(   32) = (  -0.3750000   1.1250000  -0.3750000), wk =   0.0000000
        k(   33) = (  -0.3750000  -0.6250000  -0.3750000), wk =   0.0312500
        k(   34) = (  -0.3750000  -0.1250000  -0.3750000), wk =   0.0000000
        k(   35) = (  -0.3750000   0.1250000  -0.1250000), wk =   0.0625000
        k(   36) = (  -0.3750000   0.6250000  -0.1250000), wk =   0.0000000
        k(   37) = (  -0.1250000   0.3750000  -0.1250000), wk =   0.0312500
        k(   38) = (  -0.1250000   0.8750000  -0.1250000), wk =   0.0000000
        k(   39) = (  -0.1250000  -0.3750000  -0.1250000), wk =   0.0312500
        k(   40) = (  -0.1250000   0.1250000  -0.1250000), wk =   0.0000000
        k(   41) = (  -0.1250000  -0.6250000   0.1250000), wk =   0.0312500
        k(   42) = (  -0.1250000  -0.1250000   0.1250000), wk =   0.0000000
        k(   43) = (   0.6250000  -0.1250000  -0.1250000), wk =   0.0625000
        k(   44) = (   0.6250000   0.3750000  -0.1250000), wk =   0.0000000
        k(   45) = (   0.6250000   0.1250000   0.1250000), wk =   0.0625000
        k(   46) = (   0.6250000   0.6250000   0.1250000), wk =   0.0000000
        k(   47) = (  -0.8750000   0.1250000  -0.6250000), wk =   0.0625000
        k(   48) = (  -0.8750000   0.6250000  -0.6250000), wk =   0.0000000
        k(   49) = (  -0.1250000   0.6250000  -0.8750000), wk =   0.0625000
        k(   50) = (  -0.1250000   1.1250000  -0.8750000), wk =   0.0000000
        k(   51) = (  -0.1250000   0.8750000  -0.6250000), wk =   0.0625000
        k(   52) = (  -0.1250000   1.3750000  -0.6250000), wk =   0.0000000
        k(   53) = (  -0.1250000  -0.8750000  -0.6250000), wk =   0.0625000
        k(   54) = (  -0.1250000  -0.3750000  -0.6250000), wk =   0.0000000
        k(   55) = (   0.8750000  -0.6250000   0.1250000), wk =   0.0625000
        k(   56) = (   0.8750000  -0.1250000   0.1250000), wk =   0.0000000
        k(   57) = (  -0.6250000  -0.1250000  -0.3750000), wk =   0.0625000
        k(   58) = (  -0.6250000   0.3750000  -0.3750000), wk =   0.0000000
        k(   59) = (   0.1250000   0.3750000  -0.6250000), wk =   0.0625000
        k(   60) = (   0.1250000   0.8750000  -0.6250000), wk =   0.0000000
        k(   61) = (   0.1250000   0.6250000  -0.3750000), wk =   0.0625000
        k(   62) = (   0.1250000   1.1250000  -0.3750000), wk =   0.0000000
        k(   63) = (   0.1250000  -0.6250000  -0.3750000), wk =   0.0625000
        k(   64) = (   0.1250000  -0.1250000  -0.3750000), wk =   0.0000000
        k(   65) = (   0.6250000  -0.3750000  -0.1250000), wk =   0.0625000
        k(   66) = (   0.6250000   0.1250000  -0.1250000), wk =   0.0000000
        k(   67) = (  -0.1250000   0.8750000   0.1250000), wk =   0.0312500
        k(   68) = (  -0.1250000   1.3750000   0.1250000), wk =   0.0000000
        k(   69) = (  -0.8750000  -0.1250000  -0.1250000), wk =   0.0625000
        k(   70) = (  -0.8750000   0.3750000  -0.1250000), wk =   0.0000000
        k(   71) = (  -0.8750000   0.1250000   0.1250000), wk =   0.0625000
        k(   72) = (  -0.8750000   0.6250000   0.1250000), wk =   0.0000000
        k(   73) = (  -0.3750000  -0.3750000   0.3750000), wk =   0.0312500
        k(   74) = (  -0.3750000   0.1250000   0.3750000), wk =   0.0000000
        k(   75) = (  -1.1250000   0.3750000  -0.3750000), wk =   0.0625000
        k(   76) = (  -1.1250000   0.8750000  -0.3750000), wk =   0.0000000
        k(   77) = (  -0.3750000   1.1250000  -0.3750000), wk =   0.0312500
        k(   78) = (  -0.3750000   1.6250000  -0.3750000), wk =   0.0000000
        k(   79) = (  -0.3750000  -1.1250000  -0.3750000), wk =   0.0312500
        k(   80) = (  -0.3750000  -0.6250000  -0.3750000), wk =   0.0000000

     Dense  grid:     2837 G-vectors     FFT dimensions: (  20,  20,  20)

     Estimated max dynamical RAM per process >       0.33MB

     Estimated total allocated dynamical RAM >       1.32MB

     Check: negative/imaginary core charge=   -0.000006    0.000000

     The potential is recalculated from file :
     ./_ph0/silicon.10.348.save/charge-density.dat

     Starting wfc are    8 atomic wfcs

     Band Structure Calculation
     Davidson diagonalization with overlap

     ethr =  1.25E-10,  avg # of iterations = 11.7

     total cpu time spent up to now is        2.2 secs

     End of band structure calculation

          k =-0.1250 0.1250 0.1250 (   344 PWs)   bands (ev):

    -5.6458   4.3492   5.6584   5.6584

          k =-0.1250 0.6250 0.1250 (   351 PWs)   bands (ev):

    -4.0958   1.0224   3.3398   3.7863

          k =-0.3750 0.3750-0.1250 (   355 PWs)   bands (ev):

    -4.6256   1.3641   3.6846   5.1775

          k =-0.3750 0.8750-0.1250 (   361 PWs)   bands (ev):

    -2.4678  -0.9323   1.9989   3.0653

          k = 0.3750-0.3750 0.6250 (   361 PWs)   bands (ev):

    -3.4960  -0.6991   3.7012   4.4112

          k = 0.3750 0.1250 0.6250 (   360 PWs)   bands (ev):

    -3.6841   0.1583   2.7015   4.0607

          k = 0.1250-0.1250 0.3750 (   353 PWs)   bands (ev):

    -5.1211   2.7331   4.6561   4.7172

          k = 0.1250 0.3750 0.3750 (   355 PWs)   bands (ev):

    -4.6256   1.3641   3.6846   5.1775

          k =-0.1250 0.6250 0.1250 (   351 PWs)   bands (ev):

    -4.0958   1.0224   3.3398   3.7863

          k =-0.1250 1.1250 0.1250 (   360 PWs)   bands (ev):

    -2.6327  -0.8361   2.6020   3.3214

          k = 0.6250-0.1250 0.8750 (   361 PWs)   bands (ev):

    -2.4678  -0.9323   1.9989   3.0653

          k = 0.6250 0.3750 0.8750 (   360 PWs)   bands (ev):

    -3.6841   0.1583   2.7015   4.0607

          k = 0.3750 0.1250 0.6250 (   360 PWs)   bands (ev):

    -3.6841   0.1583   2.7015   4.0607

          k = 0.3750 0.6250 0.6250 (   361 PWs)   bands (ev):

    -3.4960  -0.6991   3.7012   4.4112

          k =-0.1250-0.8750 0.1250 (   360 PWs)   bands (ev):

    -2.6327  -0.8361   2.6020   3.3214

          k =-0.1250-0.3750 0.1250 (   353 PWs)   bands (ev):

    -5.1211   2.7331   4.6561   4.7172

          k =-0.3750 0.3750 0.3750 (   353 PWs)   bands (ev):

    -4.1967   0.0854   4.8726   4.8726

          k =-0.3750 0.8750 0.3750 (   363 PWs)   bands (ev):

    -3.0030  -0.6240   2.0539   4.0969

          k = 0.3750-0.3750 1.1250 (   363 PWs)   bands (ev):

    -3.0030  -0.6240   2.0539   4.0969

          k = 0.3750 0.1250 1.1250 (   361 PWs)   bands (ev):

    -2.4678  -0.9323   1.9989   3.0653

          k =-0.1250-0.1250 0.1250 (   344 PWs)   bands (ev):

    -5.6458   4.3492   5.6584   5.6584

          k =-0.1250 0.3750 0.1250 (   353 PWs)   bands (ev):

    -5.1211   2.7331   4.6561   4.7172

          k = 0.1250-0.3750 0.3750 (   355 PWs)   bands (ev):

    -4.6256   1.3641   3.6846   5.1775

          k = 0.1250 0.1250 0.3750 (   353 PWs)   bands (ev):

    -5.1211   2.7331   4.6561   4.7172

          k = 0.3750-0.1250 0.3750 (   355 PWs)   bands (ev):

    -4.6256   1.3641   3.6846   5.1775

          k = 0.3750 0.3750 0.3750 (   353 PWs)   bands (ev):

    -4.1967   0.0854   4.8726   4.8726

          k = 0.3750 0.1250 0.3750 (   355 PWs)   bands (ev):

    -4.6256   1.3641   3.6846   5.1775

          k = 0.3750 0.6250 0.3750 (   361 PWs)   bands (ev):

    -3.4960  -0.6991   3.7012   4.4112

          k =-0.6250 0.3750-0.3750 (   361 PWs)   bands (ev):

    -3.4960  -0.6991   3.7012   4.4112

          k =-0.6250 0.8750-0.3750 (   360 PWs)   bands (ev):

    -3.6841   0.1583   2.7015   4.0607

          k =-0.3750 0.6250-0.3750 (   361 PWs)   bands (ev):

    -3.4960  -0.6991   3.7012   4.4112

          k =-0.3750 1.1250-0.3750 (   363 PWs)   bands (ev):

    -3.0030  -0.6240   2.0539   4.0969

          k =-0.3750-0.6250-0.3750 (   361 PWs)   bands (ev):

    -3.4960  -0.6991   3.7012   4.4112

          k =-0.3750-0.1250-0.3750 (   355 PWs)   bands (ev):

    -4.6256   1.3641   3.6846   5.1775

          k =-0.3750 0.1250-0.1250 (   353 PWs)   bands (ev):

    -5.1211   2.7331   4.6561   4.7172

          k =-0.3750 0.6250-0.1250 (   360 PWs)   bands (ev):

    -3.6841   0.1583   2.7015   4.0607

          k =-0.1250 0.3750-0.1250 (   353 PWs)   bands (ev):

    -5.1211   2.7331   4.6561   4.7172

          k =-0.1250 0.8750-0.1250 (   360 PWs)   bands (ev):

    -2.6327  -0.8361   2.6020   3.3214

          k =-0.1250-0.3750-0.1250 (   353 PWs)   bands (ev):

    -5.1211   2.7331   4.6561   4.7172

          k =-0.1250 0.1250-0.1250 (   344 PWs)   bands (ev):

    -5.6458   4.3492   5.6584   5.6584

          k =-0.1250-0.6250 0.1250 (   351 PWs)   bands (ev):

    -4.0958   1.0224   3.3398   3.7863

          k =-0.1250-0.1250 0.1250 (   344 PWs)   bands (ev):

    -5.6458   4.3492   5.6584   5.6584

          k = 0.6250-0.1250-0.1250 (   351 PWs)   bands (ev):

    -4.0958   1.0224   3.3398   3.7863

          k = 0.6250 0.3750-0.1250 (   360 PWs)   bands (ev):

    -3.6841   0.1583   2.7015   4.0607

          k = 0.6250 0.1250 0.1250 (   351 PWs)   bands (ev):

    -4.0958   1.0224   3.3398   3.7863

          k = 0.6250 0.6250 0.1250 (   363 PWs)   bands (ev):

    -3.0030  -0.6240   2.0539   4.0969

          k =-0.8750 0.1250-0.6250 (   361 PWs)   bands (ev):

    -2.4678  -0.9323   1.9989   3.0653

          k =-0.8750 0.6250-0.6250 (   355 PWs)   bands (ev):

    -4.6256   1.3641   3.6846   5.1775

          k =-0.1250 0.6250-0.8750 (   361 PWs)   bands (ev):

    -2.4678  -0.9323   1.9989   3.0653

          k =-0.1250 1.1250-0.8750 (   360 PWs)   bands (ev):

    -2.6327  -0.8361   2.6020   3.3214

          k =-0.1250 0.8750-0.6250 (   361 PWs)   bands (ev):

    -2.4678  -0.9323   1.9989   3.0653

          k =-0.1250 1.3750-0.6250 (   363 PWs)   bands (ev):

    -3.0030  -0.6240   2.0539   4.0969

          k =-0.1250-0.8750-0.6250 (   361 PWs)   bands (ev):

    -2.4678  -0.9323   1.9989   3.0653

          k =-0.1250-0.3750-0.6250 (   360 PWs)   bands (ev):

    -3.6841   0.1583   2.7015   4.0607

          k = 0.8750-0.6250 0.1250 (   361 PWs)   bands (ev):

    -2.4678  -0.9323   1.9989   3.0653

          k = 0.8750-0.1250 0.1250 (   360 PWs)   bands (ev):

    -2.6327  -0.8361   2.6020   3.3214

          k =-0.6250-0.1250-0.3750 (   360 PWs)   bands (ev):

    -3.6841   0.1583   2.7015   4.0607

          k =-0.6250 0.3750-0.3750 (   361 PWs)   bands (ev):

    -3.4960  -0.6991   3.7012   4.4112

          k = 0.1250 0.3750-0.6250 (   360 PWs)   bands (ev):

    -3.6841   0.1583   2.7015   4.0607

          k = 0.1250 0.8750-0.6250 (   361 PWs)   bands (ev):

    -2.4678  -0.9323   1.9989   3.0653

          k = 0.1250 0.6250-0.3750 (   360 PWs)   bands (ev):

    -3.6841   0.1583   2.7015   4.0607

          k = 0.1250 1.1250-0.3750 (   361 PWs)   bands (ev):

    -2.4678  -0.9323   1.9989   3.0653

          k = 0.1250-0.6250-0.3750 (   360 PWs)   bands (ev):

    -3.6841   0.1583   2.7015   4.0607

          k = 0.1250-0.1250-0.3750 (   353 PWs)   bands (ev):

    -5.1211   2.7331   4.6561   4.7172

          k = 0.6250-0.3750-0.1250 (   360 PWs)   bands (ev):

    -3.6841   0.1583   2.7015   4.0607

          k = 0.6250 0.1250-0.1250 (   351 PWs)   bands (ev):

    -4.0958   1.0224   3.3398   3.7863

          k =-0.1250 0.8750 0.1250 (   360 PWs)   bands (ev):

    -2.6327  -0.8361   2.6020   3.3214

          k =-0.1250 1.3750 0.1250 (   351 PWs)   bands (ev):

    -4.0958   1.0224   3.3398   3.7863

          k =-0.8750-0.1250-0.1250 (   360 PWs)   bands (ev):

    -2.6327  -0.8361   2.6020   3.3214

          k =-0.8750 0.3750-0.1250 (   361 PWs)   bands (ev):

    -2.4678  -0.9323   1.9989   3.0653

          k =-0.8750 0.1250 0.1250 (   360 PWs)   bands (ev):

    -2.6327  -0.8361   2.6020   3.3214

          k =-0.8750 0.6250 0.1250 (   361 PWs)   bands (ev):

    -2.4678  -0.9323   1.9989   3.0653

          k =-0.3750-0.3750 0.3750 (   353 PWs)   bands (ev):

    -4.1967   0.0854   4.8726   4.8726

          k =-0.3750 0.1250 0.3750 (   355 PWs)   bands (ev):

    -4.6256   1.3641   3.6846   5.1775

          k =-1.1250 0.3750-0.3750 (   363 PWs)   bands (ev):

    -3.0030  -0.6240   2.0539   4.0969

          k =-1.1250 0.8750-0.3750 (   351 PWs)   bands (ev):

    -4.0958   1.0224   3.3398   3.7863

          k =-0.3750 1.1250-0.3750 (   363 PWs)   bands (ev):

    -3.0030  -0.6240   2.0539   4.0969

          k =-0.3750 1.6250-0.3750 (   353 PWs)   bands (ev):

    -4.1967   0.0854   4.8726   4.8726

          k =-0.3750-1.1250-0.3750 (   363 PWs)   bands (ev):

    -3.0030  -0.6240   2.0539   4.0969

          k =-0.3750-0.6250-0.3750 (   361 PWs)   bands (ev):

    -3.4960  -0.6991   3.7012   4.4112

     highest occupied level (ev):     5.6584

     Writing output data file silicon.10.348.save

                                                                                

     bravais-lattice index     =            2
     lattice parameter (alat)  =      10.3480  a.u.
     unit-cell volume          =     277.0188 (a.u.)^3
     number of atoms/cell      =            2
     number of atomic types    =            1
     kinetic-energy cut-off    =      18.0000  Ry
     charge density cut-off    =      72.0000  Ry
     convergence threshold     =      1.0E-12
     beta                      =       0.7000
     number of iterations used =            4
     Exchange-correlation      = SLA  PW   PBE  PBE ( 1  4  3  4 0 0)


     celldm(1)=   10.34800  celldm(2)=    0.00000  celldm(3)=    0.00000
     celldm(4)=    0.00000  celldm(5)=    0.00000  celldm(6)=    0.00000

     crystal axes: (cart. coord. in units of alat)
               a(1) = ( -0.5000  0.0000  0.5000 )  
               a(2) = (  0.0000  0.5000  0.5000 )  
               a(3) = ( -0.5000  0.5000  0.0000 )  

     reciprocal axes: (cart. coord. in units 2 pi/alat)
               b(1) = ( -1.0000 -1.0000  1.0000 )  
               b(2) = (  1.0000  1.0000  1.0000 )  
               b(3) = ( -1.0000  1.0000 -1.0000 )  


     Atoms inside the unit cell: 

     Cartesian axes

     site n.  atom      mass           positions (alat units)
        1     Si  28.0860   tau(    1) = (    0.00000    0.00000    0.00000  )
        2     Si  28.0860   tau(    2) = (    0.25000    0.25000    0.25000  )

     Computing dynamical matrix for 
                    q = (   0.0000000   0.5000000   0.0000000 )

      8 Sym.Ops. (no q -> -q+G )


     G cutoff =  195.2925  (    710 G-vectors)     FFT grid: ( 20, 20, 20)
     number of k points=    80

     PseudoPot. # 1 for Si read from file:
     /home/max/quantum_espresso/qe-6.1/pseudo/si_pbe_v1.uspp.F.UPF.txt
     MD5 check sum: a056efeee980c13900f22a371efd63c1
     Pseudo is Ultrasoft + core correction, Zval =  4.0
     Generated by new atomic code, or converted to UPF format
     Using radial grid of  899 points,  6 beta functions with: 
                l(1) =   0
                l(2) =   0
                l(3) =   1
                l(4) =   1
                l(5) =   2
                l(6) =   2
     Q(r) pseudized with  8 coefficients,  rinner =    0.900   0.900   0.900
                                                       0.900   0.900

     Mode symmetry, C_4v (4mm)  point group:


     Atomic displacements:
     There are   4 irreducible representations

     Representation     1      1 modes -A_1  G_1 D_1  To be done

     Representation     2      1 modes -B_2  G_4 D_2'  To be done

     Representation     3      2 modes -E    G_5 D_5  To be done

     Representation     4      2 modes -E    G_5 D_5  To be done



     Alpha used in Ewald sum =   0.7000
     PHONON       :    24.63s CPU        26.24s WALL



     Representation #  1 mode #   1

     Self-consistent Calculation

      iter #   1 total cpu time :    26.6 secs   av.it.:   5.8
      thresh= 1.000E-02 alpha_mix =  0.700 |ddv_scf|^2 =  2.962E-03

      iter #   2 total cpu time :    26.8 secs   av.it.:   7.7
      thresh= 5.442E-03 alpha_mix =  0.700 |ddv_scf|^2 =  3.903E-02

      iter #   3 total cpu time :    27.0 secs   av.it.:   6.7
      thresh= 1.000E-02 alpha_mix =  0.700 |ddv_scf|^2 =  1.485E-07

      iter #   4 total cpu time :    27.2 secs   av.it.:   8.1
      thresh= 3.853E-05 alpha_mix =  0.700 |ddv_scf|^2 =  1.438E-08

      iter #   5 total cpu time :    27.4 secs   av.it.:   7.8
      thresh= 1.199E-05 alpha_mix =  0.700 |ddv_scf|^2 =  7.138E-10

      iter #   6 total cpu time :    27.6 secs   av.it.:   7.9
      thresh= 2.672E-06 alpha_mix =  0.700 |ddv_scf|^2 =  2.749E-12

      iter #   7 total cpu time :    27.8 secs   av.it.:   7.9
      thresh= 1.658E-07 alpha_mix =  0.700 |ddv_scf|^2 =  5.308E-13

     End of self-consistent calculation

     Convergence has been achieved 


     Representation #  2 mode #   2

     Self-consistent Calculation

      iter #   1 total cpu time :    28.0 secs   av.it.:   4.9
      thresh= 1.000E-02 alpha_mix =  0.700 |ddv_scf|^2 =  5.511E-06

      iter #   2 total cpu time :    28.3 secs   av.it.:   8.7
      thresh= 2.348E-04 alpha_mix =  0.700 |ddv_scf|^2 =  1.345E-06

      iter #   3 total cpu time :    28.6 secs   av.it.:   8.5
      thresh= 1.160E-04 alpha_mix =  0.700 |ddv_scf|^2 =  4.301E-08

      iter #   4 total cpu time :    28.9 secs   av.it.:   8.2
      thresh= 2.074E-05 alpha_mix =  0.700 |ddv_scf|^2 =  7.247E-10

      iter #   5 total cpu time :    29.1 secs   av.it.:   8.6
      thresh= 2.692E-06 alpha_mix =  0.700 |ddv_scf|^2 =  6.906E-12

      iter #   6 total cpu time :    29.3 secs   av.it.:   7.9
      thresh= 2.628E-07 alpha_mix =  0.700 |ddv_scf|^2 =  7.425E-14

     End of self-consistent calculation

     Convergence has been achieved 


     Representation #  3 modes #   3  4

     Self-consistent Calculation

      iter #   1 total cpu time :    29.6 secs   av.it.:   5.0
      thresh= 1.000E-02 alpha_mix =  0.700 |ddv_scf|^2 =  1.023E-06

      iter #   2 total cpu time :    30.1 secs   av.it.:   9.7
      thresh= 1.011E-04 alpha_mix =  0.700 |ddv_scf|^2 =  1.269E-07

      iter #   3 total cpu time :    30.8 secs   av.it.:   9.5
      thresh= 3.563E-05 alpha_mix =  0.700 |ddv_scf|^2 =  6.734E-09

      iter #   4 total cpu time :    31.2 secs   av.it.:   8.8
      thresh= 8.206E-06 alpha_mix =  0.700 |ddv_scf|^2 =  9.574E-12

      iter #   5 total cpu time :    31.7 secs   av.it.:   9.2
      thresh= 3.094E-07 alpha_mix =  0.700 |ddv_scf|^2 =  3.004E-13

     End of self-consistent calculation

     Convergence has been achieved 


     Representation #  4 modes #   5  6

     Self-consistent Calculation

      iter #   1 total cpu time :    32.0 secs   av.it.:   5.0
      thresh= 1.000E-02 alpha_mix =  0.700 |ddv_scf|^2 =  9.390E-07

      iter #   2 total cpu time :    32.7 secs   av.it.:   9.8
      thresh= 9.690E-05 alpha_mix =  0.700 |ddv_scf|^2 =  1.189E-07

      iter #   3 total cpu time :    33.2 secs   av.it.:   9.4
      thresh= 3.448E-05 alpha_mix =  0.700 |ddv_scf|^2 =  7.050E-09

      iter #   4 total cpu time :    33.6 secs   av.it.:   8.9
      thresh= 8.397E-06 alpha_mix =  0.700 |ddv_scf|^2 =  1.488E-11

      iter #   5 total cpu time :    34.1 secs   av.it.:   9.2
      thresh= 3.857E-07 alpha_mix =  0.700 |ddv_scf|^2 =  4.432E-14

     End of self-consistent calculation

     Convergence has been achieved 

     Number of q in the star =    6
     List of q in the star:
          1   0.000000000   0.500000000   0.000000000
          2   0.000000000  -0.500000000   0.000000000
          3   0.500000000   0.000000000   0.000000000
          4   0.000000000   0.000000000   0.500000000
          5   0.000000000   0.000000000  -0.500000000
          6  -0.500000000   0.000000000   0.000000000

     Diagonalizing the dynamical matrix

     q = (    0.000000000   0.500000000   0.000000000 ) 

 **************************************************************************
     freq (    1) =       4.300165 [THz] =     143.438048 [cm-1]
     freq (    2) =       4.300165 [THz] =     143.438048 [cm-1]
     freq (    3) =       7.135782 [THz] =     238.024064 [cm-1]
     freq (    4) =      14.010883 [THz] =     467.352764 [cm-1]
     freq (    5) =      14.010883 [THz] =     467.352764 [cm-1]
     freq (    6) =      14.646129 [THz] =     488.542263 [cm-1]
 **************************************************************************

     Mode symmetry, C_4v (4mm)  point group:

     freq (  1 -  2) =        143.4  [cm-1]   --> E    G_5 D_5       
     freq (  3 -  3) =        238.0  [cm-1]   --> A_1  G_1 D_1       
     freq (  4 -  5) =        467.4  [cm-1]   --> E    G_5 D_5       
     freq (  6 -  6) =        488.5  [cm-1]   --> B_2  G_4 D_2'      

     Calculation of q =    0.7500000  -0.2500000   0.7500000

   Info: using nr1, nr2, nr3 values from input

   Info: using nr1, nr2, nr3 values from input

     Parallelization info
     --------------------
     sticks:   dense  smooth     PW     G-vecs:    dense   smooth      PW
     Min          64      64     30                  709      709     216
     Max          67      67     31                  710      710     218
     Sum         265     265    121                 2837     2837     869



     bravais-lattice index     =            2
     lattice parameter (alat)  =      10.3480  a.u.
     unit-cell volume          =     277.0188 (a.u.)^3
     number of atoms/cell      =            2
     number of atomic types    =            1
     number of electrons       =         8.00
     number of Kohn-Sham states=            4
     kinetic-energy cutoff     =      18.0000  Ry
     charge density cutoff     =      72.0000  Ry
     Exchange-correlation      = SLA  PW   PBE  PBE ( 1  4  3  4 0 0)

     celldm(1)=  10.348000  celldm(2)=   0.000000  celldm(3)=   0.000000
     celldm(4)=   0.000000  celldm(5)=   0.000000  celldm(6)=   0.000000

     crystal axes: (cart. coord. in units of alat)
               a(1) = (  -0.500000   0.000000   0.500000 )  
               a(2) = (   0.000000   0.500000   0.500000 )  
               a(3) = (  -0.500000   0.500000   0.000000 )  

     reciprocal axes: (cart. coord. in units 2 pi/alat)
               b(1) = ( -1.000000 -1.000000  1.000000 )  
               b(2) = (  1.000000  1.000000  1.000000 )  
               b(3) = ( -1.000000  1.000000 -1.000000 )  


     PseudoPot. # 1 for Si read from file:
     /home/max/quantum_espresso/qe-6.1/pseudo/si_pbe_v1.uspp.F.UPF.txt
     MD5 check sum: a056efeee980c13900f22a371efd63c1
     Pseudo is Ultrasoft + core correction, Zval =  4.0
     Generated by new atomic code, or converted to UPF format
     Using radial grid of  899 points,  6 beta functions with: 
                l(1) =   0
                l(2) =   0
                l(3) =   1
                l(4) =   1
                l(5) =   2
                l(6) =   2
     Q(r) pseudized with  8 coefficients,  rinner =    0.900   0.900   0.900
                                                       0.900   0.900

     atomic species   valence    mass     pseudopotential
        Si             4.00    28.08600     Si( 1.00)

     48 Sym. Ops., with inversion, found



   Cartesian axes

     site n.     atom                  positions (alat units)
         1           Si  tau(   1) = (   0.0000000   0.0000000   0.0000000  )
         2           Si  tau(   2) = (   0.2500000   0.2500000   0.2500000  )

     number of k points=   288

     Number of k-points >= 100: set verbosity='high' to print them.

     Dense  grid:     2837 G-vectors     FFT dimensions: (  20,  20,  20)

     Estimated max dynamical RAM per process >       0.33MB

     Estimated total allocated dynamical RAM >       1.32MB

     Check: negative/imaginary core charge=   -0.000006    0.000000

     The potential is recalculated from file :
     ./_ph0/silicon.10.348.save/charge-density.dat

     Starting wfc are    8 atomic wfcs

     Band Structure Calculation
     Davidson diagonalization with overlap

     ethr =  1.25E-10,  avg # of iterations = 11.6

     total cpu time spent up to now is        4.5 secs

     End of band structure calculation

     Number of k-points >= 100: set verbosity='high' to print the bands.

     highest occupied level (ev):     5.6584

     Writing output data file silicon.10.348.save

                                                                                

     bravais-lattice index     =            2
     lattice parameter (alat)  =      10.3480  a.u.
     unit-cell volume          =     277.0188 (a.u.)^3
     number of atoms/cell      =            2
     number of atomic types    =            1
     kinetic-energy cut-off    =      18.0000  Ry
     charge density cut-off    =      72.0000  Ry
     convergence threshold     =      1.0E-12
     beta                      =       0.7000
     number of iterations used =            4
     Exchange-correlation      = SLA  PW   PBE  PBE ( 1  4  3  4 0 0)


     celldm(1)=   10.34800  celldm(2)=    0.00000  celldm(3)=    0.00000
     celldm(4)=    0.00000  celldm(5)=    0.00000  celldm(6)=    0.00000

     crystal axes: (cart. coord. in units of alat)
               a(1) = ( -0.5000  0.0000  0.5000 )  
               a(2) = (  0.0000  0.5000  0.5000 )  
               a(3) = ( -0.5000  0.5000  0.0000 )  

     reciprocal axes: (cart. coord. in units 2 pi/alat)
               b(1) = ( -1.0000 -1.0000  1.0000 )  
               b(2) = (  1.0000  1.0000  1.0000 )  
               b(3) = ( -1.0000  1.0000 -1.0000 )  


     Atoms inside the unit cell: 

     Cartesian axes

     site n.  atom      mass           positions (alat units)
        1     Si  28.0860   tau(    1) = (    0.00000    0.00000    0.00000  )
        2     Si  28.0860   tau(    2) = (    0.25000    0.25000    0.25000  )

     Computing dynamical matrix for 
                    q = (   0.7500000  -0.2500000   0.7500000 )

      2 Sym.Ops. (no q -> -q+G )


     G cutoff =  195.2925  (    710 G-vectors)     FFT grid: ( 20, 20, 20)
     number of k points=   288

     PseudoPot. # 1 for Si read from file:
     /home/max/quantum_espresso/qe-6.1/pseudo/si_pbe_v1.uspp.F.UPF.txt
     MD5 check sum: a056efeee980c13900f22a371efd63c1
     Pseudo is Ultrasoft + core correction, Zval =  4.0
     Generated by new atomic code, or converted to UPF format
     Using radial grid of  899 points,  6 beta functions with: 
                l(1) =   0
                l(2) =   0
                l(3) =   1
                l(4) =   1
                l(5) =   2
                l(6) =   2
     Q(r) pseudized with  8 coefficients,  rinner =    0.900   0.900   0.900
                                                       0.900   0.900

     Mode symmetry, C_s (m)     point group:


     Atomic displacements:
     There are   6 irreducible representations

     Representation     1      1 modes -A'  To be done

     Representation     2      1 modes -A'  To be done

     Representation     3      1 modes -A'  To be done

     Representation     4      1 modes -A'  To be done

     Representation     5      1 modes -A''  To be done

     Representation     6      1 modes -A''  To be done



     Alpha used in Ewald sum =   0.7000
     PHONON       :    34.64s CPU        37.19s WALL



     Representation #  1 mode #   1

     Self-consistent Calculation

      iter #   1 total cpu time :    37.8 secs   av.it.:   5.3
      thresh= 1.000E-02 alpha_mix =  0.700 |ddv_scf|^2 =  6.114E-05

      iter #   2 total cpu time :    38.7 secs   av.it.:   8.9
      thresh= 7.819E-04 alpha_mix =  0.700 |ddv_scf|^2 =  1.603E-04

      iter #   3 total cpu time :    39.4 secs   av.it.:   7.6
      thresh= 1.266E-03 alpha_mix =  0.700 |ddv_scf|^2 =  1.147E-06

      iter #   4 total cpu time :    40.2 secs   av.it.:   8.4
      thresh= 1.071E-04 alpha_mix =  0.700 |ddv_scf|^2 =  6.210E-08

      iter #   5 total cpu time :    41.1 secs   av.it.:   8.3
      thresh= 2.492E-05 alpha_mix =  0.700 |ddv_scf|^2 =  7.563E-09

      iter #   6 total cpu time :    41.8 secs   av.it.:   8.5
      thresh= 8.696E-06 alpha_mix =  0.700 |ddv_scf|^2 =  8.440E-11

      iter #   7 total cpu time :    42.8 secs   av.it.:   8.8
      thresh= 9.187E-07 alpha_mix =  0.700 |ddv_scf|^2 =  3.022E-12

      iter #   8 total cpu time :    43.5 secs   av.it.:   8.6
      thresh= 1.738E-07 alpha_mix =  0.700 |ddv_scf|^2 =  1.860E-13

     End of self-consistent calculation

     Convergence has been achieved 


     Representation #  2 mode #   2

     Self-consistent Calculation

      iter #   1 total cpu time :    44.2 secs   av.it.:   5.4
      thresh= 1.000E-02 alpha_mix =  0.700 |ddv_scf|^2 =  1.088E-04

      iter #   2 total cpu time :    45.1 secs   av.it.:   8.7
      thresh= 1.043E-03 alpha_mix =  0.700 |ddv_scf|^2 =  3.105E-04

      iter #   3 total cpu time :    45.8 secs   av.it.:   7.4
      thresh= 1.762E-03 alpha_mix =  0.700 |ddv_scf|^2 =  7.955E-07

      iter #   4 total cpu time :    46.8 secs   av.it.:   8.6
      thresh= 8.919E-05 alpha_mix =  0.700 |ddv_scf|^2 =  6.052E-08

      iter #   5 total cpu time :    47.5 secs   av.it.:   8.2
      thresh= 2.460E-05 alpha_mix =  0.700 |ddv_scf|^2 =  1.078E-08

      iter #   6 total cpu time :    48.3 secs   av.it.:   8.5
      thresh= 1.038E-05 alpha_mix =  0.700 |ddv_scf|^2 =  8.418E-11

      iter #   7 total cpu time :    49.2 secs   av.it.:   8.7
      thresh= 9.175E-07 alpha_mix =  0.700 |ddv_scf|^2 =  2.696E-12

      iter #   8 total cpu time :    50.0 secs   av.it.:   8.7
      thresh= 1.642E-07 alpha_mix =  0.700 |ddv_scf|^2 =  7.146E-13

     End of self-consistent calculation

     Convergence has been achieved 


     Representation #  3 mode #   3

     Self-consistent Calculation

      iter #   1 total cpu time :    50.8 secs   av.it.:   5.3
      thresh= 1.000E-02 alpha_mix =  0.700 |ddv_scf|^2 =  8.537E-05

      iter #   2 total cpu time :    51.6 secs   av.it.:   8.8
      thresh= 9.239E-04 alpha_mix =  0.700 |ddv_scf|^2 =  2.277E-04

      iter #   3 total cpu time :    52.3 secs   av.it.:   7.4
      thresh= 1.509E-03 alpha_mix =  0.700 |ddv_scf|^2 =  1.355E-06

      iter #   4 total cpu time :    53.2 secs   av.it.:   8.2
      thresh= 1.164E-04 alpha_mix =  0.700 |ddv_scf|^2 =  6.212E-08

      iter #   5 total cpu time :    53.9 secs   av.it.:   8.4
      thresh= 2.492E-05 alpha_mix =  0.700 |ddv_scf|^2 =  1.110E-08

      iter #   6 total cpu time :    54.9 secs   av.it.:   8.5
      thresh= 1.054E-05 alpha_mix =  0.700 |ddv_scf|^2 =  4.811E-11

      iter #   7 total cpu time :    55.6 secs   av.it.:   8.7
      thresh= 6.936E-07 alpha_mix =  0.700 |ddv_scf|^2 =  1.793E-12

      iter #   8 total cpu time :    56.4 secs   av.it.:   8.8
      thresh= 1.339E-07 alpha_mix =  0.700 |ddv_scf|^2 =  4.082E-13

     End of self-consistent calculation

     Convergence has been achieved 


     Representation #  4 mode #   4

     Self-consistent Calculation

      iter #   1 total cpu time :    57.2 secs   av.it.:   5.2
      thresh= 1.000E-02 alpha_mix =  0.700 |ddv_scf|^2 =  3.772E-05

      iter #   2 total cpu time :    57.9 secs   av.it.:   8.9
[...]
        k(   59) = (  -0.8750000   0.1250000  -0.1250000), wk =   0.0625000
        k(   60) = (  -1.3750000  -0.8750000  -0.1250000), wk =   0.0000000
        k(   61) = (  -1.1250000   0.3750000  -0.3750000), wk =   0.0625000
        k(   62) = (  -1.6250000  -0.6250000  -0.3750000), wk =   0.0000000
        k(   63) = (  -0.3750000   0.3750000   1.1250000), wk =   0.0625000
        k(   64) = (  -0.8750000  -0.6250000   1.1250000), wk =   0.0000000

     Dense  grid:     2837 G-vectors     FFT dimensions: (  20,  20,  20)

     Estimated max dynamical RAM per process >       0.33MB

     Estimated total allocated dynamical RAM >       1.32MB

     Check: negative/imaginary core charge=   -0.000006    0.000000

     The potential is recalculated from file :
     ./_ph0/silicon.10.348.save/charge-density.dat

     Starting wfc are    8 atomic wfcs

     Band Structure Calculation
     Davidson diagonalization with overlap

     ethr =  1.25E-10,  avg # of iterations = 11.6

     total cpu time spent up to now is        7.1 secs

     End of band structure calculation

          k =-0.1250 0.1250 0.1250 (   344 PWs)   bands (ev):

    -5.6458   4.3492   5.6584   5.6584

          k =-0.6250-0.8750 0.1250 (   361 PWs)   bands (ev):

    -2.4678  -0.9323   1.9989   3.0653

          k =-0.3750 0.3750-0.1250 (   355 PWs)   bands (ev):

    -4.6256   1.3641   3.6846   5.1775

          k =-0.8750-0.6250-0.1250 (   361 PWs)   bands (ev):

    -2.4678  -0.9323   1.9989   3.0653

          k = 0.3750-0.3750 0.6250 (   361 PWs)   bands (ev):

    -3.4960  -0.6991   3.7012   4.4112

          k =-0.1250-1.3750 0.6250 (   363 PWs)   bands (ev):

    -3.0030  -0.6240   2.0539   4.0969

          k = 0.1250-0.1250 0.3750 (   353 PWs)   bands (ev):

    -5.1211   2.7331   4.6561   4.7172

          k =-0.3750-1.1250 0.3750 (   363 PWs)   bands (ev):

    -3.0030  -0.6240   2.0539   4.0969

          k =-0.1250 0.6250 0.1250 (   351 PWs)   bands (ev):

    -4.0958   1.0224   3.3398   3.7863

          k =-0.6250-0.3750 0.1250 (   360 PWs)   bands (ev):

    -3.6841   0.1583   2.7015   4.0607

          k = 0.6250-0.1250 0.8750 (   361 PWs)   bands (ev):

    -2.4678  -0.9323   1.9989   3.0653

          k = 0.1250-1.1250 0.8750 (   360 PWs)   bands (ev):

    -2.6327  -0.8361   2.6020   3.3214

          k = 0.3750 0.1250 0.6250 (   360 PWs)   bands (ev):

    -3.6841   0.1583   2.7015   4.0607

          k =-0.1250-0.8750 0.6250 (   361 PWs)   bands (ev):

    -2.4678  -0.9323   1.9989   3.0653

          k =-0.1250-0.8750 0.1250 (   360 PWs)   bands (ev):

    -2.6327  -0.8361   2.6020   3.3214

          k =-0.6250-1.8750 0.1250 (   351 PWs)   bands (ev):

    -4.0958   1.0224   3.3398   3.7863

          k =-0.3750 0.3750 0.3750 (   353 PWs)   bands (ev):

    -4.1967   0.0854   4.8726   4.8726

          k =-0.8750-0.6250 0.3750 (   360 PWs)   bands (ev):

    -3.6841   0.1583   2.7015   4.0607

          k = 0.3750-0.3750 1.1250 (   363 PWs)   bands (ev):

    -3.0030  -0.6240   2.0539   4.0969

          k =-0.1250-1.3750 1.1250 (   361 PWs)   bands (ev):

    -2.4678  -0.9323   1.9989   3.0653

          k = 0.1250-0.3750 0.3750 (   355 PWs)   bands (ev):

    -4.6256   1.3641   3.6846   5.1775

          k =-0.3750-1.3750 0.3750 (   361 PWs)   bands (ev):

    -3.4960  -0.6991   3.7012   4.4112

          k = 0.3750-0.3750-0.1250 (   355 PWs)   bands (ev):

    -4.6256   1.3641   3.6846   5.1775

          k =-0.1250-1.3750-0.1250 (   351 PWs)   bands (ev):

    -4.0958   1.0224   3.3398   3.7863

          k =-0.6250 0.3750-0.3750 (   361 PWs)   bands (ev):

    -3.4960  -0.6991   3.7012   4.4112

          k =-1.1250-0.6250-0.3750 (   360 PWs)   bands (ev):

    -3.6841   0.1583   2.7015   4.0607

          k =-0.3750 0.3750 0.6250 (   361 PWs)   bands (ev):

    -3.4960  -0.6991   3.7012   4.4112

          k =-0.8750-0.6250 0.6250 (   355 PWs)   bands (ev):

    -4.6256   1.3641   3.6846   5.1775

          k =-0.3750 0.1250-0.1250 (   353 PWs)   bands (ev):

    -5.1211   2.7331   4.6561   4.7172

          k =-0.8750-0.8750-0.1250 (   360 PWs)   bands (ev):

    -2.6327  -0.8361   2.6020   3.3214

          k =-0.1250 0.1250 0.3750 (   353 PWs)   bands (ev):

    -5.1211   2.7331   4.6561   4.7172

          k =-0.6250-0.8750 0.3750 (   360 PWs)   bands (ev):

    -3.6841   0.1583   2.7015   4.0607

          k = 0.1250 0.6250-0.1250 (   351 PWs)   bands (ev):

    -4.0958   1.0224   3.3398   3.7863

          k =-0.3750-0.3750-0.1250 (   355 PWs)   bands (ev):

    -4.6256   1.3641   3.6846   5.1775

          k = 0.6250 0.1250-0.1250 (   351 PWs)   bands (ev):

    -4.0958   1.0224   3.3398   3.7863

          k = 0.1250-0.8750-0.1250 (   360 PWs)   bands (ev):

    -2.6327  -0.8361   2.6020   3.3214

          k =-0.8750 0.1250-0.6250 (   361 PWs)   bands (ev):

    -2.4678  -0.9323   1.9989   3.0653

          k =-1.3750-0.8750-0.6250 (   355 PWs)   bands (ev):

    -4.6256   1.3641   3.6846   5.1775

          k = 0.8750-0.1250 0.6250 (   361 PWs)   bands (ev):

    -2.4678  -0.9323   1.9989   3.0653

          k = 0.3750-1.1250 0.6250 (   360 PWs)   bands (ev):

    -3.6841   0.1583   2.7015   4.0607

          k =-0.6250 0.1250 0.8750 (   361 PWs)   bands (ev):

    -2.4678  -0.9323   1.9989   3.0653

          k =-1.1250-0.8750 0.8750 (   344 PWs)   bands (ev):

    -5.6458   4.3492   5.6584   5.6584

          k =-0.1250 0.8750 0.6250 (   361 PWs)   bands (ev):

    -2.4678  -0.9323   1.9989   3.0653

          k =-0.6250-0.1250 0.6250 (   363 PWs)   bands (ev):

    -3.0030  -0.6240   2.0539   4.0969

          k = 0.1250 0.8750-0.6250 (   361 PWs)   bands (ev):

    -2.4678  -0.9323   1.9989   3.0653

          k =-0.3750-0.1250-0.6250 (   360 PWs)   bands (ev):

    -3.6841   0.1583   2.7015   4.0607

          k =-0.6250-0.1250-0.3750 (   360 PWs)   bands (ev):

    -3.6841   0.1583   2.7015   4.0607

          k =-1.1250-1.1250-0.3750 (   351 PWs)   bands (ev):

    -4.0958   1.0224   3.3398   3.7863

          k = 0.6250 0.1250 0.3750 (   360 PWs)   bands (ev):

    -3.6841   0.1583   2.7015   4.0607

          k = 0.1250-0.8750 0.3750 (   361 PWs)   bands (ev):

    -2.4678  -0.9323   1.9989   3.0653

          k =-0.3750-0.1250 0.6250 (   360 PWs)   bands (ev):

    -3.6841   0.1583   2.7015   4.0607

          k =-0.8750-1.1250 0.6250 (   353 PWs)   bands (ev):

    -5.1211   2.7331   4.6561   4.7172

          k = 0.1250 0.6250 0.3750 (   360 PWs)   bands (ev):

    -3.6841   0.1583   2.7015   4.0607

          k =-0.3750-0.3750 0.3750 (   353 PWs)   bands (ev):

    -4.1967   0.0854   4.8726   4.8726

          k =-0.1250 0.6250-0.3750 (   360 PWs)   bands (ev):

    -3.6841   0.1583   2.7015   4.0607

          k =-0.6250-0.3750-0.3750 (   361 PWs)   bands (ev):

    -3.4960  -0.6991   3.7012   4.4112

          k = 0.1250-0.8750-0.1250 (   360 PWs)   bands (ev):

    -2.6327  -0.8361   2.6020   3.3214

          k =-0.3750-1.8750-0.1250 (   353 PWs)   bands (ev):

    -5.1211   2.7331   4.6561   4.7172

          k =-0.8750 0.1250-0.1250 (   360 PWs)   bands (ev):

    -2.6327  -0.8361   2.6020   3.3214

          k =-1.3750-0.8750-0.1250 (   361 PWs)   bands (ev):

    -2.4678  -0.9323   1.9989   3.0653

          k =-1.1250 0.3750-0.3750 (   363 PWs)   bands (ev):

    -3.0030  -0.6240   2.0539   4.0969

          k =-1.6250-0.6250-0.3750 (   361 PWs)   bands (ev):

    -3.4960  -0.6991   3.7012   4.4112

          k =-0.3750 0.3750 1.1250 (   363 PWs)   bands (ev):

    -3.0030  -0.6240   2.0539   4.0969

          k =-0.8750-0.6250 1.1250 (   353 PWs)   bands (ev):

    -5.1211   2.7331   4.6561   4.7172

     highest occupied level (ev):     5.6584

     Writing output data file silicon.10.348.save

                                                                                

     bravais-lattice index     =            2
     lattice parameter (alat)  =      10.3480  a.u.
     unit-cell volume          =     277.0188 (a.u.)^3
     number of atoms/cell      =            2
     number of atomic types    =            1
     kinetic-energy cut-off    =      18.0000  Ry
     charge density cut-off    =      72.0000  Ry
     convergence threshold     =      1.0E-12
     beta                      =       0.7000
     number of iterations used =            4
     Exchange-correlation      = SLA  PW   PBE  PBE ( 1  4  3  4 0 0)


     celldm(1)=   10.34800  celldm(2)=    0.00000  celldm(3)=    0.00000
     celldm(4)=    0.00000  celldm(5)=    0.00000  celldm(6)=    0.00000

     crystal axes: (cart. coord. in units of alat)
               a(1) = ( -0.5000  0.0000  0.5000 )  
               a(2) = (  0.0000  0.5000  0.5000 )  
               a(3) = ( -0.5000  0.5000  0.0000 )  

     reciprocal axes: (cart. coord. in units 2 pi/alat)
               b(1) = ( -1.0000 -1.0000  1.0000 )  
               b(2) = (  1.0000  1.0000  1.0000 )  
               b(3) = ( -1.0000  1.0000 -1.0000 )  


     Atoms inside the unit cell: 

     Cartesian axes

     site n.  atom      mass           positions (alat units)
        1     Si  28.0860   tau(    1) = (    0.00000    0.00000    0.00000  )
        2     Si  28.0860   tau(    2) = (    0.25000    0.25000    0.25000  )

     Computing dynamical matrix for 
                    q = (  -0.5000000  -1.0000000   0.0000000 )

      8 Sym.Ops. (no q -> -q+G )


     G cutoff =  195.2925  (    710 G-vectors)     FFT grid: ( 20, 20, 20)
     number of k points=    64

     PseudoPot. # 1 for Si read from file:
     /home/max/quantum_espresso/qe-6.1/pseudo/si_pbe_v1.uspp.F.UPF.txt
     MD5 check sum: a056efeee980c13900f22a371efd63c1
     Pseudo is Ultrasoft + core correction, Zval =  4.0
     Generated by new atomic code, or converted to UPF format
     Using radial grid of  899 points,  6 beta functions with: 
                l(1) =   0
                l(2) =   0
                l(3) =   1
                l(4) =   1
                l(5) =   2
                l(6) =   2
     Q(r) pseudized with  8 coefficients,  rinner =    0.900   0.900   0.900
                                                       0.900   0.900


     Atomic displacements:
     There are   3 irreducible representations

     Representation     1      2 modes -  To be done

     Representation     2      2 modes -  To be done

     Representation     3      2 modes -  To be done



     Alpha used in Ewald sum =   0.7000
     PHONON       :  1m25.63s CPU     1m32.78s WALL



     Representation #  1 modes #   1  2

     Self-consistent Calculation

      iter #   1 total cpu time :    93.1 secs   av.it.:   5.3
      thresh= 1.000E-02 alpha_mix =  0.700 |ddv_scf|^2 =  6.355E-06

      iter #   2 total cpu time :    93.4 secs   av.it.:   9.9
      thresh= 2.521E-04 alpha_mix =  0.700 |ddv_scf|^2 =  3.428E-06

      iter #   3 total cpu time :    93.8 secs   av.it.:   9.3
      thresh= 1.851E-04 alpha_mix =  0.700 |ddv_scf|^2 =  9.093E-09

      iter #   4 total cpu time :    94.2 secs   av.it.:   9.1
      thresh= 9.536E-06 alpha_mix =  0.700 |ddv_scf|^2 =  1.963E-11

      iter #   5 total cpu time :    94.7 secs   av.it.:   9.2
      thresh= 4.431E-07 alpha_mix =  0.700 |ddv_scf|^2 =  5.779E-13

     End of self-consistent calculation

     Convergence has been achieved 


     Representation #  2 modes #   3  4

     Self-consistent Calculation

      iter #   1 total cpu time :    95.0 secs   av.it.:   5.2
      thresh= 1.000E-02 alpha_mix =  0.700 |ddv_scf|^2 =  9.799E-06

      iter #   2 total cpu time :    95.4 secs   av.it.:   9.9
      thresh= 3.130E-04 alpha_mix =  0.700 |ddv_scf|^2 =  1.310E-05

      iter #   3 total cpu time :    95.8 secs   av.it.:   9.1
      thresh= 3.619E-04 alpha_mix =  0.700 |ddv_scf|^2 =  1.059E-08

      iter #   4 total cpu time :    96.1 secs   av.it.:   8.8
      thresh= 1.029E-05 alpha_mix =  0.700 |ddv_scf|^2 =  8.556E-11

      iter #   5 total cpu time :    96.7 secs   av.it.:   9.4
      thresh= 9.250E-07 alpha_mix =  0.700 |ddv_scf|^2 =  1.815E-12

      iter #   6 total cpu time :    97.1 secs   av.it.:   9.1
      thresh= 1.347E-07 alpha_mix =  0.700 |ddv_scf|^2 =  1.488E-14

     End of self-consistent calculation

     Convergence has been achieved 


     Representation #  3 modes #   5  6

     Self-consistent Calculation

      iter #   1 total cpu time :    97.3 secs   av.it.:   5.1
      thresh= 1.000E-02 alpha_mix =  0.700 |ddv_scf|^2 =  2.664E-06

      iter #   2 total cpu time :    97.7 secs   av.it.:   9.7
      thresh= 1.632E-04 alpha_mix =  0.700 |ddv_scf|^2 =  1.448E-06

      iter #   3 total cpu time :    98.1 secs   av.it.:   9.0
      thresh= 1.203E-04 alpha_mix =  0.700 |ddv_scf|^2 =  8.805E-09

      iter #   4 total cpu time :    98.4 secs   av.it.:   8.7
      thresh= 9.384E-06 alpha_mix =  0.700 |ddv_scf|^2 =  4.398E-11

      iter #   5 total cpu time :    98.9 secs   av.it.:   9.0
      thresh= 6.632E-07 alpha_mix =  0.700 |ddv_scf|^2 =  6.910E-13

     End of self-consistent calculation

     Convergence has been achieved 

     Number of q in the star =    6
     List of q in the star:
          1  -0.500000000  -1.000000000   0.000000000
          2   0.000000000   1.000000000   0.500000000
          3   0.000000000  -1.000000000  -0.500000000
          4   0.500000000   1.000000000   0.000000000
          5  -1.000000000  -0.500000000   0.000000000
          6   0.000000000  -0.500000000  -1.000000000

     Diagonalizing the dynamical matrix

     q = (   -0.500000000  -1.000000000   0.000000000 ) 

 **************************************************************************
     freq (    1) =       7.343104 [THz] =     244.939590 [cm-1]
     freq (    2) =       7.343104 [THz] =     244.939590 [cm-1]
     freq (    3) =      10.934131 [THz] =     364.723351 [cm-1]
     freq (    4) =      10.934131 [THz] =     364.723351 [cm-1]
     freq (    5) =      13.842300 [THz] =     461.729419 [cm-1]
     freq (    6) =      13.842300 [THz] =     461.729419 [cm-1]
 **************************************************************************

     init_run     :      0.58s CPU      0.60s WALL (       7 calls)
     electrons    :      5.38s CPU      5.68s WALL (       7 calls)

     Called by init_run:
     wfcinit      :      0.00s CPU      0.00s WALL (       7 calls)
     potinit      :      0.02s CPU      0.02s WALL (       7 calls)

     Called by electrons:
     c_bands      :      5.38s CPU      5.67s WALL (       7 calls)
     v_of_rho     :      0.01s CPU      0.01s WALL (       8 calls)
     newd         :      0.03s CPU      0.03s WALL (       8 calls)

     Called by c_bands:
     init_us_2    :      0.68s CPU      0.73s WALL (   17588 calls)
     cegterg      :      4.52s CPU      4.77s WALL (     796 calls)

     Called by sum_band:

     Called by *egterg:
     h_psi        :     50.24s CPU     54.42s WALL (  152132 calls)
     s_psi        :      5.80s CPU      6.27s WALL (  308984 calls)
     g_psi        :      0.03s CPU      0.03s WALL (    9268 calls)
     cdiaghg      :      0.46s CPU      0.47s WALL (   10064 calls)

     Called by h_psi:
     h_psi:pot    :     50.06s CPU     54.22s WALL (  152132 calls)
     h_psi:calbec :      5.46s CPU      5.98s WALL (  152132 calls)
     vloc_psi     :     41.48s CPU     44.91s WALL (  152132 calls)
     add_vuspsi   :      2.90s CPU      3.10s WALL (  152132 calls)

     General routines
     calbec       :     11.92s CPU     13.05s WALL (  345356 calls)
     fft          :      0.72s CPU      0.74s WALL (    5239 calls)
     ffts         :      0.17s CPU      0.18s WALL (    2748 calls)
     fftw         :     48.49s CPU     52.53s WALL ( 1377948 calls)
     davcio       :      0.29s CPU      0.32s WALL (   79045 calls)

     Parallel routines
     fft_scatter  :     16.65s CPU     18.36s WALL ( 1385935 calls)

     PHONON       :  1m31.22s CPU     1m38.96s WALL

     INITIALIZATION: 
     phq_setup    :      0.06s CPU      0.06s WALL (       8 calls)
     phq_init     :      2.49s CPU      2.58s WALL (       8 calls)

     phq_init     :      2.49s CPU      2.58s WALL (       8 calls)
     set_drhoc    :      0.29s CPU      0.29s WALL (      24 calls)
     init_vloc    :      0.01s CPU      0.01s WALL (       8 calls)
     init_us_1    :      0.53s CPU      0.54s WALL (       8 calls)
     newd         :      0.03s CPU      0.03s WALL (       8 calls)
     dvanqq       :      0.27s CPU      0.28s WALL (       8 calls)
     drho         :      1.36s CPU      1.42s WALL (       8 calls)

     DYNAMICAL MATRIX:
     dynmat0      :      0.60s CPU      0.61s WALL (       8 calls)
     phqscf       :     80.14s CPU     87.29s WALL (       8 calls)
     dynmatrix    :      0.01s CPU      0.01s WALL (       8 calls)

     phqscf       :     80.14s CPU     87.29s WALL (       8 calls)
     solve_linter :     79.08s CPU     86.04s WALL (      32 calls)
     drhodv       :      0.74s CPU      0.85s WALL (      32 calls)

     dynmat0      :      0.60s CPU      0.61s WALL (       8 calls)
     dynmat_us    :      0.34s CPU      0.35s WALL (       8 calls)
     d2ionq       :      0.01s CPU      0.01s WALL (       8 calls)
     dynmatcc     :      0.22s CPU      0.23s WALL (       8 calls)

     dynmat_us    :      0.34s CPU      0.35s WALL (       8 calls)
     addusdynmat  :      0.00s CPU      0.00s WALL (       8 calls)

     phqscf       :     80.14s CPU     87.29s WALL (       8 calls)
     solve_linter :     79.08s CPU     86.04s WALL (      32 calls)

     solve_linter :     79.08s CPU     86.04s WALL (      32 calls)
     dvqpsi_us    :      1.76s CPU      1.91s WALL (    2508 calls)
     ortho        :      1.33s CPU      1.45s WALL (   15550 calls)
     cgsolve      :     62.27s CPU     67.88s WALL (   15550 calls)
     incdrhoscf   :      5.44s CPU      5.88s WALL (   15550 calls)
     addusddens   :      1.28s CPU      1.32s WALL (     228 calls)
     vpsifft      :      3.93s CPU      4.28s WALL (   12922 calls)
     dv_of_drho   :      0.24s CPU      0.25s WALL (     295 calls)
     mix_pot      :      0.06s CPU      0.06s WALL (     201 calls)
     psymdvscf    :      0.81s CPU      0.82s WALL (     196 calls)
     newdq        :      1.31s CPU      1.40s WALL (     201 calls)
     adddvscf     :      0.47s CPU      0.51s WALL (   13042 calls)
     drhodvus     :      0.00s CPU      0.00s WALL (      32 calls)

     dvqpsi_us    :      1.76s CPU      1.91s WALL (    2508 calls)
     dvqpsi_us_on :      0.82s CPU      0.87s WALL (    2508 calls)

     cgsolve      :     62.27s CPU     67.88s WALL (   15550 calls)
     ch_psi       :     59.53s CPU     64.70s WALL (  141272 calls)

     ch_psi       :     59.53s CPU     64.70s WALL (  141272 calls)
     h_psi        :     50.24s CPU     54.42s WALL (  152132 calls)
     last         :     10.04s CPU     11.01s WALL (  141272 calls)

     h_psi        :     50.24s CPU     54.42s WALL (  152132 calls)
     add_vuspsi   :      2.90s CPU      3.10s WALL (  152132 calls)

     incdrhoscf   :      5.44s CPU      5.88s WALL (   15550 calls)
     addusdbec    :      0.87s CPU      0.95s WALL (   17998 calls)

     drhodvus     :      0.00s CPU      0.00s WALL (      32 calls)

      General routines
     calbec       :     11.92s CPU     13.05s WALL (  345356 calls)
     fft          :      0.72s CPU      0.74s WALL (    5239 calls)
     ffts         :      0.17s CPU      0.18s WALL (    2748 calls)
     fftw         :     48.49s CPU     52.53s WALL ( 1377948 calls)
     davcio       :      0.29s CPU      0.32s WALL (   79045 calls)
     write_rec    :      0.20s CPU      0.23s WALL (     233 calls)


     PHONON       :  1m31.22s CPU     1m38.96s WALL


   This run was terminated on:  12:52:50   9Nov2017            

=------------------------------------------------------------------------------=
   JOB DONE.
=------------------------------------------------------------------------------=
