
     Program PHONON v.6.1 (svn rev. 13369) starts on  9Nov2017 at 12:14:10 

     This program is part of the open-source Quantum ESPRESSO suite
     for quantum simulation of materials; please cite
         "P. Giannozzi et al., J. Phys.:Condens. Matter 21 395502 (2009);
          URL http://www.quantum-espresso.org", 
     in publications or presentations arising from this work. More details at
     http://www.quantum-espresso.org/quote

     Parallel version (MPI), running on     4 processors
     R & G space division:  proc/nbgrp/npool/nimage =       4

     Reading data from directory:
     ./silicon.10.328.save

   Info: using nr1, nr2, nr3 values from input

   Info: using nr1, nr2, nr3 values from input

     IMPORTANT: XC functional enforced from input :
     Exchange-correlation      = SLA  PW   PBE  PBE ( 1  4  3  4 0 0)
     Any further DFT definition will be discarded
     Please, verify this is what you really want


     Parallelization info
     --------------------
     sticks:   dense  smooth     PW     G-vecs:    dense   smooth      PW
     Min          63      63     22                  684      684     140
     Max          64      64     23                  688      688     141
     Sum         253     253     91                 2741     2741     561


     Check: negative/imaginary core charge=   -0.000005    0.000000


     Dynamical matrices for ( 4, 4, 4)  uniform grid of q-points
     (   8q-points):
       N         xq(1)         xq(2)         xq(3) 
       1   0.000000000   0.000000000   0.000000000
       2  -0.250000000   0.250000000  -0.250000000
       3   0.500000000  -0.500000000   0.500000000
       4   0.000000000   0.500000000   0.000000000
       5   0.750000000  -0.250000000   0.750000000
       6   0.500000000   0.000000000   0.500000000
       7   0.000000000  -1.000000000   0.000000000
       8  -0.500000000  -1.000000000   0.000000000

     Calculation of q =    0.0000000   0.0000000   0.0000000

                                                                                

     bravais-lattice index     =            2
     lattice parameter (alat)  =      10.3280  a.u.
     unit-cell volume          =     275.4157 (a.u.)^3
     number of atoms/cell      =            2
     number of atomic types    =            1
     kinetic-energy cut-off    =      18.0000  Ry
     charge density cut-off    =      72.0000  Ry
     convergence threshold     =      1.0E-12
     beta                      =       0.7000
     number of iterations used =            4
     Exchange-correlation      = SLA  PW   PBE  PBE ( 1  4  3  4 0 0)


     celldm(1)=   10.32800  celldm(2)=    0.00000  celldm(3)=    0.00000
     celldm(4)=    0.00000  celldm(5)=    0.00000  celldm(6)=    0.00000

     crystal axes: (cart. coord. in units of alat)
               a(1) = ( -0.5000  0.0000  0.5000 )  
               a(2) = (  0.0000  0.5000  0.5000 )  
               a(3) = ( -0.5000  0.5000  0.0000 )  

     reciprocal axes: (cart. coord. in units 2 pi/alat)
               b(1) = ( -1.0000 -1.0000  1.0000 )  
               b(2) = (  1.0000  1.0000  1.0000 )  
               b(3) = ( -1.0000  1.0000 -1.0000 )  


     Atoms inside the unit cell: 

     Cartesian axes

     site n.  atom      mass           positions (alat units)
        1     Si  28.0860   tau(    1) = (    0.00000    0.00000    0.00000  )
        2     Si  28.0860   tau(    2) = (    0.25000    0.25000    0.25000  )

     Computing dynamical matrix for 
                    q = (   0.0000000   0.0000000   0.0000000 )

     49 Sym.Ops. (with q -> -q+G )


     G cutoff =  194.5383  (    685 G-vectors)     FFT grid: ( 20, 20, 20)
     number of k points=    10

     PseudoPot. # 1 for Si read from file:
     /home/max/quantum_espresso/qe-6.1/pseudo/si_pbe_v1.uspp.F.UPF.txt
     MD5 check sum: a056efeee980c13900f22a371efd63c1
     Pseudo is Ultrasoft + core correction, Zval =  4.0
     Generated by new atomic code, or converted to UPF format
     Using radial grid of  899 points,  6 beta functions with: 
                l(1) =   0
                l(2) =   0
                l(3) =   1
                l(4) =   1
                l(5) =   2
                l(6) =   2
     Q(r) pseudized with  8 coefficients,  rinner =    0.900   0.900   0.900
                                                       0.900   0.900

     Mode symmetry, O_h (m-3m)  point group:


     Electric field:
     Dielectric constant
     Born effective charges in two ways 


     Atomic displacements:
     There are   2 irreducible representations

     Representation     1      3 modes -T_2g G_25' G_5+  To be done

     Representation     2      3 modes -T_1u G_15  G_4-  To be done



     Alpha used in Ewald sum =   0.7000
     PHONON       :     0.42s CPU         0.43s WALL


     Electric Fields Calculation

      iter #   1 total cpu time :     0.9 secs   av.it.:   5.6
      thresh= 1.000E-02 alpha_mix =  0.700 |ddv_scf|^2 =  9.056E-07

      iter #   2 total cpu time :     1.3 secs   av.it.:   9.9
      thresh= 9.516E-05 alpha_mix =  0.700 |ddv_scf|^2 =  5.567E-08

      iter #   3 total cpu time :     1.5 secs   av.it.:   9.8
      thresh= 2.359E-05 alpha_mix =  0.700 |ddv_scf|^2 =  4.226E-09

      iter #   4 total cpu time :     1.7 secs   av.it.:   9.0
      thresh= 6.501E-06 alpha_mix =  0.700 |ddv_scf|^2 =  2.487E-11

      iter #   5 total cpu time :     1.9 secs   av.it.:   9.1
      thresh= 4.987E-07 alpha_mix =  0.700 |ddv_scf|^2 =  1.323E-14

     End of electric fields calculation

          Dielectric constant in cartesian axis 

          (      13.859999534       0.000000000      -0.000000000 )
          (      -0.000000000      13.859999534      -0.000000000 )
          (      -0.000000000      -0.000000000      13.859999534 )

          Effective charges (d Force / dE) in cartesian axis

           atom      1   Si 
      Ex  (       -0.03116       -0.00000        0.00000 )
      Ey  (        0.00000       -0.03116        0.00000 )
      Ez  (       -0.00000        0.00000       -0.03116 )
           atom      2   Si 
      Ex  (       -0.03116       -0.00000        0.00000 )
      Ey  (       -0.00000       -0.03116        0.00000 )
      Ez  (        0.00000        0.00000       -0.03116 )


     Representation #  1 modes #   1  2  3

     Self-consistent Calculation

      iter #   1 total cpu time :     2.3 secs   av.it.:   4.9
      thresh= 1.000E-02 alpha_mix =  0.700 |ddv_scf|^2 =  2.247E-07

      iter #   2 total cpu time :     2.5 secs   av.it.:   9.7
      thresh= 4.740E-05 alpha_mix =  0.700 |ddv_scf|^2 =  1.390E-08

      iter #   3 total cpu time :     2.7 secs   av.it.:   9.3
      thresh= 1.179E-05 alpha_mix =  0.700 |ddv_scf|^2 =  8.575E-10

      iter #   4 total cpu time :     3.1 secs   av.it.:   9.0
      thresh= 2.928E-06 alpha_mix =  0.700 |ddv_scf|^2 =  1.883E-12

      iter #   5 total cpu time :     3.3 secs   av.it.:   9.4
      thresh= 1.372E-07 alpha_mix =  0.700 |ddv_scf|^2 =  1.228E-14

     End of self-consistent calculation

     Convergence has been achieved 


     Representation #  2 modes #   4  5  6

     Self-consistent Calculation

      iter #   1 total cpu time :     3.6 secs   av.it.:   5.0
      thresh= 1.000E-02 alpha_mix =  0.700 |ddv_scf|^2 =  1.705E-07

      iter #   2 total cpu time :     3.8 secs   av.it.:   9.6
      thresh= 4.129E-05 alpha_mix =  0.700 |ddv_scf|^2 =  1.330E-08

      iter #   3 total cpu time :     4.0 secs   av.it.:   9.3
      thresh= 1.153E-05 alpha_mix =  0.700 |ddv_scf|^2 =  8.472E-10

      iter #   4 total cpu time :     4.2 secs   av.it.:   9.5
      thresh= 2.911E-06 alpha_mix =  0.700 |ddv_scf|^2 =  5.077E-12

      iter #   5 total cpu time :     4.4 secs   av.it.:   9.0
      thresh= 2.253E-07 alpha_mix =  0.700 |ddv_scf|^2 =  4.424E-15

     End of self-consistent calculation

     Convergence has been achieved 

     Number of q in the star =    1
     List of q in the star:
          1   0.000000000   0.000000000   0.000000000

          Dielectric constant in cartesian axis 

          (      13.859999534       0.000000000      -0.000000000 )
          (      -0.000000000      13.859999534      -0.000000000 )
          (      -0.000000000      -0.000000000      13.859999534 )

          Effective charges (d Force / dE) in cartesian axis

           atom      1   Si 
      Ex  (       -0.03116       -0.00000        0.00000 )
      Ey  (        0.00000       -0.03116        0.00000 )
      Ez  (       -0.00000        0.00000       -0.03116 )
           atom      2   Si 
      Ex  (       -0.03116       -0.00000        0.00000 )
      Ey  (       -0.00000       -0.03116        0.00000 )
      Ez  (        0.00000        0.00000       -0.03116 )

          Effective charges (d P / du) in cartesian axis 

           atom      1   Si 
      Px  (       -0.07231        0.00000        0.00000 )
      Py  (        0.00000       -0.07231       -0.00000 )
      Pz  (        0.00000        0.00000       -0.07231 )
           atom      2   Si 
      Px  (       -0.07231       -0.00000       -0.00000 )
      Py  (       -0.00000       -0.07231        0.00000 )
      Pz  (       -0.00000        0.00000       -0.07231 )

     Diagonalizing the dynamical matrix

     q = (    0.000000000   0.000000000   0.000000000 ) 

 **************************************************************************
     freq (    1) =       1.946362 [THz] =      64.923634 [cm-1]
     freq (    2) =       1.946362 [THz] =      64.923634 [cm-1]
     freq (    3) =       1.946362 [THz] =      64.923634 [cm-1]
     freq (    4) =      15.036397 [THz] =     501.560221 [cm-1]
     freq (    5) =      15.036397 [THz] =     501.560221 [cm-1]
     freq (    6) =      15.036397 [THz] =     501.560221 [cm-1]
 **************************************************************************

     Mode symmetry, O_h (m-3m)  point group:

     freq (  1 -  3) =         64.9  [cm-1]   --> T_1u G_15  G_4- I  
     freq (  4 -  6) =        501.6  [cm-1]   --> T_2g G_25' G_5+ R  

     Calculation of q =   -0.2500000   0.2500000  -0.2500000

   Info: using nr1, nr2, nr3 values from input

   Info: using nr1, nr2, nr3 values from input

     Parallelization info
     --------------------
     sticks:   dense  smooth     PW     G-vecs:    dense   smooth      PW
     Min          63      63     24                  684      684     161
     Max          64      64     25                  688      688     162
     Sum         253     253     97                 2741     2741     645



     bravais-lattice index     =            2
     lattice parameter (alat)  =      10.3280  a.u.
     unit-cell volume          =     275.4157 (a.u.)^3
     number of atoms/cell      =            2
     number of atomic types    =            1
     number of electrons       =         8.00
     number of Kohn-Sham states=            4
     kinetic-energy cutoff     =      18.0000  Ry
     charge density cutoff     =      72.0000  Ry
     Exchange-correlation      = SLA  PW   PBE  PBE ( 1  4  3  4 0 0)

     celldm(1)=  10.328000  celldm(2)=   0.000000  celldm(3)=   0.000000
     celldm(4)=   0.000000  celldm(5)=   0.000000  celldm(6)=   0.000000

     crystal axes: (cart. coord. in units of alat)
               a(1) = (  -0.500000   0.000000   0.500000 )  
               a(2) = (   0.000000   0.500000   0.500000 )  
               a(3) = (  -0.500000   0.500000   0.000000 )  

     reciprocal axes: (cart. coord. in units 2 pi/alat)
               b(1) = ( -1.000000 -1.000000  1.000000 )  
               b(2) = (  1.000000  1.000000  1.000000 )  
               b(3) = ( -1.000000  1.000000 -1.000000 )  


     PseudoPot. # 1 for Si read from file:
     /home/max/quantum_espresso/qe-6.1/pseudo/si_pbe_v1.uspp.F.UPF.txt
     MD5 check sum: a056efeee980c13900f22a371efd63c1
     Pseudo is Ultrasoft + core correction, Zval =  4.0
     Generated by new atomic code, or converted to UPF format
     Using radial grid of  899 points,  6 beta functions with: 
                l(1) =   0
                l(2) =   0
                l(3) =   1
                l(4) =   1
                l(5) =   2
                l(6) =   2
     Q(r) pseudized with  8 coefficients,  rinner =    0.900   0.900   0.900
                                                       0.900   0.900

     atomic species   valence    mass     pseudopotential
        Si             4.00    28.08600     Si( 1.00)

     48 Sym. Ops., with inversion, found



   Cartesian axes

     site n.     atom                  positions (alat units)
         1           Si  tau(   1) = (   0.0000000   0.0000000   0.0000000  )
         2           Si  tau(   2) = (   0.2500000   0.2500000   0.2500000  )

     number of k points=   120

     Number of k-points >= 100: set verbosity='high' to print them.

     Dense  grid:     2741 G-vectors     FFT dimensions: (  20,  20,  20)

     Estimated max dynamical RAM per process >       0.33MB

     Estimated total allocated dynamical RAM >       1.30MB

     Check: negative/imaginary core charge=   -0.000005    0.000000

     The potential is recalculated from file :
     ./_ph0/silicon.10.328.save/charge-density.dat

     Starting wfc are    8 atomic wfcs

     Band Structure Calculation
     Davidson diagonalization with overlap

     ethr =  1.25E-10,  avg # of iterations = 11.7

     total cpu time spent up to now is        1.1 secs

     End of band structure calculation

     Number of k-points >= 100: set verbosity='high' to print the bands.

     highest occupied level (ev):     5.7161

     Writing output data file silicon.10.328.save

                                                                                

     bravais-lattice index     =            2
     lattice parameter (alat)  =      10.3280  a.u.
     unit-cell volume          =     275.4157 (a.u.)^3
     number of atoms/cell      =            2
     number of atomic types    =            1
     kinetic-energy cut-off    =      18.0000  Ry
     charge density cut-off    =      72.0000  Ry
     convergence threshold     =      1.0E-12
     beta                      =       0.7000
     number of iterations used =            4
     Exchange-correlation      = SLA  PW   PBE  PBE ( 1  4  3  4 0 0)


     celldm(1)=   10.32800  celldm(2)=    0.00000  celldm(3)=    0.00000
     celldm(4)=    0.00000  celldm(5)=    0.00000  celldm(6)=    0.00000

     crystal axes: (cart. coord. in units of alat)
               a(1) = ( -0.5000  0.0000  0.5000 )  
               a(2) = (  0.0000  0.5000  0.5000 )  
               a(3) = ( -0.5000  0.5000  0.0000 )  

     reciprocal axes: (cart. coord. in units 2 pi/alat)
               b(1) = ( -1.0000 -1.0000  1.0000 )  
               b(2) = (  1.0000  1.0000  1.0000 )  
               b(3) = ( -1.0000  1.0000 -1.0000 )  


     Atoms inside the unit cell: 

     Cartesian axes

     site n.  atom      mass           positions (alat units)
        1     Si  28.0860   tau(    1) = (    0.00000    0.00000    0.00000  )
        2     Si  28.0860   tau(    2) = (    0.25000    0.25000    0.25000  )

     Computing dynamical matrix for 
                    q = (  -0.2500000   0.2500000  -0.2500000 )

      6 Sym.Ops. (no q -> -q+G )


     G cutoff =  194.5383  (    685 G-vectors)     FFT grid: ( 20, 20, 20)
     number of k points=   120

     PseudoPot. # 1 for Si read from file:
     /home/max/quantum_espresso/qe-6.1/pseudo/si_pbe_v1.uspp.F.UPF.txt
     MD5 check sum: a056efeee980c13900f22a371efd63c1
     Pseudo is Ultrasoft + core correction, Zval =  4.0
     Generated by new atomic code, or converted to UPF format
     Using radial grid of  899 points,  6 beta functions with: 
                l(1) =   0
                l(2) =   0
                l(3) =   1
                l(4) =   1
                l(5) =   2
                l(6) =   2
     Q(r) pseudized with  8 coefficients,  rinner =    0.900   0.900   0.900
                                                       0.900   0.900

     Mode symmetry, C_3v (3m)   point group:


     Atomic displacements:
     There are   4 irreducible representations

     Representation     1      1 modes -A_1  L_1  To be done

     Representation     2      1 modes -A_1  L_1  To be done

     Representation     3      2 modes -E    L_3  To be done

     Representation     4      2 modes -E    L_3  To be done



     Alpha used in Ewald sum =   0.7000
     PHONON       :     5.59s CPU         6.00s WALL



     Representation #  1 mode #   1

     Self-consistent Calculation

      iter #   1 total cpu time :     6.3 secs   av.it.:   5.5
      thresh= 1.000E-02 alpha_mix =  0.700 |ddv_scf|^2 =  2.474E-03

      iter #   2 total cpu time :     6.5 secs   av.it.:   7.5
      thresh= 4.974E-03 alpha_mix =  0.700 |ddv_scf|^2 =  3.732E-02

      iter #   3 total cpu time :     6.8 secs   av.it.:   6.3
      thresh= 1.000E-02 alpha_mix =  0.700 |ddv_scf|^2 =  1.713E-06

      iter #   4 total cpu time :     7.3 secs   av.it.:   8.2
      thresh= 1.309E-04 alpha_mix =  0.700 |ddv_scf|^2 =  1.146E-07

      iter #   5 total cpu time :     7.6 secs   av.it.:   8.1
      thresh= 3.385E-05 alpha_mix =  0.700 |ddv_scf|^2 =  4.397E-09

      iter #   6 total cpu time :     7.9 secs   av.it.:   8.0
      thresh= 6.631E-06 alpha_mix =  0.700 |ddv_scf|^2 =  5.211E-09

      iter #   7 total cpu time :     8.1 secs   av.it.:   6.0
      thresh= 7.219E-06 alpha_mix =  0.700 |ddv_scf|^2 =  3.873E-10

      iter #   8 total cpu time :     8.4 secs   av.it.:   7.3
      thresh= 1.968E-06 alpha_mix =  0.700 |ddv_scf|^2 =  3.868E-12

      iter #   9 total cpu time :     8.7 secs   av.it.:   7.2
      thresh= 1.967E-07 alpha_mix =  0.700 |ddv_scf|^2 =  1.383E-13

     End of self-consistent calculation

     Convergence has been achieved 


     Representation #  2 mode #   2

     Self-consistent Calculation

      iter #   1 total cpu time :     9.1 secs   av.it.:   5.5
      thresh= 1.000E-02 alpha_mix =  0.700 |ddv_scf|^2 =  2.474E-03

      iter #   2 total cpu time :     9.4 secs   av.it.:   7.5
      thresh= 4.974E-03 alpha_mix =  0.700 |ddv_scf|^2 =  3.732E-02

      iter #   3 total cpu time :     9.7 secs   av.it.:   6.3
      thresh= 1.000E-02 alpha_mix =  0.700 |ddv_scf|^2 =  1.713E-06

      iter #   4 total cpu time :    10.0 secs   av.it.:   8.2
      thresh= 1.309E-04 alpha_mix =  0.700 |ddv_scf|^2 =  1.146E-07

      iter #   5 total cpu time :    10.3 secs   av.it.:   8.1
      thresh= 3.385E-05 alpha_mix =  0.700 |ddv_scf|^2 =  4.397E-09

      iter #   6 total cpu time :    10.6 secs   av.it.:   8.0
      thresh= 6.631E-06 alpha_mix =  0.700 |ddv_scf|^2 =  5.211E-09

      iter #   7 total cpu time :    10.8 secs   av.it.:   6.0
      thresh= 7.219E-06 alpha_mix =  0.700 |ddv_scf|^2 =  3.873E-10

      iter #   8 total cpu time :    11.3 secs   av.it.:   7.3
      thresh= 1.968E-06 alpha_mix =  0.700 |ddv_scf|^2 =  3.868E-12

      iter #   9 total cpu time :    11.6 secs   av.it.:   7.2
      thresh= 1.967E-07 alpha_mix =  0.700 |ddv_scf|^2 =  1.383E-13

     End of self-consistent calculation

     Convergence has been achieved 


     Representation #  3 modes #   3  4

     Self-consistent Calculation

      iter #   1 total cpu time :    12.0 secs   av.it.:   5.0
      thresh= 1.000E-02 alpha_mix =  0.700 |ddv_scf|^2 =  5.556E-07

      iter #   2 total cpu time :    12.7 secs   av.it.:   9.5
      thresh= 7.454E-05 alpha_mix =  0.700 |ddv_scf|^2 =  4.099E-08

      iter #   3 total cpu time :    13.6 secs   av.it.:   9.2
      thresh= 2.025E-05 alpha_mix =  0.700 |ddv_scf|^2 =  3.518E-09

      iter #   4 total cpu time :    14.3 secs   av.it.:   9.0
      thresh= 5.931E-06 alpha_mix =  0.700 |ddv_scf|^2 =  1.083E-11

      iter #   5 total cpu time :    15.1 secs   av.it.:   9.2
      thresh= 3.290E-07 alpha_mix =  0.700 |ddv_scf|^2 =  4.936E-13

     End of self-consistent calculation

     Convergence has been achieved 


     Representation #  4 modes #   5  6

     Self-consistent Calculation

      iter #   1 total cpu time :    15.6 secs   av.it.:   5.0
      thresh= 1.000E-02 alpha_mix =  0.700 |ddv_scf|^2 =  5.555E-07

      iter #   2 total cpu time :    16.3 secs   av.it.:   9.7
      thresh= 7.453E-05 alpha_mix =  0.700 |ddv_scf|^2 =  4.096E-08

      iter #   3 total cpu time :    17.1 secs   av.it.:   9.4
      thresh= 2.024E-05 alpha_mix =  0.700 |ddv_scf|^2 =  3.516E-09

      iter #   4 total cpu time :    17.8 secs   av.it.:   9.1
      thresh= 5.930E-06 alpha_mix =  0.700 |ddv_scf|^2 =  1.083E-11

      iter #   5 total cpu time :    18.4 secs   av.it.:   9.2
      thresh= 3.291E-07 alpha_mix =  0.700 |ddv_scf|^2 =  4.939E-13

     End of self-consistent calculation

     Convergence has been achieved 

     Number of q in the star =    8
     List of q in the star:
          1  -0.250000000   0.250000000  -0.250000000
          2   0.250000000  -0.250000000  -0.250000000
          3   0.250000000  -0.250000000   0.250000000
          4   0.250000000   0.250000000   0.250000000
          5  -0.250000000  -0.250000000  -0.250000000
          6  -0.250000000  -0.250000000   0.250000000
          7  -0.250000000   0.250000000   0.250000000
          8   0.250000000   0.250000000  -0.250000000

     Diagonalizing the dynamical matrix

     q = (   -0.250000000   0.250000000  -0.250000000 ) 

 **************************************************************************
     freq (    1) =       3.388453 [THz] =     113.026639 [cm-1]
     freq (    2) =       3.388453 [THz] =     113.026639 [cm-1]
     freq (    3) =       6.945396 [THz] =     231.673474 [cm-1]
     freq (    4) =      14.109880 [THz] =     470.654922 [cm-1]
     freq (    5) =      14.424332 [THz] =     481.143940 [cm-1]
     freq (    6) =      14.424332 [THz] =     481.143940 [cm-1]
 **************************************************************************

     Mode symmetry, C_3v (3m)   point group:

     freq (  1 -  2) =        113.0  [cm-1]   --> E    L_3           
     freq (  3 -  3) =        231.7  [cm-1]   --> A_1  L_1           
     freq (  4 -  4) =        470.7  [cm-1]   --> A_1  L_1           
     freq (  5 -  6) =        481.1  [cm-1]   --> E    L_3           

     Calculation of q =    0.5000000  -0.5000000   0.5000000

   Info: using nr1, nr2, nr3 values from input

   Info: using nr1, nr2, nr3 values from input

     Parallelization info
     --------------------
     sticks:   dense  smooth     PW     G-vecs:    dense   smooth      PW
     Min          63      63     27                  684      684     186
     Max          64      64     28                  688      688     189
     Sum         253     253    109                 2741     2741     749



     bravais-lattice index     =            2
     lattice parameter (alat)  =      10.3280  a.u.
     unit-cell volume          =     275.4157 (a.u.)^3
     number of atoms/cell      =            2
     number of atomic types    =            1
     number of electrons       =         8.00
     number of Kohn-Sham states=            4
     kinetic-energy cutoff     =      18.0000  Ry
     charge density cutoff     =      72.0000  Ry
     Exchange-correlation      = SLA  PW   PBE  PBE ( 1  4  3  4 0 0)

     celldm(1)=  10.328000  celldm(2)=   0.000000  celldm(3)=   0.000000
     celldm(4)=   0.000000  celldm(5)=   0.000000  celldm(6)=   0.000000

     crystal axes: (cart. coord. in units of alat)
               a(1) = (  -0.500000   0.000000   0.500000 )  
               a(2) = (   0.000000   0.500000   0.500000 )  
               a(3) = (  -0.500000   0.500000   0.000000 )  

     reciprocal axes: (cart. coord. in units 2 pi/alat)
               b(1) = ( -1.000000 -1.000000  1.000000 )  
               b(2) = (  1.000000  1.000000  1.000000 )  
               b(3) = ( -1.000000  1.000000 -1.000000 )  


     PseudoPot. # 1 for Si read from file:
     /home/max/quantum_espresso/qe-6.1/pseudo/si_pbe_v1.uspp.F.UPF.txt
     MD5 check sum: a056efeee980c13900f22a371efd63c1
     Pseudo is Ultrasoft + core correction, Zval =  4.0
     Generated by new atomic code, or converted to UPF format
     Using radial grid of  899 points,  6 beta functions with: 
                l(1) =   0
                l(2) =   0
                l(3) =   1
                l(4) =   1
                l(5) =   2
                l(6) =   2
     Q(r) pseudized with  8 coefficients,  rinner =    0.900   0.900   0.900
                                                       0.900   0.900

     atomic species   valence    mass     pseudopotential
        Si             4.00    28.08600     Si( 1.00)

     48 Sym. Ops., with inversion, found



   Cartesian axes

     site n.     atom                  positions (alat units)
         1           Si  tau(   1) = (   0.0000000   0.0000000   0.0000000  )
         2           Si  tau(   2) = (   0.2500000   0.2500000   0.2500000  )

     number of k points=    60
                       cart. coord. in units 2pi/alat
        k(    1) = (  -0.1250000   0.1250000   0.1250000), wk =   0.0468750
        k(    2) = (   0.3750000  -0.3750000   0.6250000), wk =   0.0000000
        k(    3) = (  -0.3750000   0.3750000  -0.1250000), wk =   0.0468750
        k(    4) = (   0.1250000  -0.1250000   0.3750000), wk =   0.0000000
        k(    5) = (   0.3750000  -0.3750000   0.6250000), wk =   0.0468750
        k(    6) = (   0.8750000  -0.8750000   1.1250000), wk =   0.0000000
        k(    7) = (   0.1250000  -0.1250000   0.3750000), wk =   0.0468750
        k(    8) = (   0.6250000  -0.6250000   0.8750000), wk =   0.0000000
        k(    9) = (  -0.1250000   0.6250000   0.1250000), wk =   0.0937500
        k(   10) = (   0.3750000   0.1250000   0.6250000), wk =   0.0000000
        k(   11) = (   0.6250000  -0.1250000   0.8750000), wk =   0.0937500
        k(   12) = (   1.1250000  -0.6250000   1.3750000), wk =   0.0000000
        k(   13) = (   0.3750000   0.1250000   0.6250000), wk =   0.0937500
        k(   14) = (   0.8750000  -0.3750000   1.1250000), wk =   0.0000000
        k(   15) = (  -0.1250000  -0.8750000   0.1250000), wk =   0.0937500
        k(   16) = (   0.3750000  -1.3750000   0.6250000), wk =   0.0000000
        k(   17) = (  -0.3750000   0.3750000   0.3750000), wk =   0.0468750
        k(   18) = (   0.1250000  -0.1250000   0.8750000), wk =   0.0000000
        k(   19) = (   0.3750000  -0.3750000   1.1250000), wk =   0.0468750
        k(   20) = (   0.8750000  -0.8750000   1.6250000), wk =   0.0000000
        k(   21) = (   0.1250000  -0.1250000   0.1250000), wk =   0.0156250
        k(   22) = (   0.6250000  -0.6250000   0.6250000), wk =   0.0000000
        k(   23) = (  -0.3750000  -0.3750000  -0.1250000), wk =   0.0937500
        k(   24) = (   0.1250000  -0.8750000   0.3750000), wk =   0.0000000
        k(   25) = (  -0.1250000  -0.3750000   0.3750000), wk =   0.0468750
        k(   26) = (   0.3750000  -0.8750000   0.8750000), wk =   0.0000000
        k(   27) = (   0.3750000   0.3750000   0.6250000), wk =   0.0937500
        k(   28) = (   0.8750000  -0.1250000   1.1250000), wk =   0.0000000
        k(   29) = (   0.6250000   0.3750000  -0.3750000), wk =   0.0468750
        k(   30) = (   1.1250000  -0.1250000   0.1250000), wk =   0.0000000
        k(   31) = (   0.1250000   0.1250000   0.3750000), wk =   0.0937500
        k(   32) = (   0.6250000  -0.3750000   0.8750000), wk =   0.0000000
        k(   33) = (   0.3750000   0.1250000  -0.1250000), wk =   0.0468750
        k(   34) = (   0.8750000  -0.3750000   0.3750000), wk =   0.0000000
        k(   35) = (  -0.1250000  -0.6250000  -0.1250000), wk =   0.0468750
        k(   36) = (   0.3750000  -1.1250000   0.3750000), wk =   0.0000000
        k(   37) = (   0.1250000  -0.6250000   0.1250000), wk =   0.0468750
        k(   38) = (   0.6250000  -1.1250000   0.6250000), wk =   0.0000000
        k(   39) = (   0.6250000   0.1250000   0.8750000), wk =   0.0937500
        k(   40) = (   1.1250000  -0.3750000   1.3750000), wk =   0.0000000
        k(   41) = (  -0.8750000   0.1250000   0.6250000), wk =   0.0937500
        k(   42) = (  -0.3750000  -0.3750000   1.1250000), wk =   0.0000000
        k(   43) = (   0.8750000   0.1250000  -0.6250000), wk =   0.0937500
        k(   44) = (   1.3750000  -0.3750000  -0.1250000), wk =   0.0000000
        k(   45) = (   0.3750000  -0.1250000   0.6250000), wk =   0.0937500
        k(   46) = (   0.8750000  -0.6250000   1.1250000), wk =   0.0000000
        k(   47) = (  -0.6250000  -0.1250000   0.3750000), wk =   0.0937500
        k(   48) = (  -0.1250000  -0.6250000   0.8750000), wk =   0.0000000
        k(   49) = (   0.6250000  -0.1250000  -0.3750000), wk =   0.0937500
        k(   50) = (   1.1250000  -0.6250000   0.1250000), wk =   0.0000000
        k(   51) = (  -0.1250000   0.8750000  -0.1250000), wk =   0.0468750
        k(   52) = (   0.3750000   0.3750000   0.3750000), wk =   0.0000000
        k(   53) = (   0.1250000   0.8750000   0.1250000), wk =   0.0468750
        k(   54) = (   0.6250000   0.3750000   0.6250000), wk =   0.0000000
        k(   55) = (   0.3750000  -0.3750000   0.3750000), wk =   0.0156250
        k(   56) = (   0.8750000  -0.8750000   0.8750000), wk =   0.0000000
        k(   57) = (   0.3750000   0.3750000   1.1250000), wk =   0.0937500
        k(   58) = (   0.8750000  -0.1250000   1.6250000), wk =   0.0000000
        k(   59) = (   1.1250000   0.3750000  -0.3750000), wk =   0.0468750
        k(   60) = (   1.6250000  -0.1250000   0.1250000), wk =   0.0000000

     Dense  grid:     2741 G-vectors     FFT dimensions: (  20,  20,  20)

     Estimated max dynamical RAM per process >       0.33MB

     Estimated total allocated dynamical RAM >       1.30MB

     Check: negative/imaginary core charge=   -0.000005    0.000000

     The potential is recalculated from file :
     ./_ph0/silicon.10.328.save/charge-density.dat

     Starting wfc are    8 atomic wfcs

     Band Structure Calculation
     Davidson diagonalization with overlap

     ethr =  1.25E-10,  avg # of iterations = 11.7

     total cpu time spent up to now is        1.9 secs

     End of band structure calculation

          k =-0.1250 0.1250 0.1250 (   338 PWs)   bands (ev):

    -5.6247   4.4074   5.7161   5.7161

          k = 0.3750-0.3750 0.6250 (   359 PWs)   bands (ev):

    -3.4618  -0.6634   3.7516   4.4627

          k =-0.3750 0.3750-0.1250 (   352 PWs)   bands (ev):

    -4.5994   1.4124   3.7325   5.2338

          k = 0.1250-0.1250 0.3750 (   349 PWs)   bands (ev):

    -5.0977   2.7885   4.7077   4.7725

          k = 0.3750-0.3750 0.6250 (   359 PWs)   bands (ev):

    -3.4618  -0.6634   3.7516   4.4627

          k = 0.8750-0.8750 1.1250 (   338 PWs)   bands (ev):

    -5.6247   4.4074   5.7161   5.7161

          k = 0.1250-0.1250 0.3750 (   349 PWs)   bands (ev):

    -5.0977   2.7885   4.7077   4.7725

          k = 0.6250-0.6250 0.8750 (   352 PWs)   bands (ev):

    -4.5994   1.4124   3.7325   5.2338

          k =-0.1250 0.6250 0.1250 (   349 PWs)   bands (ev):

    -4.0669   1.0757   3.3843   3.8332

          k = 0.3750 0.1250 0.6250 (   357 PWs)   bands (ev):

    -3.6523   0.2040   2.7439   4.1092

          k = 0.6250-0.1250 0.8750 (   359 PWs)   bands (ev):

    -2.4288  -0.8875   2.0337   3.1067

          k = 1.1250-0.6250 1.3750 (   352 PWs)   bands (ev):

    -4.5994   1.4124   3.7325   5.2338

          k = 0.3750 0.1250 0.6250 (   357 PWs)   bands (ev):

    -3.6523   0.2040   2.7439   4.1092

          k = 0.8750-0.3750 1.1250 (   349 PWs)   bands (ev):

    -4.0669   1.0757   3.3843   3.8332

          k =-0.1250-0.8750 0.1250 (   358 PWs)   bands (ev):

    -2.5959  -0.7903   2.6407   3.3661

          k = 0.3750-1.3750 0.6250 (   359 PWs)   bands (ev):

    -3.4618  -0.6634   3.7516   4.4627

          k =-0.3750 0.3750 0.3750 (   353 PWs)   bands (ev):

    -4.1676   0.1246   4.9271   4.9271

          k = 0.1250-0.1250 0.8750 (   358 PWs)   bands (ev):

    -2.5959  -0.7903   2.6407   3.3661

          k = 0.3750-0.3750 1.1250 (   361 PWs)   bands (ev):

    -2.9662  -0.5822   2.0912   4.1463

          k = 0.8750-0.8750 1.6250 (   349 PWs)   bands (ev):

    -4.0669   1.0757   3.3843   3.8332

          k = 0.1250-0.1250 0.1250 (   338 PWs)   bands (ev):

    -5.6247   4.4074   5.7161   5.7161

          k = 0.6250-0.6250 0.6250 (   353 PWs)   bands (ev):

    -4.1676   0.1246   4.9271   4.9271

          k =-0.3750-0.3750-0.1250 (   352 PWs)   bands (ev):

    -4.5994   1.4124   3.7325   5.2338

          k = 0.1250-0.8750 0.3750 (   359 PWs)   bands (ev):

    -2.4288  -0.8875   2.0337   3.1067

          k =-0.1250-0.3750 0.3750 (   352 PWs)   bands (ev):

    -4.5994   1.4124   3.7325   5.2338

          k = 0.3750-0.8750 0.8750 (   349 PWs)   bands (ev):

    -4.0669   1.0757   3.3843   3.8332

          k = 0.3750 0.3750 0.6250 (   359 PWs)   bands (ev):

    -3.4618  -0.6634   3.7516   4.4627

          k = 0.8750-0.1250 1.1250 (   358 PWs)   bands (ev):

    -2.5959  -0.7903   2.6407   3.3661

          k = 0.6250 0.3750-0.3750 (   359 PWs)   bands (ev):

    -3.4618  -0.6634   3.7516   4.4627

          k = 1.1250-0.1250 0.1250 (   358 PWs)   bands (ev):

    -2.5959  -0.7903   2.6407   3.3661

          k = 0.1250 0.1250 0.3750 (   349 PWs)   bands (ev):

    -5.0977   2.7885   4.7077   4.7725

          k = 0.6250-0.3750 0.8750 (   357 PWs)   bands (ev):

    -3.6523   0.2040   2.7439   4.1092

          k = 0.3750 0.1250-0.1250 (   349 PWs)   bands (ev):

    -5.0977   2.7885   4.7077   4.7725

          k = 0.8750-0.3750 0.3750 (   361 PWs)   bands (ev):

    -2.9662  -0.5822   2.0912   4.1463

          k =-0.1250-0.6250-0.1250 (   349 PWs)   bands (ev):

    -4.0669   1.0757   3.3843   3.8332

          k = 0.3750-1.1250 0.3750 (   361 PWs)   bands (ev):

    -2.9662  -0.5822   2.0912   4.1463

          k = 0.1250-0.6250 0.1250 (   349 PWs)   bands (ev):

    -4.0669   1.0757   3.3843   3.8332

          k = 0.6250-1.1250 0.6250 (   352 PWs)   bands (ev):

    -4.5994   1.4124   3.7325   5.2338

          k = 0.6250 0.1250 0.8750 (   359 PWs)   bands (ev):

    -2.4288  -0.8875   2.0337   3.1067

          k = 1.1250-0.3750 1.3750 (   357 PWs)   bands (ev):

    -3.6523   0.2040   2.7439   4.1092

          k =-0.8750 0.1250 0.6250 (   359 PWs)   bands (ev):

    -2.4288  -0.8875   2.0337   3.1067

          k =-0.3750-0.3750 1.1250 (   361 PWs)   bands (ev):

    -2.9662  -0.5822   2.0912   4.1463

          k = 0.8750 0.1250-0.6250 (   359 PWs)   bands (ev):

    -2.4288  -0.8875   2.0337   3.1067

          k = 1.3750-0.3750-0.1250 (   357 PWs)   bands (ev):

    -3.6523   0.2040   2.7439   4.1092

          k = 0.3750-0.1250 0.6250 (   357 PWs)   bands (ev):

    -3.6523   0.2040   2.7439   4.1092

          k = 0.8750-0.6250 1.1250 (   349 PWs)   bands (ev):

    -5.0977   2.7885   4.7077   4.7725

          k =-0.6250-0.1250 0.3750 (   357 PWs)   bands (ev):

    -3.6523   0.2040   2.7439   4.1092

          k =-0.1250-0.6250 0.8750 (   359 PWs)   bands (ev):

    -2.4288  -0.8875   2.0337   3.1067

          k = 0.6250-0.1250-0.3750 (   357 PWs)   bands (ev):

    -3.6523   0.2040   2.7439   4.1092

          k = 1.1250-0.6250 0.1250 (   359 PWs)   bands (ev):

    -2.4288  -0.8875   2.0337   3.1067

          k =-0.1250 0.8750-0.1250 (   358 PWs)   bands (ev):

    -2.5959  -0.7903   2.6407   3.3661

          k = 0.3750 0.3750 0.3750 (   353 PWs)   bands (ev):

    -4.1676   0.1246   4.9271   4.9271

          k = 0.1250 0.8750 0.1250 (   358 PWs)   bands (ev):

    -2.5959  -0.7903   2.6407   3.3661

          k = 0.6250 0.3750 0.6250 (   359 PWs)   bands (ev):

    -3.4618  -0.6634   3.7516   4.4627

          k = 0.3750-0.3750 0.3750 (   353 PWs)   bands (ev):

    -4.1676   0.1246   4.9271   4.9271

          k = 0.8750-0.8750 0.8750 (   338 PWs)   bands (ev):

    -5.6247   4.4074   5.7161   5.7161

          k = 0.3750 0.3750 1.1250 (   361 PWs)   bands (ev):

    -2.9662  -0.5822   2.0912   4.1463

          k = 0.8750-0.1250 1.6250 (   359 PWs)   bands (ev):

    -2.4288  -0.8875   2.0337   3.1067

          k = 1.1250 0.3750-0.3750 (   361 PWs)   bands (ev):

    -2.9662  -0.5822   2.0912   4.1463

          k = 1.6250-0.1250 0.1250 (   349 PWs)   bands (ev):

    -5.0977   2.7885   4.7077   4.7725

     highest occupied level (ev):     5.7161

     Writing output data file silicon.10.328.save

                                                                                

     bravais-lattice index     =            2
     lattice parameter (alat)  =      10.3280  a.u.
     unit-cell volume          =     275.4157 (a.u.)^3
     number of atoms/cell      =            2
     number of atomic types    =            1
     kinetic-energy cut-off    =      18.0000  Ry
     charge density cut-off    =      72.0000  Ry
     convergence threshold     =      1.0E-12
     beta                      =       0.7000
     number of iterations used =            4
     Exchange-correlation      = SLA  PW   PBE  PBE ( 1  4  3  4 0 0)


     celldm(1)=   10.32800  celldm(2)=    0.00000  celldm(3)=    0.00000
     celldm(4)=    0.00000  celldm(5)=    0.00000  celldm(6)=    0.00000

     crystal axes: (cart. coord. in units of alat)
               a(1) = ( -0.5000  0.0000  0.5000 )  
               a(2) = (  0.0000  0.5000  0.5000 )  
               a(3) = ( -0.5000  0.5000  0.0000 )  

     reciprocal axes: (cart. coord. in units 2 pi/alat)
               b(1) = ( -1.0000 -1.0000  1.0000 )  
               b(2) = (  1.0000  1.0000  1.0000 )  
               b(3) = ( -1.0000  1.0000 -1.0000 )  


     Atoms inside the unit cell: 

     Cartesian axes

     site n.  atom      mass           positions (alat units)
        1     Si  28.0860   tau(    1) = (    0.00000    0.00000    0.00000  )
        2     Si  28.0860   tau(    2) = (    0.25000    0.25000    0.25000  )

     Computing dynamical matrix for 
                    q = (   0.5000000  -0.5000000   0.5000000 )

     13 Sym.Ops. (with q -> -q+G )


     G cutoff =  194.5383  (    685 G-vectors)     FFT grid: ( 20, 20, 20)
     number of k points=    60

     PseudoPot. # 1 for Si read from file:
     /home/max/quantum_espresso/qe-6.1/pseudo/si_pbe_v1.uspp.F.UPF.txt
     MD5 check sum: a056efeee980c13900f22a371efd63c1
     Pseudo is Ultrasoft + core correction, Zval =  4.0
     Generated by new atomic code, or converted to UPF format
     Using radial grid of  899 points,  6 beta functions with: 
                l(1) =   0
                l(2) =   0
                l(3) =   1
                l(4) =   1
                l(5) =   2
                l(6) =   2
     Q(r) pseudized with  8 coefficients,  rinner =    0.900   0.900   0.900
                                                       0.900   0.900


     Atomic displacements:
     There are   4 irreducible representations

     Representation     1      1 modes -  To be done

     Representation     2      1 modes -  To be done

     Representation     3      2 modes -  To be done

     Representation     4      2 modes -  To be done



     Alpha used in Ewald sum =   0.7000
     PHONON       :    17.92s CPU        19.52s WALL



     Representation #  1 mode #   1

     Self-consistent Calculation

      iter #   1 total cpu time :    19.6 secs   av.it.:   4.8
      thresh= 1.000E-02 alpha_mix =  0.700 |ddv_scf|^2 =  2.485E-05

      iter #   2 total cpu time :    19.8 secs   av.it.:   8.3
      thresh= 4.985E-04 alpha_mix =  0.700 |ddv_scf|^2 =  2.212E-05

      iter #   3 total cpu time :    20.0 secs   av.it.:   7.5
      thresh= 4.703E-04 alpha_mix =  0.700 |ddv_scf|^2 =  4.193E-08

      iter #   4 total cpu time :    20.1 secs   av.it.:   7.5
      thresh= 2.048E-05 alpha_mix =  0.700 |ddv_scf|^2 =  1.429E-10

      iter #   5 total cpu time :    20.3 secs   av.it.:   7.9
      thresh= 1.196E-06 alpha_mix =  0.700 |ddv_scf|^2 =  3.576E-12

      iter #   6 total cpu time :    20.4 secs   av.it.:   7.9
      thresh= 1.891E-07 alpha_mix =  0.700 |ddv_scf|^2 =  5.526E-14

     End of self-consistent calculation

     Convergence has been achieved 


     Representation #  2 mode #   2

     Self-consistent Calculation

      iter #   1 total cpu time :    20.6 secs   av.it.:   5.7
      thresh= 1.000E-02 alpha_mix =  0.700 |ddv_scf|^2 =  3.453E-04

      iter #   2 total cpu time :    20.7 secs   av.it.:   8.3
      thresh= 1.858E-03 alpha_mix =  0.700 |ddv_scf|^2 =  1.064E-03

      iter #   3 total cpu time :    20.9 secs   av.it.:   7.1
      thresh= 3.262E-03 alpha_mix =  0.700 |ddv_scf|^2 =  1.134E-07

      iter #   4 total cpu time :    21.2 secs   av.it.:   8.2
      thresh= 3.367E-05 alpha_mix =  0.700 |ddv_scf|^2 =  7.275E-09

      iter #   5 total cpu time :    21.4 secs   av.it.:   8.5
      thresh= 8.529E-06 alpha_mix =  0.700 |ddv_scf|^2 =  1.298E-10

      iter #   6 total cpu time :    21.5 secs   av.it.:   8.3
      thresh= 1.139E-06 alpha_mix =  0.700 |ddv_scf|^2 =  2.071E-12

      iter #   7 total cpu time :    21.7 secs   av.it.:   7.8
      thresh= 1.439E-07 alpha_mix =  0.700 |ddv_scf|^2 =  3.186E-15

     End of self-consistent calculation

     Convergence has been achieved 


     Representation #  3 modes #   3  4

     Self-consistent Calculation

      iter #   1 total cpu time :    21.9 secs   av.it.:   4.7
      thresh= 1.000E-02 alpha_mix =  0.700 |ddv_scf|^2 =  3.032E-07

      iter #   2 total cpu time :    22.3 secs   av.it.:   9.1
      thresh= 5.506E-05 alpha_mix =  0.700 |ddv_scf|^2 =  2.500E-08

      iter #   3 total cpu time :    22.6 secs   av.it.:   8.4
      thresh= 1.581E-05 alpha_mix =  0.700 |ddv_scf|^2 =  4.937E-10

      iter #   4 total cpu time :    23.0 secs   av.it.:   8.9
      thresh= 2.222E-06 alpha_mix =  0.700 |ddv_scf|^2 =  6.203E-12

      iter #   5 total cpu time :    23.4 secs   av.it.:   8.7
      thresh= 2.491E-07 alpha_mix =  0.700 |ddv_scf|^2 =  3.213E-14

     End of self-consistent calculation

     Convergence has been achieved 


     Representation #  4 modes #   5  6

     Self-consistent Calculation

      iter #   1 total cpu time :    23.7 secs   av.it.:   5.0
      thresh= 1.000E-02 alpha_mix =  0.700 |ddv_scf|^2 =  9.790E-07

      iter #   2 total cpu time :    24.0 secs   av.it.:   9.5
      thresh= 9.894E-05 alpha_mix =  0.700 |ddv_scf|^2 =  7.659E-08

      iter #   3 total cpu time :    24.3 secs   av.it.:   9.3
      thresh= 2.768E-05 alpha_mix =  0.700 |ddv_scf|^2 =  4.903E-09

      iter #   4 total cpu time :    24.7 secs   av.it.:   8.5
      thresh= 7.002E-06 alpha_mix =  0.700 |ddv_scf|^2 =  6.590E-12

      iter #   5 total cpu time :    25.2 secs   av.it.:   8.8
      thresh= 2.567E-07 alpha_mix =  0.700 |ddv_scf|^2 =  2.289E-14

     End of self-consistent calculation

     Convergence has been achieved 

     Number of q in the star =    4
     List of q in the star:
          1   0.500000000  -0.500000000   0.500000000
          2   0.500000000   0.500000000   0.500000000
          3  -0.500000000   0.500000000   0.500000000
          4   0.500000000   0.500000000  -0.500000000

     Diagonalizing the dynamical matrix

     q = (    0.500000000  -0.500000000   0.500000000 ) 

 **************************************************************************
     freq (    1) =       4.544665 [THz] =     151.593695 [cm-1]
     freq (    2) =       4.544665 [THz] =     151.593695 [cm-1]
     freq (    3) =      11.551941 [THz] =     385.331283 [cm-1]
     freq (    4) =      12.160358 [THz] =     405.625892 [cm-1]
     freq (    5) =      14.438957 [THz] =     481.631767 [cm-1]
     freq (    6) =      14.438957 [THz] =     481.631767 [cm-1]
 **************************************************************************

     Calculation of q =    0.0000000   0.5000000   0.0000000

   Info: using nr1, nr2, nr3 values from input

   Info: using nr1, nr2, nr3 values from input

     Parallelization info
     --------------------
     sticks:   dense  smooth     PW     G-vecs:    dense   smooth      PW
     Min          63      63     27                  684      684     175
     Max          64      64     28                  688      688     176
     Sum         253     253    109                 2741     2741     701



     bravais-lattice index     =            2
     lattice parameter (alat)  =      10.3280  a.u.
     unit-cell volume          =     275.4157 (a.u.)^3
     number of atoms/cell      =            2
     number of atomic types    =            1
     number of electrons       =         8.00
     number of Kohn-Sham states=            4
     kinetic-energy cutoff     =      18.0000  Ry
     charge density cutoff     =      72.0000  Ry
     Exchange-correlation      = SLA  PW   PBE  PBE ( 1  4  3  4 0 0)

     celldm(1)=  10.328000  celldm(2)=   0.000000  celldm(3)=   0.000000
     celldm(4)=   0.000000  celldm(5)=   0.000000  celldm(6)=   0.000000

     crystal axes: (cart. coord. in units of alat)
               a(1) = (  -0.500000   0.000000   0.500000 )  
               a(2) = (   0.000000   0.500000   0.500000 )  
               a(3) = (  -0.500000   0.500000   0.000000 )  

     reciprocal axes: (cart. coord. in units 2 pi/alat)
               b(1) = ( -1.000000 -1.000000  1.000000 )  
               b(2) = (  1.000000  1.000000  1.000000 )  
               b(3) = ( -1.000000  1.000000 -1.000000 )  


     PseudoPot. # 1 for Si read from file:
     /home/max/quantum_espresso/qe-6.1/pseudo/si_pbe_v1.uspp.F.UPF.txt
     MD5 check sum: a056efeee980c13900f22a371efd63c1
     Pseudo is Ultrasoft + core correction, Zval =  4.0
     Generated by new atomic code, or converted to UPF format
     Using radial grid of  899 points,  6 beta functions with: 
                l(1) =   0
                l(2) =   0
                l(3) =   1
                l(4) =   1
                l(5) =   2
                l(6) =   2
     Q(r) pseudized with  8 coefficients,  rinner =    0.900   0.900   0.900
                                                       0.900   0.900

     atomic species   valence    mass     pseudopotential
        Si             4.00    28.08600     Si( 1.00)

     48 Sym. Ops., with inversion, found



   Cartesian axes

     site n.     atom                  positions (alat units)
         1           Si  tau(   1) = (   0.0000000   0.0000000   0.0000000  )
         2           Si  tau(   2) = (   0.2500000   0.2500000   0.2500000  )

     number of k points=    80
                       cart. coord. in units 2pi/alat
        k(    1) = (  -0.1250000   0.1250000   0.1250000), wk =   0.0312500
        k(    2) = (  -0.1250000   0.6250000   0.1250000), wk =   0.0000000
        k(    3) = (  -0.3750000   0.3750000  -0.1250000), wk =   0.0625000
        k(    4) = (  -0.3750000   0.8750000  -0.1250000), wk =   0.0000000
        k(    5) = (   0.3750000  -0.3750000   0.6250000), wk =   0.0625000
        k(    6) = (   0.3750000   0.1250000   0.6250000), wk =   0.0000000
        k(    7) = (   0.1250000  -0.1250000   0.3750000), wk =   0.0625000
        k(    8) = (   0.1250000   0.3750000   0.3750000), wk =   0.0000000
        k(    9) = (  -0.1250000   0.6250000   0.1250000), wk =   0.0312500
        k(   10) = (  -0.1250000   1.1250000   0.1250000), wk =   0.0000000
        k(   11) = (   0.6250000  -0.1250000   0.8750000), wk =   0.0625000
        k(   12) = (   0.6250000   0.3750000   0.8750000), wk =   0.0000000
        k(   13) = (   0.3750000   0.1250000   0.6250000), wk =   0.0625000
        k(   14) = (   0.3750000   0.6250000   0.6250000), wk =   0.0000000
        k(   15) = (  -0.1250000  -0.8750000   0.1250000), wk =   0.0312500
        k(   16) = (  -0.1250000  -0.3750000   0.1250000), wk =   0.0000000
        k(   17) = (  -0.3750000   0.3750000   0.3750000), wk =   0.0312500
        k(   18) = (  -0.3750000   0.8750000   0.3750000), wk =   0.0000000
        k(   19) = (   0.3750000  -0.3750000   1.1250000), wk =   0.0625000
        k(   20) = (   0.3750000   0.1250000   1.1250000), wk =   0.0000000
        k(   21) = (  -0.1250000  -0.1250000   0.1250000), wk =   0.0312500
        k(   22) = (  -0.1250000   0.3750000   0.1250000), wk =   0.0000000
        k(   23) = (   0.1250000  -0.3750000   0.3750000), wk =   0.0625000
        k(   24) = (   0.1250000   0.1250000   0.3750000), wk =   0.0000000
        k(   25) = (   0.3750000  -0.1250000   0.3750000), wk =   0.0312500
        k(   26) = (   0.3750000   0.3750000   0.3750000), wk =   0.0000000
        k(   27) = (   0.3750000   0.1250000   0.3750000), wk =   0.0312500
        k(   28) = (   0.3750000   0.6250000   0.3750000), wk =   0.0000000
        k(   29) = (  -0.6250000   0.3750000  -0.3750000), wk =   0.0625000
        k(   30) = (  -0.6250000   0.8750000  -0.3750000), wk =   0.0000000
        k(   31) = (  -0.3750000   0.6250000  -0.3750000), wk =   0.0312500
        k(   32) = (  -0.3750000   1.1250000  -0.3750000), wk =   0.0000000
        k(   33) = (  -0.3750000  -0.6250000  -0.3750000), wk =   0.0312500
        k(   34) = (  -0.3750000  -0.1250000  -0.3750000), wk =   0.0000000
        k(   35) = (  -0.3750000   0.1250000  -0.1250000), wk =   0.0625000
        k(   36) = (  -0.3750000   0.6250000  -0.1250000), wk =   0.0000000
        k(   37) = (  -0.1250000   0.3750000  -0.1250000), wk =   0.0312500
        k(   38) = (  -0.1250000   0.8750000  -0.1250000), wk =   0.0000000
        k(   39) = (  -0.1250000  -0.3750000  -0.1250000), wk =   0.0312500
        k(   40) = (  -0.1250000   0.1250000  -0.1250000), wk =   0.0000000
        k(   41) = (  -0.1250000  -0.6250000   0.1250000), wk =   0.0312500
        k(   42) = (  -0.1250000  -0.1250000   0.1250000), wk =   0.0000000
        k(   43) = (   0.6250000  -0.1250000  -0.1250000), wk =   0.0625000
        k(   44) = (   0.6250000   0.3750000  -0.1250000), wk =   0.0000000
        k(   45) = (   0.6250000   0.1250000   0.1250000), wk =   0.0625000
        k(   46) = (   0.6250000   0.6250000   0.1250000), wk =   0.0000000
        k(   47) = (  -0.8750000   0.1250000  -0.6250000), wk =   0.0625000
        k(   48) = (  -0.8750000   0.6250000  -0.6250000), wk =   0.0000000
        k(   49) = (  -0.1250000   0.6250000  -0.8750000), wk =   0.0625000
        k(   50) = (  -0.1250000   1.1250000  -0.8750000), wk =   0.0000000
        k(   51) = (  -0.1250000   0.8750000  -0.6250000), wk =   0.0625000
        k(   52) = (  -0.1250000   1.3750000  -0.6250000), wk =   0.0000000
        k(   53) = (  -0.1250000  -0.8750000  -0.6250000), wk =   0.0625000
        k(   54) = (  -0.1250000  -0.3750000  -0.6250000), wk =   0.0000000
        k(   55) = (   0.8750000  -0.6250000   0.1250000), wk =   0.0625000
        k(   56) = (   0.8750000  -0.1250000   0.1250000), wk =   0.0000000
        k(   57) = (  -0.6250000  -0.1250000  -0.3750000), wk =   0.0625000
        k(   58) = (  -0.6250000   0.3750000  -0.3750000), wk =   0.0000000
        k(   59) = (   0.1250000   0.3750000  -0.6250000), wk =   0.0625000
        k(   60) = (   0.1250000   0.8750000  -0.6250000), wk =   0.0000000
        k(   61) = (   0.1250000   0.6250000  -0.3750000), wk =   0.0625000
        k(   62) = (   0.1250000   1.1250000  -0.3750000), wk =   0.0000000
        k(   63) = (   0.1250000  -0.6250000  -0.3750000), wk =   0.0625000
        k(   64) = (   0.1250000  -0.1250000  -0.3750000), wk =   0.0000000
        k(   65) = (   0.6250000  -0.3750000  -0.1250000), wk =   0.0625000
        k(   66) = (   0.6250000   0.1250000  -0.1250000), wk =   0.0000000
        k(   67) = (  -0.1250000   0.8750000   0.1250000), wk =   0.0312500
        k(   68) = (  -0.1250000   1.3750000   0.1250000), wk =   0.0000000
        k(   69) = (  -0.8750000  -0.1250000  -0.1250000), wk =   0.0625000
        k(   70) = (  -0.8750000   0.3750000  -0.1250000), wk =   0.0000000
        k(   71) = (  -0.8750000   0.1250000   0.1250000), wk =   0.0625000
        k(   72) = (  -0.8750000   0.6250000   0.1250000), wk =   0.0000000
        k(   73) = (  -0.3750000  -0.3750000   0.3750000), wk =   0.0312500
        k(   74) = (  -0.3750000   0.1250000   0.3750000), wk =   0.0000000
        k(   75) = (  -1.1250000   0.3750000  -0.3750000), wk =   0.0625000
        k(   76) = (  -1.1250000   0.8750000  -0.3750000), wk =   0.0000000
        k(   77) = (  -0.3750000   1.1250000  -0.3750000), wk =   0.0312500
        k(   78) = (  -0.3750000   1.6250000  -0.3750000), wk =   0.0000000
        k(   79) = (  -0.3750000  -1.1250000  -0.3750000), wk =   0.0312500
        k(   80) = (  -0.3750000  -0.6250000  -0.3750000), wk =   0.0000000

     Dense  grid:     2741 G-vectors     FFT dimensions: (  20,  20,  20)

     Estimated max dynamical RAM per process >       0.33MB

     Estimated total allocated dynamical RAM >       1.30MB

     Check: negative/imaginary core charge=   -0.000005    0.000000

     The potential is recalculated from file :
     ./_ph0/silicon.10.328.save/charge-density.dat

     Starting wfc are    8 atomic wfcs

     Band Structure Calculation
     Davidson diagonalization with overlap

     ethr =  1.25E-10,  avg # of iterations = 11.7

     total cpu time spent up to now is        2.6 secs

     End of band structure calculation

          k =-0.1250 0.1250 0.1250 (   338 PWs)   bands (ev):

    -5.6247   4.4074   5.7161   5.7161

          k =-0.1250 0.6250 0.1250 (   349 PWs)   bands (ev):

    -4.0669   1.0757   3.3843   3.8332

          k =-0.3750 0.3750-0.1250 (   352 PWs)   bands (ev):

    -4.5994   1.4124   3.7325   5.2338

          k =-0.3750 0.8750-0.1250 (   359 PWs)   bands (ev):

    -2.4288  -0.8875   2.0337   3.1067

          k = 0.3750-0.3750 0.6250 (   359 PWs)   bands (ev):

    -3.4618  -0.6634   3.7516   4.4627

          k = 0.3750 0.1250 0.6250 (   357 PWs)   bands (ev):

    -3.6523   0.2040   2.7439   4.1092

          k = 0.1250-0.1250 0.3750 (   349 PWs)   bands (ev):

    -5.0977   2.7885   4.7077   4.7725

          k = 0.1250 0.3750 0.3750 (   352 PWs)   bands (ev):

    -4.5994   1.4124   3.7325   5.2338

          k =-0.1250 0.6250 0.1250 (   349 PWs)   bands (ev):

    -4.0669   1.0757   3.3843   3.8332

          k =-0.1250 1.1250 0.1250 (   358 PWs)   bands (ev):

    -2.5959  -0.7903   2.6407   3.3661

          k = 0.6250-0.1250 0.8750 (   359 PWs)   bands (ev):

    -2.4288  -0.8875   2.0337   3.1067

          k = 0.6250 0.3750 0.8750 (   357 PWs)   bands (ev):

    -3.6523   0.2040   2.7439   4.1092

          k = 0.3750 0.1250 0.6250 (   357 PWs)   bands (ev):

    -3.6523   0.2040   2.7439   4.1092

          k = 0.3750 0.6250 0.6250 (   359 PWs)   bands (ev):

    -3.4618  -0.6634   3.7516   4.4627

          k =-0.1250-0.8750 0.1250 (   358 PWs)   bands (ev):

    -2.5959  -0.7903   2.6407   3.3661

          k =-0.1250-0.3750 0.1250 (   349 PWs)   bands (ev):

    -5.0977   2.7885   4.7077   4.7725

          k =-0.3750 0.3750 0.3750 (   353 PWs)   bands (ev):

    -4.1676   0.1246   4.9271   4.9271

          k =-0.3750 0.8750 0.3750 (   361 PWs)   bands (ev):

    -2.9662  -0.5822   2.0912   4.1463

          k = 0.3750-0.3750 1.1250 (   361 PWs)   bands (ev):

    -2.9662  -0.5822   2.0912   4.1463

          k = 0.3750 0.1250 1.1250 (   359 PWs)   bands (ev):

    -2.4288  -0.8875   2.0337   3.1067

          k =-0.1250-0.1250 0.1250 (   338 PWs)   bands (ev):

    -5.6247   4.4074   5.7161   5.7161

          k =-0.1250 0.3750 0.1250 (   349 PWs)   bands (ev):

    -5.0977   2.7885   4.7077   4.7725

          k = 0.1250-0.3750 0.3750 (   352 PWs)   bands (ev):

    -4.5994   1.4124   3.7325   5.2338

          k = 0.1250 0.1250 0.3750 (   349 PWs)   bands (ev):

    -5.0977   2.7885   4.7077   4.7725

          k = 0.3750-0.1250 0.3750 (   352 PWs)   bands (ev):

    -4.5994   1.4124   3.7325   5.2338

          k = 0.3750 0.3750 0.3750 (   353 PWs)   bands (ev):

    -4.1676   0.1246   4.9271   4.9271

          k = 0.3750 0.1250 0.3750 (   352 PWs)   bands (ev):

    -4.5994   1.4124   3.7325   5.2338

          k = 0.3750 0.6250 0.3750 (   359 PWs)   bands (ev):

    -3.4618  -0.6634   3.7516   4.4627

          k =-0.6250 0.3750-0.3750 (   359 PWs)   bands (ev):

    -3.4618  -0.6634   3.7516   4.4627

          k =-0.6250 0.8750-0.3750 (   357 PWs)   bands (ev):

    -3.6523   0.2040   2.7439   4.1092

          k =-0.3750 0.6250-0.3750 (   359 PWs)   bands (ev):

    -3.4618  -0.6634   3.7516   4.4627

          k =-0.3750 1.1250-0.3750 (   361 PWs)   bands (ev):

    -2.9662  -0.5822   2.0912   4.1463

          k =-0.3750-0.6250-0.3750 (   359 PWs)   bands (ev):

    -3.4618  -0.6634   3.7516   4.4627

          k =-0.3750-0.1250-0.3750 (   352 PWs)   bands (ev):

    -4.5994   1.4124   3.7325   5.2338

          k =-0.3750 0.1250-0.1250 (   349 PWs)   bands (ev):

    -5.0977   2.7885   4.7077   4.7725

          k =-0.3750 0.6250-0.1250 (   357 PWs)   bands (ev):

    -3.6523   0.2040   2.7439   4.1092

          k =-0.1250 0.3750-0.1250 (   349 PWs)   bands (ev):

    -5.0977   2.7885   4.7077   4.7725

          k =-0.1250 0.8750-0.1250 (   358 PWs)   bands (ev):

    -2.5959  -0.7903   2.6407   3.3661

          k =-0.1250-0.3750-0.1250 (   349 PWs)   bands (ev):

    -5.0977   2.7885   4.7077   4.7725

          k =-0.1250 0.1250-0.1250 (   338 PWs)   bands (ev):

    -5.6247   4.4074   5.7161   5.7161

          k =-0.1250-0.6250 0.1250 (   349 PWs)   bands (ev):

    -4.0669   1.0757   3.3843   3.8332

          k =-0.1250-0.1250 0.1250 (   338 PWs)   bands (ev):

    -5.6247   4.4074   5.7161   5.7161

          k = 0.6250-0.1250-0.1250 (   349 PWs)   bands (ev):

    -4.0669   1.0757   3.3843   3.8332

          k = 0.6250 0.3750-0.1250 (   357 PWs)   bands (ev):

    -3.6523   0.2040   2.7439   4.1092

          k = 0.6250 0.1250 0.1250 (   349 PWs)   bands (ev):

    -4.0669   1.0757   3.3843   3.8332

          k = 0.6250 0.6250 0.1250 (   361 PWs)   bands (ev):

    -2.9662  -0.5822   2.0912   4.1463

          k =-0.8750 0.1250-0.6250 (   359 PWs)   bands (ev):

    -2.4288  -0.8875   2.0337   3.1067

          k =-0.8750 0.6250-0.6250 (   352 PWs)   bands (ev):

    -4.5994   1.4124   3.7325   5.2338

          k =-0.1250 0.6250-0.8750 (   359 PWs)   bands (ev):

    -2.4288  -0.8875   2.0337   3.1067

          k =-0.1250 1.1250-0.8750 (   358 PWs)   bands (ev):

    -2.5959  -0.7903   2.6407   3.3661

          k =-0.1250 0.8750-0.6250 (   359 PWs)   bands (ev):

    -2.4288  -0.8875   2.0337   3.1067

          k =-0.1250 1.3750-0.6250 (   361 PWs)   bands (ev):

    -2.9662  -0.5822   2.0912   4.1463

          k =-0.1250-0.8750-0.6250 (   359 PWs)   bands (ev):

    -2.4288  -0.8875   2.0337   3.1067

          k =-0.1250-0.3750-0.6250 (   357 PWs)   bands (ev):

    -3.6523   0.2040   2.7439   4.1092

          k = 0.8750-0.6250 0.1250 (   359 PWs)   bands (ev):

    -2.4288  -0.8875   2.0337   3.1067

          k = 0.8750-0.1250 0.1250 (   358 PWs)   bands (ev):

    -2.5959  -0.7903   2.6407   3.3661

          k =-0.6250-0.1250-0.3750 (   357 PWs)   bands (ev):

    -3.6523   0.2040   2.7439   4.1092

          k =-0.6250 0.3750-0.3750 (   359 PWs)   bands (ev):

    -3.4618  -0.6634   3.7516   4.4627

          k = 0.1250 0.3750-0.6250 (   357 PWs)   bands (ev):

    -3.6523   0.2040   2.7439   4.1092

          k = 0.1250 0.8750-0.6250 (   359 PWs)   bands (ev):

    -2.4288  -0.8875   2.0337   3.1067

          k = 0.1250 0.6250-0.3750 (   357 PWs)   bands (ev):

    -3.6523   0.2040   2.7439   4.1092

          k = 0.1250 1.1250-0.3750 (   359 PWs)   bands (ev):

    -2.4288  -0.8875   2.0337   3.1067

          k = 0.1250-0.6250-0.3750 (   357 PWs)   bands (ev):

    -3.6523   0.2040   2.7439   4.1092

          k = 0.1250-0.1250-0.3750 (   349 PWs)   bands (ev):

    -5.0977   2.7885   4.7077   4.7725

          k = 0.6250-0.3750-0.1250 (   357 PWs)   bands (ev):

    -3.6523   0.2040   2.7439   4.1092

          k = 0.6250 0.1250-0.1250 (   349 PWs)   bands (ev):

    -4.0669   1.0757   3.3843   3.8332

          k =-0.1250 0.8750 0.1250 (   358 PWs)   bands (ev):

    -2.5959  -0.7903   2.6407   3.3661

          k =-0.1250 1.3750 0.1250 (   349 PWs)   bands (ev):

    -4.0669   1.0757   3.3843   3.8332

          k =-0.8750-0.1250-0.1250 (   358 PWs)   bands (ev):

    -2.5959  -0.7903   2.6407   3.3661

          k =-0.8750 0.3750-0.1250 (   359 PWs)   bands (ev):

    -2.4288  -0.8875   2.0337   3.1067

          k =-0.8750 0.1250 0.1250 (   358 PWs)   bands (ev):

    -2.5959  -0.7903   2.6407   3.3661

          k =-0.8750 0.6250 0.1250 (   359 PWs)   bands (ev):

    -2.4288  -0.8875   2.0337   3.1067

          k =-0.3750-0.3750 0.3750 (   353 PWs)   bands (ev):

    -4.1676   0.1246   4.9271   4.9271

          k =-0.3750 0.1250 0.3750 (   352 PWs)   bands (ev):

    -4.5994   1.4124   3.7325   5.2338

          k =-1.1250 0.3750-0.3750 (   361 PWs)   bands (ev):

    -2.9662  -0.5822   2.0912   4.1463

          k =-1.1250 0.8750-0.3750 (   349 PWs)   bands (ev):

    -4.0669   1.0757   3.3843   3.8332

          k =-0.3750 1.1250-0.3750 (   361 PWs)   bands (ev):

    -2.9662  -0.5822   2.0912   4.1463

          k =-0.3750 1.6250-0.3750 (   353 PWs)   bands (ev):

    -4.1676   0.1246   4.9271   4.9271

          k =-0.3750-1.1250-0.3750 (   361 PWs)   bands (ev):

    -2.9662  -0.5822   2.0912   4.1463

          k =-0.3750-0.6250-0.3750 (   359 PWs)   bands (ev):

    -3.4618  -0.6634   3.7516   4.4627

     highest occupied level (ev):     5.7161

     Writing output data file silicon.10.328.save

                                                                                

     bravais-lattice index     =            2
     lattice parameter (alat)  =      10.3280  a.u.
     unit-cell volume          =     275.4157 (a.u.)^3
     number of atoms/cell      =            2
     number of atomic types    =            1
     kinetic-energy cut-off    =      18.0000  Ry
     charge density cut-off    =      72.0000  Ry
     convergence threshold     =      1.0E-12
     beta                      =       0.7000
     number of iterations used =            4
     Exchange-correlation      = SLA  PW   PBE  PBE ( 1  4  3  4 0 0)


     celldm(1)=   10.32800  celldm(2)=    0.00000  celldm(3)=    0.00000
     celldm(4)=    0.00000  celldm(5)=    0.00000  celldm(6)=    0.00000

     crystal axes: (cart. coord. in units of alat)
               a(1) = ( -0.5000  0.0000  0.5000 )  
               a(2) = (  0.0000  0.5000  0.5000 )  
               a(3) = ( -0.5000  0.5000  0.0000 )  

     reciprocal axes: (cart. coord. in units 2 pi/alat)
               b(1) = ( -1.0000 -1.0000  1.0000 )  
               b(2) = (  1.0000  1.0000  1.0000 )  
               b(3) = ( -1.0000  1.0000 -1.0000 )  


     Atoms inside the unit cell: 

     Cartesian axes

     site n.  atom      mass           positions (alat units)
        1     Si  28.0860   tau(    1) = (    0.00000    0.00000    0.00000  )
        2     Si  28.0860   tau(    2) = (    0.25000    0.25000    0.25000  )

     Computing dynamical matrix for 
                    q = (   0.0000000   0.5000000   0.0000000 )

      8 Sym.Ops. (no q -> -q+G )


     G cutoff =  194.5383  (    685 G-vectors)     FFT grid: ( 20, 20, 20)
     number of k points=    80

     PseudoPot. # 1 for Si read from file:
     /home/max/quantum_espresso/qe-6.1/pseudo/si_pbe_v1.uspp.F.UPF.txt
     MD5 check sum: a056efeee980c13900f22a371efd63c1
     Pseudo is Ultrasoft + core correction, Zval =  4.0
     Generated by new atomic code, or converted to UPF format
     Using radial grid of  899 points,  6 beta functions with: 
                l(1) =   0
                l(2) =   0
                l(3) =   1
                l(4) =   1
                l(5) =   2
                l(6) =   2
     Q(r) pseudized with  8 coefficients,  rinner =    0.900   0.900   0.900
                                                       0.900   0.900

     Mode symmetry, C_4v (4mm)  point group:


     Atomic displacements:
     There are   4 irreducible representations

     Representation     1      1 modes -A_1  G_1 D_1  To be done

     Representation     2      1 modes -B_2  G_4 D_2'  To be done

     Representation     3      2 modes -E    G_5 D_5  To be done

     Representation     4      2 modes -E    G_5 D_5  To be done



     Alpha used in Ewald sum =   0.7000
     PHONON       :    24.01s CPU        26.13s WALL



     Representation #  1 mode #   1

     Self-consistent Calculation

      iter #   1 total cpu time :    26.3 secs   av.it.:   5.8
      thresh= 1.000E-02 alpha_mix =  0.700 |ddv_scf|^2 =  2.975E-03

      iter #   2 total cpu time :    26.5 secs   av.it.:   7.7
      thresh= 5.455E-03 alpha_mix =  0.700 |ddv_scf|^2 =  3.911E-02

      iter #   3 total cpu time :    26.7 secs   av.it.:   6.8
      thresh= 1.000E-02 alpha_mix =  0.700 |ddv_scf|^2 =  1.375E-07

      iter #   4 total cpu time :    27.0 secs   av.it.:   8.2
      thresh= 3.708E-05 alpha_mix =  0.700 |ddv_scf|^2 =  1.244E-08

      iter #   5 total cpu time :    27.3 secs   av.it.:   7.8
      thresh= 1.115E-05 alpha_mix =  0.700 |ddv_scf|^2 =  7.416E-10

      iter #   6 total cpu time :    27.5 secs   av.it.:   7.8
      thresh= 2.723E-06 alpha_mix =  0.700 |ddv_scf|^2 =  2.716E-12

      iter #   7 total cpu time :    27.7 secs   av.it.:   7.9
      thresh= 1.648E-07 alpha_mix =  0.700 |ddv_scf|^2 =  5.405E-13

     End of self-consistent calculation

     Convergence has been achieved 


     Representation #  2 mode #   2

     Self-consistent Calculation

      iter #   1 total cpu time :    27.9 secs   av.it.:   4.9
      thresh= 1.000E-02 alpha_mix =  0.700 |ddv_scf|^2 =  5.511E-06

      iter #   2 total cpu time :    28.1 secs   av.it.:   8.7
      thresh= 2.348E-04 alpha_mix =  0.700 |ddv_scf|^2 =  1.332E-06

      iter #   3 total cpu time :    28.3 secs   av.it.:   8.5
      thresh= 1.154E-04 alpha_mix =  0.700 |ddv_scf|^2 =  4.252E-08

      iter #   4 total cpu time :    28.5 secs   av.it.:   8.2
      thresh= 2.062E-05 alpha_mix =  0.700 |ddv_scf|^2 =  6.905E-10

      iter #   5 total cpu time :    28.8 secs   av.it.:   8.5
      thresh= 2.628E-06 alpha_mix =  0.700 |ddv_scf|^2 =  6.863E-12

      iter #   6 total cpu time :    29.1 secs   av.it.:   7.9
      thresh= 2.620E-07 alpha_mix =  0.700 |ddv_scf|^2 =  6.979E-14

     End of self-consistent calculation

     Convergence has been achieved 


     Representation #  3 modes #   3  4

     Self-consistent Calculation

      iter #   1 total cpu time :    29.5 secs   av.it.:   5.0
      thresh= 1.000E-02 alpha_mix =  0.700 |ddv_scf|^2 =  1.025E-06

      iter #   2 total cpu time :    29.9 secs   av.it.:   9.8
      thresh= 1.012E-04 alpha_mix =  0.700 |ddv_scf|^2 =  1.268E-07

      iter #   3 total cpu time :    30.4 secs   av.it.:   9.5
      thresh= 3.561E-05 alpha_mix =  0.700 |ddv_scf|^2 =  6.678E-09

      iter #   4 total cpu time :    30.8 secs   av.it.:   8.8
      thresh= 8.172E-06 alpha_mix =  0.700 |ddv_scf|^2 =  9.360E-12

      iter #   5 total cpu time :    31.5 secs   av.it.:   9.1
      thresh= 3.059E-07 alpha_mix =  0.700 |ddv_scf|^2 =  2.851E-13

     End of self-consistent calculation

     Convergence has been achieved 


     Representation #  4 modes #   5  6

     Self-consistent Calculation

      iter #   1 total cpu time :    31.8 secs   av.it.:   5.0
      thresh= 1.000E-02 alpha_mix =  0.700 |ddv_scf|^2 =  9.082E-07

      iter #   2 total cpu time :    32.3 secs   av.it.:   9.8
      thresh= 9.530E-05 alpha_mix =  0.700 |ddv_scf|^2 =  1.150E-07

      iter #   3 total cpu time :    32.8 secs   av.it.:   9.5
      thresh= 3.391E-05 alpha_mix =  0.700 |ddv_scf|^2 =  6.137E-09

      iter #   4 total cpu time :    33.4 secs   av.it.:   8.9
      thresh= 7.834E-06 alpha_mix =  0.700 |ddv_scf|^2 =  1.402E-11

      iter #   5 total cpu time :    33.9 secs   av.it.:   9.2
      thresh= 3.744E-07 alpha_mix =  0.700 |ddv_scf|^2 =  4.313E-14

     End of self-consistent calculation

     Convergence has been achieved 

     Number of q in the star =    6
     List of q in the star:
          1   0.000000000   0.500000000   0.000000000
          2   0.000000000  -0.500000000   0.000000000
          3   0.500000000   0.000000000   0.000000000
          4   0.000000000   0.000000000   0.500000000
          5   0.000000000   0.000000000  -0.500000000
          6  -0.500000000   0.000000000   0.000000000

     Diagonalizing the dynamical matrix

     q = (    0.000000000   0.500000000   0.000000000 ) 

 **************************************************************************
     freq (    1) =       4.214489 [THz] =     140.580231 [cm-1]
     freq (    2) =       4.214489 [THz] =     140.580231 [cm-1]
     freq (    3) =       7.195488 [THz] =     240.015654 [cm-1]
     freq (    4) =      13.735991 [THz] =     458.183353 [cm-1]
     freq (    5) =      13.735991 [THz] =     458.183353 [cm-1]
     freq (    6) =      14.343233 [THz] =     478.438770 [cm-1]
 **************************************************************************

     Mode symmetry, C_4v (4mm)  point group:

     freq (  1 -  2) =        140.6  [cm-1]   --> E    G_5 D_5       
     freq (  3 -  3) =        240.0  [cm-1]   --> A_1  G_1 D_1       
     freq (  4 -  5) =        458.2  [cm-1]   --> E    G_5 D_5       
     freq (  6 -  6) =        478.4  [cm-1]   --> B_2  G_4 D_2'      

     Calculation of q =    0.7500000  -0.2500000   0.7500000

   Info: using nr1, nr2, nr3 values from input

   Info: using nr1, nr2, nr3 values from input

     Parallelization info
     --------------------
     sticks:   dense  smooth     PW     G-vecs:    dense   smooth      PW
     Min          63      63     30                  684      684     216
     Max          64      64     31                  688      688     218
     Sum         253     253    121                 2741     2741     869



     bravais-lattice index     =            2
     lattice parameter (alat)  =      10.3280  a.u.
     unit-cell volume          =     275.4157 (a.u.)^3
     number of atoms/cell      =            2
     number of atomic types    =            1
     number of electrons       =         8.00
     number of Kohn-Sham states=            4
     kinetic-energy cutoff     =      18.0000  Ry
     charge density cutoff     =      72.0000  Ry
     Exchange-correlation      = SLA  PW   PBE  PBE ( 1  4  3  4 0 0)

     celldm(1)=  10.328000  celldm(2)=   0.000000  celldm(3)=   0.000000
     celldm(4)=   0.000000  celldm(5)=   0.000000  celldm(6)=   0.000000

     crystal axes: (cart. coord. in units of alat)
               a(1) = (  -0.500000   0.000000   0.500000 )  
               a(2) = (   0.000000   0.500000   0.500000 )  
               a(3) = (  -0.500000   0.500000   0.000000 )  

     reciprocal axes: (cart. coord. in units 2 pi/alat)
               b(1) = ( -1.000000 -1.000000  1.000000 )  
               b(2) = (  1.000000  1.000000  1.000000 )  
               b(3) = ( -1.000000  1.000000 -1.000000 )  


     PseudoPot. # 1 for Si read from file:
     /home/max/quantum_espresso/qe-6.1/pseudo/si_pbe_v1.uspp.F.UPF.txt
     MD5 check sum: a056efeee980c13900f22a371efd63c1
     Pseudo is Ultrasoft + core correction, Zval =  4.0
     Generated by new atomic code, or converted to UPF format
     Using radial grid of  899 points,  6 beta functions with: 
                l(1) =   0
                l(2) =   0
                l(3) =   1
                l(4) =   1
                l(5) =   2
                l(6) =   2
     Q(r) pseudized with  8 coefficients,  rinner =    0.900   0.900   0.900
                                                       0.900   0.900

     atomic species   valence    mass     pseudopotential
        Si             4.00    28.08600     Si( 1.00)

     48 Sym. Ops., with inversion, found



   Cartesian axes

     site n.     atom                  positions (alat units)
         1           Si  tau(   1) = (   0.0000000   0.0000000   0.0000000  )
         2           Si  tau(   2) = (   0.2500000   0.2500000   0.2500000  )

     number of k points=   288

     Number of k-points >= 100: set verbosity='high' to print them.

     Dense  grid:     2741 G-vectors     FFT dimensions: (  20,  20,  20)

     Estimated max dynamical RAM per process >       0.33MB

     Estimated total allocated dynamical RAM >       1.30MB

     Check: negative/imaginary core charge=   -0.000005    0.000000

     The potential is recalculated from file :
     ./_ph0/silicon.10.328.save/charge-density.dat

     Starting wfc are    8 atomic wfcs

     Band Structure Calculation
     Davidson diagonalization with overlap

     ethr =  1.25E-10,  avg # of iterations = 11.6

     total cpu time spent up to now is        5.0 secs

     End of band structure calculation

     Number of k-points >= 100: set verbosity='high' to print the bands.

     highest occupied level (ev):     5.7161

     Writing output data file silicon.10.328.save

                                                                                

     bravais-lattice index     =            2
     lattice parameter (alat)  =      10.3280  a.u.
     unit-cell volume          =     275.4157 (a.u.)^3
     number of atoms/cell      =            2
     number of atomic types    =            1
     kinetic-energy cut-off    =      18.0000  Ry
     charge density cut-off    =      72.0000  Ry
     convergence threshold     =      1.0E-12
     beta                      =       0.7000
     number of iterations used =            4
     Exchange-correlation      = SLA  PW   PBE  PBE ( 1  4  3  4 0 0)


     celldm(1)=   10.32800  celldm(2)=    0.00000  celldm(3)=    0.00000
     celldm(4)=    0.00000  celldm(5)=    0.00000  celldm(6)=    0.00000

     crystal axes: (cart. coord. in units of alat)
               a(1) = ( -0.5000  0.0000  0.5000 )  
               a(2) = (  0.0000  0.5000  0.5000 )  
               a(3) = ( -0.5000  0.5000  0.0000 )  

     reciprocal axes: (cart. coord. in units 2 pi/alat)
               b(1) = ( -1.0000 -1.0000  1.0000 )  
               b(2) = (  1.0000  1.0000  1.0000 )  
               b(3) = ( -1.0000  1.0000 -1.0000 )  


     Atoms inside the unit cell: 

     Cartesian axes

     site n.  atom      mass           positions (alat units)
        1     Si  28.0860   tau(    1) = (    0.00000    0.00000    0.00000  )
        2     Si  28.0860   tau(    2) = (    0.25000    0.25000    0.25000  )

     Computing dynamical matrix for 
                    q = (   0.7500000  -0.2500000   0.7500000 )

      2 Sym.Ops. (no q -> -q+G )


     G cutoff =  194.5383  (    685 G-vectors)     FFT grid: ( 20, 20, 20)
     number of k points=   288

     PseudoPot. # 1 for Si read from file:
     /home/max/quantum_espresso/qe-6.1/pseudo/si_pbe_v1.uspp.F.UPF.txt
     MD5 check sum: a056efeee980c13900f22a371efd63c1
     Pseudo is Ultrasoft + core correction, Zval =  4.0
     Generated by new atomic code, or converted to UPF format
     Using radial grid of  899 points,  6 beta functions with: 
                l(1) =   0
                l(2) =   0
                l(3) =   1
                l(4) =   1
                l(5) =   2
                l(6) =   2
     Q(r) pseudized with  8 coefficients,  rinner =    0.900   0.900   0.900
                                                       0.900   0.900

     Mode symmetry, C_s (m)     point group:


     Atomic displacements:
     There are   6 irreducible representations

     Representation     1      1 modes -A'  To be done

     Representation     2      1 modes -A'  To be done

     Representation     3      1 modes -A'  To be done

     Representation     4      1 modes -A'  To be done

     Representation     5      1 modes -A''  To be done

     Representation     6      1 modes -A''  To be done



     Alpha used in Ewald sum =   0.7000
     PHONON       :    33.87s CPU        37.14s WALL



     Representation #  1 mode #   1

     Self-consistent Calculation

      iter #   1 total cpu time :    37.7 secs   av.it.:   5.3
      thresh= 1.000E-02 alpha_mix =  0.700 |ddv_scf|^2 =  6.126E-05

      iter #   2 total cpu time :    38.5 secs   av.it.:   8.9
      thresh= 7.827E-04 alpha_mix =  0.700 |ddv_scf|^2 =  1.601E-04

      iter #   3 total cpu time :    39.4 secs   av.it.:   7.6
      thresh= 1.265E-03 alpha_mix =  0.700 |ddv_scf|^2 =  1.140E-06

      iter #   4 total cpu time :    40.1 secs   av.it.:   8.4
      thresh= 1.068E-04 alpha_mix =  0.700 |ddv_scf|^2 =  5.620E-08

      iter #   5 total cpu time :    40.9 secs   av.it.:   8.3
      thresh= 2.371E-05 alpha_mix =  0.700 |ddv_scf|^2 =  7.250E-09

      iter #   6 total cpu time :    41.8 secs   av.it.:   8.5
      thresh= 8.515E-06 alpha_mix =  0.700 |ddv_scf|^2 =  7.895E-11

      iter #   7 total cpu time :    42.6 secs   av.it.:   8.8
      thresh= 8.885E-07 alpha_mix =  0.700 |ddv_scf|^2 =  2.830E-12

      iter #   8 total cpu time :    43.5 secs   av.it.:   8.6
      thresh= 1.682E-07 alpha_mix =  0.700 |ddv_scf|^2 =  1.645E-13

     End of self-consistent calculation

     Convergence has been achieved 


     Representation #  2 mode #   2

     Self-consistent Calculation

      iter #   1 total cpu time :    44.2 secs   av.it.:   5.4
      thresh= 1.000E-02 alpha_mix =  0.700 |ddv_scf|^2 =  1.091E-04

      iter #   2 total cpu time :    45.1 secs   av.it.:   8.7
      thresh= 1.045E-03 alpha_mix =  0.700 |ddv_scf|^2 =  3.108E-04

      iter #   3 total cpu time :    45.8 secs   av.it.:   7.4
      thresh= 1.763E-03 alpha_mix =  0.700 |ddv_scf|^2 =  7.811E-07

      iter #   4 total cpu time :    46.5 secs   av.it.:   8.6
      thresh= 8.838E-05 alpha_mix =  0.700 |ddv_scf|^2 =  5.574E-08

      iter #   5 total cpu time :    47.5 secs   av.it.:   8.2
      thresh= 2.361E-05 alpha_mix =  0.700 |ddv_scf|^2 =  1.021E-08

      iter #   6 total cpu time :    48.2 secs   av.it.:   8.5
      thresh= 1.010E-05 alpha_mix =  0.700 |ddv_scf|^2 =  7.862E-11

      iter #   7 total cpu time :    49.2 secs   av.it.:   8.8
      thresh= 8.867E-07 alpha_mix =  0.700 |ddv_scf|^2 =  2.538E-12

      iter #   8 total cpu time :    49.9 secs   av.it.:   8.7
      thresh= 1.593E-07 alpha_mix =  0.700 |ddv_scf|^2 =  6.637E-13

     End of self-consistent calculation

     Convergence has been achieved 


     Representation #  3 mode #   3

     Self-consistent Calculation

      iter #   1 total cpu time :    50.6 secs   av.it.:   5.3
      thresh= 1.000E-02 alpha_mix =  0.700 |ddv_scf|^2 =  8.554E-05

      iter #   2 total cpu time :    51.5 secs   av.it.:   8.8
      thresh= 9.249E-04 alpha_mix =  0.700 |ddv_scf|^2 =  2.281E-04

      iter #   3 total cpu time :    52.2 secs   av.it.:   7.4
      thresh= 1.510E-03 alpha_mix =  0.700 |ddv_scf|^2 =  1.335E-06

      iter #   4 total cpu time :    53.0 secs   av.it.:   8.2
      thresh= 1.155E-04 alpha_mix =  0.700 |ddv_scf|^2 =  5.681E-08

      iter #   5 total cpu time :    53.9 secs   av.it.:   8.4
      thresh= 2.383E-05 alpha_mix =  0.700 |ddv_scf|^2 =  1.046E-08

      iter #   6 total cpu time :    54.6 secs   av.it.:   8.4
      thresh= 1.023E-05 alpha_mix =  0.700 |ddv_scf|^2 =  4.609E-11

      iter #   7 total cpu time :    55.6 secs   av.it.:   8.7
      thresh= 6.789E-07 alpha_mix =  0.700 |ddv_scf|^2 =  1.559E-12

      iter #   8 total cpu time :    56.4 secs   av.it.:   8.8
      thresh= 1.248E-07 alpha_mix =  0.700 |ddv_scf|^2 =  2.076E-13

     End of self-consistent calculation

     Convergence has been achieved 


     Representation #  4 mode #   4

     Self-consistent Calculation

      iter #   1 total cpu time :    57.2 secs   av.it.:   5.2
      thresh= 1.000E-02 alpha_mix =  0.700 |ddv_scf|^2 =  3.774E-05

      iter #   2 total cpu time :    58.0 secs   av.it.:   8.9
[...]
        k(   59) = (  -0.8750000   0.1250000  -0.1250000), wk =   0.0625000
        k(   60) = (  -1.3750000  -0.8750000  -0.1250000), wk =   0.0000000
        k(   61) = (  -1.1250000   0.3750000  -0.3750000), wk =   0.0625000
        k(   62) = (  -1.6250000  -0.6250000  -0.3750000), wk =   0.0000000
        k(   63) = (  -0.3750000   0.3750000   1.1250000), wk =   0.0625000
        k(   64) = (  -0.8750000  -0.6250000   1.1250000), wk =   0.0000000

     Dense  grid:     2741 G-vectors     FFT dimensions: (  20,  20,  20)

     Estimated max dynamical RAM per process >       0.33MB

     Estimated total allocated dynamical RAM >       1.30MB

     Check: negative/imaginary core charge=   -0.000005    0.000000

     The potential is recalculated from file :
     ./_ph0/silicon.10.328.save/charge-density.dat

     Starting wfc are    8 atomic wfcs

     Band Structure Calculation
     Davidson diagonalization with overlap

     ethr =  1.25E-10,  avg # of iterations = 11.6

     total cpu time spent up to now is        7.7 secs

     End of band structure calculation

          k =-0.1250 0.1250 0.1250 (   338 PWs)   bands (ev):

    -5.6247   4.4074   5.7161   5.7161

          k =-0.6250-0.8750 0.1250 (   359 PWs)   bands (ev):

    -2.4288  -0.8875   2.0337   3.1067

          k =-0.3750 0.3750-0.1250 (   352 PWs)   bands (ev):

    -4.5994   1.4124   3.7325   5.2338

          k =-0.8750-0.6250-0.1250 (   359 PWs)   bands (ev):

    -2.4288  -0.8875   2.0337   3.1067

          k = 0.3750-0.3750 0.6250 (   359 PWs)   bands (ev):

    -3.4618  -0.6634   3.7516   4.4627

          k =-0.1250-1.3750 0.6250 (   361 PWs)   bands (ev):

    -2.9662  -0.5822   2.0912   4.1463

          k = 0.1250-0.1250 0.3750 (   349 PWs)   bands (ev):

    -5.0977   2.7885   4.7077   4.7725

          k =-0.3750-1.1250 0.3750 (   361 PWs)   bands (ev):

    -2.9662  -0.5822   2.0912   4.1463

          k =-0.1250 0.6250 0.1250 (   349 PWs)   bands (ev):

    -4.0669   1.0757   3.3843   3.8332

          k =-0.6250-0.3750 0.1250 (   357 PWs)   bands (ev):

    -3.6523   0.2040   2.7439   4.1092

          k = 0.6250-0.1250 0.8750 (   359 PWs)   bands (ev):

    -2.4288  -0.8875   2.0337   3.1067

          k = 0.1250-1.1250 0.8750 (   358 PWs)   bands (ev):

    -2.5959  -0.7903   2.6407   3.3661

          k = 0.3750 0.1250 0.6250 (   357 PWs)   bands (ev):

    -3.6523   0.2040   2.7439   4.1092

          k =-0.1250-0.8750 0.6250 (   359 PWs)   bands (ev):

    -2.4288  -0.8875   2.0337   3.1067

          k =-0.1250-0.8750 0.1250 (   358 PWs)   bands (ev):

    -2.5959  -0.7903   2.6407   3.3661

          k =-0.6250-1.8750 0.1250 (   349 PWs)   bands (ev):

    -4.0669   1.0757   3.3843   3.8332

          k =-0.3750 0.3750 0.3750 (   353 PWs)   bands (ev):

    -4.1676   0.1246   4.9271   4.9271

          k =-0.8750-0.6250 0.3750 (   357 PWs)   bands (ev):

    -3.6523   0.2040   2.7439   4.1092

          k = 0.3750-0.3750 1.1250 (   361 PWs)   bands (ev):

    -2.9662  -0.5822   2.0912   4.1463

          k =-0.1250-1.3750 1.1250 (   359 PWs)   bands (ev):

    -2.4288  -0.8875   2.0337   3.1067

          k = 0.1250-0.3750 0.3750 (   352 PWs)   bands (ev):

    -4.5994   1.4124   3.7325   5.2338

          k =-0.3750-1.3750 0.3750 (   359 PWs)   bands (ev):

    -3.4618  -0.6634   3.7516   4.4627

          k = 0.3750-0.3750-0.1250 (   352 PWs)   bands (ev):

    -4.5994   1.4124   3.7325   5.2338

          k =-0.1250-1.3750-0.1250 (   349 PWs)   bands (ev):

    -4.0669   1.0757   3.3843   3.8332

          k =-0.6250 0.3750-0.3750 (   359 PWs)   bands (ev):

    -3.4618  -0.6634   3.7516   4.4627

          k =-1.1250-0.6250-0.3750 (   357 PWs)   bands (ev):

    -3.6523   0.2040   2.7439   4.1092

          k =-0.3750 0.3750 0.6250 (   359 PWs)   bands (ev):

    -3.4618  -0.6634   3.7516   4.4627

          k =-0.8750-0.6250 0.6250 (   352 PWs)   bands (ev):

    -4.5994   1.4124   3.7325   5.2338

          k =-0.3750 0.1250-0.1250 (   349 PWs)   bands (ev):

    -5.0977   2.7885   4.7077   4.7725

          k =-0.8750-0.8750-0.1250 (   358 PWs)   bands (ev):

    -2.5959  -0.7903   2.6407   3.3661

          k =-0.1250 0.1250 0.3750 (   349 PWs)   bands (ev):

    -5.0977   2.7885   4.7077   4.7725

          k =-0.6250-0.8750 0.3750 (   357 PWs)   bands (ev):

    -3.6523   0.2040   2.7439   4.1092

          k = 0.1250 0.6250-0.1250 (   349 PWs)   bands (ev):

    -4.0669   1.0757   3.3843   3.8332

          k =-0.3750-0.3750-0.1250 (   352 PWs)   bands (ev):

    -4.5994   1.4124   3.7325   5.2338

          k = 0.6250 0.1250-0.1250 (   349 PWs)   bands (ev):

    -4.0669   1.0757   3.3843   3.8332

          k = 0.1250-0.8750-0.1250 (   358 PWs)   bands (ev):

    -2.5959  -0.7903   2.6407   3.3661

          k =-0.8750 0.1250-0.6250 (   359 PWs)   bands (ev):

    -2.4288  -0.8875   2.0337   3.1067

          k =-1.3750-0.8750-0.6250 (   352 PWs)   bands (ev):

    -4.5994   1.4124   3.7325   5.2338

          k = 0.8750-0.1250 0.6250 (   359 PWs)   bands (ev):

    -2.4288  -0.8875   2.0337   3.1067

          k = 0.3750-1.1250 0.6250 (   357 PWs)   bands (ev):

    -3.6523   0.2040   2.7439   4.1092

          k =-0.6250 0.1250 0.8750 (   359 PWs)   bands (ev):

    -2.4288  -0.8875   2.0337   3.1067

          k =-1.1250-0.8750 0.8750 (   338 PWs)   bands (ev):

    -5.6247   4.4074   5.7161   5.7161

          k =-0.1250 0.8750 0.6250 (   359 PWs)   bands (ev):

    -2.4288  -0.8875   2.0337   3.1067

          k =-0.6250-0.1250 0.6250 (   361 PWs)   bands (ev):

    -2.9662  -0.5822   2.0912   4.1463

          k = 0.1250 0.8750-0.6250 (   359 PWs)   bands (ev):

    -2.4288  -0.8875   2.0337   3.1067

          k =-0.3750-0.1250-0.6250 (   357 PWs)   bands (ev):

    -3.6523   0.2040   2.7439   4.1092

          k =-0.6250-0.1250-0.3750 (   357 PWs)   bands (ev):

    -3.6523   0.2040   2.7439   4.1092

          k =-1.1250-1.1250-0.3750 (   349 PWs)   bands (ev):

    -4.0669   1.0757   3.3843   3.8332

          k = 0.6250 0.1250 0.3750 (   357 PWs)   bands (ev):

    -3.6523   0.2040   2.7439   4.1092

          k = 0.1250-0.8750 0.3750 (   359 PWs)   bands (ev):

    -2.4288  -0.8875   2.0337   3.1067

          k =-0.3750-0.1250 0.6250 (   357 PWs)   bands (ev):

    -3.6523   0.2040   2.7439   4.1092

          k =-0.8750-1.1250 0.6250 (   349 PWs)   bands (ev):

    -5.0977   2.7885   4.7077   4.7725

          k = 0.1250 0.6250 0.3750 (   357 PWs)   bands (ev):

    -3.6523   0.2040   2.7439   4.1092

          k =-0.3750-0.3750 0.3750 (   353 PWs)   bands (ev):

    -4.1676   0.1246   4.9271   4.9271

          k =-0.1250 0.6250-0.3750 (   357 PWs)   bands (ev):

    -3.6523   0.2040   2.7439   4.1092

          k =-0.6250-0.3750-0.3750 (   359 PWs)   bands (ev):

    -3.4618  -0.6634   3.7516   4.4627

          k = 0.1250-0.8750-0.1250 (   358 PWs)   bands (ev):

    -2.5959  -0.7903   2.6407   3.3661

          k =-0.3750-1.8750-0.1250 (   349 PWs)   bands (ev):

    -5.0977   2.7885   4.7077   4.7725

          k =-0.8750 0.1250-0.1250 (   358 PWs)   bands (ev):

    -2.5959  -0.7903   2.6407   3.3661

          k =-1.3750-0.8750-0.1250 (   359 PWs)   bands (ev):

    -2.4288  -0.8875   2.0337   3.1067

          k =-1.1250 0.3750-0.3750 (   361 PWs)   bands (ev):

    -2.9662  -0.5822   2.0912   4.1463

          k =-1.6250-0.6250-0.3750 (   359 PWs)   bands (ev):

    -3.4618  -0.6634   3.7516   4.4627

          k =-0.3750 0.3750 1.1250 (   361 PWs)   bands (ev):

    -2.9662  -0.5822   2.0912   4.1463

          k =-0.8750-0.6250 1.1250 (   349 PWs)   bands (ev):

    -5.0977   2.7885   4.7077   4.7725

     highest occupied level (ev):     5.7161

     Writing output data file silicon.10.328.save

                                                                                

     bravais-lattice index     =            2
     lattice parameter (alat)  =      10.3280  a.u.
     unit-cell volume          =     275.4157 (a.u.)^3
     number of atoms/cell      =            2
     number of atomic types    =            1
     kinetic-energy cut-off    =      18.0000  Ry
     charge density cut-off    =      72.0000  Ry
     convergence threshold     =      1.0E-12
     beta                      =       0.7000
     number of iterations used =            4
     Exchange-correlation      = SLA  PW   PBE  PBE ( 1  4  3  4 0 0)


     celldm(1)=   10.32800  celldm(2)=    0.00000  celldm(3)=    0.00000
     celldm(4)=    0.00000  celldm(5)=    0.00000  celldm(6)=    0.00000

     crystal axes: (cart. coord. in units of alat)
               a(1) = ( -0.5000  0.0000  0.5000 )  
               a(2) = (  0.0000  0.5000  0.5000 )  
               a(3) = ( -0.5000  0.5000  0.0000 )  

     reciprocal axes: (cart. coord. in units 2 pi/alat)
               b(1) = ( -1.0000 -1.0000  1.0000 )  
               b(2) = (  1.0000  1.0000  1.0000 )  
               b(3) = ( -1.0000  1.0000 -1.0000 )  


     Atoms inside the unit cell: 

     Cartesian axes

     site n.  atom      mass           positions (alat units)
        1     Si  28.0860   tau(    1) = (    0.00000    0.00000    0.00000  )
        2     Si  28.0860   tau(    2) = (    0.25000    0.25000    0.25000  )

     Computing dynamical matrix for 
                    q = (  -0.5000000  -1.0000000   0.0000000 )

      8 Sym.Ops. (no q -> -q+G )


     G cutoff =  194.5383  (    685 G-vectors)     FFT grid: ( 20, 20, 20)
     number of k points=    64

     PseudoPot. # 1 for Si read from file:
     /home/max/quantum_espresso/qe-6.1/pseudo/si_pbe_v1.uspp.F.UPF.txt
     MD5 check sum: a056efeee980c13900f22a371efd63c1
     Pseudo is Ultrasoft + core correction, Zval =  4.0
     Generated by new atomic code, or converted to UPF format
     Using radial grid of  899 points,  6 beta functions with: 
                l(1) =   0
                l(2) =   0
                l(3) =   1
                l(4) =   1
                l(5) =   2
                l(6) =   2
     Q(r) pseudized with  8 coefficients,  rinner =    0.900   0.900   0.900
                                                       0.900   0.900


     Atomic displacements:
     There are   3 irreducible representations

     Representation     1      2 modes -  To be done

     Representation     2      2 modes -  To be done

     Representation     3      2 modes -  To be done



     Alpha used in Ewald sum =   0.7000
     PHONON       :  1m24.91s CPU     1m33.49s WALL



     Representation #  1 modes #   1  2

     Self-consistent Calculation

      iter #   1 total cpu time :    93.8 secs   av.it.:   5.3
      thresh= 1.000E-02 alpha_mix =  0.700 |ddv_scf|^2 =  6.343E-06

      iter #   2 total cpu time :    94.1 secs   av.it.:   9.9
      thresh= 2.518E-04 alpha_mix =  0.700 |ddv_scf|^2 =  3.436E-06

      iter #   3 total cpu time :    94.5 secs   av.it.:   9.2
      thresh= 1.854E-04 alpha_mix =  0.700 |ddv_scf|^2 =  8.420E-09

      iter #   4 total cpu time :    94.9 secs   av.it.:   9.1
      thresh= 9.176E-06 alpha_mix =  0.700 |ddv_scf|^2 =  1.908E-11

      iter #   5 total cpu time :    95.4 secs   av.it.:   9.1
      thresh= 4.368E-07 alpha_mix =  0.700 |ddv_scf|^2 =  5.255E-13

     End of self-consistent calculation

     Convergence has been achieved 


     Representation #  2 modes #   3  4

     Self-consistent Calculation

      iter #   1 total cpu time :    95.7 secs   av.it.:   5.2
      thresh= 1.000E-02 alpha_mix =  0.700 |ddv_scf|^2 =  9.824E-06

      iter #   2 total cpu time :    96.1 secs   av.it.:   9.9
      thresh= 3.134E-04 alpha_mix =  0.700 |ddv_scf|^2 =  1.305E-05

      iter #   3 total cpu time :    96.4 secs   av.it.:   9.1
      thresh= 3.612E-04 alpha_mix =  0.700 |ddv_scf|^2 =  9.896E-09

      iter #   4 total cpu time :    96.8 secs   av.it.:   8.9
      thresh= 9.948E-06 alpha_mix =  0.700 |ddv_scf|^2 =  8.044E-11

      iter #   5 total cpu time :    97.3 secs   av.it.:   9.4
      thresh= 8.969E-07 alpha_mix =  0.700 |ddv_scf|^2 =  1.729E-12

      iter #   6 total cpu time :    97.7 secs   av.it.:   9.1
      thresh= 1.315E-07 alpha_mix =  0.700 |ddv_scf|^2 =  1.446E-14

     End of self-consistent calculation

     Convergence has been achieved 


     Representation #  3 modes #   5  6

     Self-consistent Calculation

      iter #   1 total cpu time :    98.0 secs   av.it.:   5.1
      thresh= 1.000E-02 alpha_mix =  0.700 |ddv_scf|^2 =  2.654E-06

      iter #   2 total cpu time :    98.3 secs   av.it.:   9.7
      thresh= 1.629E-04 alpha_mix =  0.700 |ddv_scf|^2 =  1.450E-06

      iter #   3 total cpu time :    98.7 secs   av.it.:   9.1
      thresh= 1.204E-04 alpha_mix =  0.700 |ddv_scf|^2 =  8.295E-09

      iter #   4 total cpu time :    99.2 secs   av.it.:   8.8
      thresh= 9.108E-06 alpha_mix =  0.700 |ddv_scf|^2 =  4.265E-11

      iter #   5 total cpu time :    99.6 secs   av.it.:   9.1
      thresh= 6.530E-07 alpha_mix =  0.700 |ddv_scf|^2 =  6.987E-13

     End of self-consistent calculation

     Convergence has been achieved 

     Number of q in the star =    6
     List of q in the star:
          1  -0.500000000  -1.000000000   0.000000000
          2   0.000000000   1.000000000   0.500000000
          3   0.000000000  -1.000000000  -0.500000000
          4   0.500000000   1.000000000   0.000000000
          5  -1.000000000  -0.500000000   0.000000000
          6   0.000000000  -0.500000000  -1.000000000

     Diagonalizing the dynamical matrix

     q = (   -0.500000000  -1.000000000   0.000000000 ) 

 **************************************************************************
     freq (    1) =       6.989669 [THz] =     233.150269 [cm-1]
     freq (    2) =       6.989669 [THz] =     233.150269 [cm-1]
     freq (    3) =      10.797134 [THz] =     360.153625 [cm-1]
     freq (    4) =      10.797134 [THz] =     360.153625 [cm-1]
     freq (    5) =      13.812140 [THz] =     460.723401 [cm-1]
     freq (    6) =      13.812140 [THz] =     460.723401 [cm-1]
 **************************************************************************

     init_run     :      0.58s CPU      0.64s WALL (       7 calls)
     electrons    :      5.66s CPU      6.30s WALL (       7 calls)

     Called by init_run:
     wfcinit      :      0.00s CPU      0.00s WALL (       7 calls)
     potinit      :      0.02s CPU      0.02s WALL (       7 calls)

     Called by electrons:
     c_bands      :      5.66s CPU      6.29s WALL (       7 calls)
     v_of_rho     :      0.01s CPU      0.01s WALL (       8 calls)
     newd         :      0.03s CPU      0.04s WALL (       8 calls)

     Called by c_bands:
     init_us_2    :      0.68s CPU      0.74s WALL (   17588 calls)
     cegterg      :      4.71s CPU      5.15s WALL (     796 calls)

     Called by sum_band:

     Called by *egterg:
     h_psi        :     49.66s CPU     54.71s WALL (  152221 calls)
     s_psi        :      5.81s CPU      6.37s WALL (  309162 calls)
     g_psi        :      0.03s CPU      0.03s WALL (    9268 calls)
     cdiaghg      :      0.49s CPU      0.56s WALL (   10064 calls)

     Called by h_psi:
     h_psi:pot    :     49.47s CPU     54.51s WALL (  152221 calls)
     h_psi:calbec :      5.28s CPU      5.92s WALL (  152221 calls)
     vloc_psi     :     41.07s CPU     45.19s WALL (  152221 calls)
     add_vuspsi   :      2.90s CPU      3.17s WALL (  152221 calls)

     General routines
     calbec       :     11.60s CPU     12.96s WALL (  345534 calls)
     fft          :      0.68s CPU      0.76s WALL (    5239 calls)
     ffts         :      0.19s CPU      0.20s WALL (    2748 calls)
     fftw         :     48.05s CPU     53.04s WALL ( 1378174 calls)
     davcio       :      0.31s CPU      0.36s WALL (   79045 calls)

     Parallel routines
     fft_scatter  :     16.04s CPU     18.27s WALL ( 1386161 calls)

     PHONON       :  1m30.35s CPU     1m39.61s WALL

     INITIALIZATION: 
     phq_setup    :      0.05s CPU      0.06s WALL (       8 calls)
     phq_init     :      2.32s CPU      2.36s WALL (       8 calls)

     phq_init     :      2.32s CPU      2.36s WALL (       8 calls)
     set_drhoc    :      0.28s CPU      0.29s WALL (      24 calls)
     init_vloc    :      0.01s CPU      0.01s WALL (       8 calls)
     init_us_1    :      0.53s CPU      0.56s WALL (       8 calls)
     newd         :      0.03s CPU      0.04s WALL (       8 calls)
     dvanqq       :      0.25s CPU      0.25s WALL (       8 calls)
     drho         :      1.12s CPU      1.15s WALL (       8 calls)

     DYNAMICAL MATRIX:
     dynmat0      :      0.70s CPU      0.71s WALL (       8 calls)
     phqscf       :     79.06s CPU     87.34s WALL (       8 calls)
     dynmatrix    :      0.01s CPU      0.02s WALL (       8 calls)

     phqscf       :     79.06s CPU     87.34s WALL (       8 calls)
     solve_linter :     78.20s CPU     86.40s WALL (      32 calls)
     drhodv       :      0.63s CPU      0.70s WALL (      32 calls)

     dynmat0      :      0.70s CPU      0.71s WALL (       8 calls)
     dynmat_us    :      0.47s CPU      0.47s WALL (       8 calls)
     d2ionq       :      0.01s CPU      0.01s WALL (       8 calls)
     dynmatcc     :      0.21s CPU      0.21s WALL (       8 calls)

     dynmat_us    :      0.47s CPU      0.47s WALL (       8 calls)
     addusdynmat  :      0.00s CPU      0.00s WALL (       8 calls)

     phqscf       :     79.06s CPU     87.34s WALL (       8 calls)
     solve_linter :     78.20s CPU     86.40s WALL (      32 calls)

     solve_linter :     78.20s CPU     86.40s WALL (      32 calls)
     dvqpsi_us    :      1.84s CPU      2.02s WALL (    2508 calls)
     ortho        :      1.28s CPU      1.43s WALL (   15550 calls)
     cgsolve      :     61.29s CPU     67.66s WALL (   15550 calls)
     incdrhoscf   :      5.43s CPU      6.09s WALL (   15550 calls)
     addusddens   :      1.19s CPU      1.26s WALL (     228 calls)
     vpsifft      :      3.96s CPU      4.41s WALL (   12922 calls)
     dv_of_drho   :      0.25s CPU      0.28s WALL (     295 calls)
     mix_pot      :      0.10s CPU      0.12s WALL (     201 calls)
     psymdvscf    :      0.80s CPU      0.85s WALL (     196 calls)
     newdq        :      1.35s CPU      1.49s WALL (     201 calls)
     adddvscf     :      0.47s CPU      0.52s WALL (   13042 calls)
     drhodvus     :      0.00s CPU      0.00s WALL (      32 calls)

     dvqpsi_us    :      1.84s CPU      2.02s WALL (    2508 calls)
     dvqpsi_us_on :      0.83s CPU      0.89s WALL (    2508 calls)

     cgsolve      :     61.29s CPU     67.66s WALL (   15550 calls)
     ch_psi       :     58.72s CPU     64.77s WALL (  141361 calls)

     ch_psi       :     58.72s CPU     64.77s WALL (  141361 calls)
     h_psi        :     49.66s CPU     54.71s WALL (  152221 calls)
     last         :      9.96s CPU     11.09s WALL (  141361 calls)

     h_psi        :     49.66s CPU     54.71s WALL (  152221 calls)
     add_vuspsi   :      2.90s CPU      3.17s WALL (  152221 calls)

     incdrhoscf   :      5.43s CPU      6.09s WALL (   15550 calls)
     addusdbec    :      0.79s CPU      0.90s WALL (   17998 calls)

     drhodvus     :      0.00s CPU      0.00s WALL (      32 calls)

      General routines
     calbec       :     11.60s CPU     12.96s WALL (  345534 calls)
     fft          :      0.68s CPU      0.76s WALL (    5239 calls)
     ffts         :      0.19s CPU      0.20s WALL (    2748 calls)
     fftw         :     48.05s CPU     53.04s WALL ( 1378174 calls)
     davcio       :      0.31s CPU      0.36s WALL (   79045 calls)
     write_rec    :      0.23s CPU      0.26s WALL (     233 calls)


     PHONON       :  1m30.35s CPU     1m39.61s WALL


   This run was terminated on:  12:15:50   9Nov2017            

=------------------------------------------------------------------------------=
   JOB DONE.
=------------------------------------------------------------------------------=
