
     Program PWSCF v.6.1 (svn rev. 13369) starts on 10Nov2017 at 10:30:50 

     This program is part of the open-source Quantum ESPRESSO suite
     for quantum simulation of materials; please cite
         "P. Giannozzi et al., J. Phys.:Condens. Matter 21 395502 (2009);
          URL http://www.quantum-espresso.org", 
     in publications or presentations arising from this work. More details at
     http://www.quantum-espresso.org/quote

     Parallel version (MPI), running on     4 processors
     R & G space division:  proc/nbgrp/npool/nimage =       4
     Waiting for input...
     Reading input from standard input
     Message from routine read_cards :
     DEPRECATED: no units specified in ATOMIC_POSITIONS card
     Message from routine read_cards :
     ATOMIC_POSITIONS: units set to alat

     Current dimensions of program PWSCF are:
     Max number of different atomic species (ntypx) = 10
     Max number of k-points (npk) =  40000
     Max angular momentum in pseudopotentials (lmaxx) =  3

     Subspace diagonalization in iterative solution of the eigenvalue problem:
     a serial algorithm will be used


     Parallelization info
     --------------------
     sticks:   dense  smooth     PW     G-vecs:    dense   smooth      PW
     Min         217     108     37                 4288     1495     301
     Max         219     109     38                 4289     1498     304
     Sum         871     433    151                17153     5985    1211



     bravais-lattice index     =            2
     lattice parameter (alat)  =      10.3060  a.u.
     unit-cell volume          =     273.6594 (a.u.)^3
     number of atoms/cell      =            2
     number of atomic types    =            1
     number of electrons       =         8.00
     number of Kohn-Sham states=            4
     kinetic-energy cutoff     =      30.0000  Ry
     charge density cutoff     =     240.0000  Ry
     convergence threshold     =      1.0E-08
     mixing beta               =       0.7000
     number of iterations used =            8  plain     mixing
     Exchange-correlation      = SLA  PW   PBE  PBE ( 1  4  3  4 0 0)

     celldm(1)=  10.306000  celldm(2)=   0.000000  celldm(3)=   0.000000
     celldm(4)=   0.000000  celldm(5)=   0.000000  celldm(6)=   0.000000

     crystal axes: (cart. coord. in units of alat)
               a(1) = (  -0.500000   0.000000   0.500000 )  
               a(2) = (   0.000000   0.500000   0.500000 )  
               a(3) = (  -0.500000   0.500000   0.000000 )  

     reciprocal axes: (cart. coord. in units 2 pi/alat)
               b(1) = ( -1.000000 -1.000000  1.000000 )  
               b(2) = (  1.000000  1.000000  1.000000 )  
               b(3) = ( -1.000000  1.000000 -1.000000 )  


     PseudoPot. # 1 for Si read from file:
     /home/max/quantum_espresso/qe-6.1/pseudo/si_pbe_v1.uspp.F.UPF.txt
     MD5 check sum: a056efeee980c13900f22a371efd63c1
     Pseudo is Ultrasoft + core correction, Zval =  4.0
     Generated by new atomic code, or converted to UPF format
     Using radial grid of  899 points,  6 beta functions with: 
                l(1) =   0
                l(2) =   0
                l(3) =   1
                l(4) =   1
                l(5) =   2
                l(6) =   2
     Q(r) pseudized with  8 coefficients,  rinner =    0.900   0.900   0.900
                                                       0.900   0.900

     atomic species   valence    mass     pseudopotential
        Si             4.00    28.08600     Si( 1.00)

     48 Sym. Ops., with inversion, found (24 have fractional translation)



   Cartesian axes

     site n.     atom                  positions (alat units)
         1           Si  tau(   1) = (   0.0000000   0.0000000   0.0000000  )
         2           Si  tau(   2) = (   0.2500000   0.2500000   0.2500000  )

     number of k points=    28
                       cart. coord. in units 2pi/alat
        k(    1) = (  -0.0833333   0.0833333   0.0833333), wk =   0.0185185
        k(    2) = (  -0.2500000   0.2500000  -0.0833333), wk =   0.0555556
        k(    3) = (  -0.4166667   0.4166667  -0.2500000), wk =   0.0555556
        k(    4) = (   0.4166667  -0.4166667   0.5833333), wk =   0.0555556
        k(    5) = (   0.2500000  -0.2500000   0.4166667), wk =   0.0555556
        k(    6) = (   0.0833333  -0.0833333   0.2500000), wk =   0.0555556
        k(    7) = (  -0.0833333   0.4166667   0.0833333), wk =   0.0555556
        k(    8) = (  -0.2500000   0.5833333  -0.0833333), wk =   0.1111111
        k(    9) = (   0.5833333  -0.2500000   0.7500000), wk =   0.1111111
        k(   10) = (   0.4166667  -0.0833333   0.5833333), wk =   0.1111111
        k(   11) = (   0.2500000   0.0833333   0.4166667), wk =   0.1111111
        k(   12) = (  -0.0833333   0.7500000   0.0833333), wk =   0.0555556
        k(   13) = (   0.7500000  -0.0833333   0.9166667), wk =   0.1111111
        k(   14) = (   0.5833333   0.0833333   0.7500000), wk =   0.1111111
        k(   15) = (   0.4166667   0.2500000   0.5833333), wk =   0.1111111
        k(   16) = (  -0.0833333  -0.9166667   0.0833333), wk =   0.0555556
        k(   17) = (  -0.2500000  -0.7500000  -0.0833333), wk =   0.1111111
        k(   18) = (  -0.0833333  -0.5833333   0.0833333), wk =   0.0555556
        k(   19) = (  -0.2500000   0.2500000   0.2500000), wk =   0.0185185
        k(   20) = (  -0.4166667   0.4166667   0.0833333), wk =   0.0555556
        k(   21) = (   0.4166667  -0.4166667   0.9166667), wk =   0.0555556
        k(   22) = (   0.2500000  -0.2500000   0.7500000), wk =   0.0555556
        k(   23) = (  -0.2500000   0.5833333   0.2500000), wk =   0.0555556
        k(   24) = (   0.5833333  -0.2500000   1.0833333), wk =   0.1111111
        k(   25) = (   0.4166667  -0.0833333   0.9166667), wk =   0.1111111
        k(   26) = (  -0.2500000  -1.0833333   0.2500000), wk =   0.0555556
        k(   27) = (  -0.4166667   0.4166667   0.4166667), wk =   0.0185185
        k(   28) = (   0.4166667  -0.4166667   1.2500000), wk =   0.0555556

     Dense  grid:    17153 G-vectors     FFT dimensions: (  36,  36,  36)

     Smooth grid:     5985 G-vectors     FFT dimensions: (  25,  25,  25)

     Estimated max dynamical RAM per process >       3.04MB

     Estimated total allocated dynamical RAM >      12.15MB

     Initial potential from superposition of free atoms

     starting charge    7.99866, renormalised to    8.00000
     Starting wfc are    8 randomized atomic wfcs

     total cpu time spent up to now is        0.6 secs

     per-process dynamical memory:     9.9 Mb

     Self-consistent Calculation

     iteration #  1     ecut=    30.00 Ry     beta=0.70
     Davidson diagonalization with overlap
     ethr =  1.00E-02,  avg # of iterations =  2.0

     Threshold (ethr) on eigenvalues was too large:
     Diagonalizing with lowered threshold

     Davidson diagonalization with overlap
     ethr =  6.86E-04,  avg # of iterations =  1.0

     total cpu time spent up to now is        1.0 secs

     total energy              =     -19.19112132 Ry
     Harris-Foulkes estimate   =     -19.20389802 Ry
     estimated scf accuracy    <       0.05435529 Ry

     iteration #  2     ecut=    30.00 Ry     beta=0.70
     Davidson diagonalization with overlap
     ethr =  6.79E-04,  avg # of iterations =  1.0

     total cpu time spent up to now is        1.3 secs

     total energy              =     -19.19293856 Ry
     Harris-Foulkes estimate   =     -19.19310734 Ry
     estimated scf accuracy    <       0.00244485 Ry

     iteration #  3     ecut=    30.00 Ry     beta=0.70
     Davidson diagonalization with overlap
     ethr =  3.06E-05,  avg # of iterations =  2.1

     total cpu time spent up to now is        1.5 secs

     total energy              =     -19.19327867 Ry
     Harris-Foulkes estimate   =     -19.19329193 Ry
     estimated scf accuracy    <       0.00004316 Ry

     iteration #  4     ecut=    30.00 Ry     beta=0.70
     Davidson diagonalization with overlap
     ethr =  5.39E-07,  avg # of iterations =  3.4

     total cpu time spent up to now is        2.3 secs

     total energy              =     -19.19331833 Ry
     Harris-Foulkes estimate   =     -19.19331920 Ry
     estimated scf accuracy    <       0.00000320 Ry

     iteration #  5     ecut=    30.00 Ry     beta=0.70
     Davidson diagonalization with overlap
     ethr =  4.00E-08,  avg # of iterations =  2.0

     total cpu time spent up to now is        2.5 secs

     End of self-consistent calculation

          k =-0.0833 0.0833 0.0833 (   749 PWs)   bands (ev):

    -5.7210   5.2025   5.9191   5.9191

          k =-0.2500 0.2500-0.0833 (   763 PWs)   bands (ev):

    -5.2482   3.1296   4.6929   5.7095

          k =-0.4167 0.4167-0.2500 (   764 PWs)   bands (ev):

    -4.1655   0.3866   4.2297   5.0768

          k = 0.4167-0.4167 0.5833 (   764 PWs)   bands (ev):

    -3.4751  -0.7469   4.2945   4.6993

          k = 0.2500-0.2500 0.4167 (   769 PWs)   bands (ev):

    -4.5735   1.2268   4.7597   4.7902

          k = 0.0833-0.0833 0.2500 (   761 PWs)   bands (ev):

    -5.4823   4.1355   5.2785   5.4613

          k =-0.0833 0.4167 0.0833 (   768 PWs)   bands (ev):

    -5.0089   2.9380   4.5373   4.5539

          k =-0.2500 0.5833-0.0833 (   761 PWs)   bands (ev):

    -4.1061   1.1088   3.2301   4.1695

          k = 0.5833-0.2500 0.7500 (   757 PWs)   bands (ev):

    -3.0012  -0.6253   2.6307   3.9446

          k = 0.4167-0.0833 0.5833 (   764 PWs)   bands (ev):

    -3.7154   0.4220   2.5919   4.4267

          k = 0.2500 0.0833 0.4167 (   764 PWs)   bands (ev):

    -4.7854   2.1087   3.9217   5.0887

          k =-0.0833 0.7500 0.0833 (   761 PWs)   bands (ev):

    -3.3999   0.2832   3.1957   3.5321

          k = 0.7500-0.0833 0.9167 (   751 PWs)   bands (ev):

    -2.2144  -1.0477   2.3620   3.1297

          k = 0.5833 0.0833 0.7500 (   749 PWs)   bands (ev):

    -2.5844  -0.7111   1.8820   3.6708

          k = 0.4167 0.2500 0.5833 (   762 PWs)   bands (ev):

    -3.6052  -0.2523   3.5230   4.5233

          k =-0.0833-0.9167 0.0833 (   763 PWs)   bands (ev):

    -2.3045  -1.0552   2.9283   3.3182

          k =-0.2500-0.7500-0.0833 (   760 PWs)   bands (ev):

    -3.2332   0.0621   2.6797   3.4676

          k =-0.0833-0.5833 0.0833 (   760 PWs)   bands (ev):

    -4.3097   1.6412   3.7358   3.9516

          k =-0.2500 0.2500 0.2500 (   769 PWs)   bands (ev):

    -5.0206   2.1582   5.3094   5.3094

          k =-0.4167 0.4167 0.0833 (   761 PWs)   bands (ev):

    -4.3472   1.2262   3.1941   5.1407

          k = 0.4167-0.4167 0.9167 (   763 PWs)   bands (ev):

    -3.1790  -0.2077   2.0969   4.3608

          k = 0.2500-0.2500 0.7500 (   763 PWs)   bands (ev):

    -3.1268  -0.2866   2.5706   3.8827

          k =-0.2500 0.5833 0.2500 (   765 PWs)   bands (ev):

    -3.9269   0.4251   3.6521   4.2531

          k = 0.5833-0.2500 1.0833 (   755 PWs)   bands (ev):

    -2.9337  -0.3228   2.1966   3.4661

          k = 0.4167-0.0833 0.9167 (   753 PWs)   bands (ev):

    -2.1099  -1.0554   2.0357   2.8047

          k =-0.2500-1.0833 0.2500 (   752 PWs)   bands (ev):

    -2.3190  -0.9599   1.9104   3.6896

          k =-0.4167 0.4167 0.4167 (   769 PWs)   bands (ev):

    -3.8401  -0.3499   4.9228   4.9228

          k = 0.4167-0.4167 1.2500 (   757 PWs)   bands (ev):

    -3.2411  -0.6520   3.1010   4.4865

     highest occupied level (ev):     5.9191

!    total energy              =     -19.19331875 Ry
     Harris-Foulkes estimate   =     -19.19331874 Ry
     estimated scf accuracy    <          9.2E-09 Ry

     The total energy is the sum of the following terms:

     one-electron contribution =       5.01188455 Ry
     hartree contribution      =       1.12682181 Ry
     xc contribution           =      -8.60608512 Ry
     ewald contribution        =     -16.72593998 Ry

     convergence has been achieved in   5 iterations

     Writing output data file silicon.10.306.save

     init_run     :      0.35s CPU      0.39s WALL (       1 calls)
     electrons    :      1.33s CPU      1.97s WALL (       1 calls)

     Called by init_run:
     wfcinit      :      0.08s CPU      0.09s WALL (       1 calls)
     potinit      :      0.02s CPU      0.03s WALL (       1 calls)

     Called by electrons:
     c_bands      :      0.83s CPU      1.37s WALL (       6 calls)
     sum_band     :      0.28s CPU      0.37s WALL (       6 calls)
     v_of_rho     :      0.09s CPU      0.09s WALL (       6 calls)
     newd         :      0.14s CPU      0.16s WALL (       6 calls)
     mix_rho      :      0.01s CPU      0.01s WALL (       6 calls)

     Called by c_bands:
     init_us_2    :      0.05s CPU      0.05s WALL (     364 calls)
     cegterg      :      0.72s CPU      1.23s WALL (     168 calls)

     Called by sum_band:
     sum_band:bec :      0.00s CPU      0.00s WALL (     168 calls)
     addusdens    :      0.13s CPU      0.15s WALL (       6 calls)

     Called by *egterg:
     h_psi        :      0.61s CPU      0.98s WALL (     519 calls)
     s_psi        :      0.04s CPU      0.05s WALL (     519 calls)
     g_psi        :      0.00s CPU      0.00s WALL (     323 calls)
     cdiaghg      :      0.04s CPU      0.06s WALL (     463 calls)

     Called by h_psi:
     h_psi:pot    :      0.60s CPU      0.97s WALL (     519 calls)
     h_psi:calbec :      0.06s CPU      0.09s WALL (     519 calls)
     vloc_psi     :      0.50s CPU      0.83s WALL (     519 calls)
     add_vuspsi   :      0.04s CPU      0.05s WALL (     519 calls)

     General routines
     calbec       :      0.08s CPU      0.12s WALL (     687 calls)
     fft          :      0.06s CPU      0.09s WALL (      96 calls)
     ffts         :      0.00s CPU      0.00s WALL (      12 calls)
     fftw         :      0.51s CPU      0.86s WALL (    4612 calls)
     interpolate  :      0.01s CPU      0.02s WALL (      12 calls)
     davcio       :      0.00s CPU      0.00s WALL (      28 calls)

     Parallel routines
     fft_scatter  :      0.29s CPU      0.64s WALL (    4720 calls)

     PWSCF        :     1.91s CPU         2.70s WALL


   This run was terminated on:  10:30:53  10Nov2017            

=------------------------------------------------------------------------------=
   JOB DONE.
=------------------------------------------------------------------------------=
