
     Program PHONON v.6.1 (svn rev. 13369) starts on  9Nov2017 at  1:43:12 

     This program is part of the open-source Quantum ESPRESSO suite
     for quantum simulation of materials; please cite
         "P. Giannozzi et al., J. Phys.:Condens. Matter 21 395502 (2009);
          URL http://www.quantum-espresso.org", 
     in publications or presentations arising from this work. More details at
     http://www.quantum-espresso.org/quote

     Parallel version (MPI), running on     4 processors
     R & G space division:  proc/nbgrp/npool/nimage =       4

     Reading data from directory:
     ./silicon.10.47.save

   Info: using nr1, nr2, nr3 values from input

   Info: using nr1, nr2, nr3 values from input

     IMPORTANT: XC functional enforced from input :
     Exchange-correlation      = SLA  PW   PBE  PBE ( 1  4  3  4 0 0)
     Any further DFT definition will be discarded
     Please, verify this is what you really want


     Parallelization info
     --------------------
     sticks:   dense  smooth     PW     G-vecs:    dense   smooth      PW
     Min          66      66     22                  722      722     152
     Max          67      67     23                  724      724     153
     Sum         265     265     91                 2891     2891     609


     Check: negative/imaginary core charge=   -0.000006    0.000000

     negative rho (up, down):  6.824E-06 0.000E+00


     Dynamical matrices for ( 4, 4, 4)  uniform grid of q-points
     (   8q-points):
       N         xq(1)         xq(2)         xq(3) 
       1   0.000000000   0.000000000   0.000000000
       2  -0.250000000   0.250000000  -0.250000000
       3   0.500000000  -0.500000000   0.500000000
       4   0.000000000   0.500000000   0.000000000
       5   0.750000000  -0.250000000   0.750000000
       6   0.500000000   0.000000000   0.500000000
       7   0.000000000  -1.000000000   0.000000000
       8  -0.500000000  -1.000000000   0.000000000

     Calculation of q =    0.0000000   0.0000000   0.0000000

                                                                                

     bravais-lattice index     =            2
     lattice parameter (alat)  =      10.4700  a.u.
     unit-cell volume          =     286.9327 (a.u.)^3
     number of atoms/cell      =            2
     number of atomic types    =            1
     kinetic-energy cut-off    =      18.0000  Ry
     charge density cut-off    =      72.0000  Ry
     convergence threshold     =      1.0E-12
     beta                      =       0.7000
     number of iterations used =            4
     Exchange-correlation      = SLA  PW   PBE  PBE ( 1  4  3  4 0 0)


     celldm(1)=   10.47000  celldm(2)=    0.00000  celldm(3)=    0.00000
     celldm(4)=    0.00000  celldm(5)=    0.00000  celldm(6)=    0.00000

     crystal axes: (cart. coord. in units of alat)
               a(1) = ( -0.5000  0.0000  0.5000 )  
               a(2) = (  0.0000  0.5000  0.5000 )  
               a(3) = ( -0.5000  0.5000  0.0000 )  

     reciprocal axes: (cart. coord. in units 2 pi/alat)
               b(1) = ( -1.0000 -1.0000  1.0000 )  
               b(2) = (  1.0000  1.0000  1.0000 )  
               b(3) = ( -1.0000  1.0000 -1.0000 )  


     Atoms inside the unit cell: 

     Cartesian axes

     site n.  atom      mass           positions (alat units)
        1     Si  28.0860   tau(    1) = (    0.00000    0.00000    0.00000  )
        2     Si  28.0860   tau(    2) = (    0.25000    0.25000    0.25000  )

     Computing dynamical matrix for 
                    q = (   0.0000000   0.0000000   0.0000000 )

     49 Sym.Ops. (with q -> -q+G )


     G cutoff =  199.9245  (    722 G-vectors)     FFT grid: ( 20, 20, 20)
     number of k points=    10

     PseudoPot. # 1 for Si read from file:
     /home/max/quantum_espresso/qe-6.1/pseudo/si_pbe_v1.uspp.F.UPF.txt
     MD5 check sum: a056efeee980c13900f22a371efd63c1
     Pseudo is Ultrasoft + core correction, Zval =  4.0
     Generated by new atomic code, or converted to UPF format
     Using radial grid of  899 points,  6 beta functions with: 
                l(1) =   0
                l(2) =   0
                l(3) =   1
                l(4) =   1
                l(5) =   2
                l(6) =   2
     Q(r) pseudized with  8 coefficients,  rinner =    0.900   0.900   0.900
                                                       0.900   0.900

     Mode symmetry, O_h (m-3m)  point group:


     Electric field:
     Dielectric constant
     Born effective charges in two ways 


     Atomic displacements:
     There are   2 irreducible representations

     Representation     1      3 modes -T_2g G_25' G_5+  To be done

     Representation     2      3 modes -T_1u G_15  G_4-  To be done



     Alpha used in Ewald sum =   0.7000

     negative rho (up, down):  6.824E-06 0.000E+00
     PHONON       :     0.40s CPU         0.41s WALL


     Electric Fields Calculation

      iter #   1 total cpu time :     0.8 secs   av.it.:   5.6
      thresh= 1.000E-02 alpha_mix =  0.700 |ddv_scf|^2 =  9.846E-07

      iter #   2 total cpu time :     1.0 secs   av.it.:   9.9
      thresh= 9.922E-05 alpha_mix =  0.700 |ddv_scf|^2 =  6.569E-08

      iter #   3 total cpu time :     1.1 secs   av.it.:   9.8
      thresh= 2.563E-05 alpha_mix =  0.700 |ddv_scf|^2 =  5.236E-09

      iter #   4 total cpu time :     1.3 secs   av.it.:   9.0
      thresh= 7.236E-06 alpha_mix =  0.700 |ddv_scf|^2 =  3.219E-11

      iter #   5 total cpu time :     1.5 secs   av.it.:   9.2
      thresh= 5.673E-07 alpha_mix =  0.700 |ddv_scf|^2 =  1.660E-14

     End of electric fields calculation

          Dielectric constant in cartesian axis 

          (      14.221993778       0.000000000       0.000000000 )
          (       0.000000000      14.221993778      -0.000000000 )
          (      -0.000000000      -0.000000000      14.221993778 )

          Effective charges (d Force / dE) in cartesian axis

           atom      1   Si 
      Ex  (       -0.03176        0.00000       -0.00000 )
      Ey  (        0.00000       -0.03176       -0.00000 )
      Ez  (        0.00000        0.00000       -0.03176 )
           atom      2   Si 
      Ex  (       -0.03176       -0.00000       -0.00000 )
      Ey  (        0.00000       -0.03176       -0.00000 )
      Ez  (       -0.00000       -0.00000       -0.03176 )


     Representation #  1 modes #   1  2  3

     Self-consistent Calculation

      iter #   1 total cpu time :     2.0 secs   av.it.:   4.9
      thresh= 1.000E-02 alpha_mix =  0.700 |ddv_scf|^2 =  1.887E-07

      iter #   2 total cpu time :     2.2 secs   av.it.:   9.9
      thresh= 4.344E-05 alpha_mix =  0.700 |ddv_scf|^2 =  1.059E-08

      iter #   3 total cpu time :     2.4 secs   av.it.:   9.6
      thresh= 1.029E-05 alpha_mix =  0.700 |ddv_scf|^2 =  7.308E-10

      iter #   4 total cpu time :     2.6 secs   av.it.:   9.1
      thresh= 2.703E-06 alpha_mix =  0.700 |ddv_scf|^2 =  1.901E-12

      iter #   5 total cpu time :     2.7 secs   av.it.:   9.4
      thresh= 1.379E-07 alpha_mix =  0.700 |ddv_scf|^2 =  1.593E-14

     End of self-consistent calculation

     Convergence has been achieved 


     Representation #  2 modes #   4  5  6

     Self-consistent Calculation

      iter #   1 total cpu time :     3.0 secs   av.it.:   5.0
      thresh= 1.000E-02 alpha_mix =  0.700 |ddv_scf|^2 =  1.999E-07

      iter #   2 total cpu time :     3.2 secs   av.it.:   9.5
      thresh= 4.471E-05 alpha_mix =  0.700 |ddv_scf|^2 =  1.678E-08

      iter #   3 total cpu time :     3.3 secs   av.it.:   9.2
      thresh= 1.295E-05 alpha_mix =  0.700 |ddv_scf|^2 =  9.955E-10

      iter #   4 total cpu time :     3.5 secs   av.it.:   9.5
      thresh= 3.155E-06 alpha_mix =  0.700 |ddv_scf|^2 =  5.804E-12

      iter #   5 total cpu time :     3.8 secs   av.it.:   9.0
      thresh= 2.409E-07 alpha_mix =  0.700 |ddv_scf|^2 =  5.444E-15

     End of self-consistent calculation

     Convergence has been achieved 

     Number of q in the star =    1
     List of q in the star:
          1   0.000000000   0.000000000   0.000000000

          Dielectric constant in cartesian axis 

          (      14.221993778       0.000000000       0.000000000 )
          (       0.000000000      14.221993778      -0.000000000 )
          (      -0.000000000      -0.000000000      14.221993778 )

          Effective charges (d Force / dE) in cartesian axis

           atom      1   Si 
      Ex  (       -0.03176        0.00000       -0.00000 )
      Ey  (        0.00000       -0.03176       -0.00000 )
      Ez  (        0.00000        0.00000       -0.03176 )
           atom      2   Si 
      Ex  (       -0.03176       -0.00000       -0.00000 )
      Ey  (        0.00000       -0.03176       -0.00000 )
      Ez  (       -0.00000       -0.00000       -0.03176 )

          Effective charges (d P / du) in cartesian axis 

           atom      1   Si 
      Px  (       -0.07765        0.00000       -0.00000 )
      Py  (        0.00000       -0.07765        0.00000 )
      Pz  (       -0.00000        0.00000       -0.07765 )
           atom      2   Si 
      Px  (       -0.07765       -0.00000       -0.00000 )
      Py  (       -0.00000       -0.07765        0.00000 )
      Pz  (        0.00000        0.00000       -0.07765 )

     Diagonalizing the dynamical matrix

     q = (    0.000000000   0.000000000   0.000000000 ) 

 **************************************************************************
     freq (    1) =       1.628237 [THz] =      54.312130 [cm-1]
     freq (    2) =       1.628237 [THz] =      54.312130 [cm-1]
     freq (    3) =       1.628237 [THz] =      54.312130 [cm-1]
     freq (    4) =      15.321553 [THz] =     511.072008 [cm-1]
     freq (    5) =      15.321553 [THz] =     511.072008 [cm-1]
     freq (    6) =      15.321553 [THz] =     511.072008 [cm-1]
 **************************************************************************

     Mode symmetry, O_h (m-3m)  point group:

     freq (  1 -  3) =         54.3  [cm-1]   --> T_1u G_15  G_4- I  
     freq (  4 -  6) =        511.1  [cm-1]   --> T_2g G_25' G_5+ R  

     Calculation of q =   -0.2500000   0.2500000  -0.2500000

   Info: using nr1, nr2, nr3 values from input

   Info: using nr1, nr2, nr3 values from input

     Parallelization info
     --------------------
     sticks:   dense  smooth     PW     G-vecs:    dense   smooth      PW
     Min          66      66     27                  722      722     175
     Max          67      67     28                  724      724     176
     Sum         265     265    109                 2891     2891     701



     bravais-lattice index     =            2
     lattice parameter (alat)  =      10.4700  a.u.
     unit-cell volume          =     286.9327 (a.u.)^3
     number of atoms/cell      =            2
     number of atomic types    =            1
     number of electrons       =         8.00
     number of Kohn-Sham states=            4
     kinetic-energy cutoff     =      18.0000  Ry
     charge density cutoff     =      72.0000  Ry
     Exchange-correlation      = SLA  PW   PBE  PBE ( 1  4  3  4 0 0)

     celldm(1)=  10.470000  celldm(2)=   0.000000  celldm(3)=   0.000000
     celldm(4)=   0.000000  celldm(5)=   0.000000  celldm(6)=   0.000000

     crystal axes: (cart. coord. in units of alat)
               a(1) = (  -0.500000   0.000000   0.500000 )  
               a(2) = (   0.000000   0.500000   0.500000 )  
               a(3) = (  -0.500000   0.500000   0.000000 )  

     reciprocal axes: (cart. coord. in units 2 pi/alat)
               b(1) = ( -1.000000 -1.000000  1.000000 )  
               b(2) = (  1.000000  1.000000  1.000000 )  
               b(3) = ( -1.000000  1.000000 -1.000000 )  


     PseudoPot. # 1 for Si read from file:
     /home/max/quantum_espresso/qe-6.1/pseudo/si_pbe_v1.uspp.F.UPF.txt
     MD5 check sum: a056efeee980c13900f22a371efd63c1
     Pseudo is Ultrasoft + core correction, Zval =  4.0
     Generated by new atomic code, or converted to UPF format
     Using radial grid of  899 points,  6 beta functions with: 
                l(1) =   0
                l(2) =   0
                l(3) =   1
                l(4) =   1
                l(5) =   2
                l(6) =   2
     Q(r) pseudized with  8 coefficients,  rinner =    0.900   0.900   0.900
                                                       0.900   0.900

     atomic species   valence    mass     pseudopotential
        Si             4.00    28.08600     Si( 1.00)

     48 Sym. Ops., with inversion, found



   Cartesian axes

     site n.     atom                  positions (alat units)
         1           Si  tau(   1) = (   0.0000000   0.0000000   0.0000000  )
         2           Si  tau(   2) = (   0.2500000   0.2500000   0.2500000  )

     number of k points=   120

     Number of k-points >= 100: set verbosity='high' to print them.

     Dense  grid:     2891 G-vectors     FFT dimensions: (  20,  20,  20)

     Estimated max dynamical RAM per process >       0.34MB

     Estimated total allocated dynamical RAM >       1.34MB

     Check: negative/imaginary core charge=   -0.000006    0.000000

     The potential is recalculated from file :
     ./_ph0/silicon.10.47.save/charge-density.dat


     negative rho (up, down):  6.824E-06 0.000E+00
     Starting wfc are    8 atomic wfcs

     Band Structure Calculation
     Davidson diagonalization with overlap

     ethr =  1.25E-10,  avg # of iterations = 11.7

     total cpu time spent up to now is        0.8 secs

     End of band structure calculation

     Number of k-points >= 100: set verbosity='high' to print the bands.

     highest occupied level (ev):     5.3146

     Writing output data file silicon.10.47.save

                                                                                

     bravais-lattice index     =            2
     lattice parameter (alat)  =      10.4700  a.u.
     unit-cell volume          =     286.9327 (a.u.)^3
     number of atoms/cell      =            2
     number of atomic types    =            1
     kinetic-energy cut-off    =      18.0000  Ry
     charge density cut-off    =      72.0000  Ry
     convergence threshold     =      1.0E-12
     beta                      =       0.7000
     number of iterations used =            4
     Exchange-correlation      = SLA  PW   PBE  PBE ( 1  4  3  4 0 0)


     celldm(1)=   10.47000  celldm(2)=    0.00000  celldm(3)=    0.00000
     celldm(4)=    0.00000  celldm(5)=    0.00000  celldm(6)=    0.00000

     crystal axes: (cart. coord. in units of alat)
               a(1) = ( -0.5000  0.0000  0.5000 )  
               a(2) = (  0.0000  0.5000  0.5000 )  
               a(3) = ( -0.5000  0.5000  0.0000 )  

     reciprocal axes: (cart. coord. in units 2 pi/alat)
               b(1) = ( -1.0000 -1.0000  1.0000 )  
               b(2) = (  1.0000  1.0000  1.0000 )  
               b(3) = ( -1.0000  1.0000 -1.0000 )  


     Atoms inside the unit cell: 

     Cartesian axes

     site n.  atom      mass           positions (alat units)
        1     Si  28.0860   tau(    1) = (    0.00000    0.00000    0.00000  )
        2     Si  28.0860   tau(    2) = (    0.25000    0.25000    0.25000  )

     Computing dynamical matrix for 
                    q = (  -0.2500000   0.2500000  -0.2500000 )

      6 Sym.Ops. (no q -> -q+G )


     G cutoff =  199.9245  (    722 G-vectors)     FFT grid: ( 20, 20, 20)
     number of k points=   120

     PseudoPot. # 1 for Si read from file:
     /home/max/quantum_espresso/qe-6.1/pseudo/si_pbe_v1.uspp.F.UPF.txt
     MD5 check sum: a056efeee980c13900f22a371efd63c1
     Pseudo is Ultrasoft + core correction, Zval =  4.0
     Generated by new atomic code, or converted to UPF format
     Using radial grid of  899 points,  6 beta functions with: 
                l(1) =   0
                l(2) =   0
                l(3) =   1
                l(4) =   1
                l(5) =   2
                l(6) =   2
     Q(r) pseudized with  8 coefficients,  rinner =    0.900   0.900   0.900
                                                       0.900   0.900

     Mode symmetry, C_3v (3m)   point group:


     Atomic displacements:
     There are   4 irreducible representations

     Representation     1      1 modes -A_1  L_1  To be done

     Representation     2      1 modes -A_1  L_1  To be done

     Representation     3      2 modes -E    L_3  To be done

     Representation     4      2 modes -E    L_3  To be done



     Alpha used in Ewald sum =   0.7000

     negative rho (up, down):  6.824E-06 0.000E+00
     PHONON       :     4.79s CPU         5.11s WALL



     Representation #  1 mode #   1

     Self-consistent Calculation

      iter #   1 total cpu time :     5.3 secs   av.it.:   5.5
      thresh= 1.000E-02 alpha_mix =  0.700 |ddv_scf|^2 =  2.385E-03

      iter #   2 total cpu time :     5.6 secs   av.it.:   7.5
      thresh= 4.884E-03 alpha_mix =  0.700 |ddv_scf|^2 =  3.665E-02

      iter #   3 total cpu time :     5.9 secs   av.it.:   6.3
      thresh= 1.000E-02 alpha_mix =  0.700 |ddv_scf|^2 =  1.695E-06

      iter #   4 total cpu time :     6.2 secs   av.it.:   8.2
      thresh= 1.302E-04 alpha_mix =  0.700 |ddv_scf|^2 =  1.190E-07

      iter #   5 total cpu time :     6.5 secs   av.it.:   8.1
      thresh= 3.450E-05 alpha_mix =  0.700 |ddv_scf|^2 =  4.616E-09

      iter #   6 total cpu time :     6.7 secs   av.it.:   8.1
      thresh= 6.794E-06 alpha_mix =  0.700 |ddv_scf|^2 =  9.067E-10

      iter #   7 total cpu time :     7.0 secs   av.it.:   7.2
      thresh= 3.011E-06 alpha_mix =  0.700 |ddv_scf|^2 =  1.432E-09

      iter #   8 total cpu time :     7.2 secs   av.it.:   6.5
      thresh= 3.784E-06 alpha_mix =  0.700 |ddv_scf|^2 =  5.113E-12

      iter #   9 total cpu time :     7.5 secs   av.it.:   7.2
      thresh= 2.261E-07 alpha_mix =  0.700 |ddv_scf|^2 =  2.225E-13

     End of self-consistent calculation

     Convergence has been achieved 


     Representation #  2 mode #   2

     Self-consistent Calculation

      iter #   1 total cpu time :     7.7 secs   av.it.:   5.5
      thresh= 1.000E-02 alpha_mix =  0.700 |ddv_scf|^2 =  2.385E-03

      iter #   2 total cpu time :     8.1 secs   av.it.:   7.5
      thresh= 4.884E-03 alpha_mix =  0.700 |ddv_scf|^2 =  3.665E-02

      iter #   3 total cpu time :     8.3 secs   av.it.:   6.3
      thresh= 1.000E-02 alpha_mix =  0.700 |ddv_scf|^2 =  1.695E-06

      iter #   4 total cpu time :     8.6 secs   av.it.:   8.2
      thresh= 1.302E-04 alpha_mix =  0.700 |ddv_scf|^2 =  1.190E-07

      iter #   5 total cpu time :     8.9 secs   av.it.:   8.1
      thresh= 3.450E-05 alpha_mix =  0.700 |ddv_scf|^2 =  4.616E-09

      iter #   6 total cpu time :     9.1 secs   av.it.:   8.1
      thresh= 6.794E-06 alpha_mix =  0.700 |ddv_scf|^2 =  9.067E-10

      iter #   7 total cpu time :     9.4 secs   av.it.:   7.2
      thresh= 3.011E-06 alpha_mix =  0.700 |ddv_scf|^2 =  1.432E-09

      iter #   8 total cpu time :     9.6 secs   av.it.:   6.5
      thresh= 3.784E-06 alpha_mix =  0.700 |ddv_scf|^2 =  5.113E-12

      iter #   9 total cpu time :    10.0 secs   av.it.:   7.2
      thresh= 2.261E-07 alpha_mix =  0.700 |ddv_scf|^2 =  2.225E-13

     End of self-consistent calculation

     Convergence has been achieved 


     Representation #  3 modes #   3  4

     Self-consistent Calculation

      iter #   1 total cpu time :    10.4 secs   av.it.:   4.9
      thresh= 1.000E-02 alpha_mix =  0.700 |ddv_scf|^2 =  5.468E-07

      iter #   2 total cpu time :    11.0 secs   av.it.:   9.6
      thresh= 7.395E-05 alpha_mix =  0.700 |ddv_scf|^2 =  4.148E-08

      iter #   3 total cpu time :    11.6 secs   av.it.:   9.3
      thresh= 2.037E-05 alpha_mix =  0.700 |ddv_scf|^2 =  3.623E-09

      iter #   4 total cpu time :    12.3 secs   av.it.:   8.9
      thresh= 6.019E-06 alpha_mix =  0.700 |ddv_scf|^2 =  1.189E-11

      iter #   5 total cpu time :    12.9 secs   av.it.:   9.2
      thresh= 3.448E-07 alpha_mix =  0.700 |ddv_scf|^2 =  5.168E-13

     End of self-consistent calculation

     Convergence has been achieved 


     Representation #  4 modes #   5  6

     Self-consistent Calculation

      iter #   1 total cpu time :    13.3 secs   av.it.:   5.0
      thresh= 1.000E-02 alpha_mix =  0.700 |ddv_scf|^2 =  5.466E-07

      iter #   2 total cpu time :    14.0 secs   av.it.:   9.7
      thresh= 7.394E-05 alpha_mix =  0.700 |ddv_scf|^2 =  4.143E-08

      iter #   3 total cpu time :    14.6 secs   av.it.:   9.4
      thresh= 2.035E-05 alpha_mix =  0.700 |ddv_scf|^2 =  3.619E-09

      iter #   4 total cpu time :    15.2 secs   av.it.:   9.1
      thresh= 6.016E-06 alpha_mix =  0.700 |ddv_scf|^2 =  1.190E-11

      iter #   5 total cpu time :    15.9 secs   av.it.:   9.3
      thresh= 3.450E-07 alpha_mix =  0.700 |ddv_scf|^2 =  5.170E-13

     End of self-consistent calculation

     Convergence has been achieved 

     Number of q in the star =    8
     List of q in the star:
          1  -0.250000000   0.250000000  -0.250000000
          2   0.250000000  -0.250000000  -0.250000000
          3   0.250000000  -0.250000000   0.250000000
          4   0.250000000   0.250000000   0.250000000
          5  -0.250000000  -0.250000000  -0.250000000
          6  -0.250000000  -0.250000000   0.250000000
          7  -0.250000000   0.250000000   0.250000000
          8   0.250000000   0.250000000  -0.250000000

     Diagonalizing the dynamical matrix

     q = (   -0.250000000   0.250000000  -0.250000000 ) 

 **************************************************************************
     freq (    1) =       3.355648 [THz] =     111.932384 [cm-1]
     freq (    2) =       3.355648 [THz] =     111.932384 [cm-1]
     freq (    3) =       6.638016 [THz] =     221.420379 [cm-1]
     freq (    4) =      14.437701 [THz] =     481.589864 [cm-1]
     freq (    5) =      14.672187 [THz] =     489.411482 [cm-1]
     freq (    6) =      14.672187 [THz] =     489.411482 [cm-1]
 **************************************************************************

     Mode symmetry, C_3v (3m)   point group:

     freq (  1 -  2) =        111.9  [cm-1]   --> E    L_3           
     freq (  3 -  3) =        221.4  [cm-1]   --> A_1  L_1           
     freq (  4 -  4) =        481.6  [cm-1]   --> A_1  L_1           
     freq (  5 -  6) =        489.4  [cm-1]   --> E    L_3           

     Calculation of q =    0.5000000  -0.5000000   0.5000000

   Info: using nr1, nr2, nr3 values from input

   Info: using nr1, nr2, nr3 values from input

     Parallelization info
     --------------------
     sticks:   dense  smooth     PW     G-vecs:    dense   smooth      PW
     Min          66      66     30                  722      722     205
     Max          67      67     31                  724      724     206
     Sum         265     265    121                 2891     2891     821



     bravais-lattice index     =            2
     lattice parameter (alat)  =      10.4700  a.u.
     unit-cell volume          =     286.9327 (a.u.)^3
     number of atoms/cell      =            2
     number of atomic types    =            1
     number of electrons       =         8.00
     number of Kohn-Sham states=            4
     kinetic-energy cutoff     =      18.0000  Ry
     charge density cutoff     =      72.0000  Ry
     Exchange-correlation      = SLA  PW   PBE  PBE ( 1  4  3  4 0 0)

     celldm(1)=  10.470000  celldm(2)=   0.000000  celldm(3)=   0.000000
     celldm(4)=   0.000000  celldm(5)=   0.000000  celldm(6)=   0.000000

     crystal axes: (cart. coord. in units of alat)
               a(1) = (  -0.500000   0.000000   0.500000 )  
               a(2) = (   0.000000   0.500000   0.500000 )  
               a(3) = (  -0.500000   0.500000   0.000000 )  

     reciprocal axes: (cart. coord. in units 2 pi/alat)
               b(1) = ( -1.000000 -1.000000  1.000000 )  
               b(2) = (  1.000000  1.000000  1.000000 )  
               b(3) = ( -1.000000  1.000000 -1.000000 )  


     PseudoPot. # 1 for Si read from file:
     /home/max/quantum_espresso/qe-6.1/pseudo/si_pbe_v1.uspp.F.UPF.txt
     MD5 check sum: a056efeee980c13900f22a371efd63c1
     Pseudo is Ultrasoft + core correction, Zval =  4.0
     Generated by new atomic code, or converted to UPF format
     Using radial grid of  899 points,  6 beta functions with: 
                l(1) =   0
                l(2) =   0
                l(3) =   1
                l(4) =   1
                l(5) =   2
                l(6) =   2
     Q(r) pseudized with  8 coefficients,  rinner =    0.900   0.900   0.900
                                                       0.900   0.900

     atomic species   valence    mass     pseudopotential
        Si             4.00    28.08600     Si( 1.00)

     48 Sym. Ops., with inversion, found



   Cartesian axes

     site n.     atom                  positions (alat units)
         1           Si  tau(   1) = (   0.0000000   0.0000000   0.0000000  )
         2           Si  tau(   2) = (   0.2500000   0.2500000   0.2500000  )

     number of k points=    60
                       cart. coord. in units 2pi/alat
        k(    1) = (  -0.1250000   0.1250000   0.1250000), wk =   0.0468750
        k(    2) = (   0.3750000  -0.3750000   0.6250000), wk =   0.0000000
        k(    3) = (  -0.3750000   0.3750000  -0.1250000), wk =   0.0468750
        k(    4) = (   0.1250000  -0.1250000   0.3750000), wk =   0.0000000
        k(    5) = (   0.3750000  -0.3750000   0.6250000), wk =   0.0468750
        k(    6) = (   0.8750000  -0.8750000   1.1250000), wk =   0.0000000
        k(    7) = (   0.1250000  -0.1250000   0.3750000), wk =   0.0468750
        k(    8) = (   0.6250000  -0.6250000   0.8750000), wk =   0.0000000
        k(    9) = (  -0.1250000   0.6250000   0.1250000), wk =   0.0937500
        k(   10) = (   0.3750000   0.1250000   0.6250000), wk =   0.0000000
        k(   11) = (   0.6250000  -0.1250000   0.8750000), wk =   0.0937500
        k(   12) = (   1.1250000  -0.6250000   1.3750000), wk =   0.0000000
        k(   13) = (   0.3750000   0.1250000   0.6250000), wk =   0.0937500
        k(   14) = (   0.8750000  -0.3750000   1.1250000), wk =   0.0000000
        k(   15) = (  -0.1250000  -0.8750000   0.1250000), wk =   0.0937500
        k(   16) = (   0.3750000  -1.3750000   0.6250000), wk =   0.0000000
        k(   17) = (  -0.3750000   0.3750000   0.3750000), wk =   0.0468750
        k(   18) = (   0.1250000  -0.1250000   0.8750000), wk =   0.0000000
        k(   19) = (   0.3750000  -0.3750000   1.1250000), wk =   0.0468750
        k(   20) = (   0.8750000  -0.8750000   1.6250000), wk =   0.0000000
        k(   21) = (   0.1250000  -0.1250000   0.1250000), wk =   0.0156250
        k(   22) = (   0.6250000  -0.6250000   0.6250000), wk =   0.0000000
        k(   23) = (  -0.3750000  -0.3750000  -0.1250000), wk =   0.0937500
        k(   24) = (   0.1250000  -0.8750000   0.3750000), wk =   0.0000000
        k(   25) = (  -0.1250000  -0.3750000   0.3750000), wk =   0.0468750
        k(   26) = (   0.3750000  -0.8750000   0.8750000), wk =   0.0000000
        k(   27) = (   0.3750000   0.3750000   0.6250000), wk =   0.0937500
        k(   28) = (   0.8750000  -0.1250000   1.1250000), wk =   0.0000000
        k(   29) = (   0.6250000   0.3750000  -0.3750000), wk =   0.0468750
        k(   30) = (   1.1250000  -0.1250000   0.1250000), wk =   0.0000000
        k(   31) = (   0.1250000   0.1250000   0.3750000), wk =   0.0937500
        k(   32) = (   0.6250000  -0.3750000   0.8750000), wk =   0.0000000
        k(   33) = (   0.3750000   0.1250000  -0.1250000), wk =   0.0468750
        k(   34) = (   0.8750000  -0.3750000   0.3750000), wk =   0.0000000
        k(   35) = (  -0.1250000  -0.6250000  -0.1250000), wk =   0.0468750
        k(   36) = (   0.3750000  -1.1250000   0.3750000), wk =   0.0000000
        k(   37) = (   0.1250000  -0.6250000   0.1250000), wk =   0.0468750
        k(   38) = (   0.6250000  -1.1250000   0.6250000), wk =   0.0000000
        k(   39) = (   0.6250000   0.1250000   0.8750000), wk =   0.0937500
        k(   40) = (   1.1250000  -0.3750000   1.3750000), wk =   0.0000000
        k(   41) = (  -0.8750000   0.1250000   0.6250000), wk =   0.0937500
        k(   42) = (  -0.3750000  -0.3750000   1.1250000), wk =   0.0000000
        k(   43) = (   0.8750000   0.1250000  -0.6250000), wk =   0.0937500
        k(   44) = (   1.3750000  -0.3750000  -0.1250000), wk =   0.0000000
        k(   45) = (   0.3750000  -0.1250000   0.6250000), wk =   0.0937500
        k(   46) = (   0.8750000  -0.6250000   1.1250000), wk =   0.0000000
        k(   47) = (  -0.6250000  -0.1250000   0.3750000), wk =   0.0937500
        k(   48) = (  -0.1250000  -0.6250000   0.8750000), wk =   0.0000000
        k(   49) = (   0.6250000  -0.1250000  -0.3750000), wk =   0.0937500
        k(   50) = (   1.1250000  -0.6250000   0.1250000), wk =   0.0000000
        k(   51) = (  -0.1250000   0.8750000  -0.1250000), wk =   0.0468750
        k(   52) = (   0.3750000   0.3750000   0.3750000), wk =   0.0000000
        k(   53) = (   0.1250000   0.8750000   0.1250000), wk =   0.0468750
        k(   54) = (   0.6250000   0.3750000   0.6250000), wk =   0.0000000
        k(   55) = (   0.3750000  -0.3750000   0.3750000), wk =   0.0156250
        k(   56) = (   0.8750000  -0.8750000   0.8750000), wk =   0.0000000
        k(   57) = (   0.3750000   0.3750000   1.1250000), wk =   0.0937500
        k(   58) = (   0.8750000  -0.1250000   1.6250000), wk =   0.0000000
        k(   59) = (   1.1250000   0.3750000  -0.3750000), wk =   0.0468750
        k(   60) = (   1.6250000  -0.1250000   0.1250000), wk =   0.0000000

     Dense  grid:     2891 G-vectors     FFT dimensions: (  20,  20,  20)

     Estimated max dynamical RAM per process >       0.34MB

     Estimated total allocated dynamical RAM >       1.34MB

     Check: negative/imaginary core charge=   -0.000006    0.000000

     The potential is recalculated from file :
     ./_ph0/silicon.10.47.save/charge-density.dat


     negative rho (up, down):  6.824E-06 0.000E+00
     Starting wfc are    8 atomic wfcs

     Band Structure Calculation
     Davidson diagonalization with overlap

     ethr =  1.25E-10,  avg # of iterations = 11.7

     total cpu time spent up to now is        1.3 secs

     End of band structure calculation

          k =-0.1250 0.1250 0.1250 (   362 PWs)   bands (ev):

    -5.7726   3.9984   5.3146   5.3146

          k = 0.3750-0.3750 0.6250 (   375 PWs)   bands (ev):

    -3.7027  -0.9151   3.4007   4.1050

          k =-0.3750 0.3750-0.1250 (   368 PWs)   bands (ev):

    -4.7853   1.0730   3.4006   4.8432

          k = 0.1250-0.1250 0.3750 (   364 PWs)   bands (ev):

    -5.2639   2.3988   4.3492   4.3908

          k = 0.3750-0.3750 0.6250 (   375 PWs)   bands (ev):

    -3.7027  -0.9151   3.4007   4.1050

          k = 0.8750-0.8750 1.1250 (   362 PWs)   bands (ev):

    -5.7726   3.9984   5.3146   5.3146

          k = 0.1250-0.1250 0.3750 (   364 PWs)   bands (ev):

    -5.2639   2.3988   4.3492   4.3908

          k = 0.6250-0.6250 0.8750 (   368 PWs)   bands (ev):

    -4.7853   1.0730   3.4006   4.8432

          k =-0.1250 0.6250 0.1250 (   367 PWs)   bands (ev):

    -4.2708   0.7012   3.0744   3.5057

          k = 0.3750 0.1250 0.6250 (   370 PWs)   bands (ev):

    -3.8761  -0.1173   2.4512   3.7721

          k = 0.6250-0.1250 0.8750 (   378 PWs)   bands (ev):

    -2.7038  -1.2021   1.7914   2.8184

          k = 1.1250-0.6250 1.3750 (   368 PWs)   bands (ev):

    -4.7853   1.0730   3.4006   4.8432

          k = 0.3750 0.1250 0.6250 (   370 PWs)   bands (ev):

    -3.8761  -0.1173   2.4512   3.7721

          k = 0.8750-0.3750 1.1250 (   367 PWs)   bands (ev):

    -4.2708   0.7012   3.0744   3.5057

          k =-0.1250-0.8750 0.1250 (   366 PWs)   bands (ev):

    -2.8541  -1.1128   2.3707   3.0541

          k = 0.3750-1.3750 0.6250 (   375 PWs)   bands (ev):

    -3.7027  -0.9151   3.4007   4.1050

          k =-0.3750 0.3750 0.3750 (   362 PWs)   bands (ev):

    -4.3726  -0.1518   4.5483   4.5483

          k = 0.1250-0.1250 0.8750 (   366 PWs)   bands (ev):

    -2.8541  -1.1128   2.3707   3.0541

          k = 0.3750-0.3750 1.1250 (   371 PWs)   bands (ev):

    -3.2234  -0.8769   1.8324   3.8024

          k = 0.8750-0.8750 1.6250 (   367 PWs)   bands (ev):

    -4.2708   0.7012   3.0744   3.5057

          k = 0.1250-0.1250 0.1250 (   362 PWs)   bands (ev):

    -5.7726   3.9984   5.3146   5.3146

          k = 0.6250-0.6250 0.6250 (   362 PWs)   bands (ev):

    -4.3726  -0.1518   4.5483   4.5483

          k =-0.3750-0.3750-0.1250 (   368 PWs)   bands (ev):

    -4.7853   1.0730   3.4006   4.8432

          k = 0.1250-0.8750 0.3750 (   378 PWs)   bands (ev):

    -2.7038  -1.2021   1.7914   2.8184

          k =-0.1250-0.3750 0.3750 (   368 PWs)   bands (ev):

    -4.7853   1.0730   3.4006   4.8432

          k = 0.3750-0.8750 0.8750 (   367 PWs)   bands (ev):

    -4.2708   0.7012   3.0744   3.5057

          k = 0.3750 0.3750 0.6250 (   375 PWs)   bands (ev):

    -3.7027  -0.9151   3.4007   4.1050

          k = 0.8750-0.1250 1.1250 (   366 PWs)   bands (ev):

    -2.8541  -1.1128   2.3707   3.0541

          k = 0.6250 0.3750-0.3750 (   375 PWs)   bands (ev):

    -3.7027  -0.9151   3.4007   4.1050

          k = 1.1250-0.1250 0.1250 (   366 PWs)   bands (ev):

    -2.8541  -1.1128   2.3707   3.0541

          k = 0.1250 0.1250 0.3750 (   364 PWs)   bands (ev):

    -5.2639   2.3988   4.3492   4.3908

          k = 0.6250-0.3750 0.8750 (   370 PWs)   bands (ev):

    -3.8761  -0.1173   2.4512   3.7721

          k = 0.3750 0.1250-0.1250 (   364 PWs)   bands (ev):

    -5.2639   2.3988   4.3492   4.3908

          k = 0.8750-0.3750 0.3750 (   371 PWs)   bands (ev):

    -3.2234  -0.8769   1.8324   3.8024

          k =-0.1250-0.6250-0.1250 (   367 PWs)   bands (ev):

    -4.2708   0.7012   3.0744   3.5057

          k = 0.3750-1.1250 0.3750 (   371 PWs)   bands (ev):

    -3.2234  -0.8769   1.8324   3.8024

          k = 0.1250-0.6250 0.1250 (   367 PWs)   bands (ev):

    -4.2708   0.7012   3.0744   3.5057

          k = 0.6250-1.1250 0.6250 (   368 PWs)   bands (ev):

    -4.7853   1.0730   3.4006   4.8432

          k = 0.6250 0.1250 0.8750 (   378 PWs)   bands (ev):

    -2.7038  -1.2021   1.7914   2.8184

          k = 1.1250-0.3750 1.3750 (   370 PWs)   bands (ev):

    -3.8761  -0.1173   2.4512   3.7721

          k =-0.8750 0.1250 0.6250 (   378 PWs)   bands (ev):

    -2.7038  -1.2021   1.7914   2.8184

          k =-0.3750-0.3750 1.1250 (   371 PWs)   bands (ev):

    -3.2234  -0.8769   1.8324   3.8024

          k = 0.8750 0.1250-0.6250 (   378 PWs)   bands (ev):

    -2.7038  -1.2021   1.7914   2.8184

          k = 1.3750-0.3750-0.1250 (   370 PWs)   bands (ev):

    -3.8761  -0.1173   2.4512   3.7721

          k = 0.3750-0.1250 0.6250 (   370 PWs)   bands (ev):

    -3.8761  -0.1173   2.4512   3.7721

          k = 0.8750-0.6250 1.1250 (   364 PWs)   bands (ev):

    -5.2639   2.3988   4.3492   4.3908

          k =-0.6250-0.1250 0.3750 (   370 PWs)   bands (ev):

    -3.8761  -0.1173   2.4512   3.7721

          k =-0.1250-0.6250 0.8750 (   378 PWs)   bands (ev):

    -2.7038  -1.2021   1.7914   2.8184

          k = 0.6250-0.1250-0.3750 (   370 PWs)   bands (ev):

    -3.8761  -0.1173   2.4512   3.7721

          k = 1.1250-0.6250 0.1250 (   378 PWs)   bands (ev):

    -2.7038  -1.2021   1.7914   2.8184

          k =-0.1250 0.8750-0.1250 (   366 PWs)   bands (ev):

    -2.8541  -1.1128   2.3707   3.0541

          k = 0.3750 0.3750 0.3750 (   362 PWs)   bands (ev):

    -4.3726  -0.1518   4.5483   4.5483

          k = 0.1250 0.8750 0.1250 (   366 PWs)   bands (ev):

    -2.8541  -1.1128   2.3707   3.0541

          k = 0.6250 0.3750 0.6250 (   375 PWs)   bands (ev):

    -3.7027  -0.9151   3.4007   4.1050

          k = 0.3750-0.3750 0.3750 (   362 PWs)   bands (ev):

    -4.3726  -0.1518   4.5483   4.5483

          k = 0.8750-0.8750 0.8750 (   362 PWs)   bands (ev):

    -5.7726   3.9984   5.3146   5.3146

          k = 0.3750 0.3750 1.1250 (   371 PWs)   bands (ev):

    -3.2234  -0.8769   1.8324   3.8024

          k = 0.8750-0.1250 1.6250 (   378 PWs)   bands (ev):

    -2.7038  -1.2021   1.7914   2.8184

          k = 1.1250 0.3750-0.3750 (   371 PWs)   bands (ev):

    -3.2234  -0.8769   1.8324   3.8024

          k = 1.6250-0.1250 0.1250 (   364 PWs)   bands (ev):

    -5.2639   2.3988   4.3492   4.3908

     highest occupied level (ev):     5.3146

     Writing output data file silicon.10.47.save

                                                                                

     bravais-lattice index     =            2
     lattice parameter (alat)  =      10.4700  a.u.
     unit-cell volume          =     286.9327 (a.u.)^3
     number of atoms/cell      =            2
     number of atomic types    =            1
     kinetic-energy cut-off    =      18.0000  Ry
     charge density cut-off    =      72.0000  Ry
     convergence threshold     =      1.0E-12
     beta                      =       0.7000
     number of iterations used =            4
     Exchange-correlation      = SLA  PW   PBE  PBE ( 1  4  3  4 0 0)


     celldm(1)=   10.47000  celldm(2)=    0.00000  celldm(3)=    0.00000
     celldm(4)=    0.00000  celldm(5)=    0.00000  celldm(6)=    0.00000

     crystal axes: (cart. coord. in units of alat)
               a(1) = ( -0.5000  0.0000  0.5000 )  
               a(2) = (  0.0000  0.5000  0.5000 )  
               a(3) = ( -0.5000  0.5000  0.0000 )  

     reciprocal axes: (cart. coord. in units 2 pi/alat)
               b(1) = ( -1.0000 -1.0000  1.0000 )  
               b(2) = (  1.0000  1.0000  1.0000 )  
               b(3) = ( -1.0000  1.0000 -1.0000 )  


     Atoms inside the unit cell: 

     Cartesian axes

     site n.  atom      mass           positions (alat units)
        1     Si  28.0860   tau(    1) = (    0.00000    0.00000    0.00000  )
        2     Si  28.0860   tau(    2) = (    0.25000    0.25000    0.25000  )

     Computing dynamical matrix for 
                    q = (   0.5000000  -0.5000000   0.5000000 )

     13 Sym.Ops. (with q -> -q+G )


     G cutoff =  199.9245  (    722 G-vectors)     FFT grid: ( 20, 20, 20)
     number of k points=    60

     PseudoPot. # 1 for Si read from file:
     /home/max/quantum_espresso/qe-6.1/pseudo/si_pbe_v1.uspp.F.UPF.txt
     MD5 check sum: a056efeee980c13900f22a371efd63c1
     Pseudo is Ultrasoft + core correction, Zval =  4.0
     Generated by new atomic code, or converted to UPF format
     Using radial grid of  899 points,  6 beta functions with: 
                l(1) =   0
                l(2) =   0
                l(3) =   1
                l(4) =   1
                l(5) =   2
                l(6) =   2
     Q(r) pseudized with  8 coefficients,  rinner =    0.900   0.900   0.900
                                                       0.900   0.900


     Atomic displacements:
     There are   4 irreducible representations

     Representation     1      1 modes -  To be done

     Representation     2      1 modes -  To be done

     Representation     3      2 modes -  To be done

     Representation     4      2 modes -  To be done



     Alpha used in Ewald sum =   0.7000

     negative rho (up, down):  6.824E-06 0.000E+00
     PHONON       :    15.54s CPU        16.69s WALL



     Representation #  1 mode #   1

     Self-consistent Calculation

      iter #   1 total cpu time :    16.8 secs   av.it.:   4.8
      thresh= 1.000E-02 alpha_mix =  0.700 |ddv_scf|^2 =  2.395E-05

      iter #   2 total cpu time :    16.9 secs   av.it.:   8.4
      thresh= 4.894E-04 alpha_mix =  0.700 |ddv_scf|^2 =  2.233E-05

      iter #   3 total cpu time :    17.1 secs   av.it.:   7.5
      thresh= 4.725E-04 alpha_mix =  0.700 |ddv_scf|^2 =  3.999E-08

      iter #   4 total cpu time :    17.2 secs   av.it.:   7.5
      thresh= 2.000E-05 alpha_mix =  0.700 |ddv_scf|^2 =  1.369E-10

      iter #   5 total cpu time :    17.4 secs   av.it.:   7.8
      thresh= 1.170E-06 alpha_mix =  0.700 |ddv_scf|^2 =  3.820E-12

      iter #   6 total cpu time :    17.5 secs   av.it.:   7.9
      thresh= 1.954E-07 alpha_mix =  0.700 |ddv_scf|^2 =  7.195E-14

     End of self-consistent calculation

     Convergence has been achieved 


     Representation #  2 mode #   2

     Self-consistent Calculation

      iter #   1 total cpu time :    17.6 secs   av.it.:   5.7
      thresh= 1.000E-02 alpha_mix =  0.700 |ddv_scf|^2 =  3.332E-04

      iter #   2 total cpu time :    17.9 secs   av.it.:   8.3
      thresh= 1.825E-03 alpha_mix =  0.700 |ddv_scf|^2 =  1.036E-03

      iter #   3 total cpu time :    18.1 secs   av.it.:   7.1
      thresh= 3.219E-03 alpha_mix =  0.700 |ddv_scf|^2 =  1.524E-07

      iter #   4 total cpu time :    18.2 secs   av.it.:   8.2
      thresh= 3.903E-05 alpha_mix =  0.700 |ddv_scf|^2 =  1.113E-08

      iter #   5 total cpu time :    18.4 secs   av.it.:   8.4
      thresh= 1.055E-05 alpha_mix =  0.700 |ddv_scf|^2 =  1.402E-10

      iter #   6 total cpu time :    18.5 secs   av.it.:   8.2
      thresh= 1.184E-06 alpha_mix =  0.700 |ddv_scf|^2 =  3.336E-12

      iter #   7 total cpu time :    18.6 secs   av.it.:   7.8
      thresh= 1.826E-07 alpha_mix =  0.700 |ddv_scf|^2 =  8.767E-15

     End of self-consistent calculation

     Convergence has been achieved 


     Representation #  3 modes #   3  4

     Self-consistent Calculation

      iter #   1 total cpu time :    18.9 secs   av.it.:   4.7
      thresh= 1.000E-02 alpha_mix =  0.700 |ddv_scf|^2 =  3.531E-07

      iter #   2 total cpu time :    19.2 secs   av.it.:   9.0
      thresh= 5.942E-05 alpha_mix =  0.700 |ddv_scf|^2 =  3.080E-08

      iter #   3 total cpu time :    19.5 secs   av.it.:   8.3
      thresh= 1.755E-05 alpha_mix =  0.700 |ddv_scf|^2 =  5.228E-10

      iter #   4 total cpu time :    19.9 secs   av.it.:   8.9
      thresh= 2.286E-06 alpha_mix =  0.700 |ddv_scf|^2 =  6.592E-12

      iter #   5 total cpu time :    20.2 secs   av.it.:   8.7
      thresh= 2.567E-07 alpha_mix =  0.700 |ddv_scf|^2 =  3.781E-14

     End of self-consistent calculation

     Convergence has been achieved 


     Representation #  4 modes #   5  6

     Self-consistent Calculation

      iter #   1 total cpu time :    20.4 secs   av.it.:   4.9
      thresh= 1.000E-02 alpha_mix =  0.700 |ddv_scf|^2 =  9.480E-07

      iter #   2 total cpu time :    20.7 secs   av.it.:   9.6
      thresh= 9.737E-05 alpha_mix =  0.700 |ddv_scf|^2 =  7.562E-08

      iter #   3 total cpu time :    21.0 secs   av.it.:   9.3
      thresh= 2.750E-05 alpha_mix =  0.700 |ddv_scf|^2 =  4.681E-09

      iter #   4 total cpu time :    21.3 secs   av.it.:   8.5
      thresh= 6.842E-06 alpha_mix =  0.700 |ddv_scf|^2 =  6.879E-12

      iter #   5 total cpu time :    21.6 secs   av.it.:   8.8
      thresh= 2.623E-07 alpha_mix =  0.700 |ddv_scf|^2 =  2.703E-14

     End of self-consistent calculation

     Convergence has been achieved 

     Number of q in the star =    4
     List of q in the star:
          1   0.500000000  -0.500000000   0.500000000
          2   0.500000000   0.500000000   0.500000000
          3  -0.500000000   0.500000000   0.500000000
          4   0.500000000   0.500000000  -0.500000000

     Diagonalizing the dynamical matrix

     q = (    0.500000000  -0.500000000   0.500000000 ) 

 **************************************************************************
     freq (    1) =       5.226761 [THz] =     174.345991 [cm-1]
     freq (    2) =       5.226761 [THz] =     174.345991 [cm-1]
     freq (    3) =      11.582096 [THz] =     386.337138 [cm-1]
     freq (    4) =      12.174470 [THz] =     406.096601 [cm-1]
     freq (    5) =      14.423970 [THz] =     481.131857 [cm-1]
     freq (    6) =      14.423970 [THz] =     481.131857 [cm-1]
 **************************************************************************

     Calculation of q =    0.0000000   0.5000000   0.0000000

   Info: using nr1, nr2, nr3 values from input

   Info: using nr1, nr2, nr3 values from input

     Parallelization info
     --------------------
     sticks:   dense  smooth     PW     G-vecs:    dense   smooth      PW
     Min          66      66     27                  722      722     181
     Max          67      67     28                  724      724     182
     Sum         265     265    109                 2891     2891     725



     bravais-lattice index     =            2
     lattice parameter (alat)  =      10.4700  a.u.
     unit-cell volume          =     286.9327 (a.u.)^3
     number of atoms/cell      =            2
     number of atomic types    =            1
     number of electrons       =         8.00
     number of Kohn-Sham states=            4
     kinetic-energy cutoff     =      18.0000  Ry
     charge density cutoff     =      72.0000  Ry
     Exchange-correlation      = SLA  PW   PBE  PBE ( 1  4  3  4 0 0)

     celldm(1)=  10.470000  celldm(2)=   0.000000  celldm(3)=   0.000000
     celldm(4)=   0.000000  celldm(5)=   0.000000  celldm(6)=   0.000000

     crystal axes: (cart. coord. in units of alat)
               a(1) = (  -0.500000   0.000000   0.500000 )  
               a(2) = (   0.000000   0.500000   0.500000 )  
               a(3) = (  -0.500000   0.500000   0.000000 )  

     reciprocal axes: (cart. coord. in units 2 pi/alat)
               b(1) = ( -1.000000 -1.000000  1.000000 )  
               b(2) = (  1.000000  1.000000  1.000000 )  
               b(3) = ( -1.000000  1.000000 -1.000000 )  


     PseudoPot. # 1 for Si read from file:
     /home/max/quantum_espresso/qe-6.1/pseudo/si_pbe_v1.uspp.F.UPF.txt
     MD5 check sum: a056efeee980c13900f22a371efd63c1
     Pseudo is Ultrasoft + core correction, Zval =  4.0
     Generated by new atomic code, or converted to UPF format
     Using radial grid of  899 points,  6 beta functions with: 
                l(1) =   0
                l(2) =   0
                l(3) =   1
                l(4) =   1
                l(5) =   2
                l(6) =   2
     Q(r) pseudized with  8 coefficients,  rinner =    0.900   0.900   0.900
                                                       0.900   0.900

     atomic species   valence    mass     pseudopotential
        Si             4.00    28.08600     Si( 1.00)

     48 Sym. Ops., with inversion, found



   Cartesian axes

     site n.     atom                  positions (alat units)
         1           Si  tau(   1) = (   0.0000000   0.0000000   0.0000000  )
         2           Si  tau(   2) = (   0.2500000   0.2500000   0.2500000  )

     number of k points=    80
                       cart. coord. in units 2pi/alat
        k(    1) = (  -0.1250000   0.1250000   0.1250000), wk =   0.0312500
        k(    2) = (  -0.1250000   0.6250000   0.1250000), wk =   0.0000000
        k(    3) = (  -0.3750000   0.3750000  -0.1250000), wk =   0.0625000
        k(    4) = (  -0.3750000   0.8750000  -0.1250000), wk =   0.0000000
        k(    5) = (   0.3750000  -0.3750000   0.6250000), wk =   0.0625000
        k(    6) = (   0.3750000   0.1250000   0.6250000), wk =   0.0000000
        k(    7) = (   0.1250000  -0.1250000   0.3750000), wk =   0.0625000
        k(    8) = (   0.1250000   0.3750000   0.3750000), wk =   0.0000000
        k(    9) = (  -0.1250000   0.6250000   0.1250000), wk =   0.0312500
        k(   10) = (  -0.1250000   1.1250000   0.1250000), wk =   0.0000000
        k(   11) = (   0.6250000  -0.1250000   0.8750000), wk =   0.0625000
        k(   12) = (   0.6250000   0.3750000   0.8750000), wk =   0.0000000
        k(   13) = (   0.3750000   0.1250000   0.6250000), wk =   0.0625000
        k(   14) = (   0.3750000   0.6250000   0.6250000), wk =   0.0000000
        k(   15) = (  -0.1250000  -0.8750000   0.1250000), wk =   0.0312500
        k(   16) = (  -0.1250000  -0.3750000   0.1250000), wk =   0.0000000
        k(   17) = (  -0.3750000   0.3750000   0.3750000), wk =   0.0312500
        k(   18) = (  -0.3750000   0.8750000   0.3750000), wk =   0.0000000
        k(   19) = (   0.3750000  -0.3750000   1.1250000), wk =   0.0625000
        k(   20) = (   0.3750000   0.1250000   1.1250000), wk =   0.0000000
        k(   21) = (  -0.1250000  -0.1250000   0.1250000), wk =   0.0312500
        k(   22) = (  -0.1250000   0.3750000   0.1250000), wk =   0.0000000
        k(   23) = (   0.1250000  -0.3750000   0.3750000), wk =   0.0625000
        k(   24) = (   0.1250000   0.1250000   0.3750000), wk =   0.0000000
        k(   25) = (   0.3750000  -0.1250000   0.3750000), wk =   0.0312500
        k(   26) = (   0.3750000   0.3750000   0.3750000), wk =   0.0000000
        k(   27) = (   0.3750000   0.1250000   0.3750000), wk =   0.0312500
        k(   28) = (   0.3750000   0.6250000   0.3750000), wk =   0.0000000
        k(   29) = (  -0.6250000   0.3750000  -0.3750000), wk =   0.0625000
        k(   30) = (  -0.6250000   0.8750000  -0.3750000), wk =   0.0000000
        k(   31) = (  -0.3750000   0.6250000  -0.3750000), wk =   0.0312500
        k(   32) = (  -0.3750000   1.1250000  -0.3750000), wk =   0.0000000
        k(   33) = (  -0.3750000  -0.6250000  -0.3750000), wk =   0.0312500
        k(   34) = (  -0.3750000  -0.1250000  -0.3750000), wk =   0.0000000
        k(   35) = (  -0.3750000   0.1250000  -0.1250000), wk =   0.0625000
        k(   36) = (  -0.3750000   0.6250000  -0.1250000), wk =   0.0000000
        k(   37) = (  -0.1250000   0.3750000  -0.1250000), wk =   0.0312500
        k(   38) = (  -0.1250000   0.8750000  -0.1250000), wk =   0.0000000
        k(   39) = (  -0.1250000  -0.3750000  -0.1250000), wk =   0.0312500
        k(   40) = (  -0.1250000   0.1250000  -0.1250000), wk =   0.0000000
        k(   41) = (  -0.1250000  -0.6250000   0.1250000), wk =   0.0312500
        k(   42) = (  -0.1250000  -0.1250000   0.1250000), wk =   0.0000000
        k(   43) = (   0.6250000  -0.1250000  -0.1250000), wk =   0.0625000
        k(   44) = (   0.6250000   0.3750000  -0.1250000), wk =   0.0000000
        k(   45) = (   0.6250000   0.1250000   0.1250000), wk =   0.0625000
        k(   46) = (   0.6250000   0.6250000   0.1250000), wk =   0.0000000
        k(   47) = (  -0.8750000   0.1250000  -0.6250000), wk =   0.0625000
        k(   48) = (  -0.8750000   0.6250000  -0.6250000), wk =   0.0000000
        k(   49) = (  -0.1250000   0.6250000  -0.8750000), wk =   0.0625000
        k(   50) = (  -0.1250000   1.1250000  -0.8750000), wk =   0.0000000
        k(   51) = (  -0.1250000   0.8750000  -0.6250000), wk =   0.0625000
        k(   52) = (  -0.1250000   1.3750000  -0.6250000), wk =   0.0000000
        k(   53) = (  -0.1250000  -0.8750000  -0.6250000), wk =   0.0625000
        k(   54) = (  -0.1250000  -0.3750000  -0.6250000), wk =   0.0000000
        k(   55) = (   0.8750000  -0.6250000   0.1250000), wk =   0.0625000
        k(   56) = (   0.8750000  -0.1250000   0.1250000), wk =   0.0000000
        k(   57) = (  -0.6250000  -0.1250000  -0.3750000), wk =   0.0625000
        k(   58) = (  -0.6250000   0.3750000  -0.3750000), wk =   0.0000000
        k(   59) = (   0.1250000   0.3750000  -0.6250000), wk =   0.0625000
        k(   60) = (   0.1250000   0.8750000  -0.6250000), wk =   0.0000000
        k(   61) = (   0.1250000   0.6250000  -0.3750000), wk =   0.0625000
        k(   62) = (   0.1250000   1.1250000  -0.3750000), wk =   0.0000000
        k(   63) = (   0.1250000  -0.6250000  -0.3750000), wk =   0.0625000
        k(   64) = (   0.1250000  -0.1250000  -0.3750000), wk =   0.0000000
        k(   65) = (   0.6250000  -0.3750000  -0.1250000), wk =   0.0625000
        k(   66) = (   0.6250000   0.1250000  -0.1250000), wk =   0.0000000
        k(   67) = (  -0.1250000   0.8750000   0.1250000), wk =   0.0312500
        k(   68) = (  -0.1250000   1.3750000   0.1250000), wk =   0.0000000
        k(   69) = (  -0.8750000  -0.1250000  -0.1250000), wk =   0.0625000
        k(   70) = (  -0.8750000   0.3750000  -0.1250000), wk =   0.0000000
        k(   71) = (  -0.8750000   0.1250000   0.1250000), wk =   0.0625000
        k(   72) = (  -0.8750000   0.6250000   0.1250000), wk =   0.0000000
        k(   73) = (  -0.3750000  -0.3750000   0.3750000), wk =   0.0312500
        k(   74) = (  -0.3750000   0.1250000   0.3750000), wk =   0.0000000
        k(   75) = (  -1.1250000   0.3750000  -0.3750000), wk =   0.0625000
        k(   76) = (  -1.1250000   0.8750000  -0.3750000), wk =   0.0000000
        k(   77) = (  -0.3750000   1.1250000  -0.3750000), wk =   0.0312500
        k(   78) = (  -0.3750000   1.6250000  -0.3750000), wk =   0.0000000
        k(   79) = (  -0.3750000  -1.1250000  -0.3750000), wk =   0.0312500
        k(   80) = (  -0.3750000  -0.6250000  -0.3750000), wk =   0.0000000

     Dense  grid:     2891 G-vectors     FFT dimensions: (  20,  20,  20)

     Estimated max dynamical RAM per process >       0.34MB

     Estimated total allocated dynamical RAM >       1.34MB

     Check: negative/imaginary core charge=   -0.000006    0.000000

     The potential is recalculated from file :
     ./_ph0/silicon.10.47.save/charge-density.dat


     negative rho (up, down):  6.824E-06 0.000E+00
     Starting wfc are    8 atomic wfcs

     Band Structure Calculation
     Davidson diagonalization with overlap

     ethr =  1.25E-10,  avg # of iterations = 11.7

     total cpu time spent up to now is        2.1 secs

     End of band structure calculation

          k =-0.1250 0.1250 0.1250 (   362 PWs)   bands (ev):

    -5.7726   3.9984   5.3146   5.3146

          k =-0.1250 0.6250 0.1250 (   367 PWs)   bands (ev):

    -4.2708   0.7012   3.0744   3.5057

          k =-0.3750 0.3750-0.1250 (   368 PWs)   bands (ev):

    -4.7853   1.0730   3.4006   4.8432

          k =-0.3750 0.8750-0.1250 (   378 PWs)   bands (ev):

    -2.7038  -1.2021   1.7914   2.8184

          k = 0.3750-0.3750 0.6250 (   375 PWs)   bands (ev):

    -3.7027  -0.9151   3.4007   4.1050

          k = 0.3750 0.1250 0.6250 (   370 PWs)   bands (ev):

    -3.8761  -0.1173   2.4512   3.7721

          k = 0.1250-0.1250 0.3750 (   364 PWs)   bands (ev):

    -5.2639   2.3988   4.3492   4.3908

          k = 0.1250 0.3750 0.3750 (   368 PWs)   bands (ev):

    -4.7853   1.0730   3.4006   4.8432

          k =-0.1250 0.6250 0.1250 (   367 PWs)   bands (ev):

    -4.2708   0.7012   3.0744   3.5057

          k =-0.1250 1.1250 0.1250 (   366 PWs)   bands (ev):

    -2.8541  -1.1128   2.3707   3.0541

          k = 0.6250-0.1250 0.8750 (   378 PWs)   bands (ev):

    -2.7038  -1.2021   1.7914   2.8184

          k = 0.6250 0.3750 0.8750 (   370 PWs)   bands (ev):

    -3.8761  -0.1173   2.4512   3.7721

          k = 0.3750 0.1250 0.6250 (   370 PWs)   bands (ev):

    -3.8761  -0.1173   2.4512   3.7721

          k = 0.3750 0.6250 0.6250 (   375 PWs)   bands (ev):

    -3.7027  -0.9151   3.4007   4.1050

          k =-0.1250-0.8750 0.1250 (   366 PWs)   bands (ev):

    -2.8541  -1.1128   2.3707   3.0541

          k =-0.1250-0.3750 0.1250 (   364 PWs)   bands (ev):

    -5.2639   2.3988   4.3492   4.3908

          k =-0.3750 0.3750 0.3750 (   362 PWs)   bands (ev):

    -4.3726  -0.1518   4.5483   4.5483

          k =-0.3750 0.8750 0.3750 (   371 PWs)   bands (ev):

    -3.2234  -0.8769   1.8324   3.8024

          k = 0.3750-0.3750 1.1250 (   371 PWs)   bands (ev):

    -3.2234  -0.8769   1.8324   3.8024

          k = 0.3750 0.1250 1.1250 (   378 PWs)   bands (ev):

    -2.7038  -1.2021   1.7914   2.8184

          k =-0.1250-0.1250 0.1250 (   362 PWs)   bands (ev):

    -5.7726   3.9984   5.3146   5.3146

          k =-0.1250 0.3750 0.1250 (   364 PWs)   bands (ev):

    -5.2639   2.3988   4.3492   4.3908

          k = 0.1250-0.3750 0.3750 (   368 PWs)   bands (ev):

    -4.7853   1.0730   3.4006   4.8432

          k = 0.1250 0.1250 0.3750 (   364 PWs)   bands (ev):

    -5.2639   2.3988   4.3492   4.3908

          k = 0.3750-0.1250 0.3750 (   368 PWs)   bands (ev):

    -4.7853   1.0730   3.4006   4.8432

          k = 0.3750 0.3750 0.3750 (   362 PWs)   bands (ev):

    -4.3726  -0.1518   4.5483   4.5483

          k = 0.3750 0.1250 0.3750 (   368 PWs)   bands (ev):

    -4.7853   1.0730   3.4006   4.8432

          k = 0.3750 0.6250 0.3750 (   375 PWs)   bands (ev):

    -3.7027  -0.9151   3.4007   4.1050

          k =-0.6250 0.3750-0.3750 (   375 PWs)   bands (ev):

    -3.7027  -0.9151   3.4007   4.1050

          k =-0.6250 0.8750-0.3750 (   370 PWs)   bands (ev):

    -3.8761  -0.1173   2.4512   3.7721

          k =-0.3750 0.6250-0.3750 (   375 PWs)   bands (ev):

    -3.7027  -0.9151   3.4007   4.1050

          k =-0.3750 1.1250-0.3750 (   371 PWs)   bands (ev):

    -3.2234  -0.8769   1.8324   3.8024

          k =-0.3750-0.6250-0.3750 (   375 PWs)   bands (ev):

    -3.7027  -0.9151   3.4007   4.1050

          k =-0.3750-0.1250-0.3750 (   368 PWs)   bands (ev):

    -4.7853   1.0730   3.4006   4.8432

          k =-0.3750 0.1250-0.1250 (   364 PWs)   bands (ev):

    -5.2639   2.3988   4.3492   4.3908

          k =-0.3750 0.6250-0.1250 (   370 PWs)   bands (ev):

    -3.8761  -0.1173   2.4512   3.7721

          k =-0.1250 0.3750-0.1250 (   364 PWs)   bands (ev):

    -5.2639   2.3988   4.3492   4.3908

          k =-0.1250 0.8750-0.1250 (   366 PWs)   bands (ev):

    -2.8541  -1.1128   2.3707   3.0541

          k =-0.1250-0.3750-0.1250 (   364 PWs)   bands (ev):

    -5.2639   2.3988   4.3492   4.3908

          k =-0.1250 0.1250-0.1250 (   362 PWs)   bands (ev):

    -5.7726   3.9984   5.3146   5.3146

          k =-0.1250-0.6250 0.1250 (   367 PWs)   bands (ev):

    -4.2708   0.7012   3.0744   3.5057

          k =-0.1250-0.1250 0.1250 (   362 PWs)   bands (ev):

    -5.7726   3.9984   5.3146   5.3146

          k = 0.6250-0.1250-0.1250 (   367 PWs)   bands (ev):

    -4.2708   0.7012   3.0744   3.5057

          k = 0.6250 0.3750-0.1250 (   370 PWs)   bands (ev):

    -3.8761  -0.1173   2.4512   3.7721

          k = 0.6250 0.1250 0.1250 (   367 PWs)   bands (ev):

    -4.2708   0.7012   3.0744   3.5057

          k = 0.6250 0.6250 0.1250 (   371 PWs)   bands (ev):

    -3.2234  -0.8769   1.8324   3.8024

          k =-0.8750 0.1250-0.6250 (   378 PWs)   bands (ev):

    -2.7038  -1.2021   1.7914   2.8184

          k =-0.8750 0.6250-0.6250 (   368 PWs)   bands (ev):

    -4.7853   1.0730   3.4006   4.8432

          k =-0.1250 0.6250-0.8750 (   378 PWs)   bands (ev):

    -2.7038  -1.2021   1.7914   2.8184

          k =-0.1250 1.1250-0.8750 (   366 PWs)   bands (ev):

    -2.8541  -1.1128   2.3707   3.0541

          k =-0.1250 0.8750-0.6250 (   378 PWs)   bands (ev):

    -2.7038  -1.2021   1.7914   2.8184

          k =-0.1250 1.3750-0.6250 (   371 PWs)   bands (ev):

    -3.2234  -0.8769   1.8324   3.8024

          k =-0.1250-0.8750-0.6250 (   378 PWs)   bands (ev):

    -2.7038  -1.2021   1.7914   2.8184

          k =-0.1250-0.3750-0.6250 (   370 PWs)   bands (ev):

    -3.8761  -0.1173   2.4512   3.7721

          k = 0.8750-0.6250 0.1250 (   378 PWs)   bands (ev):

    -2.7038  -1.2021   1.7914   2.8184

          k = 0.8750-0.1250 0.1250 (   366 PWs)   bands (ev):

    -2.8541  -1.1128   2.3707   3.0541

          k =-0.6250-0.1250-0.3750 (   370 PWs)   bands (ev):

    -3.8761  -0.1173   2.4512   3.7721

          k =-0.6250 0.3750-0.3750 (   375 PWs)   bands (ev):

    -3.7027  -0.9151   3.4007   4.1050

          k = 0.1250 0.3750-0.6250 (   370 PWs)   bands (ev):

    -3.8761  -0.1173   2.4512   3.7721

          k = 0.1250 0.8750-0.6250 (   378 PWs)   bands (ev):

    -2.7038  -1.2021   1.7914   2.8184

          k = 0.1250 0.6250-0.3750 (   370 PWs)   bands (ev):

    -3.8761  -0.1173   2.4512   3.7721

          k = 0.1250 1.1250-0.3750 (   378 PWs)   bands (ev):

    -2.7038  -1.2021   1.7914   2.8184

          k = 0.1250-0.6250-0.3750 (   370 PWs)   bands (ev):

    -3.8761  -0.1173   2.4512   3.7721

          k = 0.1250-0.1250-0.3750 (   364 PWs)   bands (ev):

    -5.2639   2.3988   4.3492   4.3908

          k = 0.6250-0.3750-0.1250 (   370 PWs)   bands (ev):

    -3.8761  -0.1173   2.4512   3.7721

          k = 0.6250 0.1250-0.1250 (   367 PWs)   bands (ev):

    -4.2708   0.7012   3.0744   3.5057

          k =-0.1250 0.8750 0.1250 (   366 PWs)   bands (ev):

    -2.8541  -1.1128   2.3707   3.0541

          k =-0.1250 1.3750 0.1250 (   367 PWs)   bands (ev):

    -4.2708   0.7012   3.0744   3.5057

          k =-0.8750-0.1250-0.1250 (   366 PWs)   bands (ev):

    -2.8541  -1.1128   2.3707   3.0541

          k =-0.8750 0.3750-0.1250 (   378 PWs)   bands (ev):

    -2.7038  -1.2021   1.7914   2.8184

          k =-0.8750 0.1250 0.1250 (   366 PWs)   bands (ev):

    -2.8541  -1.1128   2.3707   3.0541

          k =-0.8750 0.6250 0.1250 (   378 PWs)   bands (ev):

    -2.7038  -1.2021   1.7914   2.8184

          k =-0.3750-0.3750 0.3750 (   362 PWs)   bands (ev):

    -4.3726  -0.1518   4.5483   4.5483

          k =-0.3750 0.1250 0.3750 (   368 PWs)   bands (ev):

    -4.7853   1.0730   3.4006   4.8432

          k =-1.1250 0.3750-0.3750 (   371 PWs)   bands (ev):

    -3.2234  -0.8769   1.8324   3.8024

          k =-1.1250 0.8750-0.3750 (   367 PWs)   bands (ev):

    -4.2708   0.7012   3.0744   3.5057

          k =-0.3750 1.1250-0.3750 (   371 PWs)   bands (ev):

    -3.2234  -0.8769   1.8324   3.8024

          k =-0.3750 1.6250-0.3750 (   362 PWs)   bands (ev):

    -4.3726  -0.1518   4.5483   4.5483

          k =-0.3750-1.1250-0.3750 (   371 PWs)   bands (ev):

    -3.2234  -0.8769   1.8324   3.8024

          k =-0.3750-0.6250-0.3750 (   375 PWs)   bands (ev):

    -3.7027  -0.9151   3.4007   4.1050

     highest occupied level (ev):     5.3146

     Writing output data file silicon.10.47.save

                                                                                

     bravais-lattice index     =            2
     lattice parameter (alat)  =      10.4700  a.u.
     unit-cell volume          =     286.9327 (a.u.)^3
     number of atoms/cell      =            2
     number of atomic types    =            1
     kinetic-energy cut-off    =      18.0000  Ry
     charge density cut-off    =      72.0000  Ry
     convergence threshold     =      1.0E-12
     beta                      =       0.7000
     number of iterations used =            4
     Exchange-correlation      = SLA  PW   PBE  PBE ( 1  4  3  4 0 0)


     celldm(1)=   10.47000  celldm(2)=    0.00000  celldm(3)=    0.00000
     celldm(4)=    0.00000  celldm(5)=    0.00000  celldm(6)=    0.00000

     crystal axes: (cart. coord. in units of alat)
               a(1) = ( -0.5000  0.0000  0.5000 )  
               a(2) = (  0.0000  0.5000  0.5000 )  
               a(3) = ( -0.5000  0.5000  0.0000 )  

     reciprocal axes: (cart. coord. in units 2 pi/alat)
               b(1) = ( -1.0000 -1.0000  1.0000 )  
               b(2) = (  1.0000  1.0000  1.0000 )  
               b(3) = ( -1.0000  1.0000 -1.0000 )  


     Atoms inside the unit cell: 

     Cartesian axes

     site n.  atom      mass           positions (alat units)
        1     Si  28.0860   tau(    1) = (    0.00000    0.00000    0.00000  )
        2     Si  28.0860   tau(    2) = (    0.25000    0.25000    0.25000  )

     Computing dynamical matrix for 
                    q = (   0.0000000   0.5000000   0.0000000 )

      8 Sym.Ops. (no q -> -q+G )


     G cutoff =  199.9245  (    722 G-vectors)     FFT grid: ( 20, 20, 20)
     number of k points=    80

     PseudoPot. # 1 for Si read from file:
     /home/max/quantum_espresso/qe-6.1/pseudo/si_pbe_v1.uspp.F.UPF.txt
     MD5 check sum: a056efeee980c13900f22a371efd63c1
     Pseudo is Ultrasoft + core correction, Zval =  4.0
     Generated by new atomic code, or converted to UPF format
     Using radial grid of  899 points,  6 beta functions with: 
                l(1) =   0
                l(2) =   0
                l(3) =   1
                l(4) =   1
                l(5) =   2
                l(6) =   2
     Q(r) pseudized with  8 coefficients,  rinner =    0.900   0.900   0.900
                                                       0.900   0.900

     Mode symmetry, C_4v (4mm)  point group:


     Atomic displacements:
     There are   4 irreducible representations

     Representation     1      1 modes -A_1  G_1 D_1  To be done

     Representation     2      1 modes -B_2  G_4 D_2'  To be done

     Representation     3      2 modes -E    G_5 D_5  To be done

     Representation     4      2 modes -E    G_5 D_5  To be done



     Alpha used in Ewald sum =   0.7000

     negative rho (up, down):  6.824E-06 0.000E+00
     PHONON       :    21.09s CPU        22.64s WALL



     Representation #  1 mode #   1

     Self-consistent Calculation

      iter #   1 total cpu time :    22.8 secs   av.it.:   5.8
      thresh= 1.000E-02 alpha_mix =  0.700 |ddv_scf|^2 =  2.877E-03

      iter #   2 total cpu time :    23.0 secs   av.it.:   7.7
      thresh= 5.364E-03 alpha_mix =  0.700 |ddv_scf|^2 =  3.870E-02

      iter #   3 total cpu time :    23.1 secs   av.it.:   6.8
      thresh= 1.000E-02 alpha_mix =  0.700 |ddv_scf|^2 =  1.516E-07

      iter #   4 total cpu time :    23.3 secs   av.it.:   8.1
      thresh= 3.894E-05 alpha_mix =  0.700 |ddv_scf|^2 =  1.769E-08

      iter #   5 total cpu time :    23.5 secs   av.it.:   7.8
      thresh= 1.330E-05 alpha_mix =  0.700 |ddv_scf|^2 =  6.407E-10

      iter #   6 total cpu time :    23.7 secs   av.it.:   8.1
      thresh= 2.531E-06 alpha_mix =  0.700 |ddv_scf|^2 =  2.525E-12

      iter #   7 total cpu time :    24.0 secs   av.it.:   8.0
      thresh= 1.589E-07 alpha_mix =  0.700 |ddv_scf|^2 =  5.122E-13

     End of self-consistent calculation

     Convergence has been achieved 


     Representation #  2 mode #   2

     Self-consistent Calculation

      iter #   1 total cpu time :    24.2 secs   av.it.:   4.9
      thresh= 1.000E-02 alpha_mix =  0.700 |ddv_scf|^2 =  5.131E-06

      iter #   2 total cpu time :    24.4 secs   av.it.:   8.7
      thresh= 2.265E-04 alpha_mix =  0.700 |ddv_scf|^2 =  1.383E-06

      iter #   3 total cpu time :    24.6 secs   av.it.:   8.6
      thresh= 1.176E-04 alpha_mix =  0.700 |ddv_scf|^2 =  3.408E-08

      iter #   4 total cpu time :    24.8 secs   av.it.:   8.2
      thresh= 1.846E-05 alpha_mix =  0.700 |ddv_scf|^2 =  8.502E-10

      iter #   5 total cpu time :    24.9 secs   av.it.:   8.6
      thresh= 2.916E-06 alpha_mix =  0.700 |ddv_scf|^2 =  8.033E-12

      iter #   6 total cpu time :    25.1 secs   av.it.:   7.8
      thresh= 2.834E-07 alpha_mix =  0.700 |ddv_scf|^2 =  1.029E-13

     End of self-consistent calculation

     Convergence has been achieved 


     Representation #  3 modes #   3  4

     Self-consistent Calculation

      iter #   1 total cpu time :    25.4 secs   av.it.:   5.0
      thresh= 1.000E-02 alpha_mix =  0.700 |ddv_scf|^2 =  9.395E-07

      iter #   2 total cpu time :    26.0 secs   av.it.:   9.8
      thresh= 9.693E-05 alpha_mix =  0.700 |ddv_scf|^2 =  1.190E-07

      iter #   3 total cpu time :    26.4 secs   av.it.:   9.5
      thresh= 3.449E-05 alpha_mix =  0.700 |ddv_scf|^2 =  5.177E-09

      iter #   4 total cpu time :    26.8 secs   av.it.:   8.8
      thresh= 7.195E-06 alpha_mix =  0.700 |ddv_scf|^2 =  9.209E-12

      iter #   5 total cpu time :    27.2 secs   av.it.:   9.1
      thresh= 3.035E-07 alpha_mix =  0.700 |ddv_scf|^2 =  3.141E-13

     End of self-consistent calculation

     Convergence has been achieved 


     Representation #  4 modes #   5  6

     Self-consistent Calculation

      iter #   1 total cpu time :    27.5 secs   av.it.:   5.0
      thresh= 1.000E-02 alpha_mix =  0.700 |ddv_scf|^2 =  9.513E-07

      iter #   2 total cpu time :    28.0 secs   av.it.:   9.8
      thresh= 9.754E-05 alpha_mix =  0.700 |ddv_scf|^2 =  1.208E-07

      iter #   3 total cpu time :    28.4 secs   av.it.:   9.5
      thresh= 3.475E-05 alpha_mix =  0.700 |ddv_scf|^2 =  7.838E-09

      iter #   4 total cpu time :    28.8 secs   av.it.:   8.9
      thresh= 8.853E-06 alpha_mix =  0.700 |ddv_scf|^2 =  1.601E-11

      iter #   5 total cpu time :    29.2 secs   av.it.:   9.2
      thresh= 4.001E-07 alpha_mix =  0.700 |ddv_scf|^2 =  4.748E-14

     End of self-consistent calculation

     Convergence has been achieved 

     Number of q in the star =    6
     List of q in the star:
          1   0.000000000   0.500000000   0.000000000
          2   0.000000000  -0.500000000   0.000000000
          3   0.500000000   0.000000000   0.000000000
          4   0.000000000   0.000000000   0.500000000
          5   0.000000000   0.000000000  -0.500000000
          6  -0.500000000   0.000000000   0.000000000

     Diagonalizing the dynamical matrix

     q = (    0.000000000   0.500000000   0.000000000 ) 

 **************************************************************************
     freq (    1) =       4.369668 [THz] =     145.756448 [cm-1]
     freq (    2) =       4.369668 [THz] =     145.756448 [cm-1]
     freq (    3) =       6.827143 [THz] =     227.728993 [cm-1]
     freq (    4) =      13.926467 [THz] =     464.536942 [cm-1]
     freq (    5) =      13.926467 [THz] =     464.536942 [cm-1]
     freq (    6) =      14.690812 [THz] =     490.032746 [cm-1]
 **************************************************************************

     Mode symmetry, C_4v (4mm)  point group:

     freq (  1 -  2) =        145.8  [cm-1]   --> E    G_5 D_5       
     freq (  3 -  3) =        227.7  [cm-1]   --> A_1  G_1 D_1       
     freq (  4 -  5) =        464.5  [cm-1]   --> E    G_5 D_5       
     freq (  6 -  6) =        490.0  [cm-1]   --> B_2  G_4 D_2'      

     Calculation of q =    0.7500000  -0.2500000   0.7500000

   Info: using nr1, nr2, nr3 values from input

   Info: using nr1, nr2, nr3 values from input

     Parallelization info
     --------------------
     sticks:   dense  smooth     PW     G-vecs:    dense   smooth      PW
     Min          65      65     30                  722      722     216
     Max          67      67     31                  723      723     218
     Sum         265     265    121                 2891     2891     869



     bravais-lattice index     =            2
     lattice parameter (alat)  =      10.4700  a.u.
     unit-cell volume          =     286.9327 (a.u.)^3
     number of atoms/cell      =            2
     number of atomic types    =            1
     number of electrons       =         8.00
     number of Kohn-Sham states=            4
     kinetic-energy cutoff     =      18.0000  Ry
     charge density cutoff     =      72.0000  Ry
     Exchange-correlation      = SLA  PW   PBE  PBE ( 1  4  3  4 0 0)

     celldm(1)=  10.470000  celldm(2)=   0.000000  celldm(3)=   0.000000
     celldm(4)=   0.000000  celldm(5)=   0.000000  celldm(6)=   0.000000

     crystal axes: (cart. coord. in units of alat)
               a(1) = (  -0.500000   0.000000   0.500000 )  
               a(2) = (   0.000000   0.500000   0.500000 )  
               a(3) = (  -0.500000   0.500000   0.000000 )  

     reciprocal axes: (cart. coord. in units 2 pi/alat)
               b(1) = ( -1.000000 -1.000000  1.000000 )  
               b(2) = (  1.000000  1.000000  1.000000 )  
               b(3) = ( -1.000000  1.000000 -1.000000 )  


     PseudoPot. # 1 for Si read from file:
     /home/max/quantum_espresso/qe-6.1/pseudo/si_pbe_v1.uspp.F.UPF.txt
     MD5 check sum: a056efeee980c13900f22a371efd63c1
     Pseudo is Ultrasoft + core correction, Zval =  4.0
     Generated by new atomic code, or converted to UPF format
     Using radial grid of  899 points,  6 beta functions with: 
                l(1) =   0
                l(2) =   0
                l(3) =   1
                l(4) =   1
                l(5) =   2
                l(6) =   2
     Q(r) pseudized with  8 coefficients,  rinner =    0.900   0.900   0.900
                                                       0.900   0.900

     atomic species   valence    mass     pseudopotential
        Si             4.00    28.08600     Si( 1.00)

     48 Sym. Ops., with inversion, found



   Cartesian axes

     site n.     atom                  positions (alat units)
         1           Si  tau(   1) = (   0.0000000   0.0000000   0.0000000  )
         2           Si  tau(   2) = (   0.2500000   0.2500000   0.2500000  )

     number of k points=   288

     Number of k-points >= 100: set verbosity='high' to print them.

     Dense  grid:     2891 G-vectors     FFT dimensions: (  20,  20,  20)

     Estimated max dynamical RAM per process >       0.34MB

     Estimated total allocated dynamical RAM >       1.34MB

     Check: negative/imaginary core charge=   -0.000006    0.000000

     The potential is recalculated from file :
     ./_ph0/silicon.10.47.save/charge-density.dat


     negative rho (up, down):  6.824E-06 0.000E+00
     Starting wfc are    8 atomic wfcs

     Band Structure Calculation
     Davidson diagonalization with overlap

     ethr =  1.25E-10,  avg # of iterations = 11.6

     total cpu time spent up to now is        4.1 secs

     End of band structure calculation

     Number of k-points >= 100: set verbosity='high' to print the bands.

     highest occupied level (ev):     5.3146

     Writing output data file silicon.10.47.save

                                                                                

     bravais-lattice index     =            2
     lattice parameter (alat)  =      10.4700  a.u.
     unit-cell volume          =     286.9327 (a.u.)^3
     number of atoms/cell      =            2
     number of atomic types    =            1
     kinetic-energy cut-off    =      18.0000  Ry
     charge density cut-off    =      72.0000  Ry
     convergence threshold     =      1.0E-12
     beta                      =       0.7000
     number of iterations used =            4
     Exchange-correlation      = SLA  PW   PBE  PBE ( 1  4  3  4 0 0)


     celldm(1)=   10.47000  celldm(2)=    0.00000  celldm(3)=    0.00000
     celldm(4)=    0.00000  celldm(5)=    0.00000  celldm(6)=    0.00000

     crystal axes: (cart. coord. in units of alat)
               a(1) = ( -0.5000  0.0000  0.5000 )  
               a(2) = (  0.0000  0.5000  0.5000 )  
               a(3) = ( -0.5000  0.5000  0.0000 )  

     reciprocal axes: (cart. coord. in units 2 pi/alat)
               b(1) = ( -1.0000 -1.0000  1.0000 )  
               b(2) = (  1.0000  1.0000  1.0000 )  
               b(3) = ( -1.0000  1.0000 -1.0000 )  


     Atoms inside the unit cell: 

     Cartesian axes

     site n.  atom      mass           positions (alat units)
        1     Si  28.0860   tau(    1) = (    0.00000    0.00000    0.00000  )
        2     Si  28.0860   tau(    2) = (    0.25000    0.25000    0.25000  )

     Computing dynamical matrix for 
                    q = (   0.7500000  -0.2500000   0.7500000 )

      2 Sym.Ops. (no q -> -q+G )


     G cutoff =  199.9245  (    723 G-vectors)     FFT grid: ( 20, 20, 20)
     number of k points=   288

     PseudoPot. # 1 for Si read from file:
     /home/max/quantum_espresso/qe-6.1/pseudo/si_pbe_v1.uspp.F.UPF.txt
     MD5 check sum: a056efeee980c13900f22a371efd63c1
     Pseudo is Ultrasoft + core correction, Zval =  4.0
     Generated by new atomic code, or converted to UPF format
     Using radial grid of  899 points,  6 beta functions with: 
                l(1) =   0
                l(2) =   0
                l(3) =   1
                l(4) =   1
                l(5) =   2
                l(6) =   2
     Q(r) pseudized with  8 coefficients,  rinner =    0.900   0.900   0.900
                                                       0.900   0.900

     Mode symmetry, C_s (m)     point group:


     Atomic displacements:
     There are   6 irreducible representations

     Representation     1      1 modes -A'  To be done

     Representation     2      1 modes -A'  To be done

     Representation     3      1 modes -A'  To be done

     Representation     4      1 modes -A'  To be done

     Representation     5      1 modes -A''  To be done

     Representation     6      1 modes -A''  To be done



     Alpha used in Ewald sum =   0.7000

     negative rho (up, down):  6.824E-06 0.000E+00
     PHONON       :    29.89s CPU        32.03s WALL



     Representation #  1 mode #   1

     Self-consistent Calculation

      iter #   1 total cpu time :    32.5 secs   av.it.:   5.3
      thresh= 1.000E-02 alpha_mix =  0.700 |ddv_scf|^2 =  5.953E-05

      iter #   2 total cpu time :    33.2 secs   av.it.:   8.9
      thresh= 7.716E-04 alpha_mix =  0.700 |ddv_scf|^2 =  1.600E-04

      iter #   3 total cpu time :    34.0 secs   av.it.:   7.6
      thresh= 1.265E-03 alpha_mix =  0.700 |ddv_scf|^2 =  1.126E-06

      iter #   4 total cpu time :    34.6 secs   av.it.:   8.4
      thresh= 1.061E-04 alpha_mix =  0.700 |ddv_scf|^2 =  6.220E-08

      iter #   5 total cpu time :    35.2 secs   av.it.:   8.3
      thresh= 2.494E-05 alpha_mix =  0.700 |ddv_scf|^2 =  7.521E-09

      iter #   6 total cpu time :    36.0 secs   av.it.:   8.5
      thresh= 8.672E-06 alpha_mix =  0.700 |ddv_scf|^2 =  1.045E-10

      iter #   7 total cpu time :    36.7 secs   av.it.:   8.8
      thresh= 1.022E-06 alpha_mix =  0.700 |ddv_scf|^2 =  3.759E-12

      iter #   8 total cpu time :    37.4 secs   av.it.:   8.6
      thresh= 1.939E-07 alpha_mix =  0.700 |ddv_scf|^2 =  3.383E-13

     End of self-consistent calculation

     Convergence has been achieved 


     Representation #  2 mode #   2

     Self-consistent Calculation

      iter #   1 total cpu time :    38.1 secs   av.it.:   5.3
      thresh= 1.000E-02 alpha_mix =  0.700 |ddv_scf|^2 =  1.054E-04

      iter #   2 total cpu time :    38.7 secs   av.it.:   8.7
      thresh= 1.027E-03 alpha_mix =  0.700 |ddv_scf|^2 =  3.057E-04

      iter #   3 total cpu time :    39.3 secs   av.it.:   7.4
      thresh= 1.748E-03 alpha_mix =  0.700 |ddv_scf|^2 =  8.214E-07

      iter #   4 total cpu time :    40.1 secs   av.it.:   8.5
      thresh= 9.063E-05 alpha_mix =  0.700 |ddv_scf|^2 =  5.991E-08

      iter #   5 total cpu time :    40.8 secs   av.it.:   8.3
      thresh= 2.448E-05 alpha_mix =  0.700 |ddv_scf|^2 =  1.135E-08

      iter #   6 total cpu time :    41.4 secs   av.it.:   8.5
      thresh= 1.065E-05 alpha_mix =  0.700 |ddv_scf|^2 =  9.602E-11

      iter #   7 total cpu time :    42.2 secs   av.it.:   8.8
      thresh= 9.799E-07 alpha_mix =  0.700 |ddv_scf|^2 =  3.159E-12

      iter #   8 total cpu time :    42.9 secs   av.it.:   8.7
      thresh= 1.777E-07 alpha_mix =  0.700 |ddv_scf|^2 =  8.947E-13

     End of self-consistent calculation

     Convergence has been achieved 


     Representation #  3 mode #   3

     Self-consistent Calculation

      iter #   1 total cpu time :    43.4 secs   av.it.:   5.3
      thresh= 1.000E-02 alpha_mix =  0.700 |ddv_scf|^2 =  8.257E-05

      iter #   2 total cpu time :    44.2 secs   av.it.:   8.8
      thresh= 9.087E-04 alpha_mix =  0.700 |ddv_scf|^2 =  2.231E-04

      iter #   3 total cpu time :    44.8 secs   av.it.:   7.5
      thresh= 1.494E-03 alpha_mix =  0.700 |ddv_scf|^2 =  1.391E-06

      iter #   4 total cpu time :    45.5 secs   av.it.:   8.2
      thresh= 1.179E-04 alpha_mix =  0.700 |ddv_scf|^2 =  6.103E-08

      iter #   5 total cpu time :    46.3 secs   av.it.:   8.5
      thresh= 2.471E-05 alpha_mix =  0.700 |ddv_scf|^2 =  1.186E-08

      iter #   6 total cpu time :    46.9 secs   av.it.:   8.5
      thresh= 1.089E-05 alpha_mix =  0.700 |ddv_scf|^2 =  5.300E-11

      iter #   7 total cpu time :    47.6 secs   av.it.:   8.7
      thresh= 7.280E-07 alpha_mix =  0.700 |ddv_scf|^2 =  2.169E-12

[...]
        k(   60) = (  -1.3750000  -0.8750000  -0.1250000), wk =   0.0000000
        k(   61) = (  -1.1250000   0.3750000  -0.3750000), wk =   0.0625000
        k(   62) = (  -1.6250000  -0.6250000  -0.3750000), wk =   0.0000000
        k(   63) = (  -0.3750000   0.3750000   1.1250000), wk =   0.0625000
        k(   64) = (  -0.8750000  -0.6250000   1.1250000), wk =   0.0000000

     Dense  grid:     2891 G-vectors     FFT dimensions: (  20,  20,  20)

     Estimated max dynamical RAM per process >       0.34MB

     Estimated total allocated dynamical RAM >       1.34MB

     Check: negative/imaginary core charge=   -0.000006    0.000000

     The potential is recalculated from file :
     ./_ph0/silicon.10.47.save/charge-density.dat


     negative rho (up, down):  6.824E-06 0.000E+00
     Starting wfc are    8 atomic wfcs

     Band Structure Calculation
     Davidson diagonalization with overlap

     ethr =  1.25E-10,  avg # of iterations = 11.6

     total cpu time spent up to now is        6.2 secs

     End of band structure calculation

          k =-0.1250 0.1250 0.1250 (   362 PWs)   bands (ev):

    -5.7726   3.9984   5.3146   5.3146

          k =-0.6250-0.8750 0.1250 (   378 PWs)   bands (ev):

    -2.7038  -1.2021   1.7914   2.8184

          k =-0.3750 0.3750-0.1250 (   368 PWs)   bands (ev):

    -4.7853   1.0730   3.4006   4.8432

          k =-0.8750-0.6250-0.1250 (   378 PWs)   bands (ev):

    -2.7038  -1.2021   1.7914   2.8184

          k = 0.3750-0.3750 0.6250 (   375 PWs)   bands (ev):

    -3.7027  -0.9151   3.4007   4.1050

          k =-0.1250-1.3750 0.6250 (   371 PWs)   bands (ev):

    -3.2234  -0.8769   1.8324   3.8024

          k = 0.1250-0.1250 0.3750 (   364 PWs)   bands (ev):

    -5.2639   2.3988   4.3492   4.3908

          k =-0.3750-1.1250 0.3750 (   371 PWs)   bands (ev):

    -3.2234  -0.8769   1.8324   3.8024

          k =-0.1250 0.6250 0.1250 (   367 PWs)   bands (ev):

    -4.2708   0.7012   3.0744   3.5057

          k =-0.6250-0.3750 0.1250 (   370 PWs)   bands (ev):

    -3.8761  -0.1173   2.4512   3.7721

          k = 0.6250-0.1250 0.8750 (   378 PWs)   bands (ev):

    -2.7038  -1.2021   1.7914   2.8184

          k = 0.1250-1.1250 0.8750 (   366 PWs)   bands (ev):

    -2.8541  -1.1128   2.3707   3.0541

          k = 0.3750 0.1250 0.6250 (   370 PWs)   bands (ev):

    -3.8761  -0.1173   2.4512   3.7721

          k =-0.1250-0.8750 0.6250 (   378 PWs)   bands (ev):

    -2.7038  -1.2021   1.7914   2.8184

          k =-0.1250-0.8750 0.1250 (   366 PWs)   bands (ev):

    -2.8541  -1.1128   2.3707   3.0541

          k =-0.6250-1.8750 0.1250 (   367 PWs)   bands (ev):

    -4.2708   0.7012   3.0744   3.5057

          k =-0.3750 0.3750 0.3750 (   362 PWs)   bands (ev):

    -4.3726  -0.1518   4.5483   4.5483

          k =-0.8750-0.6250 0.3750 (   370 PWs)   bands (ev):

    -3.8761  -0.1173   2.4512   3.7721

          k = 0.3750-0.3750 1.1250 (   371 PWs)   bands (ev):

    -3.2234  -0.8769   1.8324   3.8024

          k =-0.1250-1.3750 1.1250 (   378 PWs)   bands (ev):

    -2.7038  -1.2021   1.7914   2.8184

          k = 0.1250-0.3750 0.3750 (   368 PWs)   bands (ev):

    -4.7853   1.0730   3.4006   4.8432

          k =-0.3750-1.3750 0.3750 (   375 PWs)   bands (ev):

    -3.7027  -0.9151   3.4007   4.1050

          k = 0.3750-0.3750-0.1250 (   368 PWs)   bands (ev):

    -4.7853   1.0730   3.4006   4.8432

          k =-0.1250-1.3750-0.1250 (   367 PWs)   bands (ev):

    -4.2708   0.7012   3.0744   3.5057

          k =-0.6250 0.3750-0.3750 (   375 PWs)   bands (ev):

    -3.7027  -0.9151   3.4007   4.1050

          k =-1.1250-0.6250-0.3750 (   370 PWs)   bands (ev):

    -3.8761  -0.1173   2.4512   3.7721

          k =-0.3750 0.3750 0.6250 (   375 PWs)   bands (ev):

    -3.7027  -0.9151   3.4007   4.1050

          k =-0.8750-0.6250 0.6250 (   368 PWs)   bands (ev):

    -4.7853   1.0730   3.4006   4.8432

          k =-0.3750 0.1250-0.1250 (   364 PWs)   bands (ev):

    -5.2639   2.3988   4.3492   4.3908

          k =-0.8750-0.8750-0.1250 (   366 PWs)   bands (ev):

    -2.8541  -1.1128   2.3707   3.0541

          k =-0.1250 0.1250 0.3750 (   364 PWs)   bands (ev):

    -5.2639   2.3988   4.3492   4.3908

          k =-0.6250-0.8750 0.3750 (   370 PWs)   bands (ev):

    -3.8761  -0.1173   2.4512   3.7721

          k = 0.1250 0.6250-0.1250 (   367 PWs)   bands (ev):

    -4.2708   0.7012   3.0744   3.5057

          k =-0.3750-0.3750-0.1250 (   368 PWs)   bands (ev):

    -4.7853   1.0730   3.4006   4.8432

          k = 0.6250 0.1250-0.1250 (   367 PWs)   bands (ev):

    -4.2708   0.7012   3.0744   3.5057

          k = 0.1250-0.8750-0.1250 (   366 PWs)   bands (ev):

    -2.8541  -1.1128   2.3707   3.0541

          k =-0.8750 0.1250-0.6250 (   378 PWs)   bands (ev):

    -2.7038  -1.2021   1.7914   2.8184

          k =-1.3750-0.8750-0.6250 (   368 PWs)   bands (ev):

    -4.7853   1.0730   3.4006   4.8432

          k = 0.8750-0.1250 0.6250 (   378 PWs)   bands (ev):

    -2.7038  -1.2021   1.7914   2.8184

          k = 0.3750-1.1250 0.6250 (   370 PWs)   bands (ev):

    -3.8761  -0.1173   2.4512   3.7721

          k =-0.6250 0.1250 0.8750 (   378 PWs)   bands (ev):

    -2.7038  -1.2021   1.7914   2.8184

          k =-1.1250-0.8750 0.8750 (   362 PWs)   bands (ev):

    -5.7726   3.9984   5.3146   5.3146

          k =-0.1250 0.8750 0.6250 (   378 PWs)   bands (ev):

    -2.7038  -1.2021   1.7914   2.8184

          k =-0.6250-0.1250 0.6250 (   371 PWs)   bands (ev):

    -3.2234  -0.8769   1.8324   3.8024

          k = 0.1250 0.8750-0.6250 (   378 PWs)   bands (ev):

    -2.7038  -1.2021   1.7914   2.8184

          k =-0.3750-0.1250-0.6250 (   370 PWs)   bands (ev):

    -3.8761  -0.1173   2.4512   3.7721

          k =-0.6250-0.1250-0.3750 (   370 PWs)   bands (ev):

    -3.8761  -0.1173   2.4512   3.7721

          k =-1.1250-1.1250-0.3750 (   367 PWs)   bands (ev):

    -4.2708   0.7012   3.0744   3.5057

          k = 0.6250 0.1250 0.3750 (   370 PWs)   bands (ev):

    -3.8761  -0.1173   2.4512   3.7721

          k = 0.1250-0.8750 0.3750 (   378 PWs)   bands (ev):

    -2.7038  -1.2021   1.7914   2.8184

          k =-0.3750-0.1250 0.6250 (   370 PWs)   bands (ev):

    -3.8761  -0.1173   2.4512   3.7721

          k =-0.8750-1.1250 0.6250 (   364 PWs)   bands (ev):

    -5.2639   2.3988   4.3492   4.3908

          k = 0.1250 0.6250 0.3750 (   370 PWs)   bands (ev):

    -3.8761  -0.1173   2.4512   3.7721

          k =-0.3750-0.3750 0.3750 (   362 PWs)   bands (ev):

    -4.3726  -0.1518   4.5483   4.5483

          k =-0.1250 0.6250-0.3750 (   370 PWs)   bands (ev):

    -3.8761  -0.1173   2.4512   3.7721

          k =-0.6250-0.3750-0.3750 (   375 PWs)   bands (ev):

    -3.7027  -0.9151   3.4007   4.1050

          k = 0.1250-0.8750-0.1250 (   366 PWs)   bands (ev):

    -2.8541  -1.1128   2.3707   3.0541

          k =-0.3750-1.8750-0.1250 (   364 PWs)   bands (ev):

    -5.2639   2.3988   4.3492   4.3908

          k =-0.8750 0.1250-0.1250 (   366 PWs)   bands (ev):

    -2.8541  -1.1128   2.3707   3.0541

          k =-1.3750-0.8750-0.1250 (   378 PWs)   bands (ev):

    -2.7038  -1.2021   1.7914   2.8184

          k =-1.1250 0.3750-0.3750 (   371 PWs)   bands (ev):

    -3.2234  -0.8769   1.8324   3.8024

          k =-1.6250-0.6250-0.3750 (   375 PWs)   bands (ev):

    -3.7027  -0.9151   3.4007   4.1050

          k =-0.3750 0.3750 1.1250 (   371 PWs)   bands (ev):

    -3.2234  -0.8769   1.8324   3.8024

          k =-0.8750-0.6250 1.1250 (   364 PWs)   bands (ev):

    -5.2639   2.3988   4.3492   4.3908

     highest occupied level (ev):     5.3146

     Writing output data file silicon.10.47.save

                                                                                

     bravais-lattice index     =            2
     lattice parameter (alat)  =      10.4700  a.u.
     unit-cell volume          =     286.9327 (a.u.)^3
     number of atoms/cell      =            2
     number of atomic types    =            1
     kinetic-energy cut-off    =      18.0000  Ry
     charge density cut-off    =      72.0000  Ry
     convergence threshold     =      1.0E-12
     beta                      =       0.7000
     number of iterations used =            4
     Exchange-correlation      = SLA  PW   PBE  PBE ( 1  4  3  4 0 0)


     celldm(1)=   10.47000  celldm(2)=    0.00000  celldm(3)=    0.00000
     celldm(4)=    0.00000  celldm(5)=    0.00000  celldm(6)=    0.00000

     crystal axes: (cart. coord. in units of alat)
               a(1) = ( -0.5000  0.0000  0.5000 )  
               a(2) = (  0.0000  0.5000  0.5000 )  
               a(3) = ( -0.5000  0.5000  0.0000 )  

     reciprocal axes: (cart. coord. in units 2 pi/alat)
               b(1) = ( -1.0000 -1.0000  1.0000 )  
               b(2) = (  1.0000  1.0000  1.0000 )  
               b(3) = ( -1.0000  1.0000 -1.0000 )  


     Atoms inside the unit cell: 

     Cartesian axes

     site n.  atom      mass           positions (alat units)
        1     Si  28.0860   tau(    1) = (    0.00000    0.00000    0.00000  )
        2     Si  28.0860   tau(    2) = (    0.25000    0.25000    0.25000  )

     Computing dynamical matrix for 
                    q = (  -0.5000000  -1.0000000   0.0000000 )

      8 Sym.Ops. (no q -> -q+G )


     G cutoff =  199.9245  (    722 G-vectors)     FFT grid: ( 20, 20, 20)
     number of k points=    64

     PseudoPot. # 1 for Si read from file:
     /home/max/quantum_espresso/qe-6.1/pseudo/si_pbe_v1.uspp.F.UPF.txt
     MD5 check sum: a056efeee980c13900f22a371efd63c1
     Pseudo is Ultrasoft + core correction, Zval =  4.0
     Generated by new atomic code, or converted to UPF format
     Using radial grid of  899 points,  6 beta functions with: 
                l(1) =   0
                l(2) =   0
                l(3) =   1
                l(4) =   1
                l(5) =   2
                l(6) =   2
     Q(r) pseudized with  8 coefficients,  rinner =    0.900   0.900   0.900
                                                       0.900   0.900


     Atomic displacements:
     There are   3 irreducible representations

     Representation     1      2 modes -  To be done

     Representation     2      2 modes -  To be done

     Representation     3      2 modes -  To be done



     Alpha used in Ewald sum =   0.7000

     negative rho (up, down):  6.824E-06 0.000E+00
     PHONON       :  1m14.36s CPU     1m19.69s WALL



     Representation #  1 modes #   1  2

     Self-consistent Calculation

      iter #   1 total cpu time :    80.1 secs   av.it.:   5.3
      thresh= 1.000E-02 alpha_mix =  0.700 |ddv_scf|^2 =  6.159E-06

      iter #   2 total cpu time :    80.4 secs   av.it.:   9.9
      thresh= 2.482E-04 alpha_mix =  0.700 |ddv_scf|^2 =  3.297E-06

      iter #   3 total cpu time :    80.7 secs   av.it.:   9.3
      thresh= 1.816E-04 alpha_mix =  0.700 |ddv_scf|^2 =  8.817E-09

      iter #   4 total cpu time :    81.1 secs   av.it.:   9.1
      thresh= 9.390E-06 alpha_mix =  0.700 |ddv_scf|^2 =  2.256E-11

      iter #   5 total cpu time :    81.4 secs   av.it.:   9.1
      thresh= 4.749E-07 alpha_mix =  0.700 |ddv_scf|^2 =  6.582E-13

     End of self-consistent calculation

     Convergence has been achieved 


     Representation #  2 modes #   3  4

     Self-consistent Calculation

      iter #   1 total cpu time :    81.6 secs   av.it.:   5.2
      thresh= 1.000E-02 alpha_mix =  0.700 |ddv_scf|^2 =  9.600E-06

      iter #   2 total cpu time :    82.1 secs   av.it.:   9.9
      thresh= 3.098E-04 alpha_mix =  0.700 |ddv_scf|^2 =  1.334E-05

      iter #   3 total cpu time :    82.5 secs   av.it.:   9.1
      thresh= 3.653E-04 alpha_mix =  0.700 |ddv_scf|^2 =  1.066E-08

      iter #   4 total cpu time :    82.8 secs   av.it.:   8.9
      thresh= 1.032E-05 alpha_mix =  0.700 |ddv_scf|^2 =  1.116E-10

      iter #   5 total cpu time :    83.1 secs   av.it.:   9.5
      thresh= 1.057E-06 alpha_mix =  0.700 |ddv_scf|^2 =  2.023E-12

      iter #   6 total cpu time :    83.4 secs   av.it.:   9.2
      thresh= 1.422E-07 alpha_mix =  0.700 |ddv_scf|^2 =  1.679E-14

     End of self-consistent calculation

     Convergence has been achieved 


     Representation #  3 modes #   5  6

     Self-consistent Calculation

      iter #   1 total cpu time :    83.6 secs   av.it.:   5.1
      thresh= 1.000E-02 alpha_mix =  0.700 |ddv_scf|^2 =  2.576E-06

      iter #   2 total cpu time :    84.1 secs   av.it.:   9.7
      thresh= 1.605E-04 alpha_mix =  0.700 |ddv_scf|^2 =  1.393E-06

      iter #   3 total cpu time :    84.5 secs   av.it.:   9.1
      thresh= 1.180E-04 alpha_mix =  0.700 |ddv_scf|^2 =  8.470E-09

      iter #   4 total cpu time :    84.8 secs   av.it.:   8.7
      thresh= 9.203E-06 alpha_mix =  0.700 |ddv_scf|^2 =  4.582E-11

      iter #   5 total cpu time :    85.1 secs   av.it.:   9.1
      thresh= 6.769E-07 alpha_mix =  0.700 |ddv_scf|^2 =  7.234E-13

     End of self-consistent calculation

     Convergence has been achieved 

     Number of q in the star =    6
     List of q in the star:
          1  -0.500000000  -1.000000000   0.000000000
          2   0.000000000   1.000000000   0.500000000
          3   0.000000000  -1.000000000  -0.500000000
          4   0.500000000   1.000000000   0.000000000
          5  -1.000000000  -0.500000000   0.000000000
          6   0.000000000  -0.500000000  -1.000000000

     Diagonalizing the dynamical matrix

     q = (   -0.500000000  -1.000000000   0.000000000 ) 

 **************************************************************************
     freq (    1) =       7.939345 [THz] =     264.828028 [cm-1]
     freq (    2) =       7.939345 [THz] =     264.828028 [cm-1]
     freq (    3) =      10.879347 [THz] =     362.895946 [cm-1]
     freq (    4) =      10.879347 [THz] =     362.895946 [cm-1]
     freq (    5) =      13.421351 [THz] =     447.688065 [cm-1]
     freq (    6) =      13.421351 [THz] =     447.688065 [cm-1]
 **************************************************************************

     init_run     :      0.55s CPU      0.58s WALL (       7 calls)
     electrons    :      4.61s CPU      4.89s WALL (       7 calls)

     Called by init_run:
     wfcinit      :      0.00s CPU      0.00s WALL (       7 calls)
     potinit      :      0.02s CPU      0.02s WALL (       7 calls)

     Called by electrons:
     c_bands      :      4.60s CPU      4.88s WALL (       7 calls)
     v_of_rho     :      0.01s CPU      0.01s WALL (       8 calls)
     newd         :      0.03s CPU      0.03s WALL (       8 calls)

     Called by c_bands:
     init_us_2    :      0.70s CPU      0.73s WALL (   17588 calls)
     cegterg      :      3.84s CPU      4.05s WALL (     796 calls)

     Called by sum_band:

     Called by *egterg:
     h_psi        :     43.28s CPU     46.08s WALL (  152542 calls)
     s_psi        :      5.94s CPU      6.29s WALL (  309804 calls)
     g_psi        :      0.03s CPU      0.03s WALL (    9268 calls)
     cdiaghg      :      0.44s CPU      0.46s WALL (   10064 calls)

     Called by h_psi:
     h_psi:pot    :     43.10s CPU     45.88s WALL (  152542 calls)
     h_psi:calbec :      4.59s CPU      4.99s WALL (  152542 calls)
     vloc_psi     :     35.31s CPU     37.51s WALL (  152542 calls)
     add_vuspsi   :      2.97s CPU      3.16s WALL (  152542 calls)

     General routines
     calbec       :     10.10s CPU     10.96s WALL (  346176 calls)
     fft          :      0.43s CPU      0.46s WALL (    5239 calls)
     ffts         :      0.13s CPU      0.16s WALL (    2748 calls)
     fftw         :     41.15s CPU     43.95s WALL ( 1380894 calls)
     davcio       :      0.32s CPU      0.39s WALL (   79045 calls)

     Parallel routines
     fft_scatter  :      9.29s CPU     10.30s WALL ( 1388881 calls)

     PHONON       :  1m19.34s CPU     1m25.09s WALL

     INITIALIZATION: 
     phq_setup    :      0.05s CPU      0.05s WALL (       8 calls)
     phq_init     :      2.19s CPU      2.32s WALL (       8 calls)

     phq_init     :      2.19s CPU      2.32s WALL (       8 calls)
     set_drhoc    :      0.29s CPU      0.29s WALL (      24 calls)
     init_vloc    :      0.01s CPU      0.01s WALL (       8 calls)
     init_us_1    :      0.51s CPU      0.51s WALL (       8 calls)
     newd         :      0.03s CPU      0.03s WALL (       8 calls)
     dvanqq       :      0.23s CPU      0.23s WALL (       8 calls)
     drho         :      1.18s CPU      1.31s WALL (       8 calls)

     DYNAMICAL MATRIX:
     dynmat0      :      0.54s CPU      0.54s WALL (       8 calls)
     phqscf       :     69.47s CPU     74.62s WALL (       8 calls)
     dynmatrix    :      0.01s CPU      0.02s WALL (       8 calls)

     phqscf       :     69.47s CPU     74.62s WALL (       8 calls)
     solve_linter :     68.76s CPU     73.89s WALL (      32 calls)
     drhodv       :      0.51s CPU      0.51s WALL (      32 calls)

     dynmat0      :      0.54s CPU      0.54s WALL (       8 calls)
     dynmat_us    :      0.32s CPU      0.32s WALL (       8 calls)
     d2ionq       :      0.01s CPU      0.01s WALL (       8 calls)
     dynmatcc     :      0.21s CPU      0.21s WALL (       8 calls)

     dynmat_us    :      0.32s CPU      0.32s WALL (       8 calls)
     addusdynmat  :      0.00s CPU      0.00s WALL (       8 calls)

     phqscf       :     69.47s CPU     74.62s WALL (       8 calls)
     solve_linter :     68.76s CPU     73.89s WALL (      32 calls)

     solve_linter :     68.76s CPU     73.89s WALL (      32 calls)
     dvqpsi_us    :      1.65s CPU      1.75s WALL (    2508 calls)
     ortho        :      1.08s CPU      1.15s WALL (   15550 calls)
     cgsolve      :     53.63s CPU     57.39s WALL (   15550 calls)
     incdrhoscf   :      4.78s CPU      5.33s WALL (   15550 calls)
     addusddens   :      1.21s CPU      1.26s WALL (     228 calls)
     vpsifft      :      3.45s CPU      3.69s WALL (   12922 calls)
     dv_of_drho   :      0.21s CPU      0.22s WALL (     295 calls)
     mix_pot      :      0.05s CPU      0.06s WALL (     201 calls)
     psymdvscf    :      0.82s CPU      0.84s WALL (     196 calls)
     newdq        :      1.28s CPU      1.40s WALL (     201 calls)
     adddvscf     :      0.47s CPU      0.51s WALL (   13042 calls)
     drhodvus     :      0.00s CPU      0.00s WALL (      32 calls)

     dvqpsi_us    :      1.65s CPU      1.75s WALL (    2508 calls)
     dvqpsi_us_on :      0.82s CPU      0.87s WALL (    2508 calls)

     cgsolve      :     53.63s CPU     57.39s WALL (   15550 calls)
     ch_psi       :     51.82s CPU     55.34s WALL (  141682 calls)

     ch_psi       :     51.82s CPU     55.34s WALL (  141682 calls)
     h_psi        :     43.28s CPU     46.08s WALL (  152542 calls)
     last         :      8.61s CPU      9.34s WALL (  141682 calls)

     h_psi        :     43.28s CPU     46.08s WALL (  152542 calls)
     add_vuspsi   :      2.97s CPU      3.16s WALL (  152542 calls)

     incdrhoscf   :      4.78s CPU      5.33s WALL (   15550 calls)
     addusdbec    :      0.73s CPU      0.83s WALL (   17998 calls)

     drhodvus     :      0.00s CPU      0.00s WALL (      32 calls)

      General routines
     calbec       :     10.10s CPU     10.96s WALL (  346176 calls)
     fft          :      0.43s CPU      0.46s WALL (    5239 calls)
     ffts         :      0.13s CPU      0.16s WALL (    2748 calls)
     fftw         :     41.15s CPU     43.95s WALL ( 1380894 calls)
     davcio       :      0.32s CPU      0.39s WALL (   79045 calls)
     write_rec    :      0.23s CPU      0.27s WALL (     233 calls)


     PHONON       :  1m19.34s CPU     1m25.09s WALL


   This run was terminated on:   1:44:37   9Nov2017            

=------------------------------------------------------------------------------=
   JOB DONE.
=------------------------------------------------------------------------------=
