
     Program PWSCF v.6.1 (svn rev. 13369) starts on  9Nov2017 at  1:43:12 

     This program is part of the open-source Quantum ESPRESSO suite
     for quantum simulation of materials; please cite
         "P. Giannozzi et al., J. Phys.:Condens. Matter 21 395502 (2009);
          URL http://www.quantum-espresso.org", 
     in publications or presentations arising from this work. More details at
     http://www.quantum-espresso.org/quote

     Parallel version (MPI), running on     4 processors
     R & G space division:  proc/nbgrp/npool/nimage =       4
     Waiting for input...
     Reading input from standard input
     Message from routine read_cards :
     DEPRECATED: no units specified in ATOMIC_POSITIONS card
     Message from routine read_cards :
     ATOMIC_POSITIONS: units set to alat

     Current dimensions of program PWSCF are:
     Max number of different atomic species (ntypx) = 10
     Max number of k-points (npk) =  40000
     Max angular momentum in pseudopotentials (lmaxx) =  3

     Subspace diagonalization in iterative solution of the eigenvalue problem:
     a serial algorithm will be used


     Parallelization info
     --------------------
     sticks:   dense  smooth     PW     G-vecs:    dense   smooth      PW
     Min          66      66     22                  722      722     152
     Max          67      67     23                  724      724     153
     Sum         265     265     91                 2891     2891     609



     bravais-lattice index     =            2
     lattice parameter (alat)  =      10.4700  a.u.
     unit-cell volume          =     286.9327 (a.u.)^3
     number of atoms/cell      =            2
     number of atomic types    =            1
     number of electrons       =         8.00
     number of Kohn-Sham states=            4
     kinetic-energy cutoff     =      18.0000  Ry
     charge density cutoff     =      72.0000  Ry
     convergence threshold     =      1.0E-08
     mixing beta               =       0.7000
     number of iterations used =            8  plain     mixing
     Exchange-correlation      = SLA  PW   PBE  PBE ( 1  4  3  4 0 0)

     celldm(1)=  10.470000  celldm(2)=   0.000000  celldm(3)=   0.000000
     celldm(4)=   0.000000  celldm(5)=   0.000000  celldm(6)=   0.000000

     crystal axes: (cart. coord. in units of alat)
               a(1) = (  -0.500000   0.000000   0.500000 )  
               a(2) = (   0.000000   0.500000   0.500000 )  
               a(3) = (  -0.500000   0.500000   0.000000 )  

     reciprocal axes: (cart. coord. in units 2 pi/alat)
               b(1) = ( -1.000000 -1.000000  1.000000 )  
               b(2) = (  1.000000  1.000000  1.000000 )  
               b(3) = ( -1.000000  1.000000 -1.000000 )  


     PseudoPot. # 1 for Si read from file:
     /home/max/quantum_espresso/qe-6.1/pseudo/si_pbe_v1.uspp.F.UPF.txt
     MD5 check sum: a056efeee980c13900f22a371efd63c1
     Pseudo is Ultrasoft + core correction, Zval =  4.0
     Generated by new atomic code, or converted to UPF format
     Using radial grid of  899 points,  6 beta functions with: 
                l(1) =   0
                l(2) =   0
                l(3) =   1
                l(4) =   1
                l(5) =   2
                l(6) =   2
     Q(r) pseudized with  8 coefficients,  rinner =    0.900   0.900   0.900
                                                       0.900   0.900

     atomic species   valence    mass     pseudopotential
        Si             4.00    28.08600     Si( 1.00)

     48 Sym. Ops., with inversion, found (24 have fractional translation)



   Cartesian axes

     site n.     atom                  positions (alat units)
         1           Si  tau(   1) = (   0.0000000   0.0000000   0.0000000  )
         2           Si  tau(   2) = (   0.2500000   0.2500000   0.2500000  )

     number of k points=    10
                       cart. coord. in units 2pi/alat
        k(    1) = (  -0.1250000   0.1250000   0.1250000), wk =   0.0625000
        k(    2) = (  -0.3750000   0.3750000  -0.1250000), wk =   0.1875000
        k(    3) = (   0.3750000  -0.3750000   0.6250000), wk =   0.1875000
        k(    4) = (   0.1250000  -0.1250000   0.3750000), wk =   0.1875000
        k(    5) = (  -0.1250000   0.6250000   0.1250000), wk =   0.1875000
        k(    6) = (   0.6250000  -0.1250000   0.8750000), wk =   0.3750000
        k(    7) = (   0.3750000   0.1250000   0.6250000), wk =   0.3750000
        k(    8) = (  -0.1250000  -0.8750000   0.1250000), wk =   0.1875000
        k(    9) = (  -0.3750000   0.3750000   0.3750000), wk =   0.0625000
        k(   10) = (   0.3750000  -0.3750000   1.1250000), wk =   0.1875000

     Dense  grid:     2891 G-vectors     FFT dimensions: (  20,  20,  20)

     Estimated max dynamical RAM per process >       0.59MB

     Estimated total allocated dynamical RAM >       2.38MB

     Check: negative/imaginary core charge=   -0.000006    0.000000

     Initial potential from superposition of free atoms

     starting charge    7.99866, renormalised to    8.00000
     Starting wfc are    8 randomized atomic wfcs

     total cpu time spent up to now is        0.1 secs

     per-process dynamical memory:     6.7 Mb

     Self-consistent Calculation

     iteration #  1     ecut=    18.00 Ry     beta=0.70
     Davidson diagonalization with overlap
     ethr =  1.00E-02,  avg # of iterations =  2.0

     Threshold (ethr) on eigenvalues was too large:
     Diagonalizing with lowered threshold

     Davidson diagonalization with overlap
     ethr =  6.47E-04,  avg # of iterations =  1.1

     total cpu time spent up to now is        0.2 secs

     total energy              =     -19.19501339 Ry
     Harris-Foulkes estimate   =     -19.20600182 Ry
     estimated scf accuracy    <       0.05168224 Ry

     iteration #  2     ecut=    18.00 Ry     beta=0.70
     Davidson diagonalization with overlap
     ethr =  6.46E-04,  avg # of iterations =  1.0

     negative rho (up, down):  4.507E-06 0.000E+00

     total cpu time spent up to now is        0.2 secs

     total energy              =     -19.19640385 Ry
     Harris-Foulkes estimate   =     -19.19660645 Ry
     estimated scf accuracy    <       0.00250568 Ry

     iteration #  3     ecut=    18.00 Ry     beta=0.70
     Davidson diagonalization with overlap
     ethr =  3.13E-05,  avg # of iterations =  1.9

     negative rho (up, down):  5.190E-06 0.000E+00

     total cpu time spent up to now is        0.2 secs

     total energy              =     -19.19664567 Ry
     Harris-Foulkes estimate   =     -19.19666161 Ry
     estimated scf accuracy    <       0.00004234 Ry

     iteration #  4     ecut=    18.00 Ry     beta=0.70
     Davidson diagonalization with overlap
     ethr =  5.29E-07,  avg # of iterations =  2.7

     negative rho (up, down):  6.850E-06 0.000E+00

     total cpu time spent up to now is        0.3 secs

     total energy              =     -19.19666742 Ry
     Harris-Foulkes estimate   =     -19.19666862 Ry
     estimated scf accuracy    <       0.00000327 Ry

     iteration #  5     ecut=    18.00 Ry     beta=0.70
     Davidson diagonalization with overlap
     ethr =  4.08E-08,  avg # of iterations =  2.1

     negative rho (up, down):  6.797E-06 0.000E+00

     total cpu time spent up to now is        0.4 secs

     total energy              =     -19.19666803 Ry
     Harris-Foulkes estimate   =     -19.19666808 Ry
     estimated scf accuracy    <       0.00000009 Ry

     iteration #  6     ecut=    18.00 Ry     beta=0.70
     Davidson diagonalization with overlap
     ethr =  1.18E-09,  avg # of iterations =  2.6

     negative rho (up, down):  6.824E-06 0.000E+00

     total cpu time spent up to now is        0.5 secs

     End of self-consistent calculation

          k =-0.1250 0.1250 0.1250 (   362 PWs)   bands (ev):

    -5.7727   3.9983   5.3145   5.3145

          k =-0.3750 0.3750-0.1250 (   368 PWs)   bands (ev):

    -4.7854   1.0729   3.4006   4.8431

          k = 0.3750-0.3750 0.6250 (   375 PWs)   bands (ev):

    -3.7028  -0.9152   3.4007   4.1049

          k = 0.1250-0.1250 0.3750 (   364 PWs)   bands (ev):

    -5.2639   2.3987   4.3491   4.3907

          k =-0.1250 0.6250 0.1250 (   367 PWs)   bands (ev):

    -4.2709   0.7011   3.0743   3.5056

          k = 0.6250-0.1250 0.8750 (   378 PWs)   bands (ev):

    -2.7039  -1.2022   1.7914   2.8183

          k = 0.3750 0.1250 0.6250 (   370 PWs)   bands (ev):

    -3.8762  -0.1174   2.4511   3.7720

          k =-0.1250-0.8750 0.1250 (   366 PWs)   bands (ev):

    -2.8542  -1.1129   2.3706   3.0541

          k =-0.3750 0.3750 0.3750 (   362 PWs)   bands (ev):

    -4.3727  -0.1519   4.5482   4.5482

          k = 0.3750-0.3750 1.1250 (   371 PWs)   bands (ev):

    -3.2235  -0.8770   1.8323   3.8023

     highest occupied level (ev):     5.3145

!    total energy              =     -19.19666807 Ry
     Harris-Foulkes estimate   =     -19.19666807 Ry
     estimated scf accuracy    <          8.7E-10 Ry

     The total energy is the sum of the following terms:

     one-electron contribution =       4.65136580 Ry
     hartree contribution      =       1.17774598 Ry
     xc contribution           =      -8.56183162 Ry
     ewald contribution        =     -16.46394822 Ry

     convergence has been achieved in   6 iterations

     Writing output data file silicon.10.47.save

     init_run     :      0.08s CPU      0.08s WALL (       1 calls)
     electrons    :      0.32s CPU      0.34s WALL (       1 calls)

     Called by init_run:
     wfcinit      :      0.01s CPU      0.01s WALL (       1 calls)
     potinit      :      0.00s CPU      0.00s WALL (       1 calls)

     Called by electrons:
     c_bands      :      0.17s CPU      0.19s WALL (       7 calls)
     sum_band     :      0.08s CPU      0.08s WALL (       7 calls)
     v_of_rho     :      0.01s CPU      0.01s WALL (       7 calls)
     newd         :      0.06s CPU      0.06s WALL (       7 calls)
     mix_rho      :      0.00s CPU      0.00s WALL (       7 calls)

     Called by c_bands:
     init_us_2    :      0.01s CPU      0.01s WALL (     150 calls)
     cegterg      :      0.15s CPU      0.17s WALL (      70 calls)

     Called by sum_band:
     sum_band:bec :      0.00s CPU      0.00s WALL (      70 calls)
     addusdens    :      0.05s CPU      0.05s WALL (       7 calls)

     Called by *egterg:
     h_psi        :      0.12s CPU      0.14s WALL (     214 calls)
     s_psi        :      0.00s CPU      0.00s WALL (     214 calls)
     g_psi        :      0.00s CPU      0.00s WALL (     134 calls)
     cdiaghg      :      0.01s CPU      0.01s WALL (     194 calls)

     Called by h_psi:
     h_psi:pot    :      0.12s CPU      0.14s WALL (     214 calls)
     h_psi:calbec :      0.01s CPU      0.01s WALL (     214 calls)
     vloc_psi     :      0.11s CPU      0.13s WALL (     214 calls)
     add_vuspsi   :      0.00s CPU      0.00s WALL (     214 calls)

     General routines
     calbec       :      0.01s CPU      0.01s WALL (     284 calls)
     fft          :      0.06s CPU      0.06s WALL (      93 calls)
     fftw         :      0.12s CPU      0.13s WALL (    1926 calls)
     davcio       :      0.00s CPU      0.00s WALL (      10 calls)

     Parallel routines
     fft_scatter  :      0.13s CPU      0.14s WALL (    2019 calls)

     PWSCF        :     0.47s CPU         0.51s WALL


   This run was terminated on:   1:43:12   9Nov2017            

=------------------------------------------------------------------------------=
   JOB DONE.
=------------------------------------------------------------------------------=
