
     Program PWSCF v.6.1 (svn rev. 13369) starts on 10Nov2017 at 10:32: 4 

     This program is part of the open-source Quantum ESPRESSO suite
     for quantum simulation of materials; please cite
         "P. Giannozzi et al., J. Phys.:Condens. Matter 21 395502 (2009);
          URL http://www.quantum-espresso.org", 
     in publications or presentations arising from this work. More details at
     http://www.quantum-espresso.org/quote

     Parallel version (MPI), running on     4 processors
     R & G space division:  proc/nbgrp/npool/nimage =       4
     Waiting for input...
     Reading input from standard input
     Message from routine read_cards :
     DEPRECATED: no units specified in ATOMIC_POSITIONS card
     Message from routine read_cards :
     ATOMIC_POSITIONS: units set to alat

     Current dimensions of program PWSCF are:
     Max number of different atomic species (ntypx) = 10
     Max number of k-points (npk) =  40000
     Max angular momentum in pseudopotentials (lmaxx) =  3

     Subspace diagonalization in iterative solution of the eigenvalue problem:
     a serial algorithm will be used


     Parallelization info
     --------------------
     sticks:   dense  smooth     PW     G-vecs:    dense   smooth      PW
     Min         222     109     37                 4369     1545     309
     Max         223     110     38                 4370     1546     312
     Sum         889     439    151                17477     6183    1243



     bravais-lattice index     =            2
     lattice parameter (alat)  =      10.3580  a.u.
     unit-cell volume          =     277.8227 (a.u.)^3
     number of atoms/cell      =            2
     number of atomic types    =            1
     number of electrons       =         8.00
     number of Kohn-Sham states=            4
     kinetic-energy cutoff     =      30.0000  Ry
     charge density cutoff     =     240.0000  Ry
     convergence threshold     =      1.0E-08
     mixing beta               =       0.7000
     number of iterations used =            8  plain     mixing
     Exchange-correlation      = SLA  PW   PBE  PBE ( 1  4  3  4 0 0)

     celldm(1)=  10.358000  celldm(2)=   0.000000  celldm(3)=   0.000000
     celldm(4)=   0.000000  celldm(5)=   0.000000  celldm(6)=   0.000000

     crystal axes: (cart. coord. in units of alat)
               a(1) = (  -0.500000   0.000000   0.500000 )  
               a(2) = (   0.000000   0.500000   0.500000 )  
               a(3) = (  -0.500000   0.500000   0.000000 )  

     reciprocal axes: (cart. coord. in units 2 pi/alat)
               b(1) = ( -1.000000 -1.000000  1.000000 )  
               b(2) = (  1.000000  1.000000  1.000000 )  
               b(3) = ( -1.000000  1.000000 -1.000000 )  


     PseudoPot. # 1 for Si read from file:
     /home/max/quantum_espresso/qe-6.1/pseudo/si_pbe_v1.uspp.F.UPF.txt
     MD5 check sum: a056efeee980c13900f22a371efd63c1
     Pseudo is Ultrasoft + core correction, Zval =  4.0
     Generated by new atomic code, or converted to UPF format
     Using radial grid of  899 points,  6 beta functions with: 
                l(1) =   0
                l(2) =   0
                l(3) =   1
                l(4) =   1
                l(5) =   2
                l(6) =   2
     Q(r) pseudized with  8 coefficients,  rinner =    0.900   0.900   0.900
                                                       0.900   0.900

     atomic species   valence    mass     pseudopotential
        Si             4.00    28.08600     Si( 1.00)

     48 Sym. Ops., with inversion, found (24 have fractional translation)



   Cartesian axes

     site n.     atom                  positions (alat units)
         1           Si  tau(   1) = (   0.0000000   0.0000000   0.0000000  )
         2           Si  tau(   2) = (   0.2500000   0.2500000   0.2500000  )

     number of k points=    28
                       cart. coord. in units 2pi/alat
        k(    1) = (  -0.0833333   0.0833333   0.0833333), wk =   0.0185185
        k(    2) = (  -0.2500000   0.2500000  -0.0833333), wk =   0.0555556
        k(    3) = (  -0.4166667   0.4166667  -0.2500000), wk =   0.0555556
        k(    4) = (   0.4166667  -0.4166667   0.5833333), wk =   0.0555556
        k(    5) = (   0.2500000  -0.2500000   0.4166667), wk =   0.0555556
        k(    6) = (   0.0833333  -0.0833333   0.2500000), wk =   0.0555556
        k(    7) = (  -0.0833333   0.4166667   0.0833333), wk =   0.0555556
        k(    8) = (  -0.2500000   0.5833333  -0.0833333), wk =   0.1111111
        k(    9) = (   0.5833333  -0.2500000   0.7500000), wk =   0.1111111
        k(   10) = (   0.4166667  -0.0833333   0.5833333), wk =   0.1111111
        k(   11) = (   0.2500000   0.0833333   0.4166667), wk =   0.1111111
        k(   12) = (  -0.0833333   0.7500000   0.0833333), wk =   0.0555556
        k(   13) = (   0.7500000  -0.0833333   0.9166667), wk =   0.1111111
        k(   14) = (   0.5833333   0.0833333   0.7500000), wk =   0.1111111
        k(   15) = (   0.4166667   0.2500000   0.5833333), wk =   0.1111111
        k(   16) = (  -0.0833333  -0.9166667   0.0833333), wk =   0.0555556
        k(   17) = (  -0.2500000  -0.7500000  -0.0833333), wk =   0.1111111
        k(   18) = (  -0.0833333  -0.5833333   0.0833333), wk =   0.0555556
        k(   19) = (  -0.2500000   0.2500000   0.2500000), wk =   0.0185185
        k(   20) = (  -0.4166667   0.4166667   0.0833333), wk =   0.0555556
        k(   21) = (   0.4166667  -0.4166667   0.9166667), wk =   0.0555556
        k(   22) = (   0.2500000  -0.2500000   0.7500000), wk =   0.0555556
        k(   23) = (  -0.2500000   0.5833333   0.2500000), wk =   0.0555556
        k(   24) = (   0.5833333  -0.2500000   1.0833333), wk =   0.1111111
        k(   25) = (   0.4166667  -0.0833333   0.9166667), wk =   0.1111111
        k(   26) = (  -0.2500000  -1.0833333   0.2500000), wk =   0.0555556
        k(   27) = (  -0.4166667   0.4166667   0.4166667), wk =   0.0185185
        k(   28) = (   0.4166667  -0.4166667   1.2500000), wk =   0.0555556

     Dense  grid:    17477 G-vectors     FFT dimensions: (  40,  40,  40)

     Smooth grid:     6183 G-vectors     FFT dimensions: (  25,  25,  25)

     Estimated max dynamical RAM per process >       3.38MB

     Estimated total allocated dynamical RAM >      13.50MB

     Initial potential from superposition of free atoms

     starting charge    7.99866, renormalised to    8.00000
     Starting wfc are    8 randomized atomic wfcs

     total cpu time spent up to now is        0.5 secs

     per-process dynamical memory:     9.8 Mb

     Self-consistent Calculation

     iteration #  1     ecut=    30.00 Ry     beta=0.70
     Davidson diagonalization with overlap
     ethr =  1.00E-02,  avg # of iterations =  2.0

     Threshold (ethr) on eigenvalues was too large:
     Diagonalizing with lowered threshold

     Davidson diagonalization with overlap
     ethr =  6.68E-04,  avg # of iterations =  1.0

     total cpu time spent up to now is        0.9 secs

     total energy              =     -19.19127444 Ry
     Harris-Foulkes estimate   =     -19.20342167 Ry
     estimated scf accuracy    <       0.05299813 Ry

     iteration #  2     ecut=    30.00 Ry     beta=0.70
     Davidson diagonalization with overlap
     ethr =  6.62E-04,  avg # of iterations =  1.0

     total cpu time spent up to now is        1.3 secs

     total energy              =     -19.19296748 Ry
     Harris-Foulkes estimate   =     -19.19313803 Ry
     estimated scf accuracy    <       0.00245096 Ry

     iteration #  3     ecut=    30.00 Ry     beta=0.70
     Davidson diagonalization with overlap
     ethr =  3.06E-05,  avg # of iterations =  2.1

     total cpu time spent up to now is        1.8 secs

     total energy              =     -19.19328681 Ry
     Harris-Foulkes estimate   =     -19.19329948 Ry
     estimated scf accuracy    <       0.00004145 Ry

     iteration #  4     ecut=    30.00 Ry     beta=0.70
     Davidson diagonalization with overlap
     ethr =  5.18E-07,  avg # of iterations =  3.4

     total cpu time spent up to now is        2.1 secs

     total energy              =     -19.19332553 Ry
     Harris-Foulkes estimate   =     -19.19332635 Ry
     estimated scf accuracy    <       0.00000302 Ry

     iteration #  5     ecut=    30.00 Ry     beta=0.70
     Davidson diagonalization with overlap
     ethr =  3.78E-08,  avg # of iterations =  2.0

     total cpu time spent up to now is        2.3 secs

     total energy              =     -19.19332592 Ry
     Harris-Foulkes estimate   =     -19.19332592 Ry
     estimated scf accuracy    <       0.00000001 Ry

     iteration #  6     ecut=    30.00 Ry     beta=0.70
     Davidson diagonalization with overlap
     ethr =  1.27E-10,  avg # of iterations =  4.0

     total cpu time spent up to now is        2.7 secs

     End of self-consistent calculation

          k =-0.0833 0.0833 0.0833 (   764 PWs)   bands (ev):

    -5.7750   5.0468   5.7663   5.7663

          k =-0.2500 0.2500-0.0833 (   775 PWs)   bands (ev):

    -5.3084   2.9864   4.5578   5.5574

          k =-0.4167 0.4167-0.2500 (   771 PWs)   bands (ev):

    -4.2419   0.2785   4.0955   4.9328

          k = 0.4167-0.4167 0.5833 (   775 PWs)   bands (ev):

    -3.5653  -0.8361   4.1565   4.5612

          k = 0.2500-0.2500 0.4167 (   776 PWs)   bands (ev):

    -4.6433   1.1073   4.6230   4.6458

          k = 0.0833-0.0833 0.2500 (   781 PWs)   bands (ev):

    -5.5394   3.9815   5.1366   5.3106

          k =-0.0833 0.4167 0.0833 (   777 PWs)   bands (ev):

    -5.0722   2.7849   4.4011   4.4221

          k =-0.2500 0.5833-0.0833 (   775 PWs)   bands (ev):

    -4.1820   0.9744   3.1156   4.0417

          k = 0.5833-0.2500 0.7500 (   769 PWs)   bands (ev):

    -3.0971  -0.7286   2.5195   3.8216

          k = 0.4167-0.0833 0.5833 (   771 PWs)   bands (ev):

    -3.7978   0.2991   2.4869   4.2948

          k = 0.2500 0.0833 0.4167 (   778 PWs)   bands (ev):

    -4.8519   1.9712   3.7969   4.9444

          k =-0.0833 0.7500 0.0833 (   774 PWs)   bands (ev):

    -3.4847   0.1500   3.0840   3.4131

          k = 0.7500-0.0833 0.9167 (   764 PWs)   bands (ev):

    -2.3171  -1.1649   2.2665   3.0193

          k = 0.5833 0.0833 0.7500 (   767 PWs)   bands (ev):

    -2.6856  -0.8255   1.7924   3.5519

          k = 0.4167 0.2500 0.5833 (   773 PWs)   bands (ev):

    -3.6909  -0.3542   3.3961   4.3891

          k =-0.0833-0.9167 0.0833 (   769 PWs)   bands (ev):

    -2.4042  -1.1716   2.8206   3.2017

          k =-0.2500-0.7500-0.0833 (   770 PWs)   bands (ev):

    -3.3213  -0.0668   2.5764   3.3526

          k =-0.0833-0.5833 0.0833 (   777 PWs)   bands (ev):

    -4.3823   1.4945   3.6148   3.8274

          k =-0.2500 0.2500 0.2500 (   778 PWs)   bands (ev):

    -5.0840   2.0299   5.1641   5.1641

          k =-0.4167 0.4167 0.0833 (   783 PWs)   bands (ev):

    -4.4201   1.0982   3.0797   4.9964

          k = 0.4167-0.4167 0.9167 (   773 PWs)   bands (ev):

    -3.2705  -0.3238   2.0009   4.2289

          k = 0.2500-0.2500 0.7500 (   768 PWs)   bands (ev):

    -3.2182  -0.4021   2.4649   3.7583

          k =-0.2500 0.5833 0.2500 (   777 PWs)   bands (ev):

    -4.0062   0.3097   3.5234   4.1237

          k = 0.5833-0.2500 1.0833 (   764 PWs)   bands (ev):

    -3.0280  -0.4436   2.1002   3.3527

          k = 0.4167-0.0833 0.9167 (   763 PWs)   bands (ev):

    -2.2166  -1.1726   1.9463   2.7030

          k =-0.2500-1.0833 0.2500 (   764 PWs)   bands (ev):

    -2.4234  -1.0741   1.8227   3.5677

          k =-0.4167 0.4167 0.4167 (   769 PWs)   bands (ev):

    -3.9229  -0.4451   4.7808   4.7808

          k = 0.4167-0.4167 1.2500 (   771 PWs)   bands (ev):

    -3.3341  -0.7481   2.9809   4.3523

     highest occupied level (ev):     5.7663

!    total energy              =     -19.19332595 Ry
     Harris-Foulkes estimate   =     -19.19332596 Ry
     estimated scf accuracy    <          8.9E-10 Ry

     The total energy is the sum of the following terms:

     one-electron contribution =       4.89681753 Ry
     hartree contribution      =       1.14018922 Ry
     xc contribution           =      -8.58836152 Ry
     ewald contribution        =     -16.64197118 Ry

     convergence has been achieved in   6 iterations

     Writing output data file silicon.10.358.save

     init_run     :      0.36s CPU      0.40s WALL (       1 calls)
     electrons    :      1.57s CPU      2.19s WALL (       1 calls)

     Called by init_run:
     wfcinit      :      0.08s CPU      0.09s WALL (       1 calls)
     potinit      :      0.03s CPU      0.03s WALL (       1 calls)

     Called by electrons:
     c_bands      :      0.89s CPU      1.27s WALL (       7 calls)
     sum_band     :      0.38s CPU      0.52s WALL (       7 calls)
     v_of_rho     :      0.15s CPU      0.19s WALL (       7 calls)
     newd         :      0.16s CPU      0.21s WALL (       7 calls)
     mix_rho      :      0.01s CPU      0.01s WALL (       7 calls)

     Called by c_bands:
     init_us_2    :      0.06s CPU      0.07s WALL (     420 calls)
     cegterg      :      0.77s CPU      1.10s WALL (     196 calls)

     Called by sum_band:
     sum_band:bec :      0.00s CPU      0.00s WALL (     196 calls)
     addusdens    :      0.17s CPU      0.22s WALL (       7 calls)

     Called by *egterg:
     h_psi        :      0.65s CPU      0.91s WALL (     659 calls)
     s_psi        :      0.05s CPU      0.06s WALL (     659 calls)
     g_psi        :      0.00s CPU      0.00s WALL (     435 calls)
     cdiaghg      :      0.05s CPU      0.07s WALL (     603 calls)

     Called by h_psi:
     h_psi:pot    :      0.65s CPU      0.91s WALL (     659 calls)
     h_psi:calbec :      0.08s CPU      0.11s WALL (     659 calls)
     vloc_psi     :      0.52s CPU      0.73s WALL (     659 calls)
     add_vuspsi   :      0.05s CPU      0.06s WALL (     659 calls)

     General routines
     calbec       :      0.10s CPU      0.15s WALL (     855 calls)
     fft          :      0.12s CPU      0.19s WALL (     112 calls)
     ffts         :      0.00s CPU      0.00s WALL (      14 calls)
     fftw         :      0.53s CPU      0.78s WALL (    5710 calls)
     interpolate  :      0.01s CPU      0.01s WALL (      14 calls)
     davcio       :      0.00s CPU      0.00s WALL (      28 calls)

     Parallel routines
     fft_scatter  :      0.31s CPU      0.56s WALL (    5836 calls)

     PWSCF        :     2.15s CPU         2.81s WALL


   This run was terminated on:  10:32: 7  10Nov2017            

=------------------------------------------------------------------------------=
   JOB DONE.
=------------------------------------------------------------------------------=
