
     Program PHONON v.6.1 (svn rev. 13369) starts on  9Nov2017 at 12:45:46 

     This program is part of the open-source Quantum ESPRESSO suite
     for quantum simulation of materials; please cite
         "P. Giannozzi et al., J. Phys.:Condens. Matter 21 395502 (2009);
          URL http://www.quantum-espresso.org", 
     in publications or presentations arising from this work. More details at
     http://www.quantum-espresso.org/quote

     Parallel version (MPI), running on     4 processors
     R & G space division:  proc/nbgrp/npool/nimage =       4

     Reading data from directory:
     ./silicon.10.345.save

   Info: using nr1, nr2, nr3 values from input

   Info: using nr1, nr2, nr3 values from input

     IMPORTANT: XC functional enforced from input :
     Exchange-correlation      = SLA  PW   PBE  PBE ( 1  4  3  4 0 0)
     Any further DFT definition will be discarded
     Please, verify this is what you really want


     Parallelization info
     --------------------
     sticks:   dense  smooth     PW     G-vecs:    dense   smooth      PW
     Min          64      64     22                  709      709     140
     Max          67      67     23                  710      710     141
     Sum         265     265     91                 2837     2837     561


     Check: negative/imaginary core charge=   -0.000006    0.000000


     Dynamical matrices for ( 4, 4, 4)  uniform grid of q-points
     (   8q-points):
       N         xq(1)         xq(2)         xq(3) 
       1   0.000000000   0.000000000   0.000000000
       2  -0.250000000   0.250000000  -0.250000000
       3   0.500000000  -0.500000000   0.500000000
       4   0.000000000   0.500000000   0.000000000
       5   0.750000000  -0.250000000   0.750000000
       6   0.500000000   0.000000000   0.500000000
       7   0.000000000  -1.000000000   0.000000000
       8  -0.500000000  -1.000000000   0.000000000

     Calculation of q =    0.0000000   0.0000000   0.0000000

                                                                                

     bravais-lattice index     =            2
     lattice parameter (alat)  =      10.3450  a.u.
     unit-cell volume          =     276.7780 (a.u.)^3
     number of atoms/cell      =            2
     number of atomic types    =            1
     kinetic-energy cut-off    =      18.0000  Ry
     charge density cut-off    =      72.0000  Ry
     convergence threshold     =      1.0E-12
     beta                      =       0.7000
     number of iterations used =            4
     Exchange-correlation      = SLA  PW   PBE  PBE ( 1  4  3  4 0 0)


     celldm(1)=   10.34500  celldm(2)=    0.00000  celldm(3)=    0.00000
     celldm(4)=    0.00000  celldm(5)=    0.00000  celldm(6)=    0.00000

     crystal axes: (cart. coord. in units of alat)
               a(1) = ( -0.5000  0.0000  0.5000 )  
               a(2) = (  0.0000  0.5000  0.5000 )  
               a(3) = ( -0.5000  0.5000  0.0000 )  

     reciprocal axes: (cart. coord. in units 2 pi/alat)
               b(1) = ( -1.0000 -1.0000  1.0000 )  
               b(2) = (  1.0000  1.0000  1.0000 )  
               b(3) = ( -1.0000  1.0000 -1.0000 )  


     Atoms inside the unit cell: 

     Cartesian axes

     site n.  atom      mass           positions (alat units)
        1     Si  28.0860   tau(    1) = (    0.00000    0.00000    0.00000  )
        2     Si  28.0860   tau(    2) = (    0.25000    0.25000    0.25000  )

     Computing dynamical matrix for 
                    q = (   0.0000000   0.0000000   0.0000000 )

     49 Sym.Ops. (with q -> -q+G )


     G cutoff =  195.1793  (    710 G-vectors)     FFT grid: ( 20, 20, 20)
     number of k points=    10

     PseudoPot. # 1 for Si read from file:
     /home/max/quantum_espresso/qe-6.1/pseudo/si_pbe_v1.uspp.F.UPF.txt
     MD5 check sum: a056efeee980c13900f22a371efd63c1
     Pseudo is Ultrasoft + core correction, Zval =  4.0
     Generated by new atomic code, or converted to UPF format
     Using radial grid of  899 points,  6 beta functions with: 
                l(1) =   0
                l(2) =   0
                l(3) =   1
                l(4) =   1
                l(5) =   2
                l(6) =   2
     Q(r) pseudized with  8 coefficients,  rinner =    0.900   0.900   0.900
                                                       0.900   0.900

     Mode symmetry, O_h (m-3m)  point group:


     Electric field:
     Dielectric constant
     Born effective charges in two ways 


     Atomic displacements:
     There are   2 irreducible representations

     Representation     1      3 modes -T_2g G_25' G_5+  To be done

     Representation     2      3 modes -T_1u G_15  G_4-  To be done



     Alpha used in Ewald sum =   0.7000
     PHONON       :     0.40s CPU         0.44s WALL


     Electric Fields Calculation

      iter #   1 total cpu time :     0.9 secs   av.it.:   5.6
      thresh= 1.000E-02 alpha_mix =  0.700 |ddv_scf|^2 =  9.358E-07

      iter #   2 total cpu time :     1.1 secs   av.it.:   9.9
      thresh= 9.674E-05 alpha_mix =  0.700 |ddv_scf|^2 =  5.966E-08

      iter #   3 total cpu time :     1.3 secs   av.it.:   9.8
      thresh= 2.443E-05 alpha_mix =  0.700 |ddv_scf|^2 =  4.693E-09

      iter #   4 total cpu time :     1.6 secs   av.it.:   9.0
      thresh= 6.851E-06 alpha_mix =  0.700 |ddv_scf|^2 =  2.818E-11

      iter #   5 total cpu time :     1.8 secs   av.it.:   9.1
      thresh= 5.309E-07 alpha_mix =  0.700 |ddv_scf|^2 =  1.461E-14

     End of electric fields calculation

          Dielectric constant in cartesian axis 

          (      13.892539702      -0.000000000      -0.000000000 )
          (      -0.000000000      13.892539702      -0.000000000 )
          (      -0.000000000      -0.000000000      13.892539702 )

          Effective charges (d Force / dE) in cartesian axis

           atom      1   Si 
      Ex  (       -0.03553       -0.00000       -0.00000 )
      Ey  (       -0.00000       -0.03553        0.00000 )
      Ez  (       -0.00000       -0.00000       -0.03553 )
           atom      2   Si 
      Ex  (       -0.03553        0.00000        0.00000 )
      Ey  (        0.00000       -0.03553        0.00000 )
      Ez  (        0.00000        0.00000       -0.03553 )


     Representation #  1 modes #   1  2  3

     Self-consistent Calculation

      iter #   1 total cpu time :     2.2 secs   av.it.:   4.9
      thresh= 1.000E-02 alpha_mix =  0.700 |ddv_scf|^2 =  2.236E-07

      iter #   2 total cpu time :     2.4 secs   av.it.:   9.9
      thresh= 4.728E-05 alpha_mix =  0.700 |ddv_scf|^2 =  1.385E-08

      iter #   3 total cpu time :     2.6 secs   av.it.:   9.2
      thresh= 1.177E-05 alpha_mix =  0.700 |ddv_scf|^2 =  8.594E-10

      iter #   4 total cpu time :     2.8 secs   av.it.:   9.0
      thresh= 2.931E-06 alpha_mix =  0.700 |ddv_scf|^2 =  1.901E-12

      iter #   5 total cpu time :     3.0 secs   av.it.:   9.5
      thresh= 1.379E-07 alpha_mix =  0.700 |ddv_scf|^2 =  1.339E-14

     End of self-consistent calculation

     Convergence has been achieved 


     Representation #  2 modes #   4  5  6

     Self-consistent Calculation

      iter #   1 total cpu time :     3.3 secs   av.it.:   5.0
      thresh= 1.000E-02 alpha_mix =  0.700 |ddv_scf|^2 =  1.852E-07

      iter #   2 total cpu time :     3.6 secs   av.it.:   9.6
      thresh= 4.303E-05 alpha_mix =  0.700 |ddv_scf|^2 =  1.503E-08

      iter #   3 total cpu time :     3.8 secs   av.it.:   9.3
      thresh= 1.226E-05 alpha_mix =  0.700 |ddv_scf|^2 =  9.136E-10

      iter #   4 total cpu time :     4.0 secs   av.it.:   9.5
      thresh= 3.023E-06 alpha_mix =  0.700 |ddv_scf|^2 =  5.329E-12

      iter #   5 total cpu time :     4.2 secs   av.it.:   9.0
      thresh= 2.309E-07 alpha_mix =  0.700 |ddv_scf|^2 =  4.676E-15

     End of self-consistent calculation

     Convergence has been achieved 

     Number of q in the star =    1
     List of q in the star:
          1   0.000000000   0.000000000   0.000000000

          Dielectric constant in cartesian axis 

          (      13.892539702      -0.000000000      -0.000000000 )
          (      -0.000000000      13.892539702      -0.000000000 )
          (      -0.000000000      -0.000000000      13.892539702 )

          Effective charges (d Force / dE) in cartesian axis

           atom      1   Si 
      Ex  (       -0.03553       -0.00000       -0.00000 )
      Ey  (       -0.00000       -0.03553        0.00000 )
      Ez  (       -0.00000       -0.00000       -0.03553 )
           atom      2   Si 
      Ex  (       -0.03553        0.00000        0.00000 )
      Ey  (        0.00000       -0.03553        0.00000 )
      Ez  (        0.00000        0.00000       -0.03553 )

          Effective charges (d P / du) in cartesian axis 

           atom      1   Si 
      Px  (       -0.07514        0.00000        0.00000 )
      Py  (       -0.00000       -0.07514       -0.00000 )
      Pz  (        0.00000        0.00000       -0.07514 )
           atom      2   Si 
      Px  (       -0.07514        0.00000        0.00000 )
      Py  (        0.00000       -0.07514        0.00000 )
      Pz  (        0.00000        0.00000       -0.07514 )

     Diagonalizing the dynamical matrix

     q = (    0.000000000   0.000000000   0.000000000 ) 

 **************************************************************************
     freq (    1) =       1.893220 [THz] =      63.151035 [cm-1]
     freq (    2) =       1.893220 [THz] =      63.151035 [cm-1]
     freq (    3) =       1.893220 [THz] =      63.151035 [cm-1]
     freq (    4) =      15.338581 [THz] =     511.639987 [cm-1]
     freq (    5) =      15.338581 [THz] =     511.639987 [cm-1]
     freq (    6) =      15.338581 [THz] =     511.639987 [cm-1]
 **************************************************************************

     Mode symmetry, O_h (m-3m)  point group:

     freq (  1 -  3) =         63.2  [cm-1]   --> T_1u G_15  G_4- I  
     freq (  4 -  6) =        511.6  [cm-1]   --> T_2g G_25' G_5+ R  

     Calculation of q =   -0.2500000   0.2500000  -0.2500000

   Info: using nr1, nr2, nr3 values from input

   Info: using nr1, nr2, nr3 values from input

     Parallelization info
     --------------------
     sticks:   dense  smooth     PW     G-vecs:    dense   smooth      PW
     Min          64      64     24                  709      709     161
     Max          67      67     25                  710      710     162
     Sum         265     265     97                 2837     2837     645



     bravais-lattice index     =            2
     lattice parameter (alat)  =      10.3450  a.u.
     unit-cell volume          =     276.7780 (a.u.)^3
     number of atoms/cell      =            2
     number of atomic types    =            1
     number of electrons       =         8.00
     number of Kohn-Sham states=            4
     kinetic-energy cutoff     =      18.0000  Ry
     charge density cutoff     =      72.0000  Ry
     Exchange-correlation      = SLA  PW   PBE  PBE ( 1  4  3  4 0 0)

     celldm(1)=  10.345000  celldm(2)=   0.000000  celldm(3)=   0.000000
     celldm(4)=   0.000000  celldm(5)=   0.000000  celldm(6)=   0.000000

     crystal axes: (cart. coord. in units of alat)
               a(1) = (  -0.500000   0.000000   0.500000 )  
               a(2) = (   0.000000   0.500000   0.500000 )  
               a(3) = (  -0.500000   0.500000   0.000000 )  

     reciprocal axes: (cart. coord. in units 2 pi/alat)
               b(1) = ( -1.000000 -1.000000  1.000000 )  
               b(2) = (  1.000000  1.000000  1.000000 )  
               b(3) = ( -1.000000  1.000000 -1.000000 )  


     PseudoPot. # 1 for Si read from file:
     /home/max/quantum_espresso/qe-6.1/pseudo/si_pbe_v1.uspp.F.UPF.txt
     MD5 check sum: a056efeee980c13900f22a371efd63c1
     Pseudo is Ultrasoft + core correction, Zval =  4.0
     Generated by new atomic code, or converted to UPF format
     Using radial grid of  899 points,  6 beta functions with: 
                l(1) =   0
                l(2) =   0
                l(3) =   1
                l(4) =   1
                l(5) =   2
                l(6) =   2
     Q(r) pseudized with  8 coefficients,  rinner =    0.900   0.900   0.900
                                                       0.900   0.900

     atomic species   valence    mass     pseudopotential
        Si             4.00    28.08600     Si( 1.00)

     48 Sym. Ops., with inversion, found



   Cartesian axes

     site n.     atom                  positions (alat units)
         1           Si  tau(   1) = (   0.0000000   0.0000000   0.0000000  )
         2           Si  tau(   2) = (   0.2500000   0.2500000   0.2500000  )

     number of k points=   120

     Number of k-points >= 100: set verbosity='high' to print them.

     Dense  grid:     2837 G-vectors     FFT dimensions: (  20,  20,  20)

     Estimated max dynamical RAM per process >       0.33MB

     Estimated total allocated dynamical RAM >       1.32MB

     Check: negative/imaginary core charge=   -0.000006    0.000000

     The potential is recalculated from file :
     ./_ph0/silicon.10.345.save/charge-density.dat

     Starting wfc are    8 atomic wfcs

     Band Structure Calculation
     Davidson diagonalization with overlap

     ethr =  1.25E-10,  avg # of iterations = 11.7

     total cpu time spent up to now is        0.9 secs

     End of band structure calculation

     Number of k-points >= 100: set verbosity='high' to print the bands.

     highest occupied level (ev):     5.6670

     Writing output data file silicon.10.345.save

                                                                                

     bravais-lattice index     =            2
     lattice parameter (alat)  =      10.3450  a.u.
     unit-cell volume          =     276.7780 (a.u.)^3
     number of atoms/cell      =            2
     number of atomic types    =            1
     kinetic-energy cut-off    =      18.0000  Ry
     charge density cut-off    =      72.0000  Ry
     convergence threshold     =      1.0E-12
     beta                      =       0.7000
     number of iterations used =            4
     Exchange-correlation      = SLA  PW   PBE  PBE ( 1  4  3  4 0 0)


     celldm(1)=   10.34500  celldm(2)=    0.00000  celldm(3)=    0.00000
     celldm(4)=    0.00000  celldm(5)=    0.00000  celldm(6)=    0.00000

     crystal axes: (cart. coord. in units of alat)
               a(1) = ( -0.5000  0.0000  0.5000 )  
               a(2) = (  0.0000  0.5000  0.5000 )  
               a(3) = ( -0.5000  0.5000  0.0000 )  

     reciprocal axes: (cart. coord. in units 2 pi/alat)
               b(1) = ( -1.0000 -1.0000  1.0000 )  
               b(2) = (  1.0000  1.0000  1.0000 )  
               b(3) = ( -1.0000  1.0000 -1.0000 )  


     Atoms inside the unit cell: 

     Cartesian axes

     site n.  atom      mass           positions (alat units)
        1     Si  28.0860   tau(    1) = (    0.00000    0.00000    0.00000  )
        2     Si  28.0860   tau(    2) = (    0.25000    0.25000    0.25000  )

     Computing dynamical matrix for 
                    q = (  -0.2500000   0.2500000  -0.2500000 )

      6 Sym.Ops. (no q -> -q+G )


     G cutoff =  195.1793  (    710 G-vectors)     FFT grid: ( 20, 20, 20)
     number of k points=   120

     PseudoPot. # 1 for Si read from file:
     /home/max/quantum_espresso/qe-6.1/pseudo/si_pbe_v1.uspp.F.UPF.txt
     MD5 check sum: a056efeee980c13900f22a371efd63c1
     Pseudo is Ultrasoft + core correction, Zval =  4.0
     Generated by new atomic code, or converted to UPF format
     Using radial grid of  899 points,  6 beta functions with: 
                l(1) =   0
                l(2) =   0
                l(3) =   1
                l(4) =   1
                l(5) =   2
                l(6) =   2
     Q(r) pseudized with  8 coefficients,  rinner =    0.900   0.900   0.900
                                                       0.900   0.900

     Mode symmetry, C_3v (3m)   point group:


     Atomic displacements:
     There are   4 irreducible representations

     Representation     1      1 modes -A_1  L_1  To be done

     Representation     2      1 modes -A_1  L_1  To be done

     Representation     3      2 modes -E    L_3  To be done

     Representation     4      2 modes -E    L_3  To be done



     Alpha used in Ewald sum =   0.7000
     PHONON       :     5.18s CPU         5.80s WALL



     Representation #  1 mode #   1

     Self-consistent Calculation

      iter #   1 total cpu time :     6.1 secs   av.it.:   5.5
      thresh= 1.000E-02 alpha_mix =  0.700 |ddv_scf|^2 =  2.464E-03

      iter #   2 total cpu time :     6.3 secs   av.it.:   7.5
      thresh= 4.964E-03 alpha_mix =  0.700 |ddv_scf|^2 =  3.723E-02

      iter #   3 total cpu time :     6.6 secs   av.it.:   6.3
      thresh= 1.000E-02 alpha_mix =  0.700 |ddv_scf|^2 =  1.715E-06

      iter #   4 total cpu time :     6.9 secs   av.it.:   8.2
      thresh= 1.309E-04 alpha_mix =  0.700 |ddv_scf|^2 =  1.156E-07

      iter #   5 total cpu time :     7.2 secs   av.it.:   8.1
      thresh= 3.400E-05 alpha_mix =  0.700 |ddv_scf|^2 =  4.662E-09

      iter #   6 total cpu time :     7.7 secs   av.it.:   8.0
      thresh= 6.828E-06 alpha_mix =  0.700 |ddv_scf|^2 =  4.045E-09

      iter #   7 total cpu time :     7.9 secs   av.it.:   6.2
      thresh= 6.360E-06 alpha_mix =  0.700 |ddv_scf|^2 =  5.099E-10

      iter #   8 total cpu time :     8.2 secs   av.it.:   7.2
      thresh= 2.258E-06 alpha_mix =  0.700 |ddv_scf|^2 =  3.828E-12

      iter #   9 total cpu time :     8.5 secs   av.it.:   7.2
      thresh= 1.956E-07 alpha_mix =  0.700 |ddv_scf|^2 =  1.488E-13

     End of self-consistent calculation

     Convergence has been achieved 


     Representation #  2 mode #   2

     Self-consistent Calculation

      iter #   1 total cpu time :     8.8 secs   av.it.:   5.5
      thresh= 1.000E-02 alpha_mix =  0.700 |ddv_scf|^2 =  2.464E-03

      iter #   2 total cpu time :     9.0 secs   av.it.:   7.5
      thresh= 4.964E-03 alpha_mix =  0.700 |ddv_scf|^2 =  3.723E-02

      iter #   3 total cpu time :     9.4 secs   av.it.:   6.3
      thresh= 1.000E-02 alpha_mix =  0.700 |ddv_scf|^2 =  1.715E-06

      iter #   4 total cpu time :     9.8 secs   av.it.:   8.2
      thresh= 1.309E-04 alpha_mix =  0.700 |ddv_scf|^2 =  1.156E-07

      iter #   5 total cpu time :    10.1 secs   av.it.:   8.1
      thresh= 3.400E-05 alpha_mix =  0.700 |ddv_scf|^2 =  4.662E-09

      iter #   6 total cpu time :    10.4 secs   av.it.:   8.0
      thresh= 6.828E-06 alpha_mix =  0.700 |ddv_scf|^2 =  4.045E-09

      iter #   7 total cpu time :    10.7 secs   av.it.:   6.2
      thresh= 6.360E-06 alpha_mix =  0.700 |ddv_scf|^2 =  5.099E-10

      iter #   8 total cpu time :    11.0 secs   av.it.:   7.2
      thresh= 2.258E-06 alpha_mix =  0.700 |ddv_scf|^2 =  3.828E-12

      iter #   9 total cpu time :    11.3 secs   av.it.:   7.2
      thresh= 1.956E-07 alpha_mix =  0.700 |ddv_scf|^2 =  1.488E-13

     End of self-consistent calculation

     Convergence has been achieved 


     Representation #  3 modes #   3  4

     Self-consistent Calculation

      iter #   1 total cpu time :    11.9 secs   av.it.:   4.9
      thresh= 1.000E-02 alpha_mix =  0.700 |ddv_scf|^2 =  5.714E-07

      iter #   2 total cpu time :    12.6 secs   av.it.:   9.4
      thresh= 7.559E-05 alpha_mix =  0.700 |ddv_scf|^2 =  4.297E-08

      iter #   3 total cpu time :    13.3 secs   av.it.:   9.2
      thresh= 2.073E-05 alpha_mix =  0.700 |ddv_scf|^2 =  3.718E-09

      iter #   4 total cpu time :    14.1 secs   av.it.:   8.9
      thresh= 6.098E-06 alpha_mix =  0.700 |ddv_scf|^2 =  1.117E-11

      iter #   5 total cpu time :    14.8 secs   av.it.:   9.2
      thresh= 3.342E-07 alpha_mix =  0.700 |ddv_scf|^2 =  4.988E-13

     End of self-consistent calculation

     Convergence has been achieved 


     Representation #  4 modes #   5  6

     Self-consistent Calculation

      iter #   1 total cpu time :    15.3 secs   av.it.:   5.0
      thresh= 1.000E-02 alpha_mix =  0.700 |ddv_scf|^2 =  5.712E-07

      iter #   2 total cpu time :    16.1 secs   av.it.:   9.6
      thresh= 7.558E-05 alpha_mix =  0.700 |ddv_scf|^2 =  4.293E-08

      iter #   3 total cpu time :    16.8 secs   av.it.:   9.4
      thresh= 2.072E-05 alpha_mix =  0.700 |ddv_scf|^2 =  3.715E-09

      iter #   4 total cpu time :    17.7 secs   av.it.:   9.1
      thresh= 6.095E-06 alpha_mix =  0.700 |ddv_scf|^2 =  1.117E-11

      iter #   5 total cpu time :    18.3 secs   av.it.:   9.2
      thresh= 3.342E-07 alpha_mix =  0.700 |ddv_scf|^2 =  4.989E-13

     End of self-consistent calculation

     Convergence has been achieved 

     Number of q in the star =    8
     List of q in the star:
          1  -0.250000000   0.250000000  -0.250000000
          2   0.250000000  -0.250000000  -0.250000000
          3   0.250000000  -0.250000000   0.250000000
          4   0.250000000   0.250000000   0.250000000
          5  -0.250000000  -0.250000000  -0.250000000
          6  -0.250000000  -0.250000000   0.250000000
          7  -0.250000000   0.250000000   0.250000000
          8   0.250000000   0.250000000  -0.250000000

     Diagonalizing the dynamical matrix

     q = (   -0.250000000   0.250000000  -0.250000000 ) 

 **************************************************************************
     freq (    1) =       3.397969 [THz] =     113.344057 [cm-1]
     freq (    2) =       3.397969 [THz] =     113.344057 [cm-1]
     freq (    3) =       6.918937 [THz] =     230.790908 [cm-1]
     freq (    4) =      14.417687 [THz] =     480.922280 [cm-1]
     freq (    5) =      14.725880 [THz] =     491.202479 [cm-1]
     freq (    6) =      14.725880 [THz] =     491.202479 [cm-1]
 **************************************************************************

     Mode symmetry, C_3v (3m)   point group:

     freq (  1 -  2) =        113.3  [cm-1]   --> E    L_3           
     freq (  3 -  3) =        230.8  [cm-1]   --> A_1  L_1           
     freq (  4 -  4) =        480.9  [cm-1]   --> A_1  L_1           
     freq (  5 -  6) =        491.2  [cm-1]   --> E    L_3           

     Calculation of q =    0.5000000  -0.5000000   0.5000000

   Info: using nr1, nr2, nr3 values from input

   Info: using nr1, nr2, nr3 values from input

     Parallelization info
     --------------------
     sticks:   dense  smooth     PW     G-vecs:    dense   smooth      PW
     Min          64      64     27                  709      709     186
     Max          67      67     28                  710      710     189
     Sum         265     265    109                 2837     2837     749



     bravais-lattice index     =            2
     lattice parameter (alat)  =      10.3450  a.u.
     unit-cell volume          =     276.7780 (a.u.)^3
     number of atoms/cell      =            2
     number of atomic types    =            1
     number of electrons       =         8.00
     number of Kohn-Sham states=            4
     kinetic-energy cutoff     =      18.0000  Ry
     charge density cutoff     =      72.0000  Ry
     Exchange-correlation      = SLA  PW   PBE  PBE ( 1  4  3  4 0 0)

     celldm(1)=  10.345000  celldm(2)=   0.000000  celldm(3)=   0.000000
     celldm(4)=   0.000000  celldm(5)=   0.000000  celldm(6)=   0.000000

     crystal axes: (cart. coord. in units of alat)
               a(1) = (  -0.500000   0.000000   0.500000 )  
               a(2) = (   0.000000   0.500000   0.500000 )  
               a(3) = (  -0.500000   0.500000   0.000000 )  

     reciprocal axes: (cart. coord. in units 2 pi/alat)
               b(1) = ( -1.000000 -1.000000  1.000000 )  
               b(2) = (  1.000000  1.000000  1.000000 )  
               b(3) = ( -1.000000  1.000000 -1.000000 )  


     PseudoPot. # 1 for Si read from file:
     /home/max/quantum_espresso/qe-6.1/pseudo/si_pbe_v1.uspp.F.UPF.txt
     MD5 check sum: a056efeee980c13900f22a371efd63c1
     Pseudo is Ultrasoft + core correction, Zval =  4.0
     Generated by new atomic code, or converted to UPF format
     Using radial grid of  899 points,  6 beta functions with: 
                l(1) =   0
                l(2) =   0
                l(3) =   1
                l(4) =   1
                l(5) =   2
                l(6) =   2
     Q(r) pseudized with  8 coefficients,  rinner =    0.900   0.900   0.900
                                                       0.900   0.900

     atomic species   valence    mass     pseudopotential
        Si             4.00    28.08600     Si( 1.00)

     48 Sym. Ops., with inversion, found



   Cartesian axes

     site n.     atom                  positions (alat units)
         1           Si  tau(   1) = (   0.0000000   0.0000000   0.0000000  )
         2           Si  tau(   2) = (   0.2500000   0.2500000   0.2500000  )

     number of k points=    60
                       cart. coord. in units 2pi/alat
        k(    1) = (  -0.1250000   0.1250000   0.1250000), wk =   0.0468750
        k(    2) = (   0.3750000  -0.3750000   0.6250000), wk =   0.0000000
        k(    3) = (  -0.3750000   0.3750000  -0.1250000), wk =   0.0468750
        k(    4) = (   0.1250000  -0.1250000   0.3750000), wk =   0.0000000
        k(    5) = (   0.3750000  -0.3750000   0.6250000), wk =   0.0468750
        k(    6) = (   0.8750000  -0.8750000   1.1250000), wk =   0.0000000
        k(    7) = (   0.1250000  -0.1250000   0.3750000), wk =   0.0468750
        k(    8) = (   0.6250000  -0.6250000   0.8750000), wk =   0.0000000
        k(    9) = (  -0.1250000   0.6250000   0.1250000), wk =   0.0937500
        k(   10) = (   0.3750000   0.1250000   0.6250000), wk =   0.0000000
        k(   11) = (   0.6250000  -0.1250000   0.8750000), wk =   0.0937500
        k(   12) = (   1.1250000  -0.6250000   1.3750000), wk =   0.0000000
        k(   13) = (   0.3750000   0.1250000   0.6250000), wk =   0.0937500
        k(   14) = (   0.8750000  -0.3750000   1.1250000), wk =   0.0000000
        k(   15) = (  -0.1250000  -0.8750000   0.1250000), wk =   0.0937500
        k(   16) = (   0.3750000  -1.3750000   0.6250000), wk =   0.0000000
        k(   17) = (  -0.3750000   0.3750000   0.3750000), wk =   0.0468750
        k(   18) = (   0.1250000  -0.1250000   0.8750000), wk =   0.0000000
        k(   19) = (   0.3750000  -0.3750000   1.1250000), wk =   0.0468750
        k(   20) = (   0.8750000  -0.8750000   1.6250000), wk =   0.0000000
        k(   21) = (   0.1250000  -0.1250000   0.1250000), wk =   0.0156250
        k(   22) = (   0.6250000  -0.6250000   0.6250000), wk =   0.0000000
        k(   23) = (  -0.3750000  -0.3750000  -0.1250000), wk =   0.0937500
        k(   24) = (   0.1250000  -0.8750000   0.3750000), wk =   0.0000000
        k(   25) = (  -0.1250000  -0.3750000   0.3750000), wk =   0.0468750
        k(   26) = (   0.3750000  -0.8750000   0.8750000), wk =   0.0000000
        k(   27) = (   0.3750000   0.3750000   0.6250000), wk =   0.0937500
        k(   28) = (   0.8750000  -0.1250000   1.1250000), wk =   0.0000000
        k(   29) = (   0.6250000   0.3750000  -0.3750000), wk =   0.0468750
        k(   30) = (   1.1250000  -0.1250000   0.1250000), wk =   0.0000000
        k(   31) = (   0.1250000   0.1250000   0.3750000), wk =   0.0937500
        k(   32) = (   0.6250000  -0.3750000   0.8750000), wk =   0.0000000
        k(   33) = (   0.3750000   0.1250000  -0.1250000), wk =   0.0468750
        k(   34) = (   0.8750000  -0.3750000   0.3750000), wk =   0.0000000
        k(   35) = (  -0.1250000  -0.6250000  -0.1250000), wk =   0.0468750
        k(   36) = (   0.3750000  -1.1250000   0.3750000), wk =   0.0000000
        k(   37) = (   0.1250000  -0.6250000   0.1250000), wk =   0.0468750
        k(   38) = (   0.6250000  -1.1250000   0.6250000), wk =   0.0000000
        k(   39) = (   0.6250000   0.1250000   0.8750000), wk =   0.0937500
        k(   40) = (   1.1250000  -0.3750000   1.3750000), wk =   0.0000000
        k(   41) = (  -0.8750000   0.1250000   0.6250000), wk =   0.0937500
        k(   42) = (  -0.3750000  -0.3750000   1.1250000), wk =   0.0000000
        k(   43) = (   0.8750000   0.1250000  -0.6250000), wk =   0.0937500
        k(   44) = (   1.3750000  -0.3750000  -0.1250000), wk =   0.0000000
        k(   45) = (   0.3750000  -0.1250000   0.6250000), wk =   0.0937500
        k(   46) = (   0.8750000  -0.6250000   1.1250000), wk =   0.0000000
        k(   47) = (  -0.6250000  -0.1250000   0.3750000), wk =   0.0937500
        k(   48) = (  -0.1250000  -0.6250000   0.8750000), wk =   0.0000000
        k(   49) = (   0.6250000  -0.1250000  -0.3750000), wk =   0.0937500
        k(   50) = (   1.1250000  -0.6250000   0.1250000), wk =   0.0000000
        k(   51) = (  -0.1250000   0.8750000  -0.1250000), wk =   0.0468750
        k(   52) = (   0.3750000   0.3750000   0.3750000), wk =   0.0000000
        k(   53) = (   0.1250000   0.8750000   0.1250000), wk =   0.0468750
        k(   54) = (   0.6250000   0.3750000   0.6250000), wk =   0.0000000
        k(   55) = (   0.3750000  -0.3750000   0.3750000), wk =   0.0156250
        k(   56) = (   0.8750000  -0.8750000   0.8750000), wk =   0.0000000
        k(   57) = (   0.3750000   0.3750000   1.1250000), wk =   0.0937500
        k(   58) = (   0.8750000  -0.1250000   1.6250000), wk =   0.0000000
        k(   59) = (   1.1250000   0.3750000  -0.3750000), wk =   0.0468750
        k(   60) = (   1.6250000  -0.1250000   0.1250000), wk =   0.0000000

     Dense  grid:     2837 G-vectors     FFT dimensions: (  20,  20,  20)

     Estimated max dynamical RAM per process >       0.33MB

     Estimated total allocated dynamical RAM >       1.32MB

     Check: negative/imaginary core charge=   -0.000006    0.000000

     The potential is recalculated from file :
     ./_ph0/silicon.10.345.save/charge-density.dat

     Starting wfc are    8 atomic wfcs

     Band Structure Calculation
     Davidson diagonalization with overlap

     ethr =  1.25E-10,  avg # of iterations = 11.7

     total cpu time spent up to now is        1.7 secs

     End of band structure calculation

          k =-0.1250 0.1250 0.1250 (   338 PWs)   bands (ev):

    -5.6423   4.3583   5.6670   5.6670

          k = 0.3750-0.3750 0.6250 (   361 PWs)   bands (ev):

    -3.4909  -0.6937   3.7087   4.4189

          k =-0.3750 0.3750-0.1250 (   352 PWs)   bands (ev):

    -4.6217   1.3716   3.6920   5.1859

          k = 0.1250-0.1250 0.3750 (   353 PWs)   bands (ev):

    -5.1176   2.7414   4.6638   4.7254

          k = 0.3750-0.3750 0.6250 (   361 PWs)   bands (ev):

    -3.4909  -0.6937   3.7087   4.4189

          k = 0.8750-0.8750 1.1250 (   338 PWs)   bands (ev):

    -5.6423   4.3583   5.6670   5.6670

          k = 0.1250-0.1250 0.3750 (   353 PWs)   bands (ev):

    -5.1176   2.7414   4.6638   4.7254

          k = 0.6250-0.6250 0.8750 (   352 PWs)   bands (ev):

    -4.6217   1.3716   3.6920   5.1859

          k =-0.1250 0.6250 0.1250 (   351 PWs)   bands (ev):

    -4.0915   1.0304   3.3465   3.7933

          k = 0.3750 0.1250 0.6250 (   357 PWs)   bands (ev):

    -3.6792   0.1654   2.7081   4.0680

          k = 0.6250-0.1250 0.8750 (   361 PWs)   bands (ev):

    -2.4619  -0.9255   2.0041   3.0715

          k = 1.1250-0.6250 1.3750 (   352 PWs)   bands (ev):

    -4.6217   1.3716   3.6920   5.1859

          k = 0.3750 0.1250 0.6250 (   357 PWs)   bands (ev):

    -3.6792   0.1654   2.7081   4.0680

          k = 0.8750-0.3750 1.1250 (   351 PWs)   bands (ev):

    -4.0915   1.0304   3.3465   3.7933

          k =-0.1250-0.8750 0.1250 (   358 PWs)   bands (ev):

    -2.6270  -0.8292   2.6078   3.3282

          k = 0.3750-1.3750 0.6250 (   361 PWs)   bands (ev):

    -3.4909  -0.6937   3.7087   4.4189

          k =-0.3750 0.3750 0.3750 (   353 PWs)   bands (ev):

    -4.1923   0.0913   4.8807   4.8807

          k = 0.1250-0.1250 0.8750 (   358 PWs)   bands (ev):

    -2.6270  -0.8292   2.6078   3.3282

          k = 0.3750-0.3750 1.1250 (   361 PWs)   bands (ev):

    -2.9971  -0.6176   2.0595   4.1043

          k = 0.8750-0.8750 1.6250 (   351 PWs)   bands (ev):

    -4.0915   1.0304   3.3465   3.7933

          k = 0.1250-0.1250 0.1250 (   338 PWs)   bands (ev):

    -5.6423   4.3583   5.6670   5.6670

          k = 0.6250-0.6250 0.6250 (   353 PWs)   bands (ev):

    -4.1923   0.0913   4.8807   4.8807

          k =-0.3750-0.3750-0.1250 (   352 PWs)   bands (ev):

    -4.6217   1.3716   3.6920   5.1859

          k = 0.1250-0.8750 0.3750 (   361 PWs)   bands (ev):

    -2.4619  -0.9255   2.0041   3.0715

          k =-0.1250-0.3750 0.3750 (   352 PWs)   bands (ev):

    -4.6217   1.3716   3.6920   5.1859

          k = 0.3750-0.8750 0.8750 (   351 PWs)   bands (ev):

    -4.0915   1.0304   3.3465   3.7933

          k = 0.3750 0.3750 0.6250 (   361 PWs)   bands (ev):

    -3.4909  -0.6937   3.7087   4.4189

          k = 0.8750-0.1250 1.1250 (   358 PWs)   bands (ev):

    -2.6270  -0.8292   2.6078   3.3282

          k = 0.6250 0.3750-0.3750 (   361 PWs)   bands (ev):

    -3.4909  -0.6937   3.7087   4.4189

          k = 1.1250-0.1250 0.1250 (   358 PWs)   bands (ev):

    -2.6270  -0.8292   2.6078   3.3282

          k = 0.1250 0.1250 0.3750 (   353 PWs)   bands (ev):

    -5.1176   2.7414   4.6638   4.7254

          k = 0.6250-0.3750 0.8750 (   357 PWs)   bands (ev):

    -3.6792   0.1654   2.7081   4.0680

          k = 0.3750 0.1250-0.1250 (   353 PWs)   bands (ev):

    -5.1176   2.7414   4.6638   4.7254

          k = 0.8750-0.3750 0.3750 (   361 PWs)   bands (ev):

    -2.9971  -0.6176   2.0595   4.1043

          k =-0.1250-0.6250-0.1250 (   351 PWs)   bands (ev):

    -4.0915   1.0304   3.3465   3.7933

          k = 0.3750-1.1250 0.3750 (   361 PWs)   bands (ev):

    -2.9971  -0.6176   2.0595   4.1043

          k = 0.1250-0.6250 0.1250 (   351 PWs)   bands (ev):

    -4.0915   1.0304   3.3465   3.7933

          k = 0.6250-1.1250 0.6250 (   352 PWs)   bands (ev):

    -4.6217   1.3716   3.6920   5.1859

          k = 0.6250 0.1250 0.8750 (   361 PWs)   bands (ev):

    -2.4619  -0.9255   2.0041   3.0715

          k = 1.1250-0.3750 1.3750 (   357 PWs)   bands (ev):

    -3.6792   0.1654   2.7081   4.0680

          k =-0.8750 0.1250 0.6250 (   361 PWs)   bands (ev):

    -2.4619  -0.9255   2.0041   3.0715

          k =-0.3750-0.3750 1.1250 (   361 PWs)   bands (ev):

    -2.9971  -0.6176   2.0595   4.1043

          k = 0.8750 0.1250-0.6250 (   361 PWs)   bands (ev):

    -2.4619  -0.9255   2.0041   3.0715

          k = 1.3750-0.3750-0.1250 (   357 PWs)   bands (ev):

    -3.6792   0.1654   2.7081   4.0680

          k = 0.3750-0.1250 0.6250 (   357 PWs)   bands (ev):

    -3.6792   0.1654   2.7081   4.0680

          k = 0.8750-0.6250 1.1250 (   353 PWs)   bands (ev):

    -5.1176   2.7414   4.6638   4.7254

          k =-0.6250-0.1250 0.3750 (   357 PWs)   bands (ev):

    -3.6792   0.1654   2.7081   4.0680

          k =-0.1250-0.6250 0.8750 (   361 PWs)   bands (ev):

    -2.4619  -0.9255   2.0041   3.0715

          k = 0.6250-0.1250-0.3750 (   357 PWs)   bands (ev):

    -3.6792   0.1654   2.7081   4.0680

          k = 1.1250-0.6250 0.1250 (   361 PWs)   bands (ev):

    -2.4619  -0.9255   2.0041   3.0715

          k =-0.1250 0.8750-0.1250 (   358 PWs)   bands (ev):

    -2.6270  -0.8292   2.6078   3.3282

          k = 0.3750 0.3750 0.3750 (   353 PWs)   bands (ev):

    -4.1923   0.0913   4.8807   4.8807

          k = 0.1250 0.8750 0.1250 (   358 PWs)   bands (ev):

    -2.6270  -0.8292   2.6078   3.3282

          k = 0.6250 0.3750 0.6250 (   361 PWs)   bands (ev):

    -3.4909  -0.6937   3.7087   4.4189

          k = 0.3750-0.3750 0.3750 (   353 PWs)   bands (ev):

    -4.1923   0.0913   4.8807   4.8807

          k = 0.8750-0.8750 0.8750 (   338 PWs)   bands (ev):

    -5.6423   4.3583   5.6670   5.6670

          k = 0.3750 0.3750 1.1250 (   361 PWs)   bands (ev):

    -2.9971  -0.6176   2.0595   4.1043

          k = 0.8750-0.1250 1.6250 (   361 PWs)   bands (ev):

    -2.4619  -0.9255   2.0041   3.0715

          k = 1.1250 0.3750-0.3750 (   361 PWs)   bands (ev):

    -2.9971  -0.6176   2.0595   4.1043

          k = 1.6250-0.1250 0.1250 (   353 PWs)   bands (ev):

    -5.1176   2.7414   4.6638   4.7254

     highest occupied level (ev):     5.6670

     Writing output data file silicon.10.345.save

                                                                                

     bravais-lattice index     =            2
     lattice parameter (alat)  =      10.3450  a.u.
     unit-cell volume          =     276.7780 (a.u.)^3
     number of atoms/cell      =            2
     number of atomic types    =            1
     kinetic-energy cut-off    =      18.0000  Ry
     charge density cut-off    =      72.0000  Ry
     convergence threshold     =      1.0E-12
     beta                      =       0.7000
     number of iterations used =            4
     Exchange-correlation      = SLA  PW   PBE  PBE ( 1  4  3  4 0 0)


     celldm(1)=   10.34500  celldm(2)=    0.00000  celldm(3)=    0.00000
     celldm(4)=    0.00000  celldm(5)=    0.00000  celldm(6)=    0.00000

     crystal axes: (cart. coord. in units of alat)
               a(1) = ( -0.5000  0.0000  0.5000 )  
               a(2) = (  0.0000  0.5000  0.5000 )  
               a(3) = ( -0.5000  0.5000  0.0000 )  

     reciprocal axes: (cart. coord. in units 2 pi/alat)
               b(1) = ( -1.0000 -1.0000  1.0000 )  
               b(2) = (  1.0000  1.0000  1.0000 )  
               b(3) = ( -1.0000  1.0000 -1.0000 )  


     Atoms inside the unit cell: 

     Cartesian axes

     site n.  atom      mass           positions (alat units)
        1     Si  28.0860   tau(    1) = (    0.00000    0.00000    0.00000  )
        2     Si  28.0860   tau(    2) = (    0.25000    0.25000    0.25000  )

     Computing dynamical matrix for 
                    q = (   0.5000000  -0.5000000   0.5000000 )

     13 Sym.Ops. (with q -> -q+G )


     G cutoff =  195.1793  (    710 G-vectors)     FFT grid: ( 20, 20, 20)
     number of k points=    60

     PseudoPot. # 1 for Si read from file:
     /home/max/quantum_espresso/qe-6.1/pseudo/si_pbe_v1.uspp.F.UPF.txt
     MD5 check sum: a056efeee980c13900f22a371efd63c1
     Pseudo is Ultrasoft + core correction, Zval =  4.0
     Generated by new atomic code, or converted to UPF format
     Using radial grid of  899 points,  6 beta functions with: 
                l(1) =   0
                l(2) =   0
                l(3) =   1
                l(4) =   1
                l(5) =   2
                l(6) =   2
     Q(r) pseudized with  8 coefficients,  rinner =    0.900   0.900   0.900
                                                       0.900   0.900


     Atomic displacements:
     There are   4 irreducible representations

     Representation     1      1 modes -  To be done

     Representation     2      1 modes -  To be done

     Representation     3      2 modes -  To be done

     Representation     4      2 modes -  To be done



     Alpha used in Ewald sum =   0.7000
     PHONON       :    16.56s CPU        19.21s WALL



     Representation #  1 mode #   1

     Self-consistent Calculation

      iter #   1 total cpu time :    19.5 secs   av.it.:   4.8
      thresh= 1.000E-02 alpha_mix =  0.700 |ddv_scf|^2 =  2.483E-05

      iter #   2 total cpu time :    19.7 secs   av.it.:   8.3
      thresh= 4.983E-04 alpha_mix =  0.700 |ddv_scf|^2 =  2.213E-05

      iter #   3 total cpu time :    19.9 secs   av.it.:   7.5
      thresh= 4.705E-04 alpha_mix =  0.700 |ddv_scf|^2 =  4.363E-08

      iter #   4 total cpu time :    20.0 secs   av.it.:   7.4
      thresh= 2.089E-05 alpha_mix =  0.700 |ddv_scf|^2 =  1.337E-10

      iter #   5 total cpu time :    20.2 secs   av.it.:   8.0
      thresh= 1.156E-06 alpha_mix =  0.700 |ddv_scf|^2 =  3.561E-12

      iter #   6 total cpu time :    20.4 secs   av.it.:   7.9
      thresh= 1.887E-07 alpha_mix =  0.700 |ddv_scf|^2 =  4.305E-14

     End of self-consistent calculation

     Convergence has been achieved 


     Representation #  2 mode #   2

     Self-consistent Calculation

      iter #   1 total cpu time :    20.5 secs   av.it.:   5.6
      thresh= 1.000E-02 alpha_mix =  0.700 |ddv_scf|^2 =  3.448E-04

      iter #   2 total cpu time :    20.7 secs   av.it.:   8.3
      thresh= 1.857E-03 alpha_mix =  0.700 |ddv_scf|^2 =  1.063E-03

      iter #   3 total cpu time :    20.9 secs   av.it.:   7.1
      thresh= 3.260E-03 alpha_mix =  0.700 |ddv_scf|^2 =  1.309E-07

      iter #   4 total cpu time :    21.0 secs   av.it.:   8.1
      thresh= 3.619E-05 alpha_mix =  0.700 |ddv_scf|^2 =  8.457E-09

      iter #   5 total cpu time :    21.2 secs   av.it.:   8.4
      thresh= 9.196E-06 alpha_mix =  0.700 |ddv_scf|^2 =  1.349E-10

      iter #   6 total cpu time :    21.6 secs   av.it.:   8.2
      thresh= 1.161E-06 alpha_mix =  0.700 |ddv_scf|^2 =  2.513E-12

      iter #   7 total cpu time :    21.7 secs   av.it.:   7.9
      thresh= 1.585E-07 alpha_mix =  0.700 |ddv_scf|^2 =  4.933E-15

     End of self-consistent calculation

     Convergence has been achieved 


     Representation #  3 modes #   3  4

     Self-consistent Calculation

      iter #   1 total cpu time :    22.0 secs   av.it.:   4.7
      thresh= 1.000E-02 alpha_mix =  0.700 |ddv_scf|^2 =  3.329E-07

      iter #   2 total cpu time :    22.3 secs   av.it.:   9.0
      thresh= 5.770E-05 alpha_mix =  0.700 |ddv_scf|^2 =  2.821E-08

      iter #   3 total cpu time :    22.7 secs   av.it.:   8.3
      thresh= 1.680E-05 alpha_mix =  0.700 |ddv_scf|^2 =  5.019E-10

      iter #   4 total cpu time :    23.0 secs   av.it.:   8.9
      thresh= 2.240E-06 alpha_mix =  0.700 |ddv_scf|^2 =  6.212E-12

      iter #   5 total cpu time :    23.5 secs   av.it.:   8.7
      thresh= 2.492E-07 alpha_mix =  0.700 |ddv_scf|^2 =  3.103E-14

     End of self-consistent calculation

     Convergence has been achieved 


     Representation #  4 modes #   5  6

     Self-consistent Calculation

      iter #   1 total cpu time :    23.8 secs   av.it.:   4.9
      thresh= 1.000E-02 alpha_mix =  0.700 |ddv_scf|^2 =  9.862E-07

      iter #   2 total cpu time :    24.1 secs   av.it.:   9.4
      thresh= 9.931E-05 alpha_mix =  0.700 |ddv_scf|^2 =  7.748E-08

      iter #   3 total cpu time :    24.5 secs   av.it.:   9.3
      thresh= 2.784E-05 alpha_mix =  0.700 |ddv_scf|^2 =  5.024E-09

      iter #   4 total cpu time :    24.8 secs   av.it.:   8.5
      thresh= 7.088E-06 alpha_mix =  0.700 |ddv_scf|^2 =  6.453E-12

      iter #   5 total cpu time :    25.2 secs   av.it.:   8.8
      thresh= 2.540E-07 alpha_mix =  0.700 |ddv_scf|^2 =  2.336E-14

     End of self-consistent calculation

     Convergence has been achieved 

     Number of q in the star =    4
     List of q in the star:
          1   0.500000000  -0.500000000   0.500000000
          2   0.500000000   0.500000000   0.500000000
          3  -0.500000000   0.500000000   0.500000000
          4   0.500000000   0.500000000  -0.500000000

     Diagonalizing the dynamical matrix

     q = (    0.500000000  -0.500000000   0.500000000 ) 

 **************************************************************************
     freq (    1) =       4.786254 [THz] =     159.652242 [cm-1]
     freq (    2) =       4.786254 [THz] =     159.652242 [cm-1]
     freq (    3) =      11.809498 [THz] =     393.922465 [cm-1]
     freq (    4) =      12.120255 [THz] =     404.288188 [cm-1]
     freq (    5) =      14.651021 [THz] =     488.705457 [cm-1]
     freq (    6) =      14.651021 [THz] =     488.705457 [cm-1]
 **************************************************************************

     Calculation of q =    0.0000000   0.5000000   0.0000000

   Info: using nr1, nr2, nr3 values from input

   Info: using nr1, nr2, nr3 values from input

     Parallelization info
     --------------------
     sticks:   dense  smooth     PW     G-vecs:    dense   smooth      PW
     Min          64      64     27                  709      709     175
     Max          67      67     28                  710      710     176
     Sum         265     265    109                 2837     2837     701



     bravais-lattice index     =            2
     lattice parameter (alat)  =      10.3450  a.u.
     unit-cell volume          =     276.7780 (a.u.)^3
     number of atoms/cell      =            2
     number of atomic types    =            1
     number of electrons       =         8.00
     number of Kohn-Sham states=            4
     kinetic-energy cutoff     =      18.0000  Ry
     charge density cutoff     =      72.0000  Ry
     Exchange-correlation      = SLA  PW   PBE  PBE ( 1  4  3  4 0 0)

     celldm(1)=  10.345000  celldm(2)=   0.000000  celldm(3)=   0.000000
     celldm(4)=   0.000000  celldm(5)=   0.000000  celldm(6)=   0.000000

     crystal axes: (cart. coord. in units of alat)
               a(1) = (  -0.500000   0.000000   0.500000 )  
               a(2) = (   0.000000   0.500000   0.500000 )  
               a(3) = (  -0.500000   0.500000   0.000000 )  

     reciprocal axes: (cart. coord. in units 2 pi/alat)
               b(1) = ( -1.000000 -1.000000  1.000000 )  
               b(2) = (  1.000000  1.000000  1.000000 )  
               b(3) = ( -1.000000  1.000000 -1.000000 )  


     PseudoPot. # 1 for Si read from file:
     /home/max/quantum_espresso/qe-6.1/pseudo/si_pbe_v1.uspp.F.UPF.txt
     MD5 check sum: a056efeee980c13900f22a371efd63c1
     Pseudo is Ultrasoft + core correction, Zval =  4.0
     Generated by new atomic code, or converted to UPF format
     Using radial grid of  899 points,  6 beta functions with: 
                l(1) =   0
                l(2) =   0
                l(3) =   1
                l(4) =   1
                l(5) =   2
                l(6) =   2
     Q(r) pseudized with  8 coefficients,  rinner =    0.900   0.900   0.900
                                                       0.900   0.900

     atomic species   valence    mass     pseudopotential
        Si             4.00    28.08600     Si( 1.00)

     48 Sym. Ops., with inversion, found



   Cartesian axes

     site n.     atom                  positions (alat units)
         1           Si  tau(   1) = (   0.0000000   0.0000000   0.0000000  )
         2           Si  tau(   2) = (   0.2500000   0.2500000   0.2500000  )

     number of k points=    80
                       cart. coord. in units 2pi/alat
        k(    1) = (  -0.1250000   0.1250000   0.1250000), wk =   0.0312500
        k(    2) = (  -0.1250000   0.6250000   0.1250000), wk =   0.0000000
        k(    3) = (  -0.3750000   0.3750000  -0.1250000), wk =   0.0625000
        k(    4) = (  -0.3750000   0.8750000  -0.1250000), wk =   0.0000000
        k(    5) = (   0.3750000  -0.3750000   0.6250000), wk =   0.0625000
        k(    6) = (   0.3750000   0.1250000   0.6250000), wk =   0.0000000
        k(    7) = (   0.1250000  -0.1250000   0.3750000), wk =   0.0625000
        k(    8) = (   0.1250000   0.3750000   0.3750000), wk =   0.0000000
        k(    9) = (  -0.1250000   0.6250000   0.1250000), wk =   0.0312500
        k(   10) = (  -0.1250000   1.1250000   0.1250000), wk =   0.0000000
        k(   11) = (   0.6250000  -0.1250000   0.8750000), wk =   0.0625000
        k(   12) = (   0.6250000   0.3750000   0.8750000), wk =   0.0000000
        k(   13) = (   0.3750000   0.1250000   0.6250000), wk =   0.0625000
        k(   14) = (   0.3750000   0.6250000   0.6250000), wk =   0.0000000
        k(   15) = (  -0.1250000  -0.8750000   0.1250000), wk =   0.0312500
        k(   16) = (  -0.1250000  -0.3750000   0.1250000), wk =   0.0000000
        k(   17) = (  -0.3750000   0.3750000   0.3750000), wk =   0.0312500
        k(   18) = (  -0.3750000   0.8750000   0.3750000), wk =   0.0000000
        k(   19) = (   0.3750000  -0.3750000   1.1250000), wk =   0.0625000
        k(   20) = (   0.3750000   0.1250000   1.1250000), wk =   0.0000000
        k(   21) = (  -0.1250000  -0.1250000   0.1250000), wk =   0.0312500
        k(   22) = (  -0.1250000   0.3750000   0.1250000), wk =   0.0000000
        k(   23) = (   0.1250000  -0.3750000   0.3750000), wk =   0.0625000
        k(   24) = (   0.1250000   0.1250000   0.3750000), wk =   0.0000000
        k(   25) = (   0.3750000  -0.1250000   0.3750000), wk =   0.0312500
        k(   26) = (   0.3750000   0.3750000   0.3750000), wk =   0.0000000
        k(   27) = (   0.3750000   0.1250000   0.3750000), wk =   0.0312500
        k(   28) = (   0.3750000   0.6250000   0.3750000), wk =   0.0000000
        k(   29) = (  -0.6250000   0.3750000  -0.3750000), wk =   0.0625000
        k(   30) = (  -0.6250000   0.8750000  -0.3750000), wk =   0.0000000
        k(   31) = (  -0.3750000   0.6250000  -0.3750000), wk =   0.0312500
        k(   32) = (  -0.3750000   1.1250000  -0.3750000), wk =   0.0000000
        k(   33) = (  -0.3750000  -0.6250000  -0.3750000), wk =   0.0312500
        k(   34) = (  -0.3750000  -0.1250000  -0.3750000), wk =   0.0000000
        k(   35) = (  -0.3750000   0.1250000  -0.1250000), wk =   0.0625000
        k(   36) = (  -0.3750000   0.6250000  -0.1250000), wk =   0.0000000
        k(   37) = (  -0.1250000   0.3750000  -0.1250000), wk =   0.0312500
        k(   38) = (  -0.1250000   0.8750000  -0.1250000), wk =   0.0000000
        k(   39) = (  -0.1250000  -0.3750000  -0.1250000), wk =   0.0312500
        k(   40) = (  -0.1250000   0.1250000  -0.1250000), wk =   0.0000000
        k(   41) = (  -0.1250000  -0.6250000   0.1250000), wk =   0.0312500
        k(   42) = (  -0.1250000  -0.1250000   0.1250000), wk =   0.0000000
        k(   43) = (   0.6250000  -0.1250000  -0.1250000), wk =   0.0625000
        k(   44) = (   0.6250000   0.3750000  -0.1250000), wk =   0.0000000
        k(   45) = (   0.6250000   0.1250000   0.1250000), wk =   0.0625000
        k(   46) = (   0.6250000   0.6250000   0.1250000), wk =   0.0000000
        k(   47) = (  -0.8750000   0.1250000  -0.6250000), wk =   0.0625000
        k(   48) = (  -0.8750000   0.6250000  -0.6250000), wk =   0.0000000
        k(   49) = (  -0.1250000   0.6250000  -0.8750000), wk =   0.0625000
        k(   50) = (  -0.1250000   1.1250000  -0.8750000), wk =   0.0000000
        k(   51) = (  -0.1250000   0.8750000  -0.6250000), wk =   0.0625000
        k(   52) = (  -0.1250000   1.3750000  -0.6250000), wk =   0.0000000
        k(   53) = (  -0.1250000  -0.8750000  -0.6250000), wk =   0.0625000
        k(   54) = (  -0.1250000  -0.3750000  -0.6250000), wk =   0.0000000
        k(   55) = (   0.8750000  -0.6250000   0.1250000), wk =   0.0625000
        k(   56) = (   0.8750000  -0.1250000   0.1250000), wk =   0.0000000
        k(   57) = (  -0.6250000  -0.1250000  -0.3750000), wk =   0.0625000
        k(   58) = (  -0.6250000   0.3750000  -0.3750000), wk =   0.0000000
        k(   59) = (   0.1250000   0.3750000  -0.6250000), wk =   0.0625000
        k(   60) = (   0.1250000   0.8750000  -0.6250000), wk =   0.0000000
        k(   61) = (   0.1250000   0.6250000  -0.3750000), wk =   0.0625000
        k(   62) = (   0.1250000   1.1250000  -0.3750000), wk =   0.0000000
        k(   63) = (   0.1250000  -0.6250000  -0.3750000), wk =   0.0625000
        k(   64) = (   0.1250000  -0.1250000  -0.3750000), wk =   0.0000000
        k(   65) = (   0.6250000  -0.3750000  -0.1250000), wk =   0.0625000
        k(   66) = (   0.6250000   0.1250000  -0.1250000), wk =   0.0000000
        k(   67) = (  -0.1250000   0.8750000   0.1250000), wk =   0.0312500
        k(   68) = (  -0.1250000   1.3750000   0.1250000), wk =   0.0000000
        k(   69) = (  -0.8750000  -0.1250000  -0.1250000), wk =   0.0625000
        k(   70) = (  -0.8750000   0.3750000  -0.1250000), wk =   0.0000000
        k(   71) = (  -0.8750000   0.1250000   0.1250000), wk =   0.0625000
        k(   72) = (  -0.8750000   0.6250000   0.1250000), wk =   0.0000000
        k(   73) = (  -0.3750000  -0.3750000   0.3750000), wk =   0.0312500
        k(   74) = (  -0.3750000   0.1250000   0.3750000), wk =   0.0000000
        k(   75) = (  -1.1250000   0.3750000  -0.3750000), wk =   0.0625000
        k(   76) = (  -1.1250000   0.8750000  -0.3750000), wk =   0.0000000
        k(   77) = (  -0.3750000   1.1250000  -0.3750000), wk =   0.0312500
        k(   78) = (  -0.3750000   1.6250000  -0.3750000), wk =   0.0000000
        k(   79) = (  -0.3750000  -1.1250000  -0.3750000), wk =   0.0312500
        k(   80) = (  -0.3750000  -0.6250000  -0.3750000), wk =   0.0000000

     Dense  grid:     2837 G-vectors     FFT dimensions: (  20,  20,  20)

     Estimated max dynamical RAM per process >       0.33MB

     Estimated total allocated dynamical RAM >       1.32MB

     Check: negative/imaginary core charge=   -0.000006    0.000000

     The potential is recalculated from file :
     ./_ph0/silicon.10.345.save/charge-density.dat

     Starting wfc are    8 atomic wfcs

     Band Structure Calculation
     Davidson diagonalization with overlap

     ethr =  1.25E-10,  avg # of iterations = 11.7

     total cpu time spent up to now is        2.6 secs

     End of band structure calculation

          k =-0.1250 0.1250 0.1250 (   338 PWs)   bands (ev):

    -5.6423   4.3583   5.6670   5.6670

          k =-0.1250 0.6250 0.1250 (   351 PWs)   bands (ev):

    -4.0915   1.0304   3.3465   3.7933

          k =-0.3750 0.3750-0.1250 (   352 PWs)   bands (ev):

    -4.6217   1.3716   3.6920   5.1859

          k =-0.3750 0.8750-0.1250 (   361 PWs)   bands (ev):

    -2.4619  -0.9255   2.0041   3.0715

          k = 0.3750-0.3750 0.6250 (   361 PWs)   bands (ev):

    -3.4909  -0.6937   3.7087   4.4189

          k = 0.3750 0.1250 0.6250 (   357 PWs)   bands (ev):

    -3.6792   0.1654   2.7081   4.0680

          k = 0.1250-0.1250 0.3750 (   353 PWs)   bands (ev):

    -5.1176   2.7414   4.6638   4.7254

          k = 0.1250 0.3750 0.3750 (   352 PWs)   bands (ev):

    -4.6217   1.3716   3.6920   5.1859

          k =-0.1250 0.6250 0.1250 (   351 PWs)   bands (ev):

    -4.0915   1.0304   3.3465   3.7933

          k =-0.1250 1.1250 0.1250 (   358 PWs)   bands (ev):

    -2.6270  -0.8292   2.6078   3.3282

          k = 0.6250-0.1250 0.8750 (   361 PWs)   bands (ev):

    -2.4619  -0.9255   2.0041   3.0715

          k = 0.6250 0.3750 0.8750 (   357 PWs)   bands (ev):

    -3.6792   0.1654   2.7081   4.0680

          k = 0.3750 0.1250 0.6250 (   357 PWs)   bands (ev):

    -3.6792   0.1654   2.7081   4.0680

          k = 0.3750 0.6250 0.6250 (   361 PWs)   bands (ev):

    -3.4909  -0.6937   3.7087   4.4189

          k =-0.1250-0.8750 0.1250 (   358 PWs)   bands (ev):

    -2.6270  -0.8292   2.6078   3.3282

          k =-0.1250-0.3750 0.1250 (   353 PWs)   bands (ev):

    -5.1176   2.7414   4.6638   4.7254

          k =-0.3750 0.3750 0.3750 (   353 PWs)   bands (ev):

    -4.1923   0.0913   4.8807   4.8807

          k =-0.3750 0.8750 0.3750 (   361 PWs)   bands (ev):

    -2.9971  -0.6176   2.0595   4.1043

          k = 0.3750-0.3750 1.1250 (   361 PWs)   bands (ev):

    -2.9971  -0.6176   2.0595   4.1043

          k = 0.3750 0.1250 1.1250 (   361 PWs)   bands (ev):

    -2.4619  -0.9255   2.0041   3.0715

          k =-0.1250-0.1250 0.1250 (   338 PWs)   bands (ev):

    -5.6423   4.3583   5.6670   5.6670

          k =-0.1250 0.3750 0.1250 (   353 PWs)   bands (ev):

    -5.1176   2.7414   4.6638   4.7254

          k = 0.1250-0.3750 0.3750 (   352 PWs)   bands (ev):

    -4.6217   1.3716   3.6920   5.1859

          k = 0.1250 0.1250 0.3750 (   353 PWs)   bands (ev):

    -5.1176   2.7414   4.6638   4.7254

          k = 0.3750-0.1250 0.3750 (   352 PWs)   bands (ev):

    -4.6217   1.3716   3.6920   5.1859

          k = 0.3750 0.3750 0.3750 (   353 PWs)   bands (ev):

    -4.1923   0.0913   4.8807   4.8807

          k = 0.3750 0.1250 0.3750 (   352 PWs)   bands (ev):

    -4.6217   1.3716   3.6920   5.1859

          k = 0.3750 0.6250 0.3750 (   361 PWs)   bands (ev):

    -3.4909  -0.6937   3.7087   4.4189

          k =-0.6250 0.3750-0.3750 (   361 PWs)   bands (ev):

    -3.4909  -0.6937   3.7087   4.4189

          k =-0.6250 0.8750-0.3750 (   357 PWs)   bands (ev):

    -3.6792   0.1654   2.7081   4.0680

          k =-0.3750 0.6250-0.3750 (   361 PWs)   bands (ev):

    -3.4909  -0.6937   3.7087   4.4189

          k =-0.3750 1.1250-0.3750 (   361 PWs)   bands (ev):

    -2.9971  -0.6176   2.0595   4.1043

          k =-0.3750-0.6250-0.3750 (   361 PWs)   bands (ev):

    -3.4909  -0.6937   3.7087   4.4189

          k =-0.3750-0.1250-0.3750 (   352 PWs)   bands (ev):

    -4.6217   1.3716   3.6920   5.1859

          k =-0.3750 0.1250-0.1250 (   353 PWs)   bands (ev):

    -5.1176   2.7414   4.6638   4.7254

          k =-0.3750 0.6250-0.1250 (   357 PWs)   bands (ev):

    -3.6792   0.1654   2.7081   4.0680

          k =-0.1250 0.3750-0.1250 (   353 PWs)   bands (ev):

    -5.1176   2.7414   4.6638   4.7254

          k =-0.1250 0.8750-0.1250 (   358 PWs)   bands (ev):

    -2.6270  -0.8292   2.6078   3.3282

          k =-0.1250-0.3750-0.1250 (   353 PWs)   bands (ev):

    -5.1176   2.7414   4.6638   4.7254

          k =-0.1250 0.1250-0.1250 (   338 PWs)   bands (ev):

    -5.6423   4.3583   5.6670   5.6670

          k =-0.1250-0.6250 0.1250 (   351 PWs)   bands (ev):

    -4.0915   1.0304   3.3465   3.7933

          k =-0.1250-0.1250 0.1250 (   338 PWs)   bands (ev):

    -5.6423   4.3583   5.6670   5.6670

          k = 0.6250-0.1250-0.1250 (   351 PWs)   bands (ev):

    -4.0915   1.0304   3.3465   3.7933

          k = 0.6250 0.3750-0.1250 (   357 PWs)   bands (ev):

    -3.6792   0.1654   2.7081   4.0680

          k = 0.6250 0.1250 0.1250 (   351 PWs)   bands (ev):

    -4.0915   1.0304   3.3465   3.7933

          k = 0.6250 0.6250 0.1250 (   361 PWs)   bands (ev):

    -2.9971  -0.6176   2.0595   4.1043

          k =-0.8750 0.1250-0.6250 (   361 PWs)   bands (ev):

    -2.4619  -0.9255   2.0041   3.0715

          k =-0.8750 0.6250-0.6250 (   352 PWs)   bands (ev):

    -4.6217   1.3716   3.6920   5.1859

          k =-0.1250 0.6250-0.8750 (   361 PWs)   bands (ev):

    -2.4619  -0.9255   2.0041   3.0715

          k =-0.1250 1.1250-0.8750 (   358 PWs)   bands (ev):

    -2.6270  -0.8292   2.6078   3.3282

          k =-0.1250 0.8750-0.6250 (   361 PWs)   bands (ev):

    -2.4619  -0.9255   2.0041   3.0715

          k =-0.1250 1.3750-0.6250 (   361 PWs)   bands (ev):

    -2.9971  -0.6176   2.0595   4.1043

          k =-0.1250-0.8750-0.6250 (   361 PWs)   bands (ev):

    -2.4619  -0.9255   2.0041   3.0715

          k =-0.1250-0.3750-0.6250 (   357 PWs)   bands (ev):

    -3.6792   0.1654   2.7081   4.0680

          k = 0.8750-0.6250 0.1250 (   361 PWs)   bands (ev):

    -2.4619  -0.9255   2.0041   3.0715

          k = 0.8750-0.1250 0.1250 (   358 PWs)   bands (ev):

    -2.6270  -0.8292   2.6078   3.3282

          k =-0.6250-0.1250-0.3750 (   357 PWs)   bands (ev):

    -3.6792   0.1654   2.7081   4.0680

          k =-0.6250 0.3750-0.3750 (   361 PWs)   bands (ev):

    -3.4909  -0.6937   3.7087   4.4189

          k = 0.1250 0.3750-0.6250 (   357 PWs)   bands (ev):

    -3.6792   0.1654   2.7081   4.0680

          k = 0.1250 0.8750-0.6250 (   361 PWs)   bands (ev):

    -2.4619  -0.9255   2.0041   3.0715

          k = 0.1250 0.6250-0.3750 (   357 PWs)   bands (ev):

    -3.6792   0.1654   2.7081   4.0680

          k = 0.1250 1.1250-0.3750 (   361 PWs)   bands (ev):

    -2.4619  -0.9255   2.0041   3.0715

          k = 0.1250-0.6250-0.3750 (   357 PWs)   bands (ev):

    -3.6792   0.1654   2.7081   4.0680

          k = 0.1250-0.1250-0.3750 (   353 PWs)   bands (ev):

    -5.1176   2.7414   4.6638   4.7254

          k = 0.6250-0.3750-0.1250 (   357 PWs)   bands (ev):

    -3.6792   0.1654   2.7081   4.0680

          k = 0.6250 0.1250-0.1250 (   351 PWs)   bands (ev):

    -4.0915   1.0304   3.3465   3.7933

          k =-0.1250 0.8750 0.1250 (   358 PWs)   bands (ev):

    -2.6270  -0.8292   2.6078   3.3282

          k =-0.1250 1.3750 0.1250 (   351 PWs)   bands (ev):

    -4.0915   1.0304   3.3465   3.7933

          k =-0.8750-0.1250-0.1250 (   358 PWs)   bands (ev):

    -2.6270  -0.8292   2.6078   3.3282

          k =-0.8750 0.3750-0.1250 (   361 PWs)   bands (ev):

    -2.4619  -0.9255   2.0041   3.0715

          k =-0.8750 0.1250 0.1250 (   358 PWs)   bands (ev):

    -2.6270  -0.8292   2.6078   3.3282

          k =-0.8750 0.6250 0.1250 (   361 PWs)   bands (ev):

    -2.4619  -0.9255   2.0041   3.0715

          k =-0.3750-0.3750 0.3750 (   353 PWs)   bands (ev):

    -4.1923   0.0913   4.8807   4.8807

          k =-0.3750 0.1250 0.3750 (   352 PWs)   bands (ev):

    -4.6217   1.3716   3.6920   5.1859

          k =-1.1250 0.3750-0.3750 (   361 PWs)   bands (ev):

    -2.9971  -0.6176   2.0595   4.1043

          k =-1.1250 0.8750-0.3750 (   351 PWs)   bands (ev):

    -4.0915   1.0304   3.3465   3.7933

          k =-0.3750 1.1250-0.3750 (   361 PWs)   bands (ev):

    -2.9971  -0.6176   2.0595   4.1043

          k =-0.3750 1.6250-0.3750 (   353 PWs)   bands (ev):

    -4.1923   0.0913   4.8807   4.8807

          k =-0.3750-1.1250-0.3750 (   361 PWs)   bands (ev):

    -2.9971  -0.6176   2.0595   4.1043

          k =-0.3750-0.6250-0.3750 (   361 PWs)   bands (ev):

    -3.4909  -0.6937   3.7087   4.4189

     highest occupied level (ev):     5.6670

     Writing output data file silicon.10.345.save

                                                                                

     bravais-lattice index     =            2
     lattice parameter (alat)  =      10.3450  a.u.
     unit-cell volume          =     276.7780 (a.u.)^3
     number of atoms/cell      =            2
     number of atomic types    =            1
     kinetic-energy cut-off    =      18.0000  Ry
     charge density cut-off    =      72.0000  Ry
     convergence threshold     =      1.0E-12
     beta                      =       0.7000
     number of iterations used =            4
     Exchange-correlation      = SLA  PW   PBE  PBE ( 1  4  3  4 0 0)


     celldm(1)=   10.34500  celldm(2)=    0.00000  celldm(3)=    0.00000
     celldm(4)=    0.00000  celldm(5)=    0.00000  celldm(6)=    0.00000

     crystal axes: (cart. coord. in units of alat)
               a(1) = ( -0.5000  0.0000  0.5000 )  
               a(2) = (  0.0000  0.5000  0.5000 )  
               a(3) = ( -0.5000  0.5000  0.0000 )  

     reciprocal axes: (cart. coord. in units 2 pi/alat)
               b(1) = ( -1.0000 -1.0000  1.0000 )  
               b(2) = (  1.0000  1.0000  1.0000 )  
               b(3) = ( -1.0000  1.0000 -1.0000 )  


     Atoms inside the unit cell: 

     Cartesian axes

     site n.  atom      mass           positions (alat units)
        1     Si  28.0860   tau(    1) = (    0.00000    0.00000    0.00000  )
        2     Si  28.0860   tau(    2) = (    0.25000    0.25000    0.25000  )

     Computing dynamical matrix for 
                    q = (   0.0000000   0.5000000   0.0000000 )

      8 Sym.Ops. (no q -> -q+G )


     G cutoff =  195.1793  (    710 G-vectors)     FFT grid: ( 20, 20, 20)
     number of k points=    80

     PseudoPot. # 1 for Si read from file:
     /home/max/quantum_espresso/qe-6.1/pseudo/si_pbe_v1.uspp.F.UPF.txt
     MD5 check sum: a056efeee980c13900f22a371efd63c1
     Pseudo is Ultrasoft + core correction, Zval =  4.0
     Generated by new atomic code, or converted to UPF format
     Using radial grid of  899 points,  6 beta functions with: 
                l(1) =   0
                l(2) =   0
                l(3) =   1
                l(4) =   1
                l(5) =   2
                l(6) =   2
     Q(r) pseudized with  8 coefficients,  rinner =    0.900   0.900   0.900
                                                       0.900   0.900

     Mode symmetry, C_4v (4mm)  point group:


     Atomic displacements:
     There are   4 irreducible representations

     Representation     1      1 modes -A_1  G_1 D_1  To be done

     Representation     2      1 modes -B_2  G_4 D_2'  To be done

     Representation     3      2 modes -E    G_5 D_5  To be done

     Representation     4      2 modes -E    G_5 D_5  To be done



     Alpha used in Ewald sum =   0.7000
     PHONON       :    22.70s CPU        26.43s WALL



     Representation #  1 mode #   1

     Self-consistent Calculation

      iter #   1 total cpu time :    26.6 secs   av.it.:   5.8
      thresh= 1.000E-02 alpha_mix =  0.700 |ddv_scf|^2 =  2.964E-03

      iter #   2 total cpu time :    26.8 secs   av.it.:   7.7
      thresh= 5.444E-03 alpha_mix =  0.700 |ddv_scf|^2 =  3.904E-02

      iter #   3 total cpu time :    27.0 secs   av.it.:   6.7
      thresh= 1.000E-02 alpha_mix =  0.700 |ddv_scf|^2 =  1.487E-07

      iter #   4 total cpu time :    27.2 secs   av.it.:   8.1
      thresh= 3.856E-05 alpha_mix =  0.700 |ddv_scf|^2 =  1.429E-08

      iter #   5 total cpu time :    27.6 secs   av.it.:   7.7
      thresh= 1.196E-05 alpha_mix =  0.700 |ddv_scf|^2 =  7.185E-10

      iter #   6 total cpu time :    27.8 secs   av.it.:   7.9
      thresh= 2.680E-06 alpha_mix =  0.700 |ddv_scf|^2 =  2.807E-12

      iter #   7 total cpu time :    28.1 secs   av.it.:   7.9
      thresh= 1.675E-07 alpha_mix =  0.700 |ddv_scf|^2 =  5.392E-13

     End of self-consistent calculation

     Convergence has been achieved 


     Representation #  2 mode #   2

     Self-consistent Calculation

      iter #   1 total cpu time :    28.2 secs   av.it.:   4.9
      thresh= 1.000E-02 alpha_mix =  0.700 |ddv_scf|^2 =  5.510E-06

      iter #   2 total cpu time :    28.5 secs   av.it.:   8.7
      thresh= 2.347E-04 alpha_mix =  0.700 |ddv_scf|^2 =  1.343E-06

      iter #   3 total cpu time :    28.7 secs   av.it.:   8.5
      thresh= 1.159E-04 alpha_mix =  0.700 |ddv_scf|^2 =  4.287E-08

      iter #   4 total cpu time :    28.9 secs   av.it.:   8.2
      thresh= 2.071E-05 alpha_mix =  0.700 |ddv_scf|^2 =  7.211E-10

      iter #   5 total cpu time :    29.1 secs   av.it.:   8.6
      thresh= 2.685E-06 alpha_mix =  0.700 |ddv_scf|^2 =  6.882E-12

      iter #   6 total cpu time :    29.5 secs   av.it.:   8.0
      thresh= 2.623E-07 alpha_mix =  0.700 |ddv_scf|^2 =  7.405E-14

     End of self-consistent calculation

     Convergence has been achieved 


     Representation #  3 modes #   3  4

     Self-consistent Calculation

      iter #   1 total cpu time :    29.8 secs   av.it.:   5.0
      thresh= 1.000E-02 alpha_mix =  0.700 |ddv_scf|^2 =  1.023E-06

      iter #   2 total cpu time :    30.3 secs   av.it.:   9.7
      thresh= 1.011E-04 alpha_mix =  0.700 |ddv_scf|^2 =  1.269E-07

      iter #   3 total cpu time :    30.8 secs   av.it.:   9.5
      thresh= 3.562E-05 alpha_mix =  0.700 |ddv_scf|^2 =  6.721E-09

      iter #   4 total cpu time :    31.2 secs   av.it.:   8.8
      thresh= 8.198E-06 alpha_mix =  0.700 |ddv_scf|^2 =  9.548E-12

      iter #   5 total cpu time :    31.8 secs   av.it.:   9.1
      thresh= 3.090E-07 alpha_mix =  0.700 |ddv_scf|^2 =  2.995E-13

     End of self-consistent calculation

     Convergence has been achieved 


     Representation #  4 modes #   5  6

     Self-consistent Calculation

      iter #   1 total cpu time :    32.2 secs   av.it.:   5.0
      thresh= 1.000E-02 alpha_mix =  0.700 |ddv_scf|^2 =  9.388E-07

      iter #   2 total cpu time :    32.7 secs   av.it.:   9.8
      thresh= 9.689E-05 alpha_mix =  0.700 |ddv_scf|^2 =  1.189E-07

      iter #   3 total cpu time :    33.1 secs   av.it.:   9.4
      thresh= 3.448E-05 alpha_mix =  0.700 |ddv_scf|^2 =  7.032E-09

      iter #   4 total cpu time :    33.7 secs   av.it.:   8.9
      thresh= 8.386E-06 alpha_mix =  0.700 |ddv_scf|^2 =  1.485E-11

      iter #   5 total cpu time :    34.2 secs   av.it.:   9.2
      thresh= 3.854E-07 alpha_mix =  0.700 |ddv_scf|^2 =  4.405E-14

     End of self-consistent calculation

     Convergence has been achieved 

     Number of q in the star =    6
     List of q in the star:
          1   0.000000000   0.500000000   0.000000000
          2   0.000000000  -0.500000000   0.000000000
          3   0.500000000   0.000000000   0.000000000
          4   0.000000000   0.000000000   0.500000000
          5   0.000000000   0.000000000  -0.500000000
          6  -0.500000000   0.000000000   0.000000000

     Diagonalizing the dynamical matrix

     q = (    0.000000000   0.500000000   0.000000000 ) 

 **************************************************************************
     freq (    1) =       4.299170 [THz] =     143.404864 [cm-1]
     freq (    2) =       4.299170 [THz] =     143.404864 [cm-1]
     freq (    3) =       7.142892 [THz] =     238.261245 [cm-1]
     freq (    4) =      14.025871 [THz] =     467.852703 [cm-1]
     freq (    5) =      14.025871 [THz] =     467.852703 [cm-1]
     freq (    6) =      14.658157 [THz] =     488.943482 [cm-1]
 **************************************************************************

     Mode symmetry, C_4v (4mm)  point group:

     freq (  1 -  2) =        143.4  [cm-1]   --> E    G_5 D_5       
     freq (  3 -  3) =        238.3  [cm-1]   --> A_1  G_1 D_1       
     freq (  4 -  5) =        467.9  [cm-1]   --> E    G_5 D_5       
     freq (  6 -  6) =        488.9  [cm-1]   --> B_2  G_4 D_2'      

     Calculation of q =    0.7500000  -0.2500000   0.7500000

   Info: using nr1, nr2, nr3 values from input

   Info: using nr1, nr2, nr3 values from input

     Parallelization info
     --------------------
     sticks:   dense  smooth     PW     G-vecs:    dense   smooth      PW
     Min          64      64     30                  709      709     216
     Max          67      67     31                  710      710     218
     Sum         265     265    121                 2837     2837     869



     bravais-lattice index     =            2
     lattice parameter (alat)  =      10.3450  a.u.
     unit-cell volume          =     276.7780 (a.u.)^3
     number of atoms/cell      =            2
     number of atomic types    =            1
     number of electrons       =         8.00
     number of Kohn-Sham states=            4
     kinetic-energy cutoff     =      18.0000  Ry
     charge density cutoff     =      72.0000  Ry
     Exchange-correlation      = SLA  PW   PBE  PBE ( 1  4  3  4 0 0)

     celldm(1)=  10.345000  celldm(2)=   0.000000  celldm(3)=   0.000000
     celldm(4)=   0.000000  celldm(5)=   0.000000  celldm(6)=   0.000000

     crystal axes: (cart. coord. in units of alat)
               a(1) = (  -0.500000   0.000000   0.500000 )  
               a(2) = (   0.000000   0.500000   0.500000 )  
               a(3) = (  -0.500000   0.500000   0.000000 )  

     reciprocal axes: (cart. coord. in units 2 pi/alat)
               b(1) = ( -1.000000 -1.000000  1.000000 )  
               b(2) = (  1.000000  1.000000  1.000000 )  
               b(3) = ( -1.000000  1.000000 -1.000000 )  


     PseudoPot. # 1 for Si read from file:
     /home/max/quantum_espresso/qe-6.1/pseudo/si_pbe_v1.uspp.F.UPF.txt
     MD5 check sum: a056efeee980c13900f22a371efd63c1
     Pseudo is Ultrasoft + core correction, Zval =  4.0
     Generated by new atomic code, or converted to UPF format
     Using radial grid of  899 points,  6 beta functions with: 
                l(1) =   0
                l(2) =   0
                l(3) =   1
                l(4) =   1
                l(5) =   2
                l(6) =   2
     Q(r) pseudized with  8 coefficients,  rinner =    0.900   0.900   0.900
                                                       0.900   0.900

     atomic species   valence    mass     pseudopotential
        Si             4.00    28.08600     Si( 1.00)

     48 Sym. Ops., with inversion, found



   Cartesian axes

     site n.     atom                  positions (alat units)
         1           Si  tau(   1) = (   0.0000000   0.0000000   0.0000000  )
         2           Si  tau(   2) = (   0.2500000   0.2500000   0.2500000  )

     number of k points=   288

     Number of k-points >= 100: set verbosity='high' to print them.

     Dense  grid:     2837 G-vectors     FFT dimensions: (  20,  20,  20)

     Estimated max dynamical RAM per process >       0.33MB

     Estimated total allocated dynamical RAM >       1.32MB

     Check: negative/imaginary core charge=   -0.000006    0.000000

     The potential is recalculated from file :
     ./_ph0/silicon.10.345.save/charge-density.dat

     Starting wfc are    8 atomic wfcs

     Band Structure Calculation
     Davidson diagonalization with overlap

     ethr =  1.25E-10,  avg # of iterations = 11.6

     total cpu time spent up to now is        4.9 secs

     End of band structure calculation

     Number of k-points >= 100: set verbosity='high' to print the bands.

     highest occupied level (ev):     5.6670

     Writing output data file silicon.10.345.save

                                                                                

     bravais-lattice index     =            2
     lattice parameter (alat)  =      10.3450  a.u.
     unit-cell volume          =     276.7780 (a.u.)^3
     number of atoms/cell      =            2
     number of atomic types    =            1
     kinetic-energy cut-off    =      18.0000  Ry
     charge density cut-off    =      72.0000  Ry
     convergence threshold     =      1.0E-12
     beta                      =       0.7000
     number of iterations used =            4
     Exchange-correlation      = SLA  PW   PBE  PBE ( 1  4  3  4 0 0)


     celldm(1)=   10.34500  celldm(2)=    0.00000  celldm(3)=    0.00000
     celldm(4)=    0.00000  celldm(5)=    0.00000  celldm(6)=    0.00000

     crystal axes: (cart. coord. in units of alat)
               a(1) = ( -0.5000  0.0000  0.5000 )  
               a(2) = (  0.0000  0.5000  0.5000 )  
               a(3) = ( -0.5000  0.5000  0.0000 )  

     reciprocal axes: (cart. coord. in units 2 pi/alat)
               b(1) = ( -1.0000 -1.0000  1.0000 )  
               b(2) = (  1.0000  1.0000  1.0000 )  
               b(3) = ( -1.0000  1.0000 -1.0000 )  


     Atoms inside the unit cell: 

     Cartesian axes

     site n.  atom      mass           positions (alat units)
        1     Si  28.0860   tau(    1) = (    0.00000    0.00000    0.00000  )
        2     Si  28.0860   tau(    2) = (    0.25000    0.25000    0.25000  )

     Computing dynamical matrix for 
                    q = (   0.7500000  -0.2500000   0.7500000 )

      2 Sym.Ops. (no q -> -q+G )


     G cutoff =  195.1793  (    710 G-vectors)     FFT grid: ( 20, 20, 20)
     number of k points=   288

     PseudoPot. # 1 for Si read from file:
     /home/max/quantum_espresso/qe-6.1/pseudo/si_pbe_v1.uspp.F.UPF.txt
     MD5 check sum: a056efeee980c13900f22a371efd63c1
     Pseudo is Ultrasoft + core correction, Zval =  4.0
     Generated by new atomic code, or converted to UPF format
     Using radial grid of  899 points,  6 beta functions with: 
                l(1) =   0
                l(2) =   0
                l(3) =   1
                l(4) =   1
                l(5) =   2
                l(6) =   2
     Q(r) pseudized with  8 coefficients,  rinner =    0.900   0.900   0.900
                                                       0.900   0.900

     Mode symmetry, C_s (m)     point group:


     Atomic displacements:
     There are   6 irreducible representations

     Representation     1      1 modes -A'  To be done

     Representation     2      1 modes -A'  To be done

     Representation     3      1 modes -A'  To be done

     Representation     4      1 modes -A'  To be done

     Representation     5      1 modes -A''  To be done

     Representation     6      1 modes -A''  To be done



     Alpha used in Ewald sum =   0.7000
     PHONON       :    32.69s CPU        37.21s WALL



     Representation #  1 mode #   1

     Self-consistent Calculation

      iter #   1 total cpu time :    38.0 secs   av.it.:   5.3
      thresh= 1.000E-02 alpha_mix =  0.700 |ddv_scf|^2 =  6.118E-05

      iter #   2 total cpu time :    38.8 secs   av.it.:   8.9
      thresh= 7.822E-04 alpha_mix =  0.700 |ddv_scf|^2 =  1.603E-04

      iter #   3 total cpu time :    39.6 secs   av.it.:   7.6
      thresh= 1.266E-03 alpha_mix =  0.700 |ddv_scf|^2 =  1.148E-06

      iter #   4 total cpu time :    40.4 secs   av.it.:   8.4
      thresh= 1.071E-04 alpha_mix =  0.700 |ddv_scf|^2 =  6.188E-08

      iter #   5 total cpu time :    41.1 secs   av.it.:   8.3
      thresh= 2.488E-05 alpha_mix =  0.700 |ddv_scf|^2 =  7.554E-09

      iter #   6 total cpu time :    42.0 secs   av.it.:   8.5
      thresh= 8.691E-06 alpha_mix =  0.700 |ddv_scf|^2 =  8.384E-11

      iter #   7 total cpu time :    42.8 secs   av.it.:   8.8
      thresh= 9.156E-07 alpha_mix =  0.700 |ddv_scf|^2 =  2.995E-12

      iter #   8 total cpu time :    43.7 secs   av.it.:   8.6
      thresh= 1.731E-07 alpha_mix =  0.700 |ddv_scf|^2 =  1.773E-13

     End of self-consistent calculation

     Convergence has been achieved 


     Representation #  2 mode #   2

     Self-consistent Calculation

      iter #   1 total cpu time :    44.4 secs   av.it.:   5.4
      thresh= 1.000E-02 alpha_mix =  0.700 |ddv_scf|^2 =  1.089E-04

      iter #   2 total cpu time :    45.1 secs   av.it.:   8.7
      thresh= 1.044E-03 alpha_mix =  0.700 |ddv_scf|^2 =  3.107E-04

      iter #   3 total cpu time :    46.0 secs   av.it.:   7.4
      thresh= 1.763E-03 alpha_mix =  0.700 |ddv_scf|^2 =  7.943E-07

      iter #   4 total cpu time :    46.7 secs   av.it.:   8.6
      thresh= 8.912E-05 alpha_mix =  0.700 |ddv_scf|^2 =  6.033E-08

      iter #   5 total cpu time :    47.6 secs   av.it.:   8.2
      thresh= 2.456E-05 alpha_mix =  0.700 |ddv_scf|^2 =  1.075E-08

      iter #   6 total cpu time :    48.3 secs   av.it.:   8.5
      thresh= 1.037E-05 alpha_mix =  0.700 |ddv_scf|^2 =  8.371E-11

      iter #   7 total cpu time :    49.1 secs   av.it.:   8.7
      thresh= 9.150E-07 alpha_mix =  0.700 |ddv_scf|^2 =  2.728E-12

      iter #   8 total cpu time :    50.1 secs   av.it.:   8.7
      thresh= 1.652E-07 alpha_mix =  0.700 |ddv_scf|^2 =  7.883E-13

     End of self-consistent calculation

     Convergence has been achieved 


     Representation #  3 mode #   3

     Self-consistent Calculation

      iter #   1 total cpu time :    50.7 secs   av.it.:   5.3
      thresh= 1.000E-02 alpha_mix =  0.700 |ddv_scf|^2 =  8.545E-05

      iter #   2 total cpu time :    51.6 secs   av.it.:   8.7
      thresh= 9.244E-04 alpha_mix =  0.700 |ddv_scf|^2 =  2.279E-04

      iter #   3 total cpu time :    52.3 secs   av.it.:   7.4
      thresh= 1.510E-03 alpha_mix =  0.700 |ddv_scf|^2 =  1.353E-06

      iter #   4 total cpu time :    53.0 secs   av.it.:   8.2
      thresh= 1.163E-04 alpha_mix =  0.700 |ddv_scf|^2 =  6.196E-08

      iter #   5 total cpu time :    54.0 secs   av.it.:   8.4
      thresh= 2.489E-05 alpha_mix =  0.700 |ddv_scf|^2 =  1.107E-08

      iter #   6 total cpu time :    54.7 secs   av.it.:   8.4
      thresh= 1.052E-05 alpha_mix =  0.700 |ddv_scf|^2 =  4.800E-11

      iter #   7 total cpu time :    55.7 secs   av.it.:   8.7
      thresh= 6.928E-07 alpha_mix =  0.700 |ddv_scf|^2 =  1.767E-12

      iter #   8 total cpu time :    56.5 secs   av.it.:   8.8
      thresh= 1.329E-07 alpha_mix =  0.700 |ddv_scf|^2 =  3.627E-13

     End of self-consistent calculation

     Convergence has been achieved 


     Representation #  4 mode #   4

     Self-consistent Calculation

      iter #   1 total cpu time :    57.1 secs   av.it.:   5.2
      thresh= 1.000E-02 alpha_mix =  0.700 |ddv_scf|^2 =  3.775E-05

      iter #   2 total cpu time :    58.0 secs   av.it.:   8.9
[...]
        k(   59) = (  -0.8750000   0.1250000  -0.1250000), wk =   0.0625000
        k(   60) = (  -1.3750000  -0.8750000  -0.1250000), wk =   0.0000000
        k(   61) = (  -1.1250000   0.3750000  -0.3750000), wk =   0.0625000
        k(   62) = (  -1.6250000  -0.6250000  -0.3750000), wk =   0.0000000
        k(   63) = (  -0.3750000   0.3750000   1.1250000), wk =   0.0625000
        k(   64) = (  -0.8750000  -0.6250000   1.1250000), wk =   0.0000000

     Dense  grid:     2837 G-vectors     FFT dimensions: (  20,  20,  20)

     Estimated max dynamical RAM per process >       0.33MB

     Estimated total allocated dynamical RAM >       1.32MB

     Check: negative/imaginary core charge=   -0.000006    0.000000

     The potential is recalculated from file :
     ./_ph0/silicon.10.345.save/charge-density.dat

     Starting wfc are    8 atomic wfcs

     Band Structure Calculation
     Davidson diagonalization with overlap

     ethr =  1.25E-10,  avg # of iterations = 11.6

     total cpu time spent up to now is        7.4 secs

     End of band structure calculation

          k =-0.1250 0.1250 0.1250 (   338 PWs)   bands (ev):

    -5.6423   4.3583   5.6670   5.6670

          k =-0.6250-0.8750 0.1250 (   361 PWs)   bands (ev):

    -2.4619  -0.9255   2.0041   3.0715

          k =-0.3750 0.3750-0.1250 (   352 PWs)   bands (ev):

    -4.6217   1.3716   3.6920   5.1859

          k =-0.8750-0.6250-0.1250 (   361 PWs)   bands (ev):

    -2.4619  -0.9255   2.0041   3.0715

          k = 0.3750-0.3750 0.6250 (   361 PWs)   bands (ev):

    -3.4909  -0.6937   3.7087   4.4189

          k =-0.1250-1.3750 0.6250 (   361 PWs)   bands (ev):

    -2.9971  -0.6176   2.0595   4.1043

          k = 0.1250-0.1250 0.3750 (   353 PWs)   bands (ev):

    -5.1176   2.7414   4.6638   4.7254

          k =-0.3750-1.1250 0.3750 (   361 PWs)   bands (ev):

    -2.9971  -0.6176   2.0595   4.1043

          k =-0.1250 0.6250 0.1250 (   351 PWs)   bands (ev):

    -4.0915   1.0304   3.3465   3.7933

          k =-0.6250-0.3750 0.1250 (   357 PWs)   bands (ev):

    -3.6792   0.1654   2.7081   4.0680

          k = 0.6250-0.1250 0.8750 (   361 PWs)   bands (ev):

    -2.4619  -0.9255   2.0041   3.0715

          k = 0.1250-1.1250 0.8750 (   358 PWs)   bands (ev):

    -2.6270  -0.8292   2.6078   3.3282

          k = 0.3750 0.1250 0.6250 (   357 PWs)   bands (ev):

    -3.6792   0.1654   2.7081   4.0680

          k =-0.1250-0.8750 0.6250 (   361 PWs)   bands (ev):

    -2.4619  -0.9255   2.0041   3.0715

          k =-0.1250-0.8750 0.1250 (   358 PWs)   bands (ev):

    -2.6270  -0.8292   2.6078   3.3282

          k =-0.6250-1.8750 0.1250 (   351 PWs)   bands (ev):

    -4.0915   1.0304   3.3465   3.7933

          k =-0.3750 0.3750 0.3750 (   353 PWs)   bands (ev):

    -4.1923   0.0913   4.8807   4.8807

          k =-0.8750-0.6250 0.3750 (   357 PWs)   bands (ev):

    -3.6792   0.1654   2.7081   4.0680

          k = 0.3750-0.3750 1.1250 (   361 PWs)   bands (ev):

    -2.9971  -0.6176   2.0595   4.1043

          k =-0.1250-1.3750 1.1250 (   361 PWs)   bands (ev):

    -2.4619  -0.9255   2.0041   3.0715

          k = 0.1250-0.3750 0.3750 (   352 PWs)   bands (ev):

    -4.6217   1.3716   3.6920   5.1859

          k =-0.3750-1.3750 0.3750 (   361 PWs)   bands (ev):

    -3.4909  -0.6937   3.7087   4.4189

          k = 0.3750-0.3750-0.1250 (   352 PWs)   bands (ev):

    -4.6217   1.3716   3.6920   5.1859

          k =-0.1250-1.3750-0.1250 (   351 PWs)   bands (ev):

    -4.0915   1.0304   3.3465   3.7933

          k =-0.6250 0.3750-0.3750 (   361 PWs)   bands (ev):

    -3.4909  -0.6937   3.7087   4.4189

          k =-1.1250-0.6250-0.3750 (   357 PWs)   bands (ev):

    -3.6792   0.1654   2.7081   4.0680

          k =-0.3750 0.3750 0.6250 (   361 PWs)   bands (ev):

    -3.4909  -0.6937   3.7087   4.4189

          k =-0.8750-0.6250 0.6250 (   352 PWs)   bands (ev):

    -4.6217   1.3716   3.6920   5.1859

          k =-0.3750 0.1250-0.1250 (   353 PWs)   bands (ev):

    -5.1176   2.7414   4.6638   4.7254

          k =-0.8750-0.8750-0.1250 (   358 PWs)   bands (ev):

    -2.6270  -0.8292   2.6078   3.3282

          k =-0.1250 0.1250 0.3750 (   353 PWs)   bands (ev):

    -5.1176   2.7414   4.6638   4.7254

          k =-0.6250-0.8750 0.3750 (   357 PWs)   bands (ev):

    -3.6792   0.1654   2.7081   4.0680

          k = 0.1250 0.6250-0.1250 (   351 PWs)   bands (ev):

    -4.0915   1.0304   3.3465   3.7933

          k =-0.3750-0.3750-0.1250 (   352 PWs)   bands (ev):

    -4.6217   1.3716   3.6920   5.1859

          k = 0.6250 0.1250-0.1250 (   351 PWs)   bands (ev):

    -4.0915   1.0304   3.3465   3.7933

          k = 0.1250-0.8750-0.1250 (   358 PWs)   bands (ev):

    -2.6270  -0.8292   2.6078   3.3282

          k =-0.8750 0.1250-0.6250 (   361 PWs)   bands (ev):

    -2.4619  -0.9255   2.0041   3.0715

          k =-1.3750-0.8750-0.6250 (   352 PWs)   bands (ev):

    -4.6217   1.3716   3.6920   5.1859

          k = 0.8750-0.1250 0.6250 (   361 PWs)   bands (ev):

    -2.4619  -0.9255   2.0041   3.0715

          k = 0.3750-1.1250 0.6250 (   357 PWs)   bands (ev):

    -3.6792   0.1654   2.7081   4.0680

          k =-0.6250 0.1250 0.8750 (   361 PWs)   bands (ev):

    -2.4619  -0.9255   2.0041   3.0715

          k =-1.1250-0.8750 0.8750 (   338 PWs)   bands (ev):

    -5.6423   4.3583   5.6670   5.6670

          k =-0.1250 0.8750 0.6250 (   361 PWs)   bands (ev):

    -2.4619  -0.9255   2.0041   3.0715

          k =-0.6250-0.1250 0.6250 (   361 PWs)   bands (ev):

    -2.9971  -0.6176   2.0595   4.1043

          k = 0.1250 0.8750-0.6250 (   361 PWs)   bands (ev):

    -2.4619  -0.9255   2.0041   3.0715

          k =-0.3750-0.1250-0.6250 (   357 PWs)   bands (ev):

    -3.6792   0.1654   2.7081   4.0680

          k =-0.6250-0.1250-0.3750 (   357 PWs)   bands (ev):

    -3.6792   0.1654   2.7081   4.0680

          k =-1.1250-1.1250-0.3750 (   351 PWs)   bands (ev):

    -4.0915   1.0304   3.3465   3.7933

          k = 0.6250 0.1250 0.3750 (   357 PWs)   bands (ev):

    -3.6792   0.1654   2.7081   4.0680

          k = 0.1250-0.8750 0.3750 (   361 PWs)   bands (ev):

    -2.4619  -0.9255   2.0041   3.0715

          k =-0.3750-0.1250 0.6250 (   357 PWs)   bands (ev):

    -3.6792   0.1654   2.7081   4.0680

          k =-0.8750-1.1250 0.6250 (   353 PWs)   bands (ev):

    -5.1176   2.7414   4.6638   4.7254

          k = 0.1250 0.6250 0.3750 (   357 PWs)   bands (ev):

    -3.6792   0.1654   2.7081   4.0680

          k =-0.3750-0.3750 0.3750 (   353 PWs)   bands (ev):

    -4.1923   0.0913   4.8807   4.8807

          k =-0.1250 0.6250-0.3750 (   357 PWs)   bands (ev):

    -3.6792   0.1654   2.7081   4.0680

          k =-0.6250-0.3750-0.3750 (   361 PWs)   bands (ev):

    -3.4909  -0.6937   3.7087   4.4189

          k = 0.1250-0.8750-0.1250 (   358 PWs)   bands (ev):

    -2.6270  -0.8292   2.6078   3.3282

          k =-0.3750-1.8750-0.1250 (   353 PWs)   bands (ev):

    -5.1176   2.7414   4.6638   4.7254

          k =-0.8750 0.1250-0.1250 (   358 PWs)   bands (ev):

    -2.6270  -0.8292   2.6078   3.3282

          k =-1.3750-0.8750-0.1250 (   361 PWs)   bands (ev):

    -2.4619  -0.9255   2.0041   3.0715

          k =-1.1250 0.3750-0.3750 (   361 PWs)   bands (ev):

    -2.9971  -0.6176   2.0595   4.1043

          k =-1.6250-0.6250-0.3750 (   361 PWs)   bands (ev):

    -3.4909  -0.6937   3.7087   4.4189

          k =-0.3750 0.3750 1.1250 (   361 PWs)   bands (ev):

    -2.9971  -0.6176   2.0595   4.1043

          k =-0.8750-0.6250 1.1250 (   353 PWs)   bands (ev):

    -5.1176   2.7414   4.6638   4.7254

     highest occupied level (ev):     5.6670

     Writing output data file silicon.10.345.save

                                                                                

     bravais-lattice index     =            2
     lattice parameter (alat)  =      10.3450  a.u.
     unit-cell volume          =     276.7780 (a.u.)^3
     number of atoms/cell      =            2
     number of atomic types    =            1
     kinetic-energy cut-off    =      18.0000  Ry
     charge density cut-off    =      72.0000  Ry
     convergence threshold     =      1.0E-12
     beta                      =       0.7000
     number of iterations used =            4
     Exchange-correlation      = SLA  PW   PBE  PBE ( 1  4  3  4 0 0)


     celldm(1)=   10.34500  celldm(2)=    0.00000  celldm(3)=    0.00000
     celldm(4)=    0.00000  celldm(5)=    0.00000  celldm(6)=    0.00000

     crystal axes: (cart. coord. in units of alat)
               a(1) = ( -0.5000  0.0000  0.5000 )  
               a(2) = (  0.0000  0.5000  0.5000 )  
               a(3) = ( -0.5000  0.5000  0.0000 )  

     reciprocal axes: (cart. coord. in units 2 pi/alat)
               b(1) = ( -1.0000 -1.0000  1.0000 )  
               b(2) = (  1.0000  1.0000  1.0000 )  
               b(3) = ( -1.0000  1.0000 -1.0000 )  


     Atoms inside the unit cell: 

     Cartesian axes

     site n.  atom      mass           positions (alat units)
        1     Si  28.0860   tau(    1) = (    0.00000    0.00000    0.00000  )
        2     Si  28.0860   tau(    2) = (    0.25000    0.25000    0.25000  )

     Computing dynamical matrix for 
                    q = (  -0.5000000  -1.0000000   0.0000000 )

      8 Sym.Ops. (no q -> -q+G )


     G cutoff =  195.1793  (    710 G-vectors)     FFT grid: ( 20, 20, 20)
     number of k points=    64

     PseudoPot. # 1 for Si read from file:
     /home/max/quantum_espresso/qe-6.1/pseudo/si_pbe_v1.uspp.F.UPF.txt
     MD5 check sum: a056efeee980c13900f22a371efd63c1
     Pseudo is Ultrasoft + core correction, Zval =  4.0
     Generated by new atomic code, or converted to UPF format
     Using radial grid of  899 points,  6 beta functions with: 
                l(1) =   0
                l(2) =   0
                l(3) =   1
                l(4) =   1
                l(5) =   2
                l(6) =   2
     Q(r) pseudized with  8 coefficients,  rinner =    0.900   0.900   0.900
                                                       0.900   0.900


     Atomic displacements:
     There are   3 irreducible representations

     Representation     1      2 modes -  To be done

     Representation     2      2 modes -  To be done

     Representation     3      2 modes -  To be done



     Alpha used in Ewald sum =   0.7000
     PHONON       :  1m23.13s CPU     1m32.95s WALL



     Representation #  1 modes #   1  2

     Self-consistent Calculation

      iter #   1 total cpu time :    93.2 secs   av.it.:   5.3
      thresh= 1.000E-02 alpha_mix =  0.700 |ddv_scf|^2 =  6.360E-06

      iter #   2 total cpu time :    93.8 secs   av.it.:   9.9
      thresh= 2.522E-04 alpha_mix =  0.700 |ddv_scf|^2 =  3.431E-06

      iter #   3 total cpu time :    94.1 secs   av.it.:   9.3
      thresh= 1.852E-04 alpha_mix =  0.700 |ddv_scf|^2 =  9.082E-09

      iter #   4 total cpu time :    94.5 secs   av.it.:   9.1
      thresh= 9.530E-06 alpha_mix =  0.700 |ddv_scf|^2 =  1.959E-11

      iter #   5 total cpu time :    94.8 secs   av.it.:   9.2
      thresh= 4.426E-07 alpha_mix =  0.700 |ddv_scf|^2 =  5.757E-13

     End of self-consistent calculation

     Convergence has been achieved 


     Representation #  2 modes #   3  4

     Self-consistent Calculation

      iter #   1 total cpu time :    95.1 secs   av.it.:   5.2
      thresh= 1.000E-02 alpha_mix =  0.700 |ddv_scf|^2 =  9.804E-06

      iter #   2 total cpu time :    95.7 secs   av.it.:   9.9
      thresh= 3.131E-04 alpha_mix =  0.700 |ddv_scf|^2 =  1.309E-05

      iter #   3 total cpu time :    96.0 secs   av.it.:   9.1
      thresh= 3.618E-04 alpha_mix =  0.700 |ddv_scf|^2 =  1.057E-08

      iter #   4 total cpu time :    96.3 secs   av.it.:   8.8
      thresh= 1.028E-05 alpha_mix =  0.700 |ddv_scf|^2 =  8.500E-11

      iter #   5 total cpu time :    96.7 secs   av.it.:   9.4
      thresh= 9.219E-07 alpha_mix =  0.700 |ddv_scf|^2 =  1.808E-12

      iter #   6 total cpu time :    97.1 secs   av.it.:   9.1
      thresh= 1.344E-07 alpha_mix =  0.700 |ddv_scf|^2 =  1.479E-14

     End of self-consistent calculation

     Convergence has been achieved 


     Representation #  3 modes #   5  6

     Self-consistent Calculation

      iter #   1 total cpu time :    97.4 secs   av.it.:   5.1
      thresh= 1.000E-02 alpha_mix =  0.700 |ddv_scf|^2 =  2.666E-06

      iter #   2 total cpu time :    97.9 secs   av.it.:   9.7
      thresh= 1.633E-04 alpha_mix =  0.700 |ddv_scf|^2 =  1.449E-06

      iter #   3 total cpu time :    98.2 secs   av.it.:   9.0
      thresh= 1.204E-04 alpha_mix =  0.700 |ddv_scf|^2 =  8.794E-09

      iter #   4 total cpu time :    98.6 secs   av.it.:   8.7
      thresh= 9.377E-06 alpha_mix =  0.700 |ddv_scf|^2 =  4.394E-11

      iter #   5 total cpu time :    98.9 secs   av.it.:   9.1
      thresh= 6.629E-07 alpha_mix =  0.700 |ddv_scf|^2 =  6.912E-13

     End of self-consistent calculation

     Convergence has been achieved 

     Number of q in the star =    6
     List of q in the star:
          1  -0.500000000  -1.000000000   0.000000000
          2   0.000000000   1.000000000   0.500000000
          3   0.000000000  -1.000000000  -0.500000000
          4   0.500000000   1.000000000   0.000000000
          5  -1.000000000  -0.500000000   0.000000000
          6   0.000000000  -0.500000000  -1.000000000

     Diagonalizing the dynamical matrix

     q = (   -0.500000000  -1.000000000   0.000000000 ) 

 **************************************************************************
     freq (    1) =       7.336057 [THz] =     244.704516 [cm-1]
     freq (    2) =       7.336057 [THz] =     244.704516 [cm-1]
     freq (    3) =      10.941437 [THz] =     364.967044 [cm-1]
     freq (    4) =      10.941437 [THz] =     364.967044 [cm-1]
     freq (    5) =      13.858029 [THz] =     462.254094 [cm-1]
     freq (    6) =      13.858029 [THz] =     462.254094 [cm-1]
 **************************************************************************

     init_run     :      0.56s CPU      0.61s WALL (       7 calls)
     electrons    :      5.21s CPU      5.86s WALL (       7 calls)

     Called by init_run:
     wfcinit      :      0.00s CPU      0.00s WALL (       7 calls)
     potinit      :      0.02s CPU      0.03s WALL (       7 calls)

     Called by electrons:
     c_bands      :      5.20s CPU      5.85s WALL (       7 calls)
     v_of_rho     :      0.01s CPU      0.01s WALL (       8 calls)
     newd         :      0.03s CPU      0.04s WALL (       8 calls)

     Called by c_bands:
     init_us_2    :      0.70s CPU      0.77s WALL (   17588 calls)
     cegterg      :      4.42s CPU      4.97s WALL (     796 calls)

     Called by sum_band:

     Called by *egterg:
     h_psi        :     48.78s CPU     54.49s WALL (  152102 calls)
     s_psi        :      5.90s CPU      6.57s WALL (  308924 calls)
     g_psi        :      0.03s CPU      0.03s WALL (    9268 calls)
     cdiaghg      :      0.51s CPU      0.62s WALL (   10064 calls)

     Called by h_psi:
     h_psi:pot    :     48.59s CPU     54.28s WALL (  152102 calls)
     h_psi:calbec :      5.21s CPU      5.87s WALL (  152102 calls)
     vloc_psi     :     40.20s CPU     44.91s WALL (  152102 calls)
     add_vuspsi   :      2.95s CPU      3.25s WALL (  152102 calls)

     General routines
     calbec       :     11.16s CPU     12.59s WALL (  345296 calls)
     fft          :      0.52s CPU      0.60s WALL (    5239 calls)
     ffts         :      0.18s CPU      0.20s WALL (    2748 calls)
     fftw         :     46.86s CPU     52.32s WALL ( 1377390 calls)
     davcio       :      0.32s CPU      0.36s WALL (   79045 calls)

     Parallel routines
     fft_scatter  :     14.18s CPU     16.13s WALL ( 1385377 calls)

     PHONON       :  1m28.32s CPU     1m38.93s WALL

     INITIALIZATION: 
     phq_setup    :      0.06s CPU      0.06s WALL (       8 calls)
     phq_init     :      2.07s CPU      2.23s WALL (       8 calls)

     phq_init     :      2.07s CPU      2.23s WALL (       8 calls)
     set_drhoc    :      0.30s CPU      0.32s WALL (      24 calls)
     init_vloc    :      0.01s CPU      0.01s WALL (       8 calls)
     init_us_1    :      0.49s CPU      0.53s WALL (       8 calls)
     newd         :      0.03s CPU      0.04s WALL (       8 calls)
     dvanqq       :      0.24s CPU      0.26s WALL (       8 calls)
     drho         :      1.07s CPU      1.16s WALL (       8 calls)

     DYNAMICAL MATRIX:
     dynmat0      :      0.52s CPU      0.55s WALL (       8 calls)
     phqscf       :     77.74s CPU     87.15s WALL (       8 calls)
     dynmatrix    :      0.01s CPU      0.01s WALL (       8 calls)

     phqscf       :     77.74s CPU     87.15s WALL (       8 calls)
     solve_linter :     76.95s CPU     86.29s WALL (      32 calls)
     drhodv       :      0.58s CPU      0.62s WALL (      32 calls)

     dynmat0      :      0.52s CPU      0.55s WALL (       8 calls)
     dynmat_us    :      0.29s CPU      0.30s WALL (       8 calls)
     d2ionq       :      0.01s CPU      0.01s WALL (       8 calls)
     dynmatcc     :      0.22s CPU      0.23s WALL (       8 calls)

     dynmat_us    :      0.29s CPU      0.30s WALL (       8 calls)
     addusdynmat  :      0.00s CPU      0.00s WALL (       8 calls)

     phqscf       :     77.74s CPU     87.15s WALL (       8 calls)
     solve_linter :     76.95s CPU     86.29s WALL (      32 calls)

     solve_linter :     76.95s CPU     86.29s WALL (      32 calls)
     dvqpsi_us    :      1.75s CPU      1.94s WALL (    2508 calls)
     ortho        :      1.33s CPU      1.50s WALL (   15550 calls)
     cgsolve      :     60.46s CPU     67.75s WALL (   15550 calls)
     incdrhoscf   :      5.38s CPU      5.98s WALL (   15550 calls)
     addusddens   :      1.18s CPU      1.29s WALL (     228 calls)
     vpsifft      :      3.82s CPU      4.30s WALL (   12922 calls)
     dv_of_drho   :      0.27s CPU      0.30s WALL (     295 calls)
     mix_pot      :      0.05s CPU      0.06s WALL (     201 calls)
     psymdvscf    :      0.81s CPU      0.90s WALL (     196 calls)
     newdq        :      1.32s CPU      1.47s WALL (     201 calls)
     adddvscf     :      0.47s CPU      0.53s WALL (   13042 calls)
     drhodvus     :      0.00s CPU      0.00s WALL (      32 calls)

     dvqpsi_us    :      1.75s CPU      1.94s WALL (    2508 calls)
     dvqpsi_us_on :      0.83s CPU      0.92s WALL (    2508 calls)

     cgsolve      :     60.46s CPU     67.75s WALL (   15550 calls)
     ch_psi       :     57.92s CPU     64.80s WALL (  141242 calls)

     ch_psi       :     57.92s CPU     64.80s WALL (  141242 calls)
     h_psi        :     48.78s CPU     54.49s WALL (  152102 calls)
     last         :      9.61s CPU     10.83s WALL (  141242 calls)

     h_psi        :     48.78s CPU     54.49s WALL (  152102 calls)
     add_vuspsi   :      2.95s CPU      3.25s WALL (  152102 calls)

     incdrhoscf   :      5.38s CPU      5.98s WALL (   15550 calls)
     addusdbec    :      0.79s CPU      0.89s WALL (   17998 calls)

     drhodvus     :      0.00s CPU      0.00s WALL (      32 calls)

      General routines
     calbec       :     11.16s CPU     12.59s WALL (  345296 calls)
     fft          :      0.52s CPU      0.60s WALL (    5239 calls)
     ffts         :      0.18s CPU      0.20s WALL (    2748 calls)
     fftw         :     46.86s CPU     52.32s WALL ( 1377390 calls)
     davcio       :      0.32s CPU      0.36s WALL (   79045 calls)
     write_rec    :      0.23s CPU      0.27s WALL (     233 calls)


     PHONON       :  1m28.32s CPU     1m38.93s WALL


   This run was terminated on:  12:47:24   9Nov2017            

=------------------------------------------------------------------------------=
   JOB DONE.
=------------------------------------------------------------------------------=
