
     Program PHONON v.6.1 (svn rev. 13369) starts on 10Nov2017 at 15:49:24 

     This program is part of the open-source Quantum ESPRESSO suite
     for quantum simulation of materials; please cite
         "P. Giannozzi et al., J. Phys.:Condens. Matter 21 395502 (2009);
          URL http://www.quantum-espresso.org", 
     in publications or presentations arising from this work. More details at
     http://www.quantum-espresso.org/quote

     Parallel version (MPI), running on     4 processors
     R & G space division:  proc/nbgrp/npool/nimage =       4

     Reading data from directory:
     ./silicon.10.370.save

   Info: using nr1, nr2, nr3 values from input

   Info: using nr1, nr2, nr3 values from input

     IMPORTANT: XC functional enforced from input :
     Exchange-correlation      = SLA  PW   PBE  PBE ( 1  4  3  4 0 0)
     Any further DFT definition will be discarded
     Please, verify this is what you really want


     Parallelization info
     --------------------
     sticks:   dense  smooth     PW     G-vecs:    dense   smooth      PW
     Min         222     109     37                 4369     1545     284
     Max         223     110     38                 4370     1546     285
     Sum         889     439    151                17477     6183    1139



     Dynamical matrices for ( 4, 4, 4)  uniform grid of q-points
     (   8q-points):
       N         xq(1)         xq(2)         xq(3) 
       1   0.000000000   0.000000000   0.000000000
       2  -0.250000000   0.250000000  -0.250000000
       3   0.500000000  -0.500000000   0.500000000
       4   0.000000000   0.500000000   0.000000000
       5   0.750000000  -0.250000000   0.750000000
       6   0.500000000   0.000000000   0.500000000
       7   0.000000000  -1.000000000   0.000000000
       8  -0.500000000  -1.000000000   0.000000000

     Calculation of q =    0.0000000   0.0000000   0.0000000

                                                                                

     bravais-lattice index     =            2
     lattice parameter (alat)  =      10.3700  a.u.
     unit-cell volume          =     278.7894 (a.u.)^3
     number of atoms/cell      =            2
     number of atomic types    =            1
     kinetic-energy cut-off    =      30.0000  Ry
     charge density cut-off    =     240.0000  Ry
     convergence threshold     =      1.0E-12
     beta                      =       0.7000
     number of iterations used =            4
     Exchange-correlation      = SLA  PW   PBE  PBE ( 1  4  3  4 0 0)


     celldm(1)=   10.37000  celldm(2)=    0.00000  celldm(3)=    0.00000
     celldm(4)=    0.00000  celldm(5)=    0.00000  celldm(6)=    0.00000

     crystal axes: (cart. coord. in units of alat)
               a(1) = ( -0.5000  0.0000  0.5000 )  
               a(2) = (  0.0000  0.5000  0.5000 )  
               a(3) = ( -0.5000  0.5000  0.0000 )  

     reciprocal axes: (cart. coord. in units 2 pi/alat)
               b(1) = ( -1.0000 -1.0000  1.0000 )  
               b(2) = (  1.0000  1.0000  1.0000 )  
               b(3) = ( -1.0000  1.0000 -1.0000 )  


     Atoms inside the unit cell: 

     Cartesian axes

     site n.  atom      mass           positions (alat units)
        1     Si  28.0860   tau(    1) = (    0.00000    0.00000    0.00000  )
        2     Si  28.0860   tau(    2) = (    0.25000    0.25000    0.25000  )

     Computing dynamical matrix for 
                    q = (   0.0000000   0.0000000   0.0000000 )

     49 Sym.Ops. (with q -> -q+G )


     G cutoff =  653.7460  (   4369 G-vectors)     FFT grid: ( 40, 40, 40)
     G cutoff =  326.8730  (   1546 G-vectors)  smooth grid: ( 25, 25, 25)
     number of k points=    10

     PseudoPot. # 1 for Si read from file:
     /home/s1333534/quantum_espresso/qe-6.1/pseudo/si_pbe_v1.uspp.F.UPF.txt
     MD5 check sum: a056efeee980c13900f22a371efd63c1
     Pseudo is Ultrasoft + core correction, Zval =  4.0
     Generated by new atomic code, or converted to UPF format
     Using radial grid of  899 points,  6 beta functions with: 
                l(1) =   0
                l(2) =   0
                l(3) =   1
                l(4) =   1
                l(5) =   2
                l(6) =   2
     Q(r) pseudized with  8 coefficients,  rinner =    0.900   0.900   0.900
                                                       0.900   0.900

     Mode symmetry, O_h (m-3m)  point group:


     Electric field:
     Dielectric constant
     Born effective charges in two ways 


     Atomic displacements:
     There are   2 irreducible representations

     Representation     1      3 modes -T_2g G_25' G_5+  To be done

     Representation     2      3 modes -T_1u G_15  G_4-  To be done



     Alpha used in Ewald sum =   2.5000
     PHONON       :     0.96s CPU         1.81s WALL


     Electric Fields Calculation

      iter #   1 total cpu time :     3.0 secs   av.it.:   5.7
      thresh= 1.000E-02 alpha_mix =  0.700 |ddv_scf|^2 =  9.660E-08

      iter #   2 total cpu time :     3.7 secs   av.it.:  11.9
      thresh= 3.108E-05 alpha_mix =  0.700 |ddv_scf|^2 =  5.781E-09

      iter #   3 total cpu time :     4.6 secs   av.it.:  11.7
      thresh= 7.603E-06 alpha_mix =  0.700 |ddv_scf|^2 =  3.914E-10

      iter #   4 total cpu time :     5.5 secs   av.it.:  10.6
      thresh= 1.978E-06 alpha_mix =  0.700 |ddv_scf|^2 =  2.640E-12

      iter #   5 total cpu time :     6.1 secs   av.it.:  11.2
      thresh= 1.625E-07 alpha_mix =  0.700 |ddv_scf|^2 =  2.651E-15

     End of electric fields calculation

          Dielectric constant in cartesian axis 

          (      14.044339248       0.000000000       0.000000000 )
          (       0.000000000      14.044339248      -0.000000000 )
          (       0.000000000      -0.000000000      14.044339248 )

          Effective charges (d Force / dE) in cartesian axis

           atom      1   Si 
      Ex  (       -0.03790       -0.00000       -0.00000 )
      Ey  (       -0.00000       -0.03790        0.00000 )
      Ez  (       -0.00000        0.00000       -0.03790 )
           atom      2   Si 
      Ex  (       -0.03790       -0.00000        0.00000 )
      Ey  (        0.00000       -0.03790        0.00000 )
      Ez  (       -0.00000        0.00000       -0.03790 )


     Representation #  1 modes #   1  2  3

     Self-consistent Calculation

      iter #   1 total cpu time :     7.7 secs   av.it.:   5.1
      thresh= 1.000E-02 alpha_mix =  0.700 |ddv_scf|^2 =  1.711E-08

      iter #   2 total cpu time :     8.6 secs   av.it.:  11.8
      thresh= 1.308E-05 alpha_mix =  0.700 |ddv_scf|^2 =  6.986E-10

      iter #   3 total cpu time :     9.5 secs   av.it.:  11.2
      thresh= 2.643E-06 alpha_mix =  0.700 |ddv_scf|^2 =  4.750E-11

      iter #   4 total cpu time :    10.2 secs   av.it.:  10.4
      thresh= 6.892E-07 alpha_mix =  0.700 |ddv_scf|^2 =  1.182E-13

     End of self-consistent calculation

     Convergence has been achieved 


     Representation #  2 modes #   4  5  6

     Self-consistent Calculation

      iter #   1 total cpu time :    11.2 secs   av.it.:   5.2
      thresh= 1.000E-02 alpha_mix =  0.700 |ddv_scf|^2 =  1.348E-08

      iter #   2 total cpu time :    12.1 secs   av.it.:  11.8
      thresh= 1.161E-05 alpha_mix =  0.700 |ddv_scf|^2 =  7.911E-10

      iter #   3 total cpu time :    13.0 secs   av.it.:  11.4
      thresh= 2.813E-06 alpha_mix =  0.700 |ddv_scf|^2 =  4.919E-11

      iter #   4 total cpu time :    13.7 secs   av.it.:  11.5
      thresh= 7.013E-07 alpha_mix =  0.700 |ddv_scf|^2 =  1.932E-13

     End of self-consistent calculation

     Convergence has been achieved 

     Number of q in the star =    1
     List of q in the star:
          1   0.000000000   0.000000000   0.000000000

          Dielectric constant in cartesian axis 

          (      14.044339248       0.000000000       0.000000000 )
          (       0.000000000      14.044339248      -0.000000000 )
          (       0.000000000      -0.000000000      14.044339248 )

          Effective charges (d Force / dE) in cartesian axis

           atom      1   Si 
      Ex  (       -0.03790       -0.00000       -0.00000 )
      Ey  (       -0.00000       -0.03790        0.00000 )
      Ez  (       -0.00000        0.00000       -0.03790 )
           atom      2   Si 
      Ex  (       -0.03790       -0.00000        0.00000 )
      Ey  (        0.00000       -0.03790        0.00000 )
      Ez  (       -0.00000        0.00000       -0.03790 )

          Effective charges (d P / du) in cartesian axis 

           atom      1   Si 
      Px  (       -0.07303       -0.00000       -0.00000 )
      Py  (       -0.00000       -0.07303        0.00000 )
      Pz  (       -0.00000        0.00000       -0.07303 )
           atom      2   Si 
      Px  (       -0.07303       -0.00000       -0.00000 )
      Py  (       -0.00000       -0.07303        0.00000 )
      Pz  (       -0.00000        0.00000       -0.07303 )

     Diagonalizing the dynamical matrix

     q = (    0.000000000   0.000000000   0.000000000 ) 

 **************************************************************************
     freq (    1) =      -0.478032 [THz] =     -15.945446 [cm-1]
     freq (    2) =      -0.478032 [THz] =     -15.945446 [cm-1]
     freq (    3) =      -0.478032 [THz] =     -15.945446 [cm-1]
     freq (    4) =      14.911712 [THz] =     497.401176 [cm-1]
     freq (    5) =      14.911712 [THz] =     497.401176 [cm-1]
     freq (    6) =      14.911712 [THz] =     497.401176 [cm-1]
 **************************************************************************

     Mode symmetry, O_h (m-3m)  point group:

     freq (  1 -  3) =        -15.9  [cm-1]   --> T_1u G_15  G_4- I  
     freq (  4 -  6) =        497.4  [cm-1]   --> T_2g G_25' G_5+ R  

     Calculation of q =   -0.2500000   0.2500000  -0.2500000

   Info: using nr1, nr2, nr3 values from input

   Info: using nr1, nr2, nr3 values from input

     Parallelization info
     --------------------
     sticks:   dense  smooth     PW     G-vecs:    dense   smooth      PW
     Min         222     109     37                 4369     1545     309
     Max         223     110     38                 4370     1546     312
     Sum         889     439    151                17477     6183    1243



     bravais-lattice index     =            2
     lattice parameter (alat)  =      10.3700  a.u.
     unit-cell volume          =     278.7894 (a.u.)^3
     number of atoms/cell      =            2
     number of atomic types    =            1
     number of electrons       =         8.00
     number of Kohn-Sham states=            4
     kinetic-energy cutoff     =      30.0000  Ry
     charge density cutoff     =     240.0000  Ry
     Exchange-correlation      = SLA  PW   PBE  PBE ( 1  4  3  4 0 0)

     celldm(1)=  10.370000  celldm(2)=   0.000000  celldm(3)=   0.000000
     celldm(4)=   0.000000  celldm(5)=   0.000000  celldm(6)=   0.000000

     crystal axes: (cart. coord. in units of alat)
               a(1) = (  -0.500000   0.000000   0.500000 )  
               a(2) = (   0.000000   0.500000   0.500000 )  
               a(3) = (  -0.500000   0.500000   0.000000 )  

     reciprocal axes: (cart. coord. in units 2 pi/alat)
               b(1) = ( -1.000000 -1.000000  1.000000 )  
               b(2) = (  1.000000  1.000000  1.000000 )  
               b(3) = ( -1.000000  1.000000 -1.000000 )  


     PseudoPot. # 1 for Si read from file:
     /home/s1333534/quantum_espresso/qe-6.1/pseudo/si_pbe_v1.uspp.F.UPF.txt
     MD5 check sum: a056efeee980c13900f22a371efd63c1
     Pseudo is Ultrasoft + core correction, Zval =  4.0
     Generated by new atomic code, or converted to UPF format
     Using radial grid of  899 points,  6 beta functions with: 
                l(1) =   0
                l(2) =   0
                l(3) =   1
                l(4) =   1
                l(5) =   2
                l(6) =   2
     Q(r) pseudized with  8 coefficients,  rinner =    0.900   0.900   0.900
                                                       0.900   0.900

     atomic species   valence    mass     pseudopotential
        Si             4.00    28.08600     Si( 1.00)

     48 Sym. Ops., with inversion, found



   Cartesian axes

     site n.     atom                  positions (alat units)
         1           Si  tau(   1) = (   0.0000000   0.0000000   0.0000000  )
         2           Si  tau(   2) = (   0.2500000   0.2500000   0.2500000  )

     number of k points=   120

     Number of k-points >= 100: set verbosity='high' to print them.

     Dense  grid:    17477 G-vectors     FFT dimensions: (  40,  40,  40)

     Smooth grid:     6183 G-vectors     FFT dimensions: (  25,  25,  25)

     Estimated max dynamical RAM per process >       1.79MB

     Estimated total allocated dynamical RAM >       7.17MB

     The potential is recalculated from file :
     ./_ph0/silicon.10.370.save/charge-density.dat

     Starting wfc are    8 atomic wfcs

     Band Structure Calculation
     Davidson diagonalization with overlap

     ethr =  1.25E-10,  avg # of iterations = 12.2

     total cpu time spent up to now is        1.4 secs

     End of band structure calculation

     Number of k-points >= 100: set verbosity='high' to print the bands.

     highest occupied level (ev):     5.5916

     Writing output data file silicon.10.370.save

                                                                                

     bravais-lattice index     =            2
     lattice parameter (alat)  =      10.3700  a.u.
     unit-cell volume          =     278.7894 (a.u.)^3
     number of atoms/cell      =            2
     number of atomic types    =            1
     kinetic-energy cut-off    =      30.0000  Ry
     charge density cut-off    =     240.0000  Ry
     convergence threshold     =      1.0E-12
     beta                      =       0.7000
     number of iterations used =            4
     Exchange-correlation      = SLA  PW   PBE  PBE ( 1  4  3  4 0 0)


     celldm(1)=   10.37000  celldm(2)=    0.00000  celldm(3)=    0.00000
     celldm(4)=    0.00000  celldm(5)=    0.00000  celldm(6)=    0.00000

     crystal axes: (cart. coord. in units of alat)
               a(1) = ( -0.5000  0.0000  0.5000 )  
               a(2) = (  0.0000  0.5000  0.5000 )  
               a(3) = ( -0.5000  0.5000  0.0000 )  

     reciprocal axes: (cart. coord. in units 2 pi/alat)
               b(1) = ( -1.0000 -1.0000  1.0000 )  
               b(2) = (  1.0000  1.0000  1.0000 )  
               b(3) = ( -1.0000  1.0000 -1.0000 )  


     Atoms inside the unit cell: 

     Cartesian axes

     site n.  atom      mass           positions (alat units)
        1     Si  28.0860   tau(    1) = (    0.00000    0.00000    0.00000  )
        2     Si  28.0860   tau(    2) = (    0.25000    0.25000    0.25000  )

     Computing dynamical matrix for 
                    q = (  -0.2500000   0.2500000  -0.2500000 )

      6 Sym.Ops. (no q -> -q+G )


     G cutoff =  653.7460  (   4369 G-vectors)     FFT grid: ( 40, 40, 40)
     G cutoff =  326.8730  (   1546 G-vectors)  smooth grid: ( 25, 25, 25)
     number of k points=   120

     PseudoPot. # 1 for Si read from file:
     /home/s1333534/quantum_espresso/qe-6.1/pseudo/si_pbe_v1.uspp.F.UPF.txt
     MD5 check sum: a056efeee980c13900f22a371efd63c1
     Pseudo is Ultrasoft + core correction, Zval =  4.0
     Generated by new atomic code, or converted to UPF format
     Using radial grid of  899 points,  6 beta functions with: 
                l(1) =   0
                l(2) =   0
                l(3) =   1
                l(4) =   1
                l(5) =   2
                l(6) =   2
     Q(r) pseudized with  8 coefficients,  rinner =    0.900   0.900   0.900
                                                       0.900   0.900

     Mode symmetry, C_3v (3m)   point group:


     Atomic displacements:
     There are   4 irreducible representations

     Representation     1      1 modes -A_1  L_1  To be done

     Representation     2      1 modes -A_1  L_1  To be done

     Representation     3      2 modes -E    L_3  To be done

     Representation     4      2 modes -E    L_3  To be done



     Alpha used in Ewald sum =   2.5000
     PHONON       :    12.49s CPU        17.40s WALL



     Representation #  1 mode #   1

     Self-consistent Calculation

      iter #   1 total cpu time :    17.9 secs   av.it.:   5.9
      thresh= 1.000E-02 alpha_mix =  0.700 |ddv_scf|^2 =  3.076E-04

      iter #   2 total cpu time :    18.5 secs   av.it.:   9.2
      thresh= 1.754E-03 alpha_mix =  0.700 |ddv_scf|^2 =  4.707E-03

      iter #   3 total cpu time :    19.0 secs   av.it.:   7.1
      thresh= 6.861E-03 alpha_mix =  0.700 |ddv_scf|^2 =  1.953E-07

      iter #   4 total cpu time :    19.7 secs   av.it.:   9.7
      thresh= 4.419E-05 alpha_mix =  0.700 |ddv_scf|^2 =  1.311E-08

      iter #   5 total cpu time :    20.4 secs   av.it.:   9.8
      thresh= 1.145E-05 alpha_mix =  0.700 |ddv_scf|^2 =  2.256E-10

      iter #   6 total cpu time :    21.2 secs   av.it.:   9.9
      thresh= 1.502E-06 alpha_mix =  0.700 |ddv_scf|^2 =  3.903E-10

      iter #   7 total cpu time :    21.8 secs   av.it.:   8.0
      thresh= 1.976E-06 alpha_mix =  0.700 |ddv_scf|^2 =  5.547E-11

      iter #   8 total cpu time :    22.4 secs   av.it.:   9.2
      thresh= 7.448E-07 alpha_mix =  0.700 |ddv_scf|^2 =  3.994E-13

     End of self-consistent calculation

     Convergence has been achieved 


     Representation #  2 mode #   2

     Self-consistent Calculation

      iter #   1 total cpu time :    23.6 secs   av.it.:   5.9
      thresh= 1.000E-02 alpha_mix =  0.700 |ddv_scf|^2 =  3.076E-04

      iter #   2 total cpu time :    24.5 secs   av.it.:   9.2
      thresh= 1.754E-03 alpha_mix =  0.700 |ddv_scf|^2 =  4.707E-03

      iter #   3 total cpu time :    25.3 secs   av.it.:   7.1
      thresh= 6.861E-03 alpha_mix =  0.700 |ddv_scf|^2 =  1.953E-07

      iter #   4 total cpu time :    25.9 secs   av.it.:   9.7
      thresh= 4.419E-05 alpha_mix =  0.700 |ddv_scf|^2 =  1.311E-08

      iter #   5 total cpu time :    26.7 secs   av.it.:   9.8
      thresh= 1.145E-05 alpha_mix =  0.700 |ddv_scf|^2 =  2.256E-10

      iter #   6 total cpu time :    27.3 secs   av.it.:   9.9
      thresh= 1.502E-06 alpha_mix =  0.700 |ddv_scf|^2 =  3.903E-10

      iter #   7 total cpu time :    28.0 secs   av.it.:   8.0
      thresh= 1.976E-06 alpha_mix =  0.700 |ddv_scf|^2 =  5.547E-11

      iter #   8 total cpu time :    28.6 secs   av.it.:   9.2
      thresh= 7.448E-07 alpha_mix =  0.700 |ddv_scf|^2 =  3.994E-13

     End of self-consistent calculation

     Convergence has been achieved 


     Representation #  3 modes #   3  4

     Self-consistent Calculation

      iter #   1 total cpu time :    29.5 secs   av.it.:   5.2
      thresh= 1.000E-02 alpha_mix =  0.700 |ddv_scf|^2 =  4.807E-08

      iter #   2 total cpu time :    30.8 secs   av.it.:  11.7
      thresh= 2.192E-05 alpha_mix =  0.700 |ddv_scf|^2 =  3.090E-09

      iter #   3 total cpu time :    32.1 secs   av.it.:  11.2
      thresh= 5.558E-06 alpha_mix =  0.700 |ddv_scf|^2 =  1.630E-10

      iter #   4 total cpu time :    33.3 secs   av.it.:  11.1
      thresh= 1.277E-06 alpha_mix =  0.700 |ddv_scf|^2 =  6.316E-13

     End of self-consistent calculation

     Convergence has been achieved 


     Representation #  4 modes #   5  6

     Self-consistent Calculation

      iter #   1 total cpu time :    34.4 secs   av.it.:   5.2
      thresh= 1.000E-02 alpha_mix =  0.700 |ddv_scf|^2 =  4.808E-08

      iter #   2 total cpu time :    35.9 secs   av.it.:  11.7
      thresh= 2.193E-05 alpha_mix =  0.700 |ddv_scf|^2 =  3.090E-09

      iter #   3 total cpu time :    37.4 secs   av.it.:  11.4
      thresh= 5.559E-06 alpha_mix =  0.700 |ddv_scf|^2 =  1.630E-10

      iter #   4 total cpu time :    38.7 secs   av.it.:  11.2
      thresh= 1.277E-06 alpha_mix =  0.700 |ddv_scf|^2 =  6.355E-13

     End of self-consistent calculation

     Convergence has been achieved 

     Number of q in the star =    8
     List of q in the star:
          1  -0.250000000   0.250000000  -0.250000000
          2   0.250000000  -0.250000000  -0.250000000
          3   0.250000000  -0.250000000   0.250000000
          4   0.250000000   0.250000000   0.250000000
          5  -0.250000000  -0.250000000  -0.250000000
          6  -0.250000000  -0.250000000   0.250000000
          7  -0.250000000   0.250000000   0.250000000
          8   0.250000000   0.250000000  -0.250000000

     Diagonalizing the dynamical matrix

     q = (   -0.250000000   0.250000000  -0.250000000 ) 

 **************************************************************************
     freq (    1) =       2.804265 [THz] =      93.540223 [cm-1]
     freq (    2) =       2.804265 [THz] =      93.540223 [cm-1]
     freq (    3) =       6.656739 [THz] =     222.044904 [cm-1]
     freq (    4) =      14.067752 [THz] =     469.249690 [cm-1]
     freq (    5) =      14.320618 [THz] =     477.684396 [cm-1]
     freq (    6) =      14.320618 [THz] =     477.684396 [cm-1]
 **************************************************************************

     Mode symmetry, C_3v (3m)   point group:

     freq (  1 -  2) =         93.5  [cm-1]   --> E    L_3           
     freq (  3 -  3) =        222.0  [cm-1]   --> A_1  L_1           
     freq (  4 -  4) =        469.2  [cm-1]   --> A_1  L_1           
     freq (  5 -  6) =        477.7  [cm-1]   --> E    L_3           

     Calculation of q =    0.5000000  -0.5000000   0.5000000

   Info: using nr1, nr2, nr3 values from input

   Info: using nr1, nr2, nr3 values from input

     Parallelization info
     --------------------
     sticks:   dense  smooth     PW     G-vecs:    dense   smooth      PW
     Min         222     109     40                 4369     1545     351
     Max         223     110     41                 4370     1546     354
     Sum         889     439    163                17477     6183    1411



     bravais-lattice index     =            2
     lattice parameter (alat)  =      10.3700  a.u.
     unit-cell volume          =     278.7894 (a.u.)^3
     number of atoms/cell      =            2
     number of atomic types    =            1
     number of electrons       =         8.00
     number of Kohn-Sham states=            4
     kinetic-energy cutoff     =      30.0000  Ry
     charge density cutoff     =     240.0000  Ry
     Exchange-correlation      = SLA  PW   PBE  PBE ( 1  4  3  4 0 0)

     celldm(1)=  10.370000  celldm(2)=   0.000000  celldm(3)=   0.000000
     celldm(4)=   0.000000  celldm(5)=   0.000000  celldm(6)=   0.000000

     crystal axes: (cart. coord. in units of alat)
               a(1) = (  -0.500000   0.000000   0.500000 )  
               a(2) = (   0.000000   0.500000   0.500000 )  
               a(3) = (  -0.500000   0.500000   0.000000 )  

     reciprocal axes: (cart. coord. in units 2 pi/alat)
               b(1) = ( -1.000000 -1.000000  1.000000 )  
               b(2) = (  1.000000  1.000000  1.000000 )  
               b(3) = ( -1.000000  1.000000 -1.000000 )  


     PseudoPot. # 1 for Si read from file:
     /home/s1333534/quantum_espresso/qe-6.1/pseudo/si_pbe_v1.uspp.F.UPF.txt
     MD5 check sum: a056efeee980c13900f22a371efd63c1
     Pseudo is Ultrasoft + core correction, Zval =  4.0
     Generated by new atomic code, or converted to UPF format
     Using radial grid of  899 points,  6 beta functions with: 
                l(1) =   0
                l(2) =   0
                l(3) =   1
                l(4) =   1
                l(5) =   2
                l(6) =   2
     Q(r) pseudized with  8 coefficients,  rinner =    0.900   0.900   0.900
                                                       0.900   0.900

     atomic species   valence    mass     pseudopotential
        Si             4.00    28.08600     Si( 1.00)

     48 Sym. Ops., with inversion, found



   Cartesian axes

     site n.     atom                  positions (alat units)
         1           Si  tau(   1) = (   0.0000000   0.0000000   0.0000000  )
         2           Si  tau(   2) = (   0.2500000   0.2500000   0.2500000  )

     number of k points=    60
                       cart. coord. in units 2pi/alat
        k(    1) = (  -0.1250000   0.1250000   0.1250000), wk =   0.0468750
        k(    2) = (   0.3750000  -0.3750000   0.6250000), wk =   0.0000000
        k(    3) = (  -0.3750000   0.3750000  -0.1250000), wk =   0.0468750
        k(    4) = (   0.1250000  -0.1250000   0.3750000), wk =   0.0000000
        k(    5) = (   0.3750000  -0.3750000   0.6250000), wk =   0.0468750
        k(    6) = (   0.8750000  -0.8750000   1.1250000), wk =   0.0000000
        k(    7) = (   0.1250000  -0.1250000   0.3750000), wk =   0.0468750
        k(    8) = (   0.6250000  -0.6250000   0.8750000), wk =   0.0000000
        k(    9) = (  -0.1250000   0.6250000   0.1250000), wk =   0.0937500
        k(   10) = (   0.3750000   0.1250000   0.6250000), wk =   0.0000000
        k(   11) = (   0.6250000  -0.1250000   0.8750000), wk =   0.0937500
        k(   12) = (   1.1250000  -0.6250000   1.3750000), wk =   0.0000000
        k(   13) = (   0.3750000   0.1250000   0.6250000), wk =   0.0937500
        k(   14) = (   0.8750000  -0.3750000   1.1250000), wk =   0.0000000
        k(   15) = (  -0.1250000  -0.8750000   0.1250000), wk =   0.0937500
        k(   16) = (   0.3750000  -1.3750000   0.6250000), wk =   0.0000000
        k(   17) = (  -0.3750000   0.3750000   0.3750000), wk =   0.0468750
        k(   18) = (   0.1250000  -0.1250000   0.8750000), wk =   0.0000000
        k(   19) = (   0.3750000  -0.3750000   1.1250000), wk =   0.0468750
        k(   20) = (   0.8750000  -0.8750000   1.6250000), wk =   0.0000000
        k(   21) = (   0.1250000  -0.1250000   0.1250000), wk =   0.0156250
        k(   22) = (   0.6250000  -0.6250000   0.6250000), wk =   0.0000000
        k(   23) = (  -0.3750000  -0.3750000  -0.1250000), wk =   0.0937500
        k(   24) = (   0.1250000  -0.8750000   0.3750000), wk =   0.0000000
        k(   25) = (  -0.1250000  -0.3750000   0.3750000), wk =   0.0468750
        k(   26) = (   0.3750000  -0.8750000   0.8750000), wk =   0.0000000
        k(   27) = (   0.3750000   0.3750000   0.6250000), wk =   0.0937500
        k(   28) = (   0.8750000  -0.1250000   1.1250000), wk =   0.0000000
        k(   29) = (   0.6250000   0.3750000  -0.3750000), wk =   0.0468750
        k(   30) = (   1.1250000  -0.1250000   0.1250000), wk =   0.0000000
        k(   31) = (   0.1250000   0.1250000   0.3750000), wk =   0.0937500
        k(   32) = (   0.6250000  -0.3750000   0.8750000), wk =   0.0000000
        k(   33) = (   0.3750000   0.1250000  -0.1250000), wk =   0.0468750
        k(   34) = (   0.8750000  -0.3750000   0.3750000), wk =   0.0000000
        k(   35) = (  -0.1250000  -0.6250000  -0.1250000), wk =   0.0468750
        k(   36) = (   0.3750000  -1.1250000   0.3750000), wk =   0.0000000
        k(   37) = (   0.1250000  -0.6250000   0.1250000), wk =   0.0468750
        k(   38) = (   0.6250000  -1.1250000   0.6250000), wk =   0.0000000
        k(   39) = (   0.6250000   0.1250000   0.8750000), wk =   0.0937500
        k(   40) = (   1.1250000  -0.3750000   1.3750000), wk =   0.0000000
        k(   41) = (  -0.8750000   0.1250000   0.6250000), wk =   0.0937500
        k(   42) = (  -0.3750000  -0.3750000   1.1250000), wk =   0.0000000
        k(   43) = (   0.8750000   0.1250000  -0.6250000), wk =   0.0937500
        k(   44) = (   1.3750000  -0.3750000  -0.1250000), wk =   0.0000000
        k(   45) = (   0.3750000  -0.1250000   0.6250000), wk =   0.0937500
        k(   46) = (   0.8750000  -0.6250000   1.1250000), wk =   0.0000000
        k(   47) = (  -0.6250000  -0.1250000   0.3750000), wk =   0.0937500
        k(   48) = (  -0.1250000  -0.6250000   0.8750000), wk =   0.0000000
        k(   49) = (   0.6250000  -0.1250000  -0.3750000), wk =   0.0937500
        k(   50) = (   1.1250000  -0.6250000   0.1250000), wk =   0.0000000
        k(   51) = (  -0.1250000   0.8750000  -0.1250000), wk =   0.0468750
        k(   52) = (   0.3750000   0.3750000   0.3750000), wk =   0.0000000
        k(   53) = (   0.1250000   0.8750000   0.1250000), wk =   0.0468750
        k(   54) = (   0.6250000   0.3750000   0.6250000), wk =   0.0000000
        k(   55) = (   0.3750000  -0.3750000   0.3750000), wk =   0.0156250
        k(   56) = (   0.8750000  -0.8750000   0.8750000), wk =   0.0000000
        k(   57) = (   0.3750000   0.3750000   1.1250000), wk =   0.0937500
        k(   58) = (   0.8750000  -0.1250000   1.6250000), wk =   0.0000000
        k(   59) = (   1.1250000   0.3750000  -0.3750000), wk =   0.0468750
        k(   60) = (   1.6250000  -0.1250000   0.1250000), wk =   0.0000000

     Dense  grid:    17477 G-vectors     FFT dimensions: (  40,  40,  40)

     Smooth grid:     6183 G-vectors     FFT dimensions: (  25,  25,  25)

     Estimated max dynamical RAM per process >       1.79MB

     Estimated total allocated dynamical RAM >       7.17MB

     The potential is recalculated from file :
     ./_ph0/silicon.10.370.save/charge-density.dat

     Starting wfc are    8 atomic wfcs

     Band Structure Calculation
     Davidson diagonalization with overlap

     ethr =  1.25E-10,  avg # of iterations = 12.2

     total cpu time spent up to now is        2.6 secs

     End of band structure calculation

          k =-0.1250 0.1250 0.1250 (   779 PWs)   bands (ev):

    -5.6764   4.2817   5.5916   5.5916

          k = 0.3750-0.3750 0.6250 (   776 PWs)   bands (ev):

    -3.5355  -0.7466   3.6402   4.3518

          k =-0.3750 0.3750-0.1250 (   781 PWs)   bands (ev):

    -4.6602   1.3076   3.6245   5.1143

          k = 0.1250-0.1250 0.3750 (   785 PWs)   bands (ev):

    -5.1536   2.6707   4.5952   4.6530

          k = 0.3750-0.3750 0.6250 (   776 PWs)   bands (ev):

    -3.5355  -0.7466   3.6402   4.3518

          k = 0.8750-0.8750 1.1250 (   779 PWs)   bands (ev):

    -5.6764   4.2817   5.5916   5.5916

          k = 0.1250-0.1250 0.3750 (   785 PWs)   bands (ev):

    -5.1536   2.6707   4.5952   4.6530

          k = 0.6250-0.6250 0.8750 (   781 PWs)   bands (ev):

    -4.6602   1.3076   3.6245   5.1143

          k =-0.1250 0.6250 0.1250 (   777 PWs)   bands (ev):

    -4.1326   0.9642   3.2820   3.7297

          k = 0.3750 0.1250 0.6250 (   775 PWs)   bands (ev):

    -3.7224   0.1055   2.6448   4.0018

          k = 0.6250-0.1250 0.8750 (   764 PWs)   bands (ev):

    -2.5121  -0.9814   1.9461   3.0102

          k = 1.1250-0.6250 1.3750 (   781 PWs)   bands (ev):

    -4.6602   1.3076   3.6245   5.1143

          k = 0.3750 0.1250 0.6250 (   775 PWs)   bands (ev):

    -3.7224   0.1055   2.6448   4.0018

          k = 0.8750-0.3750 1.1250 (   777 PWs)   bands (ev):

    -4.1326   0.9642   3.2820   3.7297

          k =-0.1250-0.8750 0.1250 (   766 PWs)   bands (ev):

    -2.6755  -0.8864   2.5483   3.2670

          k = 0.3750-1.3750 0.6250 (   776 PWs)   bands (ev):

    -3.5355  -0.7466   3.6402   4.3518

          k =-0.3750 0.3750 0.3750 (   775 PWs)   bands (ev):

    -4.2327   0.0344   4.8106   4.8106

          k = 0.1250-0.1250 0.8750 (   766 PWs)   bands (ev):

    -2.6755  -0.8864   2.5483   3.2670

          k = 0.3750-0.3750 1.1250 (   773 PWs)   bands (ev):

    -3.0445  -0.6734   1.9997   4.0387

          k = 0.8750-0.8750 1.6250 (   777 PWs)   bands (ev):

    -4.1326   0.9642   3.2820   3.7297

          k = 0.1250-0.1250 0.1250 (   779 PWs)   bands (ev):

    -5.6764   4.2817   5.5916   5.5916

          k = 0.6250-0.6250 0.6250 (   775 PWs)   bands (ev):

    -4.2327   0.0344   4.8106   4.8106

          k =-0.3750-0.3750-0.1250 (   781 PWs)   bands (ev):

    -4.6602   1.3076   3.6245   5.1143

          k = 0.1250-0.8750 0.3750 (   764 PWs)   bands (ev):

    -2.5121  -0.9814   1.9461   3.0102

          k =-0.1250-0.3750 0.3750 (   781 PWs)   bands (ev):

    -4.6602   1.3076   3.6245   5.1143

          k = 0.3750-0.8750 0.8750 (   777 PWs)   bands (ev):

    -4.1326   0.9642   3.2820   3.7297

          k = 0.3750 0.3750 0.6250 (   776 PWs)   bands (ev):

    -3.5355  -0.7466   3.6402   4.3518

          k = 0.8750-0.1250 1.1250 (   766 PWs)   bands (ev):

    -2.6755  -0.8864   2.5483   3.2670

          k = 0.6250 0.3750-0.3750 (   776 PWs)   bands (ev):

    -3.5355  -0.7466   3.6402   4.3518

          k = 1.1250-0.1250 0.1250 (   766 PWs)   bands (ev):

    -2.6755  -0.8864   2.5483   3.2670

          k = 0.1250 0.1250 0.3750 (   785 PWs)   bands (ev):

    -5.1536   2.6707   4.5952   4.6530

          k = 0.6250-0.3750 0.8750 (   775 PWs)   bands (ev):

    -3.7224   0.1055   2.6448   4.0018

          k = 0.3750 0.1250-0.1250 (   785 PWs)   bands (ev):

    -5.1536   2.6707   4.5952   4.6530

          k = 0.8750-0.3750 0.3750 (   773 PWs)   bands (ev):

    -3.0445  -0.6734   1.9997   4.0387

          k =-0.1250-0.6250-0.1250 (   777 PWs)   bands (ev):

    -4.1326   0.9642   3.2820   3.7297

          k = 0.3750-1.1250 0.3750 (   773 PWs)   bands (ev):

    -3.0445  -0.6734   1.9997   4.0387

          k = 0.1250-0.6250 0.1250 (   777 PWs)   bands (ev):

    -4.1326   0.9642   3.2820   3.7297

          k = 0.6250-1.1250 0.6250 (   781 PWs)   bands (ev):

    -4.6602   1.3076   3.6245   5.1143

          k = 0.6250 0.1250 0.8750 (   764 PWs)   bands (ev):

    -2.5121  -0.9814   1.9461   3.0102

          k = 1.1250-0.3750 1.3750 (   775 PWs)   bands (ev):

    -3.7224   0.1055   2.6448   4.0018

          k =-0.8750 0.1250 0.6250 (   764 PWs)   bands (ev):

    -2.5121  -0.9814   1.9461   3.0102

          k =-0.3750-0.3750 1.1250 (   773 PWs)   bands (ev):

    -3.0445  -0.6734   1.9997   4.0387

          k = 0.8750 0.1250-0.6250 (   764 PWs)   bands (ev):

    -2.5121  -0.9814   1.9461   3.0102

          k = 1.3750-0.3750-0.1250 (   775 PWs)   bands (ev):

    -3.7224   0.1055   2.6448   4.0018

          k = 0.3750-0.1250 0.6250 (   775 PWs)   bands (ev):

    -3.7224   0.1055   2.6448   4.0018

          k = 0.8750-0.6250 1.1250 (   785 PWs)   bands (ev):

    -5.1536   2.6707   4.5952   4.6530

          k =-0.6250-0.1250 0.3750 (   775 PWs)   bands (ev):

    -3.7224   0.1055   2.6448   4.0018

          k =-0.1250-0.6250 0.8750 (   764 PWs)   bands (ev):

    -2.5121  -0.9814   1.9461   3.0102

          k = 0.6250-0.1250-0.3750 (   775 PWs)   bands (ev):

    -3.7224   0.1055   2.6448   4.0018

          k = 1.1250-0.6250 0.1250 (   764 PWs)   bands (ev):

    -2.5121  -0.9814   1.9461   3.0102

          k =-0.1250 0.8750-0.1250 (   766 PWs)   bands (ev):

    -2.6755  -0.8864   2.5483   3.2670

          k = 0.3750 0.3750 0.3750 (   775 PWs)   bands (ev):

    -4.2327   0.0344   4.8106   4.8106

          k = 0.1250 0.8750 0.1250 (   766 PWs)   bands (ev):

    -2.6755  -0.8864   2.5483   3.2670

          k = 0.6250 0.3750 0.6250 (   776 PWs)   bands (ev):

    -3.5355  -0.7466   3.6402   4.3518

          k = 0.3750-0.3750 0.3750 (   775 PWs)   bands (ev):

    -4.2327   0.0344   4.8106   4.8106

          k = 0.8750-0.8750 0.8750 (   779 PWs)   bands (ev):

    -5.6764   4.2817   5.5916   5.5916

          k = 0.3750 0.3750 1.1250 (   773 PWs)   bands (ev):

    -3.0445  -0.6734   1.9997   4.0387

          k = 0.8750-0.1250 1.6250 (   764 PWs)   bands (ev):

    -2.5121  -0.9814   1.9461   3.0102

          k = 1.1250 0.3750-0.3750 (   773 PWs)   bands (ev):

    -3.0445  -0.6734   1.9997   4.0387

          k = 1.6250-0.1250 0.1250 (   785 PWs)   bands (ev):

    -5.1536   2.6707   4.5952   4.6530

     highest occupied level (ev):     5.5916

     Writing output data file silicon.10.370.save

                                                                                

     bravais-lattice index     =            2
     lattice parameter (alat)  =      10.3700  a.u.
     unit-cell volume          =     278.7894 (a.u.)^3
     number of atoms/cell      =            2
     number of atomic types    =            1
     kinetic-energy cut-off    =      30.0000  Ry
     charge density cut-off    =     240.0000  Ry
     convergence threshold     =      1.0E-12
     beta                      =       0.7000
     number of iterations used =            4
     Exchange-correlation      = SLA  PW   PBE  PBE ( 1  4  3  4 0 0)


     celldm(1)=   10.37000  celldm(2)=    0.00000  celldm(3)=    0.00000
     celldm(4)=    0.00000  celldm(5)=    0.00000  celldm(6)=    0.00000

     crystal axes: (cart. coord. in units of alat)
               a(1) = ( -0.5000  0.0000  0.5000 )  
               a(2) = (  0.0000  0.5000  0.5000 )  
               a(3) = ( -0.5000  0.5000  0.0000 )  

     reciprocal axes: (cart. coord. in units 2 pi/alat)
               b(1) = ( -1.0000 -1.0000  1.0000 )  
               b(2) = (  1.0000  1.0000  1.0000 )  
               b(3) = ( -1.0000  1.0000 -1.0000 )  


     Atoms inside the unit cell: 

     Cartesian axes

     site n.  atom      mass           positions (alat units)
        1     Si  28.0860   tau(    1) = (    0.00000    0.00000    0.00000  )
        2     Si  28.0860   tau(    2) = (    0.25000    0.25000    0.25000  )

     Computing dynamical matrix for 
                    q = (   0.5000000  -0.5000000   0.5000000 )

     13 Sym.Ops. (with q -> -q+G )


     G cutoff =  653.7460  (   4369 G-vectors)     FFT grid: ( 40, 40, 40)
     G cutoff =  326.8730  (   1546 G-vectors)  smooth grid: ( 25, 25, 25)
     number of k points=    60

     PseudoPot. # 1 for Si read from file:
     /home/s1333534/quantum_espresso/qe-6.1/pseudo/si_pbe_v1.uspp.F.UPF.txt
     MD5 check sum: a056efeee980c13900f22a371efd63c1
     Pseudo is Ultrasoft + core correction, Zval =  4.0
     Generated by new atomic code, or converted to UPF format
     Using radial grid of  899 points,  6 beta functions with: 
                l(1) =   0
                l(2) =   0
                l(3) =   1
                l(4) =   1
                l(5) =   2
                l(6) =   2
     Q(r) pseudized with  8 coefficients,  rinner =    0.900   0.900   0.900
                                                       0.900   0.900


     Atomic displacements:
     There are   4 irreducible representations

     Representation     1      1 modes -  To be done

     Representation     2      1 modes -  To be done

     Representation     3      2 modes -  To be done

     Representation     4      2 modes -  To be done



     Alpha used in Ewald sum =   2.5000
     PHONON       :    30.40s CPU        41.13s WALL



     Representation #  1 mode #   1

     Self-consistent Calculation

      iter #   1 total cpu time :    41.4 secs   av.it.:   5.0
      thresh= 1.000E-02 alpha_mix =  0.700 |ddv_scf|^2 =  3.017E-06

      iter #   2 total cpu time :    42.0 secs   av.it.:  10.1
      thresh= 1.737E-04 alpha_mix =  0.700 |ddv_scf|^2 =  2.796E-06

      iter #   3 total cpu time :    42.5 secs   av.it.:   9.4
      thresh= 1.672E-04 alpha_mix =  0.700 |ddv_scf|^2 =  1.650E-09

      iter #   4 total cpu time :    42.9 secs   av.it.:   9.6
      thresh= 4.063E-06 alpha_mix =  0.700 |ddv_scf|^2 =  1.577E-11

      iter #   5 total cpu time :    43.3 secs   av.it.:   9.5
      thresh= 3.971E-07 alpha_mix =  0.700 |ddv_scf|^2 =  2.271E-13

     End of self-consistent calculation

     Convergence has been achieved 


     Representation #  2 mode #   2

     Self-consistent Calculation

      iter #   1 total cpu time :    43.8 secs   av.it.:   6.0
      thresh= 1.000E-02 alpha_mix =  0.700 |ddv_scf|^2 =  4.286E-05

      iter #   2 total cpu time :    44.2 secs   av.it.:  10.0
      thresh= 6.547E-04 alpha_mix =  0.700 |ddv_scf|^2 =  1.338E-04

      iter #   3 total cpu time :    44.6 secs   av.it.:   8.9
      thresh= 1.157E-03 alpha_mix =  0.700 |ddv_scf|^2 =  1.028E-08

      iter #   4 total cpu time :    45.1 secs   av.it.:  10.1
      thresh= 1.014E-05 alpha_mix =  0.700 |ddv_scf|^2 =  5.204E-10

      iter #   5 total cpu time :    45.5 secs   av.it.:  10.4
      thresh= 2.281E-06 alpha_mix =  0.700 |ddv_scf|^2 =  1.528E-11

      iter #   6 total cpu time :    45.9 secs   av.it.:   9.9
      thresh= 3.909E-07 alpha_mix =  0.700 |ddv_scf|^2 =  1.128E-13

     End of self-consistent calculation

     Convergence has been achieved 


     Representation #  3 modes #   3  4

     Self-consistent Calculation

      iter #   1 total cpu time :    46.6 secs   av.it.:   5.1
      thresh= 1.000E-02 alpha_mix =  0.700 |ddv_scf|^2 =  1.949E-08

      iter #   2 total cpu time :    47.4 secs   av.it.:  11.1
      thresh= 1.396E-05 alpha_mix =  0.700 |ddv_scf|^2 =  1.145E-09

      iter #   3 total cpu time :    48.3 secs   av.it.:  10.9
      thresh= 3.383E-06 alpha_mix =  0.700 |ddv_scf|^2 =  3.885E-11

      iter #   4 total cpu time :    49.0 secs   av.it.:  10.8
      thresh= 6.233E-07 alpha_mix =  0.700 |ddv_scf|^2 =  3.178E-13

     End of self-consistent calculation

     Convergence has been achieved 


     Representation #  4 modes #   5  6

     Self-consistent Calculation

      iter #   1 total cpu time :    49.8 secs   av.it.:   5.1
      thresh= 1.000E-02 alpha_mix =  0.700 |ddv_scf|^2 =  1.001E-07

      iter #   2 total cpu time :    50.6 secs   av.it.:  11.3
      thresh= 3.165E-05 alpha_mix =  0.700 |ddv_scf|^2 =  8.059E-09

      iter #   3 total cpu time :    51.4 secs   av.it.:  11.1
      thresh= 8.977E-06 alpha_mix =  0.700 |ddv_scf|^2 =  2.108E-10

      iter #   4 total cpu time :    52.1 secs   av.it.:  10.1
      thresh= 1.452E-06 alpha_mix =  0.700 |ddv_scf|^2 =  3.902E-13

     End of self-consistent calculation

     Convergence has been achieved 

     Number of q in the star =    4
     List of q in the star:
          1   0.500000000  -0.500000000   0.500000000
          2   0.500000000   0.500000000   0.500000000
          3  -0.500000000   0.500000000   0.500000000
          4   0.500000000   0.500000000  -0.500000000

     Diagonalizing the dynamical matrix

     q = (    0.500000000  -0.500000000   0.500000000 ) 

 **************************************************************************
     freq (    1) =       3.354325 [THz] =     111.888248 [cm-1]
     freq (    2) =       3.354325 [THz] =     111.888248 [cm-1]
     freq (    3) =      11.053756 [THz] =     368.713628 [cm-1]
     freq (    4) =      11.761122 [THz] =     392.308796 [cm-1]
     freq (    5) =      14.095971 [THz] =     470.190994 [cm-1]
     freq (    6) =      14.095971 [THz] =     470.190994 [cm-1]
 **************************************************************************

     Calculation of q =    0.0000000   0.5000000   0.0000000

   Info: using nr1, nr2, nr3 values from input

   Info: using nr1, nr2, nr3 values from input

     Parallelization info
     --------------------
     sticks:   dense  smooth     PW     G-vecs:    dense   smooth      PW
     Min         222     109     40                 4369     1545     322
     Max         223     110     42                 4370     1547     323
     Sum         889     439    163                17477     6183    1291



     bravais-lattice index     =            2
     lattice parameter (alat)  =      10.3700  a.u.
     unit-cell volume          =     278.7894 (a.u.)^3
     number of atoms/cell      =            2
     number of atomic types    =            1
     number of electrons       =         8.00
     number of Kohn-Sham states=            4
     kinetic-energy cutoff     =      30.0000  Ry
     charge density cutoff     =     240.0000  Ry
     Exchange-correlation      = SLA  PW   PBE  PBE ( 1  4  3  4 0 0)

     celldm(1)=  10.370000  celldm(2)=   0.000000  celldm(3)=   0.000000
     celldm(4)=   0.000000  celldm(5)=   0.000000  celldm(6)=   0.000000

     crystal axes: (cart. coord. in units of alat)
               a(1) = (  -0.500000   0.000000   0.500000 )  
               a(2) = (   0.000000   0.500000   0.500000 )  
               a(3) = (  -0.500000   0.500000   0.000000 )  

     reciprocal axes: (cart. coord. in units 2 pi/alat)
               b(1) = ( -1.000000 -1.000000  1.000000 )  
               b(2) = (  1.000000  1.000000  1.000000 )  
               b(3) = ( -1.000000  1.000000 -1.000000 )  


     PseudoPot. # 1 for Si read from file:
     /home/s1333534/quantum_espresso/qe-6.1/pseudo/si_pbe_v1.uspp.F.UPF.txt
     MD5 check sum: a056efeee980c13900f22a371efd63c1
     Pseudo is Ultrasoft + core correction, Zval =  4.0
     Generated by new atomic code, or converted to UPF format
     Using radial grid of  899 points,  6 beta functions with: 
                l(1) =   0
                l(2) =   0
                l(3) =   1
                l(4) =   1
                l(5) =   2
                l(6) =   2
     Q(r) pseudized with  8 coefficients,  rinner =    0.900   0.900   0.900
                                                       0.900   0.900

     atomic species   valence    mass     pseudopotential
        Si             4.00    28.08600     Si( 1.00)

     48 Sym. Ops., with inversion, found



   Cartesian axes

     site n.     atom                  positions (alat units)
         1           Si  tau(   1) = (   0.0000000   0.0000000   0.0000000  )
         2           Si  tau(   2) = (   0.2500000   0.2500000   0.2500000  )

     number of k points=    80
                       cart. coord. in units 2pi/alat
        k(    1) = (  -0.1250000   0.1250000   0.1250000), wk =   0.0312500
        k(    2) = (  -0.1250000   0.6250000   0.1250000), wk =   0.0000000
        k(    3) = (  -0.3750000   0.3750000  -0.1250000), wk =   0.0625000
        k(    4) = (  -0.3750000   0.8750000  -0.1250000), wk =   0.0000000
        k(    5) = (   0.3750000  -0.3750000   0.6250000), wk =   0.0625000
        k(    6) = (   0.3750000   0.1250000   0.6250000), wk =   0.0000000
        k(    7) = (   0.1250000  -0.1250000   0.3750000), wk =   0.0625000
        k(    8) = (   0.1250000   0.3750000   0.3750000), wk =   0.0000000
        k(    9) = (  -0.1250000   0.6250000   0.1250000), wk =   0.0312500
        k(   10) = (  -0.1250000   1.1250000   0.1250000), wk =   0.0000000
        k(   11) = (   0.6250000  -0.1250000   0.8750000), wk =   0.0625000
        k(   12) = (   0.6250000   0.3750000   0.8750000), wk =   0.0000000
        k(   13) = (   0.3750000   0.1250000   0.6250000), wk =   0.0625000
        k(   14) = (   0.3750000   0.6250000   0.6250000), wk =   0.0000000
        k(   15) = (  -0.1250000  -0.8750000   0.1250000), wk =   0.0312500
        k(   16) = (  -0.1250000  -0.3750000   0.1250000), wk =   0.0000000
        k(   17) = (  -0.3750000   0.3750000   0.3750000), wk =   0.0312500
        k(   18) = (  -0.3750000   0.8750000   0.3750000), wk =   0.0000000
        k(   19) = (   0.3750000  -0.3750000   1.1250000), wk =   0.0625000
        k(   20) = (   0.3750000   0.1250000   1.1250000), wk =   0.0000000
        k(   21) = (  -0.1250000  -0.1250000   0.1250000), wk =   0.0312500
        k(   22) = (  -0.1250000   0.3750000   0.1250000), wk =   0.0000000
        k(   23) = (   0.1250000  -0.3750000   0.3750000), wk =   0.0625000
        k(   24) = (   0.1250000   0.1250000   0.3750000), wk =   0.0000000
        k(   25) = (   0.3750000  -0.1250000   0.3750000), wk =   0.0312500
        k(   26) = (   0.3750000   0.3750000   0.3750000), wk =   0.0000000
        k(   27) = (   0.3750000   0.1250000   0.3750000), wk =   0.0312500
        k(   28) = (   0.3750000   0.6250000   0.3750000), wk =   0.0000000
        k(   29) = (  -0.6250000   0.3750000  -0.3750000), wk =   0.0625000
        k(   30) = (  -0.6250000   0.8750000  -0.3750000), wk =   0.0000000
        k(   31) = (  -0.3750000   0.6250000  -0.3750000), wk =   0.0312500
        k(   32) = (  -0.3750000   1.1250000  -0.3750000), wk =   0.0000000
        k(   33) = (  -0.3750000  -0.6250000  -0.3750000), wk =   0.0312500
        k(   34) = (  -0.3750000  -0.1250000  -0.3750000), wk =   0.0000000
        k(   35) = (  -0.3750000   0.1250000  -0.1250000), wk =   0.0625000
        k(   36) = (  -0.3750000   0.6250000  -0.1250000), wk =   0.0000000
        k(   37) = (  -0.1250000   0.3750000  -0.1250000), wk =   0.0312500
        k(   38) = (  -0.1250000   0.8750000  -0.1250000), wk =   0.0000000
        k(   39) = (  -0.1250000  -0.3750000  -0.1250000), wk =   0.0312500
        k(   40) = (  -0.1250000   0.1250000  -0.1250000), wk =   0.0000000
        k(   41) = (  -0.1250000  -0.6250000   0.1250000), wk =   0.0312500
        k(   42) = (  -0.1250000  -0.1250000   0.1250000), wk =   0.0000000
        k(   43) = (   0.6250000  -0.1250000  -0.1250000), wk =   0.0625000
        k(   44) = (   0.6250000   0.3750000  -0.1250000), wk =   0.0000000
        k(   45) = (   0.6250000   0.1250000   0.1250000), wk =   0.0625000
        k(   46) = (   0.6250000   0.6250000   0.1250000), wk =   0.0000000
        k(   47) = (  -0.8750000   0.1250000  -0.6250000), wk =   0.0625000
        k(   48) = (  -0.8750000   0.6250000  -0.6250000), wk =   0.0000000
        k(   49) = (  -0.1250000   0.6250000  -0.8750000), wk =   0.0625000
        k(   50) = (  -0.1250000   1.1250000  -0.8750000), wk =   0.0000000
        k(   51) = (  -0.1250000   0.8750000  -0.6250000), wk =   0.0625000
        k(   52) = (  -0.1250000   1.3750000  -0.6250000), wk =   0.0000000
        k(   53) = (  -0.1250000  -0.8750000  -0.6250000), wk =   0.0625000
        k(   54) = (  -0.1250000  -0.3750000  -0.6250000), wk =   0.0000000
        k(   55) = (   0.8750000  -0.6250000   0.1250000), wk =   0.0625000
        k(   56) = (   0.8750000  -0.1250000   0.1250000), wk =   0.0000000
        k(   57) = (  -0.6250000  -0.1250000  -0.3750000), wk =   0.0625000
        k(   58) = (  -0.6250000   0.3750000  -0.3750000), wk =   0.0000000
        k(   59) = (   0.1250000   0.3750000  -0.6250000), wk =   0.0625000
        k(   60) = (   0.1250000   0.8750000  -0.6250000), wk =   0.0000000
        k(   61) = (   0.1250000   0.6250000  -0.3750000), wk =   0.0625000
        k(   62) = (   0.1250000   1.1250000  -0.3750000), wk =   0.0000000
        k(   63) = (   0.1250000  -0.6250000  -0.3750000), wk =   0.0625000
        k(   64) = (   0.1250000  -0.1250000  -0.3750000), wk =   0.0000000
        k(   65) = (   0.6250000  -0.3750000  -0.1250000), wk =   0.0625000
        k(   66) = (   0.6250000   0.1250000  -0.1250000), wk =   0.0000000
        k(   67) = (  -0.1250000   0.8750000   0.1250000), wk =   0.0312500
        k(   68) = (  -0.1250000   1.3750000   0.1250000), wk =   0.0000000
        k(   69) = (  -0.8750000  -0.1250000  -0.1250000), wk =   0.0625000
        k(   70) = (  -0.8750000   0.3750000  -0.1250000), wk =   0.0000000
        k(   71) = (  -0.8750000   0.1250000   0.1250000), wk =   0.0625000
        k(   72) = (  -0.8750000   0.6250000   0.1250000), wk =   0.0000000
        k(   73) = (  -0.3750000  -0.3750000   0.3750000), wk =   0.0312500
        k(   74) = (  -0.3750000   0.1250000   0.3750000), wk =   0.0000000
        k(   75) = (  -1.1250000   0.3750000  -0.3750000), wk =   0.0625000
        k(   76) = (  -1.1250000   0.8750000  -0.3750000), wk =   0.0000000
        k(   77) = (  -0.3750000   1.1250000  -0.3750000), wk =   0.0312500
        k(   78) = (  -0.3750000   1.6250000  -0.3750000), wk =   0.0000000
        k(   79) = (  -0.3750000  -1.1250000  -0.3750000), wk =   0.0312500
        k(   80) = (  -0.3750000  -0.6250000  -0.3750000), wk =   0.0000000

     Dense  grid:    17477 G-vectors     FFT dimensions: (  40,  40,  40)

     Smooth grid:     6183 G-vectors     FFT dimensions: (  25,  25,  25)

     Estimated max dynamical RAM per process >       1.79MB

     Estimated total allocated dynamical RAM >       7.17MB

     The potential is recalculated from file :
     ./_ph0/silicon.10.370.save/charge-density.dat

     Starting wfc are    8 atomic wfcs

     Band Structure Calculation
     Davidson diagonalization with overlap

     ethr =  1.25E-10,  avg # of iterations = 12.2

     total cpu time spent up to now is        3.8 secs

     End of band structure calculation

          k =-0.1250 0.1250 0.1250 (   779 PWs)   bands (ev):

    -5.6764   4.2817   5.5916   5.5916

          k =-0.1250 0.6250 0.1250 (   777 PWs)   bands (ev):

    -4.1326   0.9642   3.2820   3.7297

          k =-0.3750 0.3750-0.1250 (   781 PWs)   bands (ev):

    -4.6602   1.3076   3.6245   5.1143

          k =-0.3750 0.8750-0.1250 (   764 PWs)   bands (ev):

    -2.5121  -0.9814   1.9461   3.0102

          k = 0.3750-0.3750 0.6250 (   776 PWs)   bands (ev):

    -3.5355  -0.7466   3.6402   4.3518

          k = 0.3750 0.1250 0.6250 (   775 PWs)   bands (ev):

    -3.7224   0.1055   2.6448   4.0018

          k = 0.1250-0.1250 0.3750 (   785 PWs)   bands (ev):

    -5.1536   2.6707   4.5952   4.6530

          k = 0.1250 0.3750 0.3750 (   781 PWs)   bands (ev):

    -4.6602   1.3076   3.6245   5.1143

          k =-0.1250 0.6250 0.1250 (   777 PWs)   bands (ev):

    -4.1326   0.9642   3.2820   3.7297

          k =-0.1250 1.1250 0.1250 (   766 PWs)   bands (ev):

    -2.6755  -0.8864   2.5483   3.2670

          k = 0.6250-0.1250 0.8750 (   764 PWs)   bands (ev):

    -2.5121  -0.9814   1.9461   3.0102

          k = 0.6250 0.3750 0.8750 (   775 PWs)   bands (ev):

    -3.7224   0.1055   2.6448   4.0018

          k = 0.3750 0.1250 0.6250 (   775 PWs)   bands (ev):

    -3.7224   0.1055   2.6448   4.0018

          k = 0.3750 0.6250 0.6250 (   776 PWs)   bands (ev):

    -3.5355  -0.7466   3.6402   4.3518

          k =-0.1250-0.8750 0.1250 (   766 PWs)   bands (ev):

    -2.6755  -0.8864   2.5483   3.2670

          k =-0.1250-0.3750 0.1250 (   785 PWs)   bands (ev):

    -5.1536   2.6707   4.5952   4.6530

          k =-0.3750 0.3750 0.3750 (   775 PWs)   bands (ev):

    -4.2327   0.0344   4.8106   4.8106

          k =-0.3750 0.8750 0.3750 (   773 PWs)   bands (ev):

    -3.0445  -0.6734   1.9997   4.0387

          k = 0.3750-0.3750 1.1250 (   773 PWs)   bands (ev):

    -3.0445  -0.6734   1.9997   4.0387

          k = 0.3750 0.1250 1.1250 (   764 PWs)   bands (ev):

    -2.5121  -0.9814   1.9461   3.0102

          k =-0.1250-0.1250 0.1250 (   779 PWs)   bands (ev):

    -5.6764   4.2817   5.5916   5.5916

          k =-0.1250 0.3750 0.1250 (   785 PWs)   bands (ev):

    -5.1536   2.6707   4.5952   4.6530

          k = 0.1250-0.3750 0.3750 (   781 PWs)   bands (ev):

    -4.6602   1.3076   3.6245   5.1143

          k = 0.1250 0.1250 0.3750 (   785 PWs)   bands (ev):

    -5.1536   2.6707   4.5952   4.6530

          k = 0.3750-0.1250 0.3750 (   781 PWs)   bands (ev):

    -4.6602   1.3076   3.6245   5.1143

          k = 0.3750 0.3750 0.3750 (   775 PWs)   bands (ev):

    -4.2327   0.0344   4.8106   4.8106

          k = 0.3750 0.1250 0.3750 (   781 PWs)   bands (ev):

    -4.6602   1.3076   3.6245   5.1143

          k = 0.3750 0.6250 0.3750 (   776 PWs)   bands (ev):

    -3.5355  -0.7466   3.6402   4.3518

          k =-0.6250 0.3750-0.3750 (   776 PWs)   bands (ev):

    -3.5355  -0.7466   3.6402   4.3518

          k =-0.6250 0.8750-0.3750 (   775 PWs)   bands (ev):

    -3.7224   0.1055   2.6448   4.0018

          k =-0.3750 0.6250-0.3750 (   776 PWs)   bands (ev):

    -3.5355  -0.7466   3.6402   4.3518

          k =-0.3750 1.1250-0.3750 (   773 PWs)   bands (ev):

    -3.0445  -0.6734   1.9997   4.0387

          k =-0.3750-0.6250-0.3750 (   776 PWs)   bands (ev):

    -3.5355  -0.7466   3.6402   4.3518

          k =-0.3750-0.1250-0.3750 (   781 PWs)   bands (ev):

    -4.6602   1.3076   3.6245   5.1143

          k =-0.3750 0.1250-0.1250 (   785 PWs)   bands (ev):

    -5.1536   2.6707   4.5952   4.6530

          k =-0.3750 0.6250-0.1250 (   775 PWs)   bands (ev):

    -3.7224   0.1055   2.6448   4.0018

          k =-0.1250 0.3750-0.1250 (   785 PWs)   bands (ev):

    -5.1536   2.6707   4.5952   4.6530

          k =-0.1250 0.8750-0.1250 (   766 PWs)   bands (ev):

    -2.6755  -0.8864   2.5483   3.2670

          k =-0.1250-0.3750-0.1250 (   785 PWs)   bands (ev):

    -5.1536   2.6707   4.5952   4.6530

          k =-0.1250 0.1250-0.1250 (   779 PWs)   bands (ev):

    -5.6764   4.2817   5.5916   5.5916

          k =-0.1250-0.6250 0.1250 (   777 PWs)   bands (ev):

    -4.1326   0.9642   3.2820   3.7297

          k =-0.1250-0.1250 0.1250 (   779 PWs)   bands (ev):

    -5.6764   4.2817   5.5916   5.5916

          k = 0.6250-0.1250-0.1250 (   777 PWs)   bands (ev):

    -4.1326   0.9642   3.2820   3.7297

          k = 0.6250 0.3750-0.1250 (   775 PWs)   bands (ev):

    -3.7224   0.1055   2.6448   4.0018

          k = 0.6250 0.1250 0.1250 (   777 PWs)   bands (ev):

    -4.1326   0.9642   3.2820   3.7297

          k = 0.6250 0.6250 0.1250 (   773 PWs)   bands (ev):

    -3.0445  -0.6734   1.9997   4.0387

          k =-0.8750 0.1250-0.6250 (   764 PWs)   bands (ev):

    -2.5121  -0.9814   1.9461   3.0102

          k =-0.8750 0.6250-0.6250 (   781 PWs)   bands (ev):

    -4.6602   1.3076   3.6245   5.1143

          k =-0.1250 0.6250-0.8750 (   764 PWs)   bands (ev):

    -2.5121  -0.9814   1.9461   3.0102

          k =-0.1250 1.1250-0.8750 (   766 PWs)   bands (ev):

    -2.6755  -0.8864   2.5483   3.2670

          k =-0.1250 0.8750-0.6250 (   764 PWs)   bands (ev):

    -2.5121  -0.9814   1.9461   3.0102

          k =-0.1250 1.3750-0.6250 (   773 PWs)   bands (ev):

    -3.0445  -0.6734   1.9997   4.0387

          k =-0.1250-0.8750-0.6250 (   764 PWs)   bands (ev):

    -2.5121  -0.9814   1.9461   3.0102

          k =-0.1250-0.3750-0.6250 (   775 PWs)   bands (ev):

    -3.7224   0.1055   2.6448   4.0018

          k = 0.8750-0.6250 0.1250 (   764 PWs)   bands (ev):

    -2.5121  -0.9814   1.9461   3.0102

          k = 0.8750-0.1250 0.1250 (   766 PWs)   bands (ev):

    -2.6755  -0.8864   2.5483   3.2670

          k =-0.6250-0.1250-0.3750 (   775 PWs)   bands (ev):

    -3.7224   0.1055   2.6448   4.0018

          k =-0.6250 0.3750-0.3750 (   776 PWs)   bands (ev):

    -3.5355  -0.7466   3.6402   4.3518

          k = 0.1250 0.3750-0.6250 (   775 PWs)   bands (ev):

    -3.7224   0.1055   2.6448   4.0018

          k = 0.1250 0.8750-0.6250 (   764 PWs)   bands (ev):

    -2.5121  -0.9814   1.9461   3.0102

          k = 0.1250 0.6250-0.3750 (   775 PWs)   bands (ev):

    -3.7224   0.1055   2.6448   4.0018

          k = 0.1250 1.1250-0.3750 (   764 PWs)   bands (ev):

    -2.5121  -0.9814   1.9461   3.0102

          k = 0.1250-0.6250-0.3750 (   775 PWs)   bands (ev):

    -3.7224   0.1055   2.6448   4.0018

          k = 0.1250-0.1250-0.3750 (   785 PWs)   bands (ev):

    -5.1536   2.6707   4.5952   4.6530

          k = 0.6250-0.3750-0.1250 (   775 PWs)   bands (ev):

    -3.7224   0.1055   2.6448   4.0018

          k = 0.6250 0.1250-0.1250 (   777 PWs)   bands (ev):

    -4.1326   0.9642   3.2820   3.7297

          k =-0.1250 0.8750 0.1250 (   766 PWs)   bands (ev):

    -2.6755  -0.8864   2.5483   3.2670

          k =-0.1250 1.3750 0.1250 (   777 PWs)   bands (ev):

    -4.1326   0.9642   3.2820   3.7297

          k =-0.8750-0.1250-0.1250 (   766 PWs)   bands (ev):

    -2.6755  -0.8864   2.5483   3.2670

          k =-0.8750 0.3750-0.1250 (   764 PWs)   bands (ev):

    -2.5121  -0.9814   1.9461   3.0102

          k =-0.8750 0.1250 0.1250 (   766 PWs)   bands (ev):

    -2.6755  -0.8864   2.5483   3.2670

          k =-0.8750 0.6250 0.1250 (   764 PWs)   bands (ev):

    -2.5121  -0.9814   1.9461   3.0102

          k =-0.3750-0.3750 0.3750 (   775 PWs)   bands (ev):

    -4.2327   0.0344   4.8106   4.8106

          k =-0.3750 0.1250 0.3750 (   781 PWs)   bands (ev):

    -4.6602   1.3076   3.6245   5.1143

          k =-1.1250 0.3750-0.3750 (   773 PWs)   bands (ev):

    -3.0445  -0.6734   1.9997   4.0387

          k =-1.1250 0.8750-0.3750 (   777 PWs)   bands (ev):

    -4.1326   0.9642   3.2820   3.7297

          k =-0.3750 1.1250-0.3750 (   773 PWs)   bands (ev):

    -3.0445  -0.6734   1.9997   4.0387

          k =-0.3750 1.6250-0.3750 (   775 PWs)   bands (ev):

    -4.2327   0.0344   4.8106   4.8106

          k =-0.3750-1.1250-0.3750 (   773 PWs)   bands (ev):

    -3.0445  -0.6734   1.9997   4.0387

          k =-0.3750-0.6250-0.3750 (   776 PWs)   bands (ev):

    -3.5355  -0.7466   3.6402   4.3518

     highest occupied level (ev):     5.5916

     Writing output data file silicon.10.370.save

                                                                                

     bravais-lattice index     =            2
     lattice parameter (alat)  =      10.3700  a.u.
     unit-cell volume          =     278.7894 (a.u.)^3
     number of atoms/cell      =            2
     number of atomic types    =            1
     kinetic-energy cut-off    =      30.0000  Ry
     charge density cut-off    =     240.0000  Ry
     convergence threshold     =      1.0E-12
     beta                      =       0.7000
     number of iterations used =            4
     Exchange-correlation      = SLA  PW   PBE  PBE ( 1  4  3  4 0 0)


     celldm(1)=   10.37000  celldm(2)=    0.00000  celldm(3)=    0.00000
     celldm(4)=    0.00000  celldm(5)=    0.00000  celldm(6)=    0.00000

     crystal axes: (cart. coord. in units of alat)
               a(1) = ( -0.5000  0.0000  0.5000 )  
               a(2) = (  0.0000  0.5000  0.5000 )  
               a(3) = ( -0.5000  0.5000  0.0000 )  

     reciprocal axes: (cart. coord. in units 2 pi/alat)
               b(1) = ( -1.0000 -1.0000  1.0000 )  
               b(2) = (  1.0000  1.0000  1.0000 )  
               b(3) = ( -1.0000  1.0000 -1.0000 )  


     Atoms inside the unit cell: 

     Cartesian axes

     site n.  atom      mass           positions (alat units)
        1     Si  28.0860   tau(    1) = (    0.00000    0.00000    0.00000  )
        2     Si  28.0860   tau(    2) = (    0.25000    0.25000    0.25000  )

     Computing dynamical matrix for 
                    q = (   0.0000000   0.5000000   0.0000000 )

      8 Sym.Ops. (no q -> -q+G )


     G cutoff =  653.7460  (   4369 G-vectors)     FFT grid: ( 40, 40, 40)
     G cutoff =  326.8730  (   1545 G-vectors)  smooth grid: ( 25, 25, 25)
     number of k points=    80

     PseudoPot. # 1 for Si read from file:
     /home/s1333534/quantum_espresso/qe-6.1/pseudo/si_pbe_v1.uspp.F.UPF.txt
     MD5 check sum: a056efeee980c13900f22a371efd63c1
     Pseudo is Ultrasoft + core correction, Zval =  4.0
     Generated by new atomic code, or converted to UPF format
     Using radial grid of  899 points,  6 beta functions with: 
                l(1) =   0
                l(2) =   0
                l(3) =   1
                l(4) =   1
                l(5) =   2
                l(6) =   2
     Q(r) pseudized with  8 coefficients,  rinner =    0.900   0.900   0.900
                                                       0.900   0.900

     Mode symmetry, C_4v (4mm)  point group:


     Atomic displacements:
     There are   4 irreducible representations

     Representation     1      1 modes -A_1  G_1 D_1  To be done

     Representation     2      1 modes -B_2  G_4 D_2'  To be done

     Representation     3      2 modes -E    G_5 D_5  To be done

     Representation     4      2 modes -E    G_5 D_5  To be done



     Alpha used in Ewald sum =   2.5000
     PHONON       :    40.73s CPU        54.51s WALL



     Representation #  1 mode #   1

     Self-consistent Calculation

      iter #   1 total cpu time :    54.9 secs   av.it.:   6.2
      thresh= 1.000E-02 alpha_mix =  0.700 |ddv_scf|^2 =  3.703E-04

      iter #   2 total cpu time :    55.4 secs   av.it.:   9.5
      thresh= 1.924E-03 alpha_mix =  0.700 |ddv_scf|^2 =  4.941E-03

      iter #   3 total cpu time :    55.8 secs   av.it.:   7.5
      thresh= 7.029E-03 alpha_mix =  0.700 |ddv_scf|^2 =  7.209E-09

      iter #   4 total cpu time :    56.5 secs   av.it.:  10.3
      thresh= 8.490E-06 alpha_mix =  0.700 |ddv_scf|^2 =  7.553E-10

      iter #   5 total cpu time :    57.1 secs   av.it.:   9.8
      thresh= 2.748E-06 alpha_mix =  0.700 |ddv_scf|^2 =  7.957E-11

      iter #   6 total cpu time :    57.5 secs   av.it.:   9.6
      thresh= 8.920E-07 alpha_mix =  0.700 |ddv_scf|^2 =  2.153E-13

     End of self-consistent calculation

     Convergence has been achieved 


     Representation #  2 mode #   2

     Self-consistent Calculation

      iter #   1 total cpu time :    58.0 secs   av.it.:   5.1
      thresh= 1.000E-02 alpha_mix =  0.700 |ddv_scf|^2 =  5.885E-07

      iter #   2 total cpu time :    58.5 secs   av.it.:  10.6
      thresh= 7.671E-05 alpha_mix =  0.700 |ddv_scf|^2 =  1.643E-07

      iter #   3 total cpu time :    59.0 secs   av.it.:  10.2
      thresh= 4.054E-05 alpha_mix =  0.700 |ddv_scf|^2 =  1.687E-09

      iter #   4 total cpu time :    59.5 secs   av.it.:  10.2
      thresh= 4.108E-06 alpha_mix =  0.700 |ddv_scf|^2 =  6.786E-11

      iter #   5 total cpu time :    60.0 secs   av.it.:  10.5
      thresh= 8.238E-07 alpha_mix =  0.700 |ddv_scf|^2 =  3.891E-13

     End of self-consistent calculation

     Convergence has been achieved 


     Representation #  3 modes #   3  4

     Self-consistent Calculation

      iter #   1 total cpu time :    60.7 secs   av.it.:   5.2
      thresh= 1.000E-02 alpha_mix =  0.700 |ddv_scf|^2 =  1.041E-07

      iter #   2 total cpu time :    61.8 secs   av.it.:  11.7
      thresh= 3.227E-05 alpha_mix =  0.700 |ddv_scf|^2 =  1.437E-08

      iter #   3 total cpu time :    63.0 secs   av.it.:  11.3
      thresh= 1.199E-05 alpha_mix =  0.700 |ddv_scf|^2 =  2.420E-10

      iter #   4 total cpu time :    63.9 secs   av.it.:  10.8
      thresh= 1.555E-06 alpha_mix =  0.700 |ddv_scf|^2 =  5.759E-13

     End of self-consistent calculation

     Convergence has been achieved 


     Representation #  4 modes #   5  6

     Self-consistent Calculation

      iter #   1 total cpu time :    64.7 secs   av.it.:   5.3
      thresh= 1.000E-02 alpha_mix =  0.700 |ddv_scf|^2 =  9.542E-08

      iter #   2 total cpu time :    65.7 secs   av.it.:  11.6
      thresh= 3.089E-05 alpha_mix =  0.700 |ddv_scf|^2 =  1.283E-08

      iter #   3 total cpu time :    66.9 secs   av.it.:  11.4
      thresh= 1.133E-05 alpha_mix =  0.700 |ddv_scf|^2 =  2.471E-10

      iter #   4 total cpu time :    67.8 secs   av.it.:  11.1
      thresh= 1.572E-06 alpha_mix =  0.700 |ddv_scf|^2 =  6.154E-13

     End of self-consistent calculation

     Convergence has been achieved 

     Number of q in the star =    6
     List of q in the star:
          1   0.000000000   0.500000000   0.000000000
          2   0.000000000  -0.500000000   0.000000000
          3   0.500000000   0.000000000   0.000000000
          4   0.000000000   0.000000000   0.500000000
          5   0.000000000   0.000000000  -0.500000000
          6  -0.500000000   0.000000000   0.000000000

     Diagonalizing the dynamical matrix

     q = (    0.000000000   0.500000000   0.000000000 ) 

 **************************************************************************
     freq (    1) =       3.790195 [THz] =     126.427295 [cm-1]
     freq (    2) =       3.790195 [THz] =     126.427295 [cm-1]
     freq (    3) =       6.978773 [THz] =     232.786804 [cm-1]
     freq (    4) =      13.635541 [THz] =     454.832677 [cm-1]
     freq (    5) =      13.635541 [THz] =     454.832677 [cm-1]
     freq (    6) =      14.306413 [THz] =     477.210574 [cm-1]
 **************************************************************************

     Mode symmetry, C_4v (4mm)  point group:

     freq (  1 -  2) =        126.4  [cm-1]   --> E    G_5 D_5       
     freq (  3 -  3) =        232.8  [cm-1]   --> A_1  G_1 D_1       
     freq (  4 -  5) =        454.8  [cm-1]   --> E    G_5 D_5       
     freq (  6 -  6) =        477.2  [cm-1]   --> B_2  G_4 D_2'      

     Calculation of q =    0.7500000  -0.2500000   0.7500000

   Info: using nr1, nr2, nr3 values from input

   Info: using nr1, nr2, nr3 values from input

     Parallelization info
     --------------------
     sticks:   dense  smooth     PW     G-vecs:    dense   smooth      PW
     Min         222     109     42                 4369     1545     367
     Max         223     110     43                 4370     1547     368
     Sum         889     439    169                17477     6183    1471



     bravais-lattice index     =            2
     lattice parameter (alat)  =      10.3700  a.u.
     unit-cell volume          =     278.7894 (a.u.)^3
     number of atoms/cell      =            2
     number of atomic types    =            1
     number of electrons       =         8.00
     number of Kohn-Sham states=            4
     kinetic-energy cutoff     =      30.0000  Ry
     charge density cutoff     =     240.0000  Ry
     Exchange-correlation      = SLA  PW   PBE  PBE ( 1  4  3  4 0 0)

     celldm(1)=  10.370000  celldm(2)=   0.000000  celldm(3)=   0.000000
     celldm(4)=   0.000000  celldm(5)=   0.000000  celldm(6)=   0.000000

     crystal axes: (cart. coord. in units of alat)
               a(1) = (  -0.500000   0.000000   0.500000 )  
               a(2) = (   0.000000   0.500000   0.500000 )  
               a(3) = (  -0.500000   0.500000   0.000000 )  

     reciprocal axes: (cart. coord. in units 2 pi/alat)
               b(1) = ( -1.000000 -1.000000  1.000000 )  
               b(2) = (  1.000000  1.000000  1.000000 )  
               b(3) = ( -1.000000  1.000000 -1.000000 )  


     PseudoPot. # 1 for Si read from file:
     /home/s1333534/quantum_espresso/qe-6.1/pseudo/si_pbe_v1.uspp.F.UPF.txt
     MD5 check sum: a056efeee980c13900f22a371efd63c1
     Pseudo is Ultrasoft + core correction, Zval =  4.0
     Generated by new atomic code, or converted to UPF format
     Using radial grid of  899 points,  6 beta functions with: 
                l(1) =   0
                l(2) =   0
                l(3) =   1
                l(4) =   1
                l(5) =   2
                l(6) =   2
     Q(r) pseudized with  8 coefficients,  rinner =    0.900   0.900   0.900
                                                       0.900   0.900

     atomic species   valence    mass     pseudopotential
        Si             4.00    28.08600     Si( 1.00)

     48 Sym. Ops., with inversion, found



   Cartesian axes

     site n.     atom                  positions (alat units)
         1           Si  tau(   1) = (   0.0000000   0.0000000   0.0000000  )
         2           Si  tau(   2) = (   0.2500000   0.2500000   0.2500000  )

     number of k points=   288

     Number of k-points >= 100: set verbosity='high' to print them.

     Dense  grid:    17477 G-vectors     FFT dimensions: (  40,  40,  40)

     Smooth grid:     6183 G-vectors     FFT dimensions: (  25,  25,  25)

     Estimated max dynamical RAM per process >       1.79MB

     Estimated total allocated dynamical RAM >       7.17MB

     The potential is recalculated from file :
     ./_ph0/silicon.10.370.save/charge-density.dat

     Starting wfc are    8 atomic wfcs

     Band Structure Calculation
     Davidson diagonalization with overlap

     ethr =  1.25E-10,  avg # of iterations = 12.1

     total cpu time spent up to now is        7.0 secs

     End of band structure calculation

     Number of k-points >= 100: set verbosity='high' to print the bands.

     highest occupied level (ev):     5.5916

     Writing output data file silicon.10.370.save

                                                                                

     bravais-lattice index     =            2
     lattice parameter (alat)  =      10.3700  a.u.
     unit-cell volume          =     278.7894 (a.u.)^3
     number of atoms/cell      =            2
     number of atomic types    =            1
     kinetic-energy cut-off    =      30.0000  Ry
     charge density cut-off    =     240.0000  Ry
     convergence threshold     =      1.0E-12
     beta                      =       0.7000
     number of iterations used =            4
     Exchange-correlation      = SLA  PW   PBE  PBE ( 1  4  3  4 0 0)


     celldm(1)=   10.37000  celldm(2)=    0.00000  celldm(3)=    0.00000
     celldm(4)=    0.00000  celldm(5)=    0.00000  celldm(6)=    0.00000

     crystal axes: (cart. coord. in units of alat)
               a(1) = ( -0.5000  0.0000  0.5000 )  
               a(2) = (  0.0000  0.5000  0.5000 )  
               a(3) = ( -0.5000  0.5000  0.0000 )  

     reciprocal axes: (cart. coord. in units 2 pi/alat)
               b(1) = ( -1.0000 -1.0000  1.0000 )  
               b(2) = (  1.0000  1.0000  1.0000 )  
               b(3) = ( -1.0000  1.0000 -1.0000 )  


     Atoms inside the unit cell: 

     Cartesian axes

     site n.  atom      mass           positions (alat units)
        1     Si  28.0860   tau(    1) = (    0.00000    0.00000    0.00000  )
        2     Si  28.0860   tau(    2) = (    0.25000    0.25000    0.25000  )

     Computing dynamical matrix for 
                    q = (   0.7500000  -0.2500000   0.7500000 )

      2 Sym.Ops. (no q -> -q+G )


     G cutoff =  653.7460  (   4369 G-vectors)     FFT grid: ( 40, 40, 40)
     G cutoff =  326.8730  (   1547 G-vectors)  smooth grid: ( 25, 25, 25)
     number of k points=   288

     PseudoPot. # 1 for Si read from file:
     /home/s1333534/quantum_espresso/qe-6.1/pseudo/si_pbe_v1.uspp.F.UPF.txt
     MD5 check sum: a056efeee980c13900f22a371efd63c1
     Pseudo is Ultrasoft + core correction, Zval =  4.0
     Generated by new atomic code, or converted to UPF format
     Using radial grid of  899 points,  6 beta functions with: 
                l(1) =   0
                l(2) =   0
                l(3) =   1
                l(4) =   1
                l(5) =   2
                l(6) =   2
     Q(r) pseudized with  8 coefficients,  rinner =    0.900   0.900   0.900
                                                       0.900   0.900

     Mode symmetry, C_s (m)     point group:


     Atomic displacements:
     There are   6 irreducible representations

     Representation     1      1 modes -A'  To be done

     Representation     2      1 modes -A'  To be done

     Representation     3      1 modes -A'  To be done

     Representation     4      1 modes -A'  To be done

     Representation     5      1 modes -A''  To be done

     Representation     6      1 modes -A''  To be done



     Alpha used in Ewald sum =   2.5000
     PHONON       :  0m55.37s CPU     1m13.36s WALL



     Representation #  1 mode #   1

     Self-consistent Calculation

      iter #   1 total cpu time :    74.3 secs   av.it.:   5.6
      thresh= 1.000E-02 alpha_mix =  0.700 |ddv_scf|^2 =  7.560E-06

      iter #   2 total cpu time :    75.9 secs   av.it.:  10.7
      thresh= 2.750E-04 alpha_mix =  0.700 |ddv_scf|^2 =  2.033E-05

      iter #   3 total cpu time :    77.2 secs   av.it.:   9.4
      thresh= 4.509E-04 alpha_mix =  0.700 |ddv_scf|^2 =  1.359E-07

      iter #   4 total cpu time :    78.5 secs   av.it.:  10.1
      thresh= 3.687E-05 alpha_mix =  0.700 |ddv_scf|^2 =  2.752E-09

      iter #   5 total cpu time :    79.9 secs   av.it.:  10.7
      thresh= 5.246E-06 alpha_mix =  0.700 |ddv_scf|^2 =  4.654E-10

      iter #   6 total cpu time :    81.3 secs   av.it.:  10.6
      thresh= 2.157E-06 alpha_mix =  0.700 |ddv_scf|^2 =  7.491E-12

      iter #   7 total cpu time :    82.6 secs   av.it.:  10.7
      thresh= 2.737E-07 alpha_mix =  0.700 |ddv_scf|^2 =  2.893E-13

     End of self-consistent calculation

     Convergence has been achieved 


     Representation #  2 mode #   2

     Self-consistent Calculation

      iter #   1 total cpu time :    83.7 secs   av.it.:   5.8
      thresh= 1.000E-02 alpha_mix =  0.700 |ddv_scf|^2 =  1.351E-05

      iter #   2 total cpu time :    85.1 secs   av.it.:  10.6
      thresh= 3.675E-04 alpha_mix =  0.700 |ddv_scf|^2 =  3.934E-05

      iter #   3 total cpu time :    86.4 secs   av.it.:   9.2
      thresh= 6.273E-04 alpha_mix =  0.700 |ddv_scf|^2 =  9.317E-08

      iter #   4 total cpu time :    87.8 secs   av.it.:  10.4
      thresh= 3.052E-05 alpha_mix =  0.700 |ddv_scf|^2 =  3.113E-09

      iter #   5 total cpu time :    89.2 secs   av.it.:  10.6
      thresh= 5.579E-06 alpha_mix =  0.700 |ddv_scf|^2 =  6.330E-10

      iter #   6 total cpu time :    90.7 secs   av.it.:  10.5
      thresh= 2.516E-06 alpha_mix =  0.700 |ddv_scf|^2 =  6.659E-12

      iter #   7 total cpu time :    92.1 secs   av.it.:  10.8
      thresh= 2.581E-07 alpha_mix =  0.700 |ddv_scf|^2 =  2.412E-13

     End of self-consistent calculation

     Convergence has been achieved 


     Representation #  3 mode #   3

     Self-consistent Calculation

      iter #   1 total cpu time :    93.2 secs   av.it.:   5.7
      thresh= 1.000E-02 alpha_mix =  0.700 |ddv_scf|^2 =  1.058E-05

      iter #   2 total cpu time :    94.6 secs   av.it.:  10.7
      thresh= 3.253E-04 alpha_mix =  0.700 |ddv_scf|^2 =  2.891E-05

      iter #   3 total cpu time :    95.9 secs   av.it.:   9.2
      thresh= 5.377E-04 alpha_mix =  0.700 |ddv_scf|^2 =  1.621E-07

      iter #   4 total cpu time :    97.2 secs   av.it.:  10.1
      thresh= 4.026E-05 alpha_mix =  0.700 |ddv_scf|^2 =  3.171E-09

      iter #   5 total cpu time :    98.6 secs   av.it.:  10.7
      thresh= 5.631E-06 alpha_mix =  0.700 |ddv_scf|^2 =  6.218E-10

      iter #   6 total cpu time :   100.0 secs   av.it.:  10.5
      thresh= 2.494E-06 alpha_mix =  0.700 |ddv_scf|^2 =  4.639E-12

      iter #   7 total cpu time :   101.3 secs   av.it.:  10.7
      thresh= 2.154E-07 alpha_mix =  0.700 |ddv_scf|^2 =  1.372E-13

     End of self-consistent calculation

     Convergence has been achieved 


     Representation #  4 mode #   4

     Self-consistent Calculation

      iter #   1 total cpu time :   102.4 secs   av.it.:   5.5
      thresh= 1.000E-02 alpha_mix =  0.700 |ddv_scf|^2 =  4.626E-06

      iter #   2 total cpu time :   103.8 secs   av.it.:  10.9
      thresh= 2.151E-04 alpha_mix =  0.700 |ddv_scf|^2 =  9.875E-06

      iter #   3 total cpu time :   105.1 secs   av.it.:   9.7
      thresh= 3.142E-04 alpha_mix =  0.700 |ddv_scf|^2 =  2.135E-07

      iter #   4 total cpu time :   106.4 secs   av.it.:  10.0
      thresh= 4.621E-05 alpha_mix =  0.700 |ddv_scf|^2 =  2.719E-09

      iter #   5 total cpu time :   107.8 secs   av.it.:  10.7
      thresh= 5.214E-06 alpha_mix =  0.700 |ddv_scf|^2 =  5.081E-10

      iter #   6 total cpu time :   109.7 secs   av.it.:  10.5
      thresh= 2.254E-06 alpha_mix =  0.700 |ddv_scf|^2 =  3.139E-12

      iter #   7 total cpu time :   111.0 secs   av.it.:  10.8
      thresh= 1.772E-07 alpha_mix =  0.700 |ddv_scf|^2 =  1.481E-13

     End of self-consistent calculation

     Convergence has been achieved 


     Representation #  5 mode #   5

     Self-consistent Calculation

      iter #   1 total cpu time :   112.3 secs   av.it.:   5.2
      thresh= 1.000E-02 alpha_mix =  0.700 |ddv_scf|^2 =  4.810E-07

      iter #   2 total cpu time :   113.7 secs   av.it.:  10.4
      thresh= 6.935E-05 alpha_mix =  0.700 |ddv_scf|^2 =  7.858E-08

      iter #   3 total cpu time :   115.1 secs   av.it.:  10.2
      thresh= 2.803E-05 alpha_mix =  0.700 |ddv_scf|^2 =  1.047E-09

      iter #   4 total cpu time :   116.5 secs   av.it.:   9.8
      thresh= 3.235E-06 alpha_mix =  0.700 |ddv_scf|^2 =  2.477E-12

      iter #   5 total cpu time :   117.8 secs   av.it.:  10.3
      thresh= 1.574E-07 alpha_mix =  0.700 |ddv_scf|^2 =  7.035E-14

     End of self-consistent calculation

     Convergence has been achieved 


     Representation #  6 mode #   6

     Self-consistent Calculation

      iter #   1 total cpu time :   118.9 secs   av.it.:   5.2
      thresh= 1.000E-02 alpha_mix =  0.700 |ddv_scf|^2 =  4.810E-07

      iter #   2 total cpu time :   120.2 secs   av.it.:  10.4
[...]
        k(   59) = (  -0.8750000   0.1250000  -0.1250000), wk =   0.0625000
        k(   60) = (  -1.3750000  -0.8750000  -0.1250000), wk =   0.0000000
        k(   61) = (  -1.1250000   0.3750000  -0.3750000), wk =   0.0625000
        k(   62) = (  -1.6250000  -0.6250000  -0.3750000), wk =   0.0000000
        k(   63) = (  -0.3750000   0.3750000   1.1250000), wk =   0.0625000
        k(   64) = (  -0.8750000  -0.6250000   1.1250000), wk =   0.0000000

     Dense  grid:    17477 G-vectors     FFT dimensions: (  40,  40,  40)

     Smooth grid:     6183 G-vectors     FFT dimensions: (  25,  25,  25)

     Estimated max dynamical RAM per process >       1.79MB

     Estimated total allocated dynamical RAM >       7.17MB

     The potential is recalculated from file :
     ./_ph0/silicon.10.370.save/charge-density.dat

     Starting wfc are    8 atomic wfcs

     Band Structure Calculation
     Davidson diagonalization with overlap

     ethr =  1.25E-10,  avg # of iterations = 12.1

     total cpu time spent up to now is       11.0 secs

     End of band structure calculation

          k =-0.1250 0.1250 0.1250 (   779 PWs)   bands (ev):

    -5.6764   4.2817   5.5916   5.5916

          k =-0.6250-0.8750 0.1250 (   764 PWs)   bands (ev):

    -2.5121  -0.9814   1.9461   3.0102

          k =-0.3750 0.3750-0.1250 (   781 PWs)   bands (ev):

    -4.6602   1.3076   3.6245   5.1143

          k =-0.8750-0.6250-0.1250 (   764 PWs)   bands (ev):

    -2.5121  -0.9814   1.9461   3.0102

          k = 0.3750-0.3750 0.6250 (   776 PWs)   bands (ev):

    -3.5355  -0.7466   3.6402   4.3518

          k =-0.1250-1.3750 0.6250 (   773 PWs)   bands (ev):

    -3.0445  -0.6734   1.9997   4.0387

          k = 0.1250-0.1250 0.3750 (   785 PWs)   bands (ev):

    -5.1536   2.6707   4.5952   4.6530

          k =-0.3750-1.1250 0.3750 (   773 PWs)   bands (ev):

    -3.0445  -0.6734   1.9997   4.0387

          k =-0.1250 0.6250 0.1250 (   777 PWs)   bands (ev):

    -4.1326   0.9642   3.2820   3.7297

          k =-0.6250-0.3750 0.1250 (   775 PWs)   bands (ev):

    -3.7224   0.1055   2.6448   4.0018

          k = 0.6250-0.1250 0.8750 (   764 PWs)   bands (ev):

    -2.5121  -0.9814   1.9461   3.0102

          k = 0.1250-1.1250 0.8750 (   766 PWs)   bands (ev):

    -2.6755  -0.8864   2.5483   3.2670

          k = 0.3750 0.1250 0.6250 (   775 PWs)   bands (ev):

    -3.7224   0.1055   2.6448   4.0018

          k =-0.1250-0.8750 0.6250 (   764 PWs)   bands (ev):

    -2.5121  -0.9814   1.9461   3.0102

          k =-0.1250-0.8750 0.1250 (   766 PWs)   bands (ev):

    -2.6755  -0.8864   2.5483   3.2670

          k =-0.6250-1.8750 0.1250 (   777 PWs)   bands (ev):

    -4.1326   0.9642   3.2820   3.7297

          k =-0.3750 0.3750 0.3750 (   775 PWs)   bands (ev):

    -4.2327   0.0344   4.8106   4.8106

          k =-0.8750-0.6250 0.3750 (   775 PWs)   bands (ev):

    -3.7224   0.1055   2.6448   4.0018

          k = 0.3750-0.3750 1.1250 (   773 PWs)   bands (ev):

    -3.0445  -0.6734   1.9997   4.0387

          k =-0.1250-1.3750 1.1250 (   764 PWs)   bands (ev):

    -2.5121  -0.9814   1.9461   3.0102

          k = 0.1250-0.3750 0.3750 (   781 PWs)   bands (ev):

    -4.6602   1.3076   3.6245   5.1143

          k =-0.3750-1.3750 0.3750 (   776 PWs)   bands (ev):

    -3.5355  -0.7466   3.6402   4.3518

          k = 0.3750-0.3750-0.1250 (   781 PWs)   bands (ev):

    -4.6602   1.3076   3.6245   5.1143

          k =-0.1250-1.3750-0.1250 (   777 PWs)   bands (ev):

    -4.1326   0.9642   3.2820   3.7297

          k =-0.6250 0.3750-0.3750 (   776 PWs)   bands (ev):

    -3.5355  -0.7466   3.6402   4.3518

          k =-1.1250-0.6250-0.3750 (   775 PWs)   bands (ev):

    -3.7224   0.1055   2.6448   4.0018

          k =-0.3750 0.3750 0.6250 (   776 PWs)   bands (ev):

    -3.5355  -0.7466   3.6402   4.3518

          k =-0.8750-0.6250 0.6250 (   781 PWs)   bands (ev):

    -4.6602   1.3076   3.6245   5.1143

          k =-0.3750 0.1250-0.1250 (   785 PWs)   bands (ev):

    -5.1536   2.6707   4.5952   4.6530

          k =-0.8750-0.8750-0.1250 (   766 PWs)   bands (ev):

    -2.6755  -0.8864   2.5483   3.2670

          k =-0.1250 0.1250 0.3750 (   785 PWs)   bands (ev):

    -5.1536   2.6707   4.5952   4.6530

          k =-0.6250-0.8750 0.3750 (   775 PWs)   bands (ev):

    -3.7224   0.1055   2.6448   4.0018

          k = 0.1250 0.6250-0.1250 (   777 PWs)   bands (ev):

    -4.1326   0.9642   3.2820   3.7297

          k =-0.3750-0.3750-0.1250 (   781 PWs)   bands (ev):

    -4.6602   1.3076   3.6245   5.1143

          k = 0.6250 0.1250-0.1250 (   777 PWs)   bands (ev):

    -4.1326   0.9642   3.2820   3.7297

          k = 0.1250-0.8750-0.1250 (   766 PWs)   bands (ev):

    -2.6755  -0.8864   2.5483   3.2670

          k =-0.8750 0.1250-0.6250 (   764 PWs)   bands (ev):

    -2.5121  -0.9814   1.9461   3.0102

          k =-1.3750-0.8750-0.6250 (   781 PWs)   bands (ev):

    -4.6602   1.3076   3.6245   5.1143

          k = 0.8750-0.1250 0.6250 (   764 PWs)   bands (ev):

    -2.5121  -0.9814   1.9461   3.0102

          k = 0.3750-1.1250 0.6250 (   775 PWs)   bands (ev):

    -3.7224   0.1055   2.6448   4.0018

          k =-0.6250 0.1250 0.8750 (   764 PWs)   bands (ev):

    -2.5121  -0.9814   1.9461   3.0102

          k =-1.1250-0.8750 0.8750 (   779 PWs)   bands (ev):

    -5.6764   4.2817   5.5916   5.5916

          k =-0.1250 0.8750 0.6250 (   764 PWs)   bands (ev):

    -2.5121  -0.9814   1.9461   3.0102

          k =-0.6250-0.1250 0.6250 (   773 PWs)   bands (ev):

    -3.0445  -0.6734   1.9997   4.0387

          k = 0.1250 0.8750-0.6250 (   764 PWs)   bands (ev):

    -2.5121  -0.9814   1.9461   3.0102

          k =-0.3750-0.1250-0.6250 (   775 PWs)   bands (ev):

    -3.7224   0.1055   2.6448   4.0018

          k =-0.6250-0.1250-0.3750 (   775 PWs)   bands (ev):

    -3.7224   0.1055   2.6448   4.0018

          k =-1.1250-1.1250-0.3750 (   777 PWs)   bands (ev):

    -4.1326   0.9642   3.2820   3.7297

          k = 0.6250 0.1250 0.3750 (   775 PWs)   bands (ev):

    -3.7224   0.1055   2.6448   4.0018

          k = 0.1250-0.8750 0.3750 (   764 PWs)   bands (ev):

    -2.5121  -0.9814   1.9461   3.0102

          k =-0.3750-0.1250 0.6250 (   775 PWs)   bands (ev):

    -3.7224   0.1055   2.6448   4.0018

          k =-0.8750-1.1250 0.6250 (   785 PWs)   bands (ev):

    -5.1536   2.6707   4.5952   4.6530

          k = 0.1250 0.6250 0.3750 (   775 PWs)   bands (ev):

    -3.7224   0.1055   2.6448   4.0018

          k =-0.3750-0.3750 0.3750 (   775 PWs)   bands (ev):

    -4.2327   0.0344   4.8106   4.8106

          k =-0.1250 0.6250-0.3750 (   775 PWs)   bands (ev):

    -3.7224   0.1055   2.6448   4.0018

          k =-0.6250-0.3750-0.3750 (   776 PWs)   bands (ev):

    -3.5355  -0.7466   3.6402   4.3518

          k = 0.1250-0.8750-0.1250 (   766 PWs)   bands (ev):

    -2.6755  -0.8864   2.5483   3.2670

          k =-0.3750-1.8750-0.1250 (   785 PWs)   bands (ev):

    -5.1536   2.6707   4.5952   4.6530

          k =-0.8750 0.1250-0.1250 (   766 PWs)   bands (ev):

    -2.6755  -0.8864   2.5483   3.2670

          k =-1.3750-0.8750-0.1250 (   764 PWs)   bands (ev):

    -2.5121  -0.9814   1.9461   3.0102

          k =-1.1250 0.3750-0.3750 (   773 PWs)   bands (ev):

    -3.0445  -0.6734   1.9997   4.0387

          k =-1.6250-0.6250-0.3750 (   776 PWs)   bands (ev):

    -3.5355  -0.7466   3.6402   4.3518

          k =-0.3750 0.3750 1.1250 (   773 PWs)   bands (ev):

    -3.0445  -0.6734   1.9997   4.0387

          k =-0.8750-0.6250 1.1250 (   785 PWs)   bands (ev):

    -5.1536   2.6707   4.5952   4.6530

     highest occupied level (ev):     5.5916

     Writing output data file silicon.10.370.save

                                                                                

     bravais-lattice index     =            2
     lattice parameter (alat)  =      10.3700  a.u.
     unit-cell volume          =     278.7894 (a.u.)^3
     number of atoms/cell      =            2
     number of atomic types    =            1
     kinetic-energy cut-off    =      30.0000  Ry
     charge density cut-off    =     240.0000  Ry
     convergence threshold     =      1.0E-12
     beta                      =       0.7000
     number of iterations used =            4
     Exchange-correlation      = SLA  PW   PBE  PBE ( 1  4  3  4 0 0)


     celldm(1)=   10.37000  celldm(2)=    0.00000  celldm(3)=    0.00000
     celldm(4)=    0.00000  celldm(5)=    0.00000  celldm(6)=    0.00000

     crystal axes: (cart. coord. in units of alat)
               a(1) = ( -0.5000  0.0000  0.5000 )  
               a(2) = (  0.0000  0.5000  0.5000 )  
               a(3) = ( -0.5000  0.5000  0.0000 )  

     reciprocal axes: (cart. coord. in units 2 pi/alat)
               b(1) = ( -1.0000 -1.0000  1.0000 )  
               b(2) = (  1.0000  1.0000  1.0000 )  
               b(3) = ( -1.0000  1.0000 -1.0000 )  


     Atoms inside the unit cell: 

     Cartesian axes

     site n.  atom      mass           positions (alat units)
        1     Si  28.0860   tau(    1) = (    0.00000    0.00000    0.00000  )
        2     Si  28.0860   tau(    2) = (    0.25000    0.25000    0.25000  )

     Computing dynamical matrix for 
                    q = (  -0.5000000  -1.0000000   0.0000000 )

      8 Sym.Ops. (no q -> -q+G )


     G cutoff =  653.7460  (   4369 G-vectors)     FFT grid: ( 40, 40, 40)
     G cutoff =  326.8730  (   1546 G-vectors)  smooth grid: ( 25, 25, 25)
     number of k points=    64

     PseudoPot. # 1 for Si read from file:
     /home/s1333534/quantum_espresso/qe-6.1/pseudo/si_pbe_v1.uspp.F.UPF.txt
     MD5 check sum: a056efeee980c13900f22a371efd63c1
     Pseudo is Ultrasoft + core correction, Zval =  4.0
     Generated by new atomic code, or converted to UPF format
     Using radial grid of  899 points,  6 beta functions with: 
                l(1) =   0
                l(2) =   0
                l(3) =   1
                l(4) =   1
                l(5) =   2
                l(6) =   2
     Q(r) pseudized with  8 coefficients,  rinner =    0.900   0.900   0.900
                                                       0.900   0.900


     Atomic displacements:
     There are   3 irreducible representations

     Representation     1      2 modes -  To be done

     Representation     2      2 modes -  To be done

     Representation     3      2 modes -  To be done



     Alpha used in Ewald sum =   2.5000
     PHONON       :  2m 9.67s CPU     2m44.60s WALL



     Representation #  1 modes #   1  2

     Self-consistent Calculation

      iter #   1 total cpu time :   165.3 secs   av.it.:   5.7
      thresh= 1.000E-02 alpha_mix =  0.700 |ddv_scf|^2 =  7.798E-07

      iter #   2 total cpu time :   166.2 secs   av.it.:  11.8
      thresh= 8.831E-05 alpha_mix =  0.700 |ddv_scf|^2 =  4.405E-07

      iter #   3 total cpu time :   167.0 secs   av.it.:  11.3
      thresh= 6.637E-05 alpha_mix =  0.700 |ddv_scf|^2 =  4.272E-10

      iter #   4 total cpu time :   167.9 secs   av.it.:  11.1
      thresh= 2.067E-06 alpha_mix =  0.700 |ddv_scf|^2 =  1.927E-12

      iter #   5 total cpu time :   168.7 secs   av.it.:  11.3
      thresh= 1.388E-07 alpha_mix =  0.700 |ddv_scf|^2 =  5.067E-14

     End of self-consistent calculation

     Convergence has been achieved 


     Representation #  2 modes #   3  4

     Self-consistent Calculation

      iter #   1 total cpu time :   169.5 secs   av.it.:   5.6
      thresh= 1.000E-02 alpha_mix =  0.700 |ddv_scf|^2 =  1.215E-06

      iter #   2 total cpu time :   170.4 secs   av.it.:  11.8
      thresh= 1.102E-04 alpha_mix =  0.700 |ddv_scf|^2 =  1.666E-06

      iter #   3 total cpu time :   171.2 secs   av.it.:  11.0
      thresh= 1.291E-04 alpha_mix =  0.700 |ddv_scf|^2 =  5.116E-10

      iter #   4 total cpu time :   172.1 secs   av.it.:  11.1
      thresh= 2.262E-06 alpha_mix =  0.700 |ddv_scf|^2 =  8.507E-12

      iter #   5 total cpu time :   172.9 secs   av.it.:  11.3
      thresh= 2.917E-07 alpha_mix =  0.700 |ddv_scf|^2 =  1.347E-13

     End of self-consistent calculation

     Convergence has been achieved 


     Representation #  3 modes #   5  6

     Self-consistent Calculation

      iter #   1 total cpu time :   173.6 secs   av.it.:   5.3
      thresh= 1.000E-02 alpha_mix =  0.700 |ddv_scf|^2 =  3.170E-07

      iter #   2 total cpu time :   174.6 secs   av.it.:  11.8
      thresh= 5.630E-05 alpha_mix =  0.700 |ddv_scf|^2 =  1.849E-07

      iter #   3 total cpu time :   175.4 secs   av.it.:  11.2
      thresh= 4.300E-05 alpha_mix =  0.700 |ddv_scf|^2 =  3.693E-10

      iter #   4 total cpu time :   176.3 secs   av.it.:  11.1
      thresh= 1.922E-06 alpha_mix =  0.700 |ddv_scf|^2 =  4.457E-12

      iter #   5 total cpu time :   177.1 secs   av.it.:  11.2
      thresh= 2.111E-07 alpha_mix =  0.700 |ddv_scf|^2 =  6.051E-14

     End of self-consistent calculation

     Convergence has been achieved 

     Number of q in the star =    6
     List of q in the star:
          1  -0.500000000  -1.000000000   0.000000000
          2   0.000000000   1.000000000   0.500000000
          3   0.000000000  -1.000000000  -0.500000000
          4   0.500000000   1.000000000   0.000000000
          5  -1.000000000  -0.500000000   0.000000000
          6   0.000000000  -0.500000000  -1.000000000

     Diagonalizing the dynamical matrix

     q = (   -0.500000000  -1.000000000   0.000000000 ) 

 **************************************************************************
     freq (    1) =       6.045958 [THz] =     201.671467 [cm-1]
     freq (    2) =       6.045958 [THz] =     201.671467 [cm-1]
     freq (    3) =      10.196516 [THz] =     340.119152 [cm-1]
     freq (    4) =      10.196516 [THz] =     340.119152 [cm-1]
     freq (    5) =      13.343517 [THz] =     445.091824 [cm-1]
     freq (    6) =      13.343517 [THz] =     445.091824 [cm-1]
 **************************************************************************

     init_run     :      1.28s CPU      1.32s WALL (       7 calls)
     electrons    :      7.37s CPU      7.97s WALL (       7 calls)

     Called by init_run:
     wfcinit      :      0.00s CPU      0.02s WALL (       7 calls)
     potinit      :      0.10s CPU      0.11s WALL (       7 calls)

     Called by electrons:
     c_bands      :      7.37s CPU      7.96s WALL (       7 calls)
     v_of_rho     :      0.09s CPU      0.09s WALL (       8 calls)
     newd         :      0.12s CPU      0.12s WALL (       8 calls)

     Called by c_bands:
     init_us_2    :      1.64s CPU      1.57s WALL (   15896 calls)
     cegterg      :      6.18s CPU      6.66s WALL (     796 calls)

     Called by sum_band:

     Called by *egterg:
     h_psi        :     71.61s CPU     76.69s WALL (  154772 calls)
     s_psi        :      6.00s CPU      6.98s WALL (  311802 calls)
     g_psi        :      0.05s CPU      0.07s WALL (    9666 calls)
     cdiaghg      :      0.56s CPU      0.56s WALL (   10462 calls)

     Called by h_psi:
     h_psi:pot    :     71.16s CPU     76.17s WALL (  154772 calls)
     h_psi:calbec :      3.52s CPU      4.04s WALL (  154772 calls)
     vloc_psi     :     63.09s CPU     67.96s WALL (  154772 calls)
     add_vuspsi   :      4.18s CPU      3.68s WALL (  154772 calls)

     General routines
     calbec       :      8.20s CPU      8.69s WALL (  346110 calls)
     fft          :      1.90s CPU      1.97s WALL (    5233 calls)
     ffts         :      0.21s CPU      0.23s WALL (    3316 calls)
     fftw         :     64.82s CPU     68.87s WALL ( 1385108 calls)
     interpolate  :      0.30s CPU      0.33s WALL (     568 calls)
     davcio       :      0.35s CPU      1.17s WALL (   69130 calls)

     Parallel routines
     fft_scatter  :     16.37s CPU     20.35s WALL ( 1393657 calls)

     PHONON       :  2m19.43s CPU     2m57.60s WALL

     INITIALIZATION: 
     phq_setup    :      0.30s CPU      0.48s WALL (       8 calls)
     phq_init     :      7.10s CPU      7.38s WALL (       8 calls)

     phq_init     :      7.10s CPU      7.38s WALL (       8 calls)
     set_drhoc    :      1.85s CPU      1.86s WALL (      24 calls)
     init_vloc    :      0.03s CPU      0.03s WALL (       8 calls)
     init_us_1    :      0.97s CPU      0.98s WALL (       8 calls)
     newd         :      0.12s CPU      0.12s WALL (       8 calls)
     dvanqq       :      1.18s CPU      1.19s WALL (       8 calls)
     drho         :      2.63s CPU      2.71s WALL (       8 calls)

     DYNAMICAL MATRIX:
     dynmat0      :      1.80s CPU      1.94s WALL (       8 calls)
     phqscf       :    117.78s CPU    149.47s WALL (       8 calls)
     dynmatrix    :      0.01s CPU      0.25s WALL (       8 calls)

     phqscf       :    117.78s CPU    149.47s WALL (       8 calls)
     solve_linter :    116.91s CPU    146.73s WALL (      32 calls)
     drhodv       :      0.58s CPU      0.60s WALL (      32 calls)

     dynmat0      :      1.80s CPU      1.94s WALL (       8 calls)
     dynmat_us    :      0.39s CPU      0.39s WALL (       8 calls)
     d2ionq       :      0.04s CPU      0.04s WALL (       8 calls)
     dynmatcc     :      1.33s CPU      1.34s WALL (       8 calls)

     dynmat_us    :      0.39s CPU      0.39s WALL (       8 calls)
     addusdynmat  :      0.00s CPU      0.00s WALL (       8 calls)

     phqscf       :    117.78s CPU    149.47s WALL (       8 calls)
     solve_linter :    116.91s CPU    146.73s WALL (      32 calls)

     solve_linter :    116.91s CPU    146.73s WALL (      32 calls)
     dvqpsi_us    :      2.15s CPU      2.29s WALL (    2508 calls)
     ortho        :      0.92s CPU      1.06s WALL (   13486 calls)
     cgsolve      :     79.28s CPU     86.03s WALL (   13486 calls)
     incdrhoscf   :      6.34s CPU      6.96s WALL (   13486 calls)
     addusddens   :      7.14s CPU      7.19s WALL (     200 calls)
     vpsifft      :      4.51s CPU      4.96s WALL (   10858 calls)
     dv_of_drho   :      1.77s CPU      1.81s WALL (     254 calls)
     mix_pot      :      0.35s CPU     12.35s WALL (     173 calls)
     psymdvscf    :      5.96s CPU      6.06s WALL (     168 calls)
     newdq        :      7.93s CPU      7.95s WALL (     173 calls)
     adddvscf     :      0.46s CPU      0.43s WALL (   10978 calls)
     drhodvus     :      0.02s CPU      0.03s WALL (      32 calls)

     dvqpsi_us    :      2.15s CPU      2.29s WALL (    2508 calls)
     dvqpsi_us_on :      0.90s CPU      0.94s WALL (    2508 calls)

     cgsolve      :     79.28s CPU     86.03s WALL (   13486 calls)
     ch_psi       :     78.21s CPU     84.23s WALL (  143514 calls)

     ch_psi       :     78.21s CPU     84.23s WALL (  143514 calls)
     h_psi        :     71.61s CPU     76.69s WALL (  154772 calls)
     last         :      9.16s CPU      9.29s WALL (  143514 calls)

     h_psi        :     71.61s CPU     76.69s WALL (  154772 calls)
     add_vuspsi   :      4.18s CPU      3.68s WALL (  154772 calls)

     incdrhoscf   :      6.34s CPU      6.96s WALL (   13486 calls)
     addusdbec    :      0.47s CPU      0.52s WALL (   15934 calls)

     drhodvus     :      0.02s CPU      0.03s WALL (      32 calls)

      General routines
     calbec       :      8.20s CPU      8.69s WALL (  346110 calls)
     fft          :      1.90s CPU      1.97s WALL (    5233 calls)
     ffts         :      0.21s CPU      0.23s WALL (    3316 calls)
     fftw         :     64.82s CPU     68.87s WALL ( 1385108 calls)
     davcio       :      0.35s CPU      1.17s WALL (   69130 calls)
     write_rec    :      0.22s CPU     11.69s WALL (     205 calls)


     PHONON       :  2m19.43s CPU     2m57.60s WALL


   This run was terminated on:  15:52:22  10Nov2017            

=------------------------------------------------------------------------------=
   JOB DONE.
=------------------------------------------------------------------------------=
