
     Program PHONON v.6.1 (svn rev. 13369) starts on  9Nov2017 at 12:30:48 

     This program is part of the open-source Quantum ESPRESSO suite
     for quantum simulation of materials; please cite
         "P. Giannozzi et al., J. Phys.:Condens. Matter 21 395502 (2009);
          URL http://www.quantum-espresso.org", 
     in publications or presentations arising from this work. More details at
     http://www.quantum-espresso.org/quote

     Parallel version (MPI), running on     4 processors
     R & G space division:  proc/nbgrp/npool/nimage =       4

     Reading data from directory:
     ./silicon.10.337.save

   Info: using nr1, nr2, nr3 values from input

   Info: using nr1, nr2, nr3 values from input

     IMPORTANT: XC functional enforced from input :
     Exchange-correlation      = SLA  PW   PBE  PBE ( 1  4  3  4 0 0)
     Any further DFT definition will be discarded
     Please, verify this is what you really want


     Parallelization info
     --------------------
     sticks:   dense  smooth     PW     G-vecs:    dense   smooth      PW
     Min          63      63     22                  684      684     140
     Max          64      64     23                  688      688     141
     Sum         253     253     91                 2741     2741     561


     Check: negative/imaginary core charge=   -0.000005    0.000000


     Dynamical matrices for ( 4, 4, 4)  uniform grid of q-points
     (   8q-points):
       N         xq(1)         xq(2)         xq(3) 
       1   0.000000000   0.000000000   0.000000000
       2  -0.250000000   0.250000000  -0.250000000
       3   0.500000000  -0.500000000   0.500000000
       4   0.000000000   0.500000000   0.000000000
       5   0.750000000  -0.250000000   0.750000000
       6   0.500000000   0.000000000   0.500000000
       7   0.000000000  -1.000000000   0.000000000
       8  -0.500000000  -1.000000000   0.000000000

     Calculation of q =    0.0000000   0.0000000   0.0000000

                                                                                

     bravais-lattice index     =            2
     lattice parameter (alat)  =      10.3370  a.u.
     unit-cell volume          =     276.1363 (a.u.)^3
     number of atoms/cell      =            2
     number of atomic types    =            1
     kinetic-energy cut-off    =      18.0000  Ry
     charge density cut-off    =      72.0000  Ry
     convergence threshold     =      1.0E-12
     beta                      =       0.7000
     number of iterations used =            4
     Exchange-correlation      = SLA  PW   PBE  PBE ( 1  4  3  4 0 0)


     celldm(1)=   10.33700  celldm(2)=    0.00000  celldm(3)=    0.00000
     celldm(4)=    0.00000  celldm(5)=    0.00000  celldm(6)=    0.00000

     crystal axes: (cart. coord. in units of alat)
               a(1) = ( -0.5000  0.0000  0.5000 )  
               a(2) = (  0.0000  0.5000  0.5000 )  
               a(3) = ( -0.5000  0.5000  0.0000 )  

     reciprocal axes: (cart. coord. in units 2 pi/alat)
               b(1) = ( -1.0000 -1.0000  1.0000 )  
               b(2) = (  1.0000  1.0000  1.0000 )  
               b(3) = ( -1.0000  1.0000 -1.0000 )  


     Atoms inside the unit cell: 

     Cartesian axes

     site n.  atom      mass           positions (alat units)
        1     Si  28.0860   tau(    1) = (    0.00000    0.00000    0.00000  )
        2     Si  28.0860   tau(    2) = (    0.25000    0.25000    0.25000  )

     Computing dynamical matrix for 
                    q = (   0.0000000   0.0000000   0.0000000 )

     49 Sym.Ops. (with q -> -q+G )


     G cutoff =  194.8775  (    685 G-vectors)     FFT grid: ( 20, 20, 20)
     number of k points=    10

     PseudoPot. # 1 for Si read from file:
     /home/max/quantum_espresso/qe-6.1/pseudo/si_pbe_v1.uspp.F.UPF.txt
     MD5 check sum: a056efeee980c13900f22a371efd63c1
     Pseudo is Ultrasoft + core correction, Zval =  4.0
     Generated by new atomic code, or converted to UPF format
     Using radial grid of  899 points,  6 beta functions with: 
                l(1) =   0
                l(2) =   0
                l(3) =   1
                l(4) =   1
                l(5) =   2
                l(6) =   2
     Q(r) pseudized with  8 coefficients,  rinner =    0.900   0.900   0.900
                                                       0.900   0.900

     Mode symmetry, O_h (m-3m)  point group:


     Electric field:
     Dielectric constant
     Born effective charges in two ways 


     Atomic displacements:
     There are   2 irreducible representations

     Representation     1      3 modes -T_2g G_25' G_5+  To be done

     Representation     2      3 modes -T_1u G_15  G_4-  To be done



     Alpha used in Ewald sum =   0.7000
     PHONON       :     0.42s CPU         0.43s WALL


     Electric Fields Calculation

      iter #   1 total cpu time :     0.8 secs   av.it.:   5.6
      thresh= 1.000E-02 alpha_mix =  0.700 |ddv_scf|^2 =  9.059E-07

      iter #   2 total cpu time :     1.0 secs   av.it.:   9.9
      thresh= 9.518E-05 alpha_mix =  0.700 |ddv_scf|^2 =  5.585E-08

      iter #   3 total cpu time :     1.2 secs   av.it.:   9.8
      thresh= 2.363E-05 alpha_mix =  0.700 |ddv_scf|^2 =  4.240E-09

      iter #   4 total cpu time :     1.4 secs   av.it.:   9.0
      thresh= 6.511E-06 alpha_mix =  0.700 |ddv_scf|^2 =  2.509E-11

      iter #   5 total cpu time :     1.6 secs   av.it.:   9.2
      thresh= 5.009E-07 alpha_mix =  0.700 |ddv_scf|^2 =  1.333E-14

     End of electric fields calculation

          Dielectric constant in cartesian axis 

          (      13.878169673       0.000000000       0.000000000 )
          (       0.000000000      13.878169673      -0.000000000 )
          (       0.000000000      -0.000000000      13.878169673 )

          Effective charges (d Force / dE) in cartesian axis

           atom      1   Si 
      Ex  (       -0.03107        0.00000        0.00000 )
      Ey  (        0.00000       -0.03107       -0.00000 )
      Ez  (        0.00000       -0.00000       -0.03107 )
           atom      2   Si 
      Ex  (       -0.03107       -0.00000       -0.00000 )
      Ey  (       -0.00000       -0.03107        0.00000 )
      Ez  (       -0.00000        0.00000       -0.03107 )


     Representation #  1 modes #   1  2  3

     Self-consistent Calculation

      iter #   1 total cpu time :     2.2 secs   av.it.:   4.9
      thresh= 1.000E-02 alpha_mix =  0.700 |ddv_scf|^2 =  2.258E-07

      iter #   2 total cpu time :     2.4 secs   av.it.:   9.8
      thresh= 4.752E-05 alpha_mix =  0.700 |ddv_scf|^2 =  1.401E-08

      iter #   3 total cpu time :     2.6 secs   av.it.:   9.3
      thresh= 1.184E-05 alpha_mix =  0.700 |ddv_scf|^2 =  8.619E-10

      iter #   4 total cpu time :     2.8 secs   av.it.:   9.0
      thresh= 2.936E-06 alpha_mix =  0.700 |ddv_scf|^2 =  1.894E-12

      iter #   5 total cpu time :     3.0 secs   av.it.:   9.5
      thresh= 1.376E-07 alpha_mix =  0.700 |ddv_scf|^2 =  1.233E-14

     End of self-consistent calculation

     Convergence has been achieved 


     Representation #  2 modes #   4  5  6

     Self-consistent Calculation

      iter #   1 total cpu time :     3.3 secs   av.it.:   5.0
      thresh= 1.000E-02 alpha_mix =  0.700 |ddv_scf|^2 =  1.711E-07

      iter #   2 total cpu time :     3.5 secs   av.it.:   9.6
      thresh= 4.136E-05 alpha_mix =  0.700 |ddv_scf|^2 =  1.336E-08

      iter #   3 total cpu time :     3.9 secs   av.it.:   9.3
      thresh= 1.156E-05 alpha_mix =  0.700 |ddv_scf|^2 =  8.510E-10

      iter #   4 total cpu time :     4.1 secs   av.it.:   9.5
      thresh= 2.917E-06 alpha_mix =  0.700 |ddv_scf|^2 =  5.097E-12

      iter #   5 total cpu time :     4.3 secs   av.it.:   9.0
      thresh= 2.258E-07 alpha_mix =  0.700 |ddv_scf|^2 =  4.444E-15

     End of self-consistent calculation

     Convergence has been achieved 

     Number of q in the star =    1
     List of q in the star:
          1   0.000000000   0.000000000   0.000000000

          Dielectric constant in cartesian axis 

          (      13.878169673       0.000000000       0.000000000 )
          (       0.000000000      13.878169673      -0.000000000 )
          (       0.000000000      -0.000000000      13.878169673 )

          Effective charges (d Force / dE) in cartesian axis

           atom      1   Si 
      Ex  (       -0.03107        0.00000        0.00000 )
      Ey  (        0.00000       -0.03107       -0.00000 )
      Ez  (        0.00000       -0.00000       -0.03107 )
           atom      2   Si 
      Ex  (       -0.03107       -0.00000       -0.00000 )
      Ey  (       -0.00000       -0.03107        0.00000 )
      Ez  (       -0.00000        0.00000       -0.03107 )

          Effective charges (d P / du) in cartesian axis 

           atom      1   Si 
      Px  (       -0.07264       -0.00000       -0.00000 )
      Py  (       -0.00000       -0.07264        0.00000 )
      Pz  (        0.00000        0.00000       -0.07264 )
           atom      2   Si 
      Px  (       -0.07264       -0.00000       -0.00000 )
      Py  (       -0.00000       -0.07264        0.00000 )
      Pz  (       -0.00000        0.00000       -0.07264 )

     Diagonalizing the dynamical matrix

     q = (    0.000000000   0.000000000   0.000000000 ) 

 **************************************************************************
     freq (    1) =       1.949693 [THz] =      65.034763 [cm-1]
     freq (    2) =       1.949693 [THz] =      65.034763 [cm-1]
     freq (    3) =       1.949693 [THz] =      65.034763 [cm-1]
     freq (    4) =      14.994950 [THz] =     500.177681 [cm-1]
     freq (    5) =      14.994950 [THz] =     500.177681 [cm-1]
     freq (    6) =      14.994950 [THz] =     500.177681 [cm-1]
 **************************************************************************

     Mode symmetry, O_h (m-3m)  point group:

     freq (  1 -  3) =         65.0  [cm-1]   --> T_1u G_15  G_4- I  
     freq (  4 -  6) =        500.2  [cm-1]   --> T_2g G_25' G_5+ R  

     Calculation of q =   -0.2500000   0.2500000  -0.2500000

   Info: using nr1, nr2, nr3 values from input

   Info: using nr1, nr2, nr3 values from input

     Parallelization info
     --------------------
     sticks:   dense  smooth     PW     G-vecs:    dense   smooth      PW
     Min          63      63     24                  684      684     161
     Max          64      64     25                  688      688     162
     Sum         253     253     97                 2741     2741     645



     bravais-lattice index     =            2
     lattice parameter (alat)  =      10.3370  a.u.
     unit-cell volume          =     276.1363 (a.u.)^3
     number of atoms/cell      =            2
     number of atomic types    =            1
     number of electrons       =         8.00
     number of Kohn-Sham states=            4
     kinetic-energy cutoff     =      18.0000  Ry
     charge density cutoff     =      72.0000  Ry
     Exchange-correlation      = SLA  PW   PBE  PBE ( 1  4  3  4 0 0)

     celldm(1)=  10.337000  celldm(2)=   0.000000  celldm(3)=   0.000000
     celldm(4)=   0.000000  celldm(5)=   0.000000  celldm(6)=   0.000000

     crystal axes: (cart. coord. in units of alat)
               a(1) = (  -0.500000   0.000000   0.500000 )  
               a(2) = (   0.000000   0.500000   0.500000 )  
               a(3) = (  -0.500000   0.500000   0.000000 )  

     reciprocal axes: (cart. coord. in units 2 pi/alat)
               b(1) = ( -1.000000 -1.000000  1.000000 )  
               b(2) = (  1.000000  1.000000  1.000000 )  
               b(3) = ( -1.000000  1.000000 -1.000000 )  


     PseudoPot. # 1 for Si read from file:
     /home/max/quantum_espresso/qe-6.1/pseudo/si_pbe_v1.uspp.F.UPF.txt
     MD5 check sum: a056efeee980c13900f22a371efd63c1
     Pseudo is Ultrasoft + core correction, Zval =  4.0
     Generated by new atomic code, or converted to UPF format
     Using radial grid of  899 points,  6 beta functions with: 
                l(1) =   0
                l(2) =   0
                l(3) =   1
                l(4) =   1
                l(5) =   2
                l(6) =   2
     Q(r) pseudized with  8 coefficients,  rinner =    0.900   0.900   0.900
                                                       0.900   0.900

     atomic species   valence    mass     pseudopotential
        Si             4.00    28.08600     Si( 1.00)

     48 Sym. Ops., with inversion, found



   Cartesian axes

     site n.     atom                  positions (alat units)
         1           Si  tau(   1) = (   0.0000000   0.0000000   0.0000000  )
         2           Si  tau(   2) = (   0.2500000   0.2500000   0.2500000  )

     number of k points=   120

     Number of k-points >= 100: set verbosity='high' to print them.

     Dense  grid:     2741 G-vectors     FFT dimensions: (  20,  20,  20)

     Estimated max dynamical RAM per process >       0.33MB

     Estimated total allocated dynamical RAM >       1.31MB

     Check: negative/imaginary core charge=   -0.000005    0.000000

     The potential is recalculated from file :
     ./_ph0/silicon.10.337.save/charge-density.dat

     Starting wfc are    8 atomic wfcs

     Band Structure Calculation
     Davidson diagonalization with overlap

     ethr =  1.25E-10,  avg # of iterations = 11.7

     total cpu time spent up to now is        0.9 secs

     End of band structure calculation

     Number of k-points >= 100: set verbosity='high' to print the bands.

     highest occupied level (ev):     5.6901

     Writing output data file silicon.10.337.save

                                                                                

     bravais-lattice index     =            2
     lattice parameter (alat)  =      10.3370  a.u.
     unit-cell volume          =     276.1363 (a.u.)^3
     number of atoms/cell      =            2
     number of atomic types    =            1
     kinetic-energy cut-off    =      18.0000  Ry
     charge density cut-off    =      72.0000  Ry
     convergence threshold     =      1.0E-12
     beta                      =       0.7000
     number of iterations used =            4
     Exchange-correlation      = SLA  PW   PBE  PBE ( 1  4  3  4 0 0)


     celldm(1)=   10.33700  celldm(2)=    0.00000  celldm(3)=    0.00000
     celldm(4)=    0.00000  celldm(5)=    0.00000  celldm(6)=    0.00000

     crystal axes: (cart. coord. in units of alat)
               a(1) = ( -0.5000  0.0000  0.5000 )  
               a(2) = (  0.0000  0.5000  0.5000 )  
               a(3) = ( -0.5000  0.5000  0.0000 )  

     reciprocal axes: (cart. coord. in units 2 pi/alat)
               b(1) = ( -1.0000 -1.0000  1.0000 )  
               b(2) = (  1.0000  1.0000  1.0000 )  
               b(3) = ( -1.0000  1.0000 -1.0000 )  


     Atoms inside the unit cell: 

     Cartesian axes

     site n.  atom      mass           positions (alat units)
        1     Si  28.0860   tau(    1) = (    0.00000    0.00000    0.00000  )
        2     Si  28.0860   tau(    2) = (    0.25000    0.25000    0.25000  )

     Computing dynamical matrix for 
                    q = (  -0.2500000   0.2500000  -0.2500000 )

      6 Sym.Ops. (no q -> -q+G )


     G cutoff =  194.8775  (    685 G-vectors)     FFT grid: ( 20, 20, 20)
     number of k points=   120

     PseudoPot. # 1 for Si read from file:
     /home/max/quantum_espresso/qe-6.1/pseudo/si_pbe_v1.uspp.F.UPF.txt
     MD5 check sum: a056efeee980c13900f22a371efd63c1
     Pseudo is Ultrasoft + core correction, Zval =  4.0
     Generated by new atomic code, or converted to UPF format
     Using radial grid of  899 points,  6 beta functions with: 
                l(1) =   0
                l(2) =   0
                l(3) =   1
                l(4) =   1
                l(5) =   2
                l(6) =   2
     Q(r) pseudized with  8 coefficients,  rinner =    0.900   0.900   0.900
                                                       0.900   0.900

     Mode symmetry, C_3v (3m)   point group:


     Atomic displacements:
     There are   4 irreducible representations

     Representation     1      1 modes -A_1  L_1  To be done

     Representation     2      1 modes -A_1  L_1  To be done

     Representation     3      2 modes -E    L_3  To be done

     Representation     4      2 modes -E    L_3  To be done



     Alpha used in Ewald sum =   0.7000
     PHONON       :     5.47s CPU         5.73s WALL



     Representation #  1 mode #   1

     Self-consistent Calculation

      iter #   1 total cpu time :     6.1 secs   av.it.:   5.5
      thresh= 1.000E-02 alpha_mix =  0.700 |ddv_scf|^2 =  2.468E-03

      iter #   2 total cpu time :     6.4 secs   av.it.:   7.5
      thresh= 4.968E-03 alpha_mix =  0.700 |ddv_scf|^2 =  3.726E-02

      iter #   3 total cpu time :     6.6 secs   av.it.:   6.3
      thresh= 1.000E-02 alpha_mix =  0.700 |ddv_scf|^2 =  1.714E-06

      iter #   4 total cpu time :     7.0 secs   av.it.:   8.2
      thresh= 1.309E-04 alpha_mix =  0.700 |ddv_scf|^2 =  1.148E-07

      iter #   5 total cpu time :     7.3 secs   av.it.:   8.1
      thresh= 3.388E-05 alpha_mix =  0.700 |ddv_scf|^2 =  4.410E-09

      iter #   6 total cpu time :     7.6 secs   av.it.:   8.0
      thresh= 6.641E-06 alpha_mix =  0.700 |ddv_scf|^2 =  5.073E-09

      iter #   7 total cpu time :     8.0 secs   av.it.:   6.0
      thresh= 7.123E-06 alpha_mix =  0.700 |ddv_scf|^2 =  4.069E-10

      iter #   8 total cpu time :     8.3 secs   av.it.:   7.3
      thresh= 2.017E-06 alpha_mix =  0.700 |ddv_scf|^2 =  3.652E-12

      iter #   9 total cpu time :     8.6 secs   av.it.:   7.2
      thresh= 1.911E-07 alpha_mix =  0.700 |ddv_scf|^2 =  1.299E-13

     End of self-consistent calculation

     Convergence has been achieved 


     Representation #  2 mode #   2

     Self-consistent Calculation

      iter #   1 total cpu time :     8.8 secs   av.it.:   5.5
      thresh= 1.000E-02 alpha_mix =  0.700 |ddv_scf|^2 =  2.468E-03

      iter #   2 total cpu time :     9.1 secs   av.it.:   7.5
      thresh= 4.968E-03 alpha_mix =  0.700 |ddv_scf|^2 =  3.726E-02

      iter #   3 total cpu time :     9.4 secs   av.it.:   6.3
      thresh= 1.000E-02 alpha_mix =  0.700 |ddv_scf|^2 =  1.714E-06

      iter #   4 total cpu time :     9.8 secs   av.it.:   8.2
      thresh= 1.309E-04 alpha_mix =  0.700 |ddv_scf|^2 =  1.148E-07

      iter #   5 total cpu time :    10.1 secs   av.it.:   8.1
      thresh= 3.388E-05 alpha_mix =  0.700 |ddv_scf|^2 =  4.410E-09

      iter #   6 total cpu time :    10.4 secs   av.it.:   8.0
      thresh= 6.641E-06 alpha_mix =  0.700 |ddv_scf|^2 =  5.073E-09

      iter #   7 total cpu time :    10.6 secs   av.it.:   6.0
      thresh= 7.123E-06 alpha_mix =  0.700 |ddv_scf|^2 =  4.069E-10

      iter #   8 total cpu time :    10.9 secs   av.it.:   7.3
      thresh= 2.017E-06 alpha_mix =  0.700 |ddv_scf|^2 =  3.652E-12

      iter #   9 total cpu time :    11.2 secs   av.it.:   7.2
      thresh= 1.911E-07 alpha_mix =  0.700 |ddv_scf|^2 =  1.299E-13

     End of self-consistent calculation

     Convergence has been achieved 


     Representation #  3 modes #   3  4

     Self-consistent Calculation

      iter #   1 total cpu time :    11.7 secs   av.it.:   4.9
      thresh= 1.000E-02 alpha_mix =  0.700 |ddv_scf|^2 =  5.574E-07

      iter #   2 total cpu time :    12.5 secs   av.it.:   9.5
      thresh= 7.466E-05 alpha_mix =  0.700 |ddv_scf|^2 =  4.118E-08

      iter #   3 total cpu time :    13.1 secs   av.it.:   9.2
      thresh= 2.029E-05 alpha_mix =  0.700 |ddv_scf|^2 =  3.541E-09

      iter #   4 total cpu time :    13.9 secs   av.it.:   9.0
      thresh= 5.950E-06 alpha_mix =  0.700 |ddv_scf|^2 =  1.087E-11

      iter #   5 total cpu time :    14.5 secs   av.it.:   9.1
      thresh= 3.297E-07 alpha_mix =  0.700 |ddv_scf|^2 =  4.940E-13

     End of self-consistent calculation

     Convergence has been achieved 


     Representation #  4 modes #   5  6

     Self-consistent Calculation

      iter #   1 total cpu time :    15.0 secs   av.it.:   5.0
      thresh= 1.000E-02 alpha_mix =  0.700 |ddv_scf|^2 =  5.573E-07

      iter #   2 total cpu time :    15.8 secs   av.it.:   9.6
      thresh= 7.465E-05 alpha_mix =  0.700 |ddv_scf|^2 =  4.114E-08

      iter #   3 total cpu time :    16.5 secs   av.it.:   9.4
      thresh= 2.028E-05 alpha_mix =  0.700 |ddv_scf|^2 =  3.538E-09

      iter #   4 total cpu time :    17.1 secs   av.it.:   9.1
      thresh= 5.948E-06 alpha_mix =  0.700 |ddv_scf|^2 =  1.088E-11

      iter #   5 total cpu time :    18.0 secs   av.it.:   9.3
      thresh= 3.299E-07 alpha_mix =  0.700 |ddv_scf|^2 =  4.949E-13

     End of self-consistent calculation

     Convergence has been achieved 

     Number of q in the star =    8
     List of q in the star:
          1  -0.250000000   0.250000000  -0.250000000
          2   0.250000000  -0.250000000  -0.250000000
          3   0.250000000  -0.250000000   0.250000000
          4   0.250000000   0.250000000   0.250000000
          5  -0.250000000  -0.250000000  -0.250000000
          6  -0.250000000  -0.250000000   0.250000000
          7  -0.250000000   0.250000000   0.250000000
          8   0.250000000   0.250000000  -0.250000000

     Diagonalizing the dynamical matrix

     q = (   -0.250000000   0.250000000  -0.250000000 ) 

 **************************************************************************
     freq (    1) =       3.395354 [THz] =     113.256814 [cm-1]
     freq (    2) =       3.395354 [THz] =     113.256814 [cm-1]
     freq (    3) =       6.929533 [THz] =     231.144336 [cm-1]
     freq (    4) =      14.069603 [THz] =     469.311429 [cm-1]
     freq (    5) =      14.378790 [THz] =     479.624818 [cm-1]
     freq (    6) =      14.378790 [THz] =     479.624818 [cm-1]
 **************************************************************************

     Mode symmetry, C_3v (3m)   point group:

     freq (  1 -  2) =        113.3  [cm-1]   --> E    L_3           
     freq (  3 -  3) =        231.1  [cm-1]   --> A_1  L_1           
     freq (  4 -  4) =        469.3  [cm-1]   --> A_1  L_1           
     freq (  5 -  6) =        479.6  [cm-1]   --> E    L_3           

     Calculation of q =    0.5000000  -0.5000000   0.5000000

   Info: using nr1, nr2, nr3 values from input

   Info: using nr1, nr2, nr3 values from input

     Parallelization info
     --------------------
     sticks:   dense  smooth     PW     G-vecs:    dense   smooth      PW
     Min          63      63     27                  684      684     186
     Max          64      64     28                  688      688     189
     Sum         253     253    109                 2741     2741     749



     bravais-lattice index     =            2
     lattice parameter (alat)  =      10.3370  a.u.
     unit-cell volume          =     276.1363 (a.u.)^3
     number of atoms/cell      =            2
     number of atomic types    =            1
     number of electrons       =         8.00
     number of Kohn-Sham states=            4
     kinetic-energy cutoff     =      18.0000  Ry
     charge density cutoff     =      72.0000  Ry
     Exchange-correlation      = SLA  PW   PBE  PBE ( 1  4  3  4 0 0)

     celldm(1)=  10.337000  celldm(2)=   0.000000  celldm(3)=   0.000000
     celldm(4)=   0.000000  celldm(5)=   0.000000  celldm(6)=   0.000000

     crystal axes: (cart. coord. in units of alat)
               a(1) = (  -0.500000   0.000000   0.500000 )  
               a(2) = (   0.000000   0.500000   0.500000 )  
               a(3) = (  -0.500000   0.500000   0.000000 )  

     reciprocal axes: (cart. coord. in units 2 pi/alat)
               b(1) = ( -1.000000 -1.000000  1.000000 )  
               b(2) = (  1.000000  1.000000  1.000000 )  
               b(3) = ( -1.000000  1.000000 -1.000000 )  


     PseudoPot. # 1 for Si read from file:
     /home/max/quantum_espresso/qe-6.1/pseudo/si_pbe_v1.uspp.F.UPF.txt
     MD5 check sum: a056efeee980c13900f22a371efd63c1
     Pseudo is Ultrasoft + core correction, Zval =  4.0
     Generated by new atomic code, or converted to UPF format
     Using radial grid of  899 points,  6 beta functions with: 
                l(1) =   0
                l(2) =   0
                l(3) =   1
                l(4) =   1
                l(5) =   2
                l(6) =   2
     Q(r) pseudized with  8 coefficients,  rinner =    0.900   0.900   0.900
                                                       0.900   0.900

     atomic species   valence    mass     pseudopotential
        Si             4.00    28.08600     Si( 1.00)

     48 Sym. Ops., with inversion, found



   Cartesian axes

     site n.     atom                  positions (alat units)
         1           Si  tau(   1) = (   0.0000000   0.0000000   0.0000000  )
         2           Si  tau(   2) = (   0.2500000   0.2500000   0.2500000  )

     number of k points=    60
                       cart. coord. in units 2pi/alat
        k(    1) = (  -0.1250000   0.1250000   0.1250000), wk =   0.0468750
        k(    2) = (   0.3750000  -0.3750000   0.6250000), wk =   0.0000000
        k(    3) = (  -0.3750000   0.3750000  -0.1250000), wk =   0.0468750
        k(    4) = (   0.1250000  -0.1250000   0.3750000), wk =   0.0000000
        k(    5) = (   0.3750000  -0.3750000   0.6250000), wk =   0.0468750
        k(    6) = (   0.8750000  -0.8750000   1.1250000), wk =   0.0000000
        k(    7) = (   0.1250000  -0.1250000   0.3750000), wk =   0.0468750
        k(    8) = (   0.6250000  -0.6250000   0.8750000), wk =   0.0000000
        k(    9) = (  -0.1250000   0.6250000   0.1250000), wk =   0.0937500
        k(   10) = (   0.3750000   0.1250000   0.6250000), wk =   0.0000000
        k(   11) = (   0.6250000  -0.1250000   0.8750000), wk =   0.0937500
        k(   12) = (   1.1250000  -0.6250000   1.3750000), wk =   0.0000000
        k(   13) = (   0.3750000   0.1250000   0.6250000), wk =   0.0937500
        k(   14) = (   0.8750000  -0.3750000   1.1250000), wk =   0.0000000
        k(   15) = (  -0.1250000  -0.8750000   0.1250000), wk =   0.0937500
        k(   16) = (   0.3750000  -1.3750000   0.6250000), wk =   0.0000000
        k(   17) = (  -0.3750000   0.3750000   0.3750000), wk =   0.0468750
        k(   18) = (   0.1250000  -0.1250000   0.8750000), wk =   0.0000000
        k(   19) = (   0.3750000  -0.3750000   1.1250000), wk =   0.0468750
        k(   20) = (   0.8750000  -0.8750000   1.6250000), wk =   0.0000000
        k(   21) = (   0.1250000  -0.1250000   0.1250000), wk =   0.0156250
        k(   22) = (   0.6250000  -0.6250000   0.6250000), wk =   0.0000000
        k(   23) = (  -0.3750000  -0.3750000  -0.1250000), wk =   0.0937500
        k(   24) = (   0.1250000  -0.8750000   0.3750000), wk =   0.0000000
        k(   25) = (  -0.1250000  -0.3750000   0.3750000), wk =   0.0468750
        k(   26) = (   0.3750000  -0.8750000   0.8750000), wk =   0.0000000
        k(   27) = (   0.3750000   0.3750000   0.6250000), wk =   0.0937500
        k(   28) = (   0.8750000  -0.1250000   1.1250000), wk =   0.0000000
        k(   29) = (   0.6250000   0.3750000  -0.3750000), wk =   0.0468750
        k(   30) = (   1.1250000  -0.1250000   0.1250000), wk =   0.0000000
        k(   31) = (   0.1250000   0.1250000   0.3750000), wk =   0.0937500
        k(   32) = (   0.6250000  -0.3750000   0.8750000), wk =   0.0000000
        k(   33) = (   0.3750000   0.1250000  -0.1250000), wk =   0.0468750
        k(   34) = (   0.8750000  -0.3750000   0.3750000), wk =   0.0000000
        k(   35) = (  -0.1250000  -0.6250000  -0.1250000), wk =   0.0468750
        k(   36) = (   0.3750000  -1.1250000   0.3750000), wk =   0.0000000
        k(   37) = (   0.1250000  -0.6250000   0.1250000), wk =   0.0468750
        k(   38) = (   0.6250000  -1.1250000   0.6250000), wk =   0.0000000
        k(   39) = (   0.6250000   0.1250000   0.8750000), wk =   0.0937500
        k(   40) = (   1.1250000  -0.3750000   1.3750000), wk =   0.0000000
        k(   41) = (  -0.8750000   0.1250000   0.6250000), wk =   0.0937500
        k(   42) = (  -0.3750000  -0.3750000   1.1250000), wk =   0.0000000
        k(   43) = (   0.8750000   0.1250000  -0.6250000), wk =   0.0937500
        k(   44) = (   1.3750000  -0.3750000  -0.1250000), wk =   0.0000000
        k(   45) = (   0.3750000  -0.1250000   0.6250000), wk =   0.0937500
        k(   46) = (   0.8750000  -0.6250000   1.1250000), wk =   0.0000000
        k(   47) = (  -0.6250000  -0.1250000   0.3750000), wk =   0.0937500
        k(   48) = (  -0.1250000  -0.6250000   0.8750000), wk =   0.0000000
        k(   49) = (   0.6250000  -0.1250000  -0.3750000), wk =   0.0937500
        k(   50) = (   1.1250000  -0.6250000   0.1250000), wk =   0.0000000
        k(   51) = (  -0.1250000   0.8750000  -0.1250000), wk =   0.0468750
        k(   52) = (   0.3750000   0.3750000   0.3750000), wk =   0.0000000
        k(   53) = (   0.1250000   0.8750000   0.1250000), wk =   0.0468750
        k(   54) = (   0.6250000   0.3750000   0.6250000), wk =   0.0000000
        k(   55) = (   0.3750000  -0.3750000   0.3750000), wk =   0.0156250
        k(   56) = (   0.8750000  -0.8750000   0.8750000), wk =   0.0000000
        k(   57) = (   0.3750000   0.3750000   1.1250000), wk =   0.0937500
        k(   58) = (   0.8750000  -0.1250000   1.6250000), wk =   0.0000000
        k(   59) = (   1.1250000   0.3750000  -0.3750000), wk =   0.0468750
        k(   60) = (   1.6250000  -0.1250000   0.1250000), wk =   0.0000000

     Dense  grid:     2741 G-vectors     FFT dimensions: (  20,  20,  20)

     Estimated max dynamical RAM per process >       0.33MB

     Estimated total allocated dynamical RAM >       1.31MB

     Check: negative/imaginary core charge=   -0.000005    0.000000

     The potential is recalculated from file :
     ./_ph0/silicon.10.337.save/charge-density.dat

     Starting wfc are    8 atomic wfcs

     Band Structure Calculation
     Davidson diagonalization with overlap

     ethr =  1.25E-10,  avg # of iterations = 11.7

     total cpu time spent up to now is        1.5 secs

     End of band structure calculation

          k =-0.1250 0.1250 0.1250 (   338 PWs)   bands (ev):

    -5.6342   4.3813   5.6901   5.6901

          k = 0.3750-0.3750 0.6250 (   361 PWs)   bands (ev):

    -3.4776  -0.6796   3.7288   4.4394

          k =-0.3750 0.3750-0.1250 (   352 PWs)   bands (ev):

    -4.6114   1.3906   3.7110   5.2085

          k = 0.1250-0.1250 0.3750 (   353 PWs)   bands (ev):

    -5.1084   2.7632   4.6842   4.7473

          k = 0.3750-0.3750 0.6250 (   361 PWs)   bands (ev):

    -3.4776  -0.6796   3.7288   4.4394

          k = 0.8750-0.8750 1.1250 (   338 PWs)   bands (ev):

    -5.6342   4.3813   5.6901   5.6901

          k = 0.1250-0.1250 0.3750 (   353 PWs)   bands (ev):

    -5.1084   2.7632   4.6842   4.7473

          k = 0.6250-0.6250 0.8750 (   352 PWs)   bands (ev):

    -4.6114   1.3906   3.7110   5.2085

          k =-0.1250 0.6250 0.1250 (   351 PWs)   bands (ev):

    -4.0802   1.0513   3.3641   3.8119

          k = 0.3750 0.1250 0.6250 (   357 PWs)   bands (ev):

    -3.6668   0.1834   2.7249   4.0873

          k = 0.6250-0.1250 0.8750 (   361 PWs)   bands (ev):

    -2.4467  -0.9080   2.0180   3.0879

          k = 1.1250-0.6250 1.3750 (   352 PWs)   bands (ev):

    -4.6114   1.3906   3.7110   5.2085

          k = 0.3750 0.1250 0.6250 (   357 PWs)   bands (ev):

    -3.6668   0.1834   2.7249   4.0873

          k = 0.8750-0.3750 1.1250 (   351 PWs)   bands (ev):

    -4.0802   1.0513   3.3641   3.8119

          k =-0.1250-0.8750 0.1250 (   358 PWs)   bands (ev):

    -2.6126  -0.8112   2.6232   3.3459

          k = 0.3750-1.3750 0.6250 (   361 PWs)   bands (ev):

    -3.4776  -0.6796   3.7288   4.4394

          k =-0.3750 0.3750 0.3750 (   353 PWs)   bands (ev):

    -4.1809   0.1068   4.9026   4.9026

          k = 0.1250-0.1250 0.8750 (   358 PWs)   bands (ev):

    -2.6126  -0.8112   2.6232   3.3459

          k = 0.3750-0.3750 1.1250 (   361 PWs)   bands (ev):

    -2.9829  -0.6011   2.0744   4.1240

          k = 0.8750-0.8750 1.6250 (   351 PWs)   bands (ev):

    -4.0802   1.0513   3.3641   3.8119

          k = 0.1250-0.1250 0.1250 (   338 PWs)   bands (ev):

    -5.6342   4.3813   5.6901   5.6901

          k = 0.6250-0.6250 0.6250 (   353 PWs)   bands (ev):

    -4.1809   0.1068   4.9026   4.9026

          k =-0.3750-0.3750-0.1250 (   352 PWs)   bands (ev):

    -4.6114   1.3906   3.7110   5.2085

          k = 0.1250-0.8750 0.3750 (   361 PWs)   bands (ev):

    -2.4467  -0.9080   2.0180   3.0879

          k =-0.1250-0.3750 0.3750 (   352 PWs)   bands (ev):

    -4.6114   1.3906   3.7110   5.2085

          k = 0.3750-0.8750 0.8750 (   351 PWs)   bands (ev):

    -4.0802   1.0513   3.3641   3.8119

          k = 0.3750 0.3750 0.6250 (   361 PWs)   bands (ev):

    -3.4776  -0.6796   3.7288   4.4394

          k = 0.8750-0.1250 1.1250 (   358 PWs)   bands (ev):

    -2.6126  -0.8112   2.6232   3.3459

          k = 0.6250 0.3750-0.3750 (   361 PWs)   bands (ev):

    -3.4776  -0.6796   3.7288   4.4394

          k = 1.1250-0.1250 0.1250 (   358 PWs)   bands (ev):

    -2.6126  -0.8112   2.6232   3.3459

          k = 0.1250 0.1250 0.3750 (   353 PWs)   bands (ev):

    -5.1084   2.7632   4.6842   4.7473

          k = 0.6250-0.3750 0.8750 (   357 PWs)   bands (ev):

    -3.6668   0.1834   2.7249   4.0873

          k = 0.3750 0.1250-0.1250 (   353 PWs)   bands (ev):

    -5.1084   2.7632   4.6842   4.7473

          k = 0.8750-0.3750 0.3750 (   361 PWs)   bands (ev):

    -2.9829  -0.6011   2.0744   4.1240

          k =-0.1250-0.6250-0.1250 (   351 PWs)   bands (ev):

    -4.0802   1.0513   3.3641   3.8119

          k = 0.3750-1.1250 0.3750 (   361 PWs)   bands (ev):

    -2.9829  -0.6011   2.0744   4.1240

          k = 0.1250-0.6250 0.1250 (   351 PWs)   bands (ev):

    -4.0802   1.0513   3.3641   3.8119

          k = 0.6250-1.1250 0.6250 (   352 PWs)   bands (ev):

    -4.6114   1.3906   3.7110   5.2085

          k = 0.6250 0.1250 0.8750 (   361 PWs)   bands (ev):

    -2.4467  -0.9080   2.0180   3.0879

          k = 1.1250-0.3750 1.3750 (   357 PWs)   bands (ev):

    -3.6668   0.1834   2.7249   4.0873

          k =-0.8750 0.1250 0.6250 (   361 PWs)   bands (ev):

    -2.4467  -0.9080   2.0180   3.0879

          k =-0.3750-0.3750 1.1250 (   361 PWs)   bands (ev):

    -2.9829  -0.6011   2.0744   4.1240

          k = 0.8750 0.1250-0.6250 (   361 PWs)   bands (ev):

    -2.4467  -0.9080   2.0180   3.0879

          k = 1.3750-0.3750-0.1250 (   357 PWs)   bands (ev):

    -3.6668   0.1834   2.7249   4.0873

          k = 0.3750-0.1250 0.6250 (   357 PWs)   bands (ev):

    -3.6668   0.1834   2.7249   4.0873

          k = 0.8750-0.6250 1.1250 (   353 PWs)   bands (ev):

    -5.1084   2.7632   4.6842   4.7473

          k =-0.6250-0.1250 0.3750 (   357 PWs)   bands (ev):

    -3.6668   0.1834   2.7249   4.0873

          k =-0.1250-0.6250 0.8750 (   361 PWs)   bands (ev):

    -2.4467  -0.9080   2.0180   3.0879

          k = 0.6250-0.1250-0.3750 (   357 PWs)   bands (ev):

    -3.6668   0.1834   2.7249   4.0873

          k = 1.1250-0.6250 0.1250 (   361 PWs)   bands (ev):

    -2.4467  -0.9080   2.0180   3.0879

          k =-0.1250 0.8750-0.1250 (   358 PWs)   bands (ev):

    -2.6126  -0.8112   2.6232   3.3459

          k = 0.3750 0.3750 0.3750 (   353 PWs)   bands (ev):

    -4.1809   0.1068   4.9026   4.9026

          k = 0.1250 0.8750 0.1250 (   358 PWs)   bands (ev):

    -2.6126  -0.8112   2.6232   3.3459

          k = 0.6250 0.3750 0.6250 (   361 PWs)   bands (ev):

    -3.4776  -0.6796   3.7288   4.4394

          k = 0.3750-0.3750 0.3750 (   353 PWs)   bands (ev):

    -4.1809   0.1068   4.9026   4.9026

          k = 0.8750-0.8750 0.8750 (   338 PWs)   bands (ev):

    -5.6342   4.3813   5.6901   5.6901

          k = 0.3750 0.3750 1.1250 (   361 PWs)   bands (ev):

    -2.9829  -0.6011   2.0744   4.1240

          k = 0.8750-0.1250 1.6250 (   361 PWs)   bands (ev):

    -2.4467  -0.9080   2.0180   3.0879

          k = 1.1250 0.3750-0.3750 (   361 PWs)   bands (ev):

    -2.9829  -0.6011   2.0744   4.1240

          k = 1.6250-0.1250 0.1250 (   353 PWs)   bands (ev):

    -5.1084   2.7632   4.6842   4.7473

     highest occupied level (ev):     5.6901

     Writing output data file silicon.10.337.save

                                                                                

     bravais-lattice index     =            2
     lattice parameter (alat)  =      10.3370  a.u.
     unit-cell volume          =     276.1363 (a.u.)^3
     number of atoms/cell      =            2
     number of atomic types    =            1
     kinetic-energy cut-off    =      18.0000  Ry
     charge density cut-off    =      72.0000  Ry
     convergence threshold     =      1.0E-12
     beta                      =       0.7000
     number of iterations used =            4
     Exchange-correlation      = SLA  PW   PBE  PBE ( 1  4  3  4 0 0)


     celldm(1)=   10.33700  celldm(2)=    0.00000  celldm(3)=    0.00000
     celldm(4)=    0.00000  celldm(5)=    0.00000  celldm(6)=    0.00000

     crystal axes: (cart. coord. in units of alat)
               a(1) = ( -0.5000  0.0000  0.5000 )  
               a(2) = (  0.0000  0.5000  0.5000 )  
               a(3) = ( -0.5000  0.5000  0.0000 )  

     reciprocal axes: (cart. coord. in units 2 pi/alat)
               b(1) = ( -1.0000 -1.0000  1.0000 )  
               b(2) = (  1.0000  1.0000  1.0000 )  
               b(3) = ( -1.0000  1.0000 -1.0000 )  


     Atoms inside the unit cell: 

     Cartesian axes

     site n.  atom      mass           positions (alat units)
        1     Si  28.0860   tau(    1) = (    0.00000    0.00000    0.00000  )
        2     Si  28.0860   tau(    2) = (    0.25000    0.25000    0.25000  )

     Computing dynamical matrix for 
                    q = (   0.5000000  -0.5000000   0.5000000 )

     13 Sym.Ops. (with q -> -q+G )


     G cutoff =  194.8775  (    685 G-vectors)     FFT grid: ( 20, 20, 20)
     number of k points=    60

     PseudoPot. # 1 for Si read from file:
     /home/max/quantum_espresso/qe-6.1/pseudo/si_pbe_v1.uspp.F.UPF.txt
     MD5 check sum: a056efeee980c13900f22a371efd63c1
     Pseudo is Ultrasoft + core correction, Zval =  4.0
     Generated by new atomic code, or converted to UPF format
     Using radial grid of  899 points,  6 beta functions with: 
                l(1) =   0
                l(2) =   0
                l(3) =   1
                l(4) =   1
                l(5) =   2
                l(6) =   2
     Q(r) pseudized with  8 coefficients,  rinner =    0.900   0.900   0.900
                                                       0.900   0.900


     Atomic displacements:
     There are   4 irreducible representations

     Representation     1      1 modes -  To be done

     Representation     2      1 modes -  To be done

     Representation     3      2 modes -  To be done

     Representation     4      2 modes -  To be done



     Alpha used in Ewald sum =   0.7000
     PHONON       :    17.15s CPU        18.78s WALL



     Representation #  1 mode #   1

     Self-consistent Calculation

      iter #   1 total cpu time :    18.9 secs   av.it.:   4.8
      thresh= 1.000E-02 alpha_mix =  0.700 |ddv_scf|^2 =  2.480E-05

      iter #   2 total cpu time :    19.1 secs   av.it.:   8.3
      thresh= 4.980E-04 alpha_mix =  0.700 |ddv_scf|^2 =  2.211E-05

      iter #   3 total cpu time :    19.2 secs   av.it.:   7.5
      thresh= 4.702E-04 alpha_mix =  0.700 |ddv_scf|^2 =  4.223E-08

      iter #   4 total cpu time :    19.4 secs   av.it.:   7.5
      thresh= 2.055E-05 alpha_mix =  0.700 |ddv_scf|^2 =  1.422E-10

      iter #   5 total cpu time :    19.5 secs   av.it.:   7.9
      thresh= 1.192E-06 alpha_mix =  0.700 |ddv_scf|^2 =  3.599E-12

      iter #   6 total cpu time :    19.9 secs   av.it.:   7.9
      thresh= 1.897E-07 alpha_mix =  0.700 |ddv_scf|^2 =  5.550E-14

     End of self-consistent calculation

     Convergence has been achieved 


     Representation #  2 mode #   2

     Self-consistent Calculation

      iter #   1 total cpu time :    20.0 secs   av.it.:   5.6
      thresh= 1.000E-02 alpha_mix =  0.700 |ddv_scf|^2 =  3.444E-04

      iter #   2 total cpu time :    20.2 secs   av.it.:   8.3
      thresh= 1.856E-03 alpha_mix =  0.700 |ddv_scf|^2 =  1.062E-03

      iter #   3 total cpu time :    20.3 secs   av.it.:   7.1
      thresh= 3.259E-03 alpha_mix =  0.700 |ddv_scf|^2 =  1.147E-07

      iter #   4 total cpu time :    20.5 secs   av.it.:   8.1
      thresh= 3.387E-05 alpha_mix =  0.700 |ddv_scf|^2 =  7.406E-09

      iter #   5 total cpu time :    20.7 secs   av.it.:   8.5
      thresh= 8.606E-06 alpha_mix =  0.700 |ddv_scf|^2 =  1.307E-10

      iter #   6 total cpu time :    20.8 secs   av.it.:   8.3
      thresh= 1.143E-06 alpha_mix =  0.700 |ddv_scf|^2 =  2.083E-12

      iter #   7 total cpu time :    21.0 secs   av.it.:   7.8
      thresh= 1.443E-07 alpha_mix =  0.700 |ddv_scf|^2 =  3.160E-15

     End of self-consistent calculation

     Convergence has been achieved 


     Representation #  3 modes #   3  4

     Self-consistent Calculation

      iter #   1 total cpu time :    21.2 secs   av.it.:   4.7
      thresh= 1.000E-02 alpha_mix =  0.700 |ddv_scf|^2 =  3.046E-07

      iter #   2 total cpu time :    21.6 secs   av.it.:   9.0
      thresh= 5.519E-05 alpha_mix =  0.700 |ddv_scf|^2 =  2.515E-08

      iter #   3 total cpu time :    22.1 secs   av.it.:   8.4
      thresh= 1.586E-05 alpha_mix =  0.700 |ddv_scf|^2 =  4.949E-10

      iter #   4 total cpu time :    22.5 secs   av.it.:   8.9
      thresh= 2.225E-06 alpha_mix =  0.700 |ddv_scf|^2 =  6.210E-12

      iter #   5 total cpu time :    22.8 secs   av.it.:   8.7
      thresh= 2.492E-07 alpha_mix =  0.700 |ddv_scf|^2 =  3.228E-14

     End of self-consistent calculation

     Convergence has been achieved 


     Representation #  4 modes #   5  6

     Self-consistent Calculation

      iter #   1 total cpu time :    23.1 secs   av.it.:   5.0
      thresh= 1.000E-02 alpha_mix =  0.700 |ddv_scf|^2 =  9.805E-07

      iter #   2 total cpu time :    23.4 secs   av.it.:   9.4
      thresh= 9.902E-05 alpha_mix =  0.700 |ddv_scf|^2 =  7.672E-08

      iter #   3 total cpu time :    24.0 secs   av.it.:   9.3
      thresh= 2.770E-05 alpha_mix =  0.700 |ddv_scf|^2 =  4.939E-09

      iter #   4 total cpu time :    24.3 secs   av.it.:   8.5
      thresh= 7.028E-06 alpha_mix =  0.700 |ddv_scf|^2 =  6.630E-12

      iter #   5 total cpu time :    24.6 secs   av.it.:   8.8
      thresh= 2.575E-07 alpha_mix =  0.700 |ddv_scf|^2 =  2.306E-14

     End of self-consistent calculation

     Convergence has been achieved 

     Number of q in the star =    4
     List of q in the star:
          1   0.500000000  -0.500000000   0.500000000
          2   0.500000000   0.500000000   0.500000000
          3  -0.500000000   0.500000000   0.500000000
          4   0.500000000   0.500000000  -0.500000000

     Diagonalizing the dynamical matrix

     q = (    0.500000000  -0.500000000   0.500000000 ) 

 **************************************************************************
     freq (    1) =       4.567001 [THz] =     152.338741 [cm-1]
     freq (    2) =       4.567001 [THz] =     152.338741 [cm-1]
     freq (    3) =      11.549427 [THz] =     385.247402 [cm-1]
     freq (    4) =      12.116859 [THz] =     404.174922 [cm-1]
     freq (    5) =      14.394656 [THz] =     480.154046 [cm-1]
     freq (    6) =      14.394656 [THz] =     480.154046 [cm-1]
 **************************************************************************

     Calculation of q =    0.0000000   0.5000000   0.0000000

   Info: using nr1, nr2, nr3 values from input

   Info: using nr1, nr2, nr3 values from input

     Parallelization info
     --------------------
     sticks:   dense  smooth     PW     G-vecs:    dense   smooth      PW
     Min          63      63     27                  684      684     175
     Max          64      64     28                  688      688     176
     Sum         253     253    109                 2741     2741     701



     bravais-lattice index     =            2
     lattice parameter (alat)  =      10.3370  a.u.
     unit-cell volume          =     276.1363 (a.u.)^3
     number of atoms/cell      =            2
     number of atomic types    =            1
     number of electrons       =         8.00
     number of Kohn-Sham states=            4
     kinetic-energy cutoff     =      18.0000  Ry
     charge density cutoff     =      72.0000  Ry
     Exchange-correlation      = SLA  PW   PBE  PBE ( 1  4  3  4 0 0)

     celldm(1)=  10.337000  celldm(2)=   0.000000  celldm(3)=   0.000000
     celldm(4)=   0.000000  celldm(5)=   0.000000  celldm(6)=   0.000000

     crystal axes: (cart. coord. in units of alat)
               a(1) = (  -0.500000   0.000000   0.500000 )  
               a(2) = (   0.000000   0.500000   0.500000 )  
               a(3) = (  -0.500000   0.500000   0.000000 )  

     reciprocal axes: (cart. coord. in units 2 pi/alat)
               b(1) = ( -1.000000 -1.000000  1.000000 )  
               b(2) = (  1.000000  1.000000  1.000000 )  
               b(3) = ( -1.000000  1.000000 -1.000000 )  


     PseudoPot. # 1 for Si read from file:
     /home/max/quantum_espresso/qe-6.1/pseudo/si_pbe_v1.uspp.F.UPF.txt
     MD5 check sum: a056efeee980c13900f22a371efd63c1
     Pseudo is Ultrasoft + core correction, Zval =  4.0
     Generated by new atomic code, or converted to UPF format
     Using radial grid of  899 points,  6 beta functions with: 
                l(1) =   0
                l(2) =   0
                l(3) =   1
                l(4) =   1
                l(5) =   2
                l(6) =   2
     Q(r) pseudized with  8 coefficients,  rinner =    0.900   0.900   0.900
                                                       0.900   0.900

     atomic species   valence    mass     pseudopotential
        Si             4.00    28.08600     Si( 1.00)

     48 Sym. Ops., with inversion, found



   Cartesian axes

     site n.     atom                  positions (alat units)
         1           Si  tau(   1) = (   0.0000000   0.0000000   0.0000000  )
         2           Si  tau(   2) = (   0.2500000   0.2500000   0.2500000  )

     number of k points=    80
                       cart. coord. in units 2pi/alat
        k(    1) = (  -0.1250000   0.1250000   0.1250000), wk =   0.0312500
        k(    2) = (  -0.1250000   0.6250000   0.1250000), wk =   0.0000000
        k(    3) = (  -0.3750000   0.3750000  -0.1250000), wk =   0.0625000
        k(    4) = (  -0.3750000   0.8750000  -0.1250000), wk =   0.0000000
        k(    5) = (   0.3750000  -0.3750000   0.6250000), wk =   0.0625000
        k(    6) = (   0.3750000   0.1250000   0.6250000), wk =   0.0000000
        k(    7) = (   0.1250000  -0.1250000   0.3750000), wk =   0.0625000
        k(    8) = (   0.1250000   0.3750000   0.3750000), wk =   0.0000000
        k(    9) = (  -0.1250000   0.6250000   0.1250000), wk =   0.0312500
        k(   10) = (  -0.1250000   1.1250000   0.1250000), wk =   0.0000000
        k(   11) = (   0.6250000  -0.1250000   0.8750000), wk =   0.0625000
        k(   12) = (   0.6250000   0.3750000   0.8750000), wk =   0.0000000
        k(   13) = (   0.3750000   0.1250000   0.6250000), wk =   0.0625000
        k(   14) = (   0.3750000   0.6250000   0.6250000), wk =   0.0000000
        k(   15) = (  -0.1250000  -0.8750000   0.1250000), wk =   0.0312500
        k(   16) = (  -0.1250000  -0.3750000   0.1250000), wk =   0.0000000
        k(   17) = (  -0.3750000   0.3750000   0.3750000), wk =   0.0312500
        k(   18) = (  -0.3750000   0.8750000   0.3750000), wk =   0.0000000
        k(   19) = (   0.3750000  -0.3750000   1.1250000), wk =   0.0625000
        k(   20) = (   0.3750000   0.1250000   1.1250000), wk =   0.0000000
        k(   21) = (  -0.1250000  -0.1250000   0.1250000), wk =   0.0312500
        k(   22) = (  -0.1250000   0.3750000   0.1250000), wk =   0.0000000
        k(   23) = (   0.1250000  -0.3750000   0.3750000), wk =   0.0625000
        k(   24) = (   0.1250000   0.1250000   0.3750000), wk =   0.0000000
        k(   25) = (   0.3750000  -0.1250000   0.3750000), wk =   0.0312500
        k(   26) = (   0.3750000   0.3750000   0.3750000), wk =   0.0000000
        k(   27) = (   0.3750000   0.1250000   0.3750000), wk =   0.0312500
        k(   28) = (   0.3750000   0.6250000   0.3750000), wk =   0.0000000
        k(   29) = (  -0.6250000   0.3750000  -0.3750000), wk =   0.0625000
        k(   30) = (  -0.6250000   0.8750000  -0.3750000), wk =   0.0000000
        k(   31) = (  -0.3750000   0.6250000  -0.3750000), wk =   0.0312500
        k(   32) = (  -0.3750000   1.1250000  -0.3750000), wk =   0.0000000
        k(   33) = (  -0.3750000  -0.6250000  -0.3750000), wk =   0.0312500
        k(   34) = (  -0.3750000  -0.1250000  -0.3750000), wk =   0.0000000
        k(   35) = (  -0.3750000   0.1250000  -0.1250000), wk =   0.0625000
        k(   36) = (  -0.3750000   0.6250000  -0.1250000), wk =   0.0000000
        k(   37) = (  -0.1250000   0.3750000  -0.1250000), wk =   0.0312500
        k(   38) = (  -0.1250000   0.8750000  -0.1250000), wk =   0.0000000
        k(   39) = (  -0.1250000  -0.3750000  -0.1250000), wk =   0.0312500
        k(   40) = (  -0.1250000   0.1250000  -0.1250000), wk =   0.0000000
        k(   41) = (  -0.1250000  -0.6250000   0.1250000), wk =   0.0312500
        k(   42) = (  -0.1250000  -0.1250000   0.1250000), wk =   0.0000000
        k(   43) = (   0.6250000  -0.1250000  -0.1250000), wk =   0.0625000
        k(   44) = (   0.6250000   0.3750000  -0.1250000), wk =   0.0000000
        k(   45) = (   0.6250000   0.1250000   0.1250000), wk =   0.0625000
        k(   46) = (   0.6250000   0.6250000   0.1250000), wk =   0.0000000
        k(   47) = (  -0.8750000   0.1250000  -0.6250000), wk =   0.0625000
        k(   48) = (  -0.8750000   0.6250000  -0.6250000), wk =   0.0000000
        k(   49) = (  -0.1250000   0.6250000  -0.8750000), wk =   0.0625000
        k(   50) = (  -0.1250000   1.1250000  -0.8750000), wk =   0.0000000
        k(   51) = (  -0.1250000   0.8750000  -0.6250000), wk =   0.0625000
        k(   52) = (  -0.1250000   1.3750000  -0.6250000), wk =   0.0000000
        k(   53) = (  -0.1250000  -0.8750000  -0.6250000), wk =   0.0625000
        k(   54) = (  -0.1250000  -0.3750000  -0.6250000), wk =   0.0000000
        k(   55) = (   0.8750000  -0.6250000   0.1250000), wk =   0.0625000
        k(   56) = (   0.8750000  -0.1250000   0.1250000), wk =   0.0000000
        k(   57) = (  -0.6250000  -0.1250000  -0.3750000), wk =   0.0625000
        k(   58) = (  -0.6250000   0.3750000  -0.3750000), wk =   0.0000000
        k(   59) = (   0.1250000   0.3750000  -0.6250000), wk =   0.0625000
        k(   60) = (   0.1250000   0.8750000  -0.6250000), wk =   0.0000000
        k(   61) = (   0.1250000   0.6250000  -0.3750000), wk =   0.0625000
        k(   62) = (   0.1250000   1.1250000  -0.3750000), wk =   0.0000000
        k(   63) = (   0.1250000  -0.6250000  -0.3750000), wk =   0.0625000
        k(   64) = (   0.1250000  -0.1250000  -0.3750000), wk =   0.0000000
        k(   65) = (   0.6250000  -0.3750000  -0.1250000), wk =   0.0625000
        k(   66) = (   0.6250000   0.1250000  -0.1250000), wk =   0.0000000
        k(   67) = (  -0.1250000   0.8750000   0.1250000), wk =   0.0312500
        k(   68) = (  -0.1250000   1.3750000   0.1250000), wk =   0.0000000
        k(   69) = (  -0.8750000  -0.1250000  -0.1250000), wk =   0.0625000
        k(   70) = (  -0.8750000   0.3750000  -0.1250000), wk =   0.0000000
        k(   71) = (  -0.8750000   0.1250000   0.1250000), wk =   0.0625000
        k(   72) = (  -0.8750000   0.6250000   0.1250000), wk =   0.0000000
        k(   73) = (  -0.3750000  -0.3750000   0.3750000), wk =   0.0312500
        k(   74) = (  -0.3750000   0.1250000   0.3750000), wk =   0.0000000
        k(   75) = (  -1.1250000   0.3750000  -0.3750000), wk =   0.0625000
        k(   76) = (  -1.1250000   0.8750000  -0.3750000), wk =   0.0000000
        k(   77) = (  -0.3750000   1.1250000  -0.3750000), wk =   0.0312500
        k(   78) = (  -0.3750000   1.6250000  -0.3750000), wk =   0.0000000
        k(   79) = (  -0.3750000  -1.1250000  -0.3750000), wk =   0.0312500
        k(   80) = (  -0.3750000  -0.6250000  -0.3750000), wk =   0.0000000

     Dense  grid:     2741 G-vectors     FFT dimensions: (  20,  20,  20)

     Estimated max dynamical RAM per process >       0.33MB

     Estimated total allocated dynamical RAM >       1.31MB

     Check: negative/imaginary core charge=   -0.000005    0.000000

     The potential is recalculated from file :
     ./_ph0/silicon.10.337.save/charge-density.dat

     Starting wfc are    8 atomic wfcs

     Band Structure Calculation
     Davidson diagonalization with overlap

     ethr =  1.25E-10,  avg # of iterations = 11.7

     total cpu time spent up to now is        2.2 secs

     End of band structure calculation

          k =-0.1250 0.1250 0.1250 (   338 PWs)   bands (ev):

    -5.6342   4.3813   5.6901   5.6901

          k =-0.1250 0.6250 0.1250 (   351 PWs)   bands (ev):

    -4.0802   1.0513   3.3641   3.8119

          k =-0.3750 0.3750-0.1250 (   352 PWs)   bands (ev):

    -4.6114   1.3906   3.7110   5.2085

          k =-0.3750 0.8750-0.1250 (   361 PWs)   bands (ev):

    -2.4467  -0.9080   2.0180   3.0879

          k = 0.3750-0.3750 0.6250 (   361 PWs)   bands (ev):

    -3.4776  -0.6796   3.7288   4.4394

          k = 0.3750 0.1250 0.6250 (   357 PWs)   bands (ev):

    -3.6668   0.1834   2.7249   4.0873

          k = 0.1250-0.1250 0.3750 (   353 PWs)   bands (ev):

    -5.1084   2.7632   4.6842   4.7473

          k = 0.1250 0.3750 0.3750 (   352 PWs)   bands (ev):

    -4.6114   1.3906   3.7110   5.2085

          k =-0.1250 0.6250 0.1250 (   351 PWs)   bands (ev):

    -4.0802   1.0513   3.3641   3.8119

          k =-0.1250 1.1250 0.1250 (   358 PWs)   bands (ev):

    -2.6126  -0.8112   2.6232   3.3459

          k = 0.6250-0.1250 0.8750 (   361 PWs)   bands (ev):

    -2.4467  -0.9080   2.0180   3.0879

          k = 0.6250 0.3750 0.8750 (   357 PWs)   bands (ev):

    -3.6668   0.1834   2.7249   4.0873

          k = 0.3750 0.1250 0.6250 (   357 PWs)   bands (ev):

    -3.6668   0.1834   2.7249   4.0873

          k = 0.3750 0.6250 0.6250 (   361 PWs)   bands (ev):

    -3.4776  -0.6796   3.7288   4.4394

          k =-0.1250-0.8750 0.1250 (   358 PWs)   bands (ev):

    -2.6126  -0.8112   2.6232   3.3459

          k =-0.1250-0.3750 0.1250 (   353 PWs)   bands (ev):

    -5.1084   2.7632   4.6842   4.7473

          k =-0.3750 0.3750 0.3750 (   353 PWs)   bands (ev):

    -4.1809   0.1068   4.9026   4.9026

          k =-0.3750 0.8750 0.3750 (   361 PWs)   bands (ev):

    -2.9829  -0.6011   2.0744   4.1240

          k = 0.3750-0.3750 1.1250 (   361 PWs)   bands (ev):

    -2.9829  -0.6011   2.0744   4.1240

          k = 0.3750 0.1250 1.1250 (   361 PWs)   bands (ev):

    -2.4467  -0.9080   2.0180   3.0879

          k =-0.1250-0.1250 0.1250 (   338 PWs)   bands (ev):

    -5.6342   4.3813   5.6901   5.6901

          k =-0.1250 0.3750 0.1250 (   353 PWs)   bands (ev):

    -5.1084   2.7632   4.6842   4.7473

          k = 0.1250-0.3750 0.3750 (   352 PWs)   bands (ev):

    -4.6114   1.3906   3.7110   5.2085

          k = 0.1250 0.1250 0.3750 (   353 PWs)   bands (ev):

    -5.1084   2.7632   4.6842   4.7473

          k = 0.3750-0.1250 0.3750 (   352 PWs)   bands (ev):

    -4.6114   1.3906   3.7110   5.2085

          k = 0.3750 0.3750 0.3750 (   353 PWs)   bands (ev):

    -4.1809   0.1068   4.9026   4.9026

          k = 0.3750 0.1250 0.3750 (   352 PWs)   bands (ev):

    -4.6114   1.3906   3.7110   5.2085

          k = 0.3750 0.6250 0.3750 (   361 PWs)   bands (ev):

    -3.4776  -0.6796   3.7288   4.4394

          k =-0.6250 0.3750-0.3750 (   361 PWs)   bands (ev):

    -3.4776  -0.6796   3.7288   4.4394

          k =-0.6250 0.8750-0.3750 (   357 PWs)   bands (ev):

    -3.6668   0.1834   2.7249   4.0873

          k =-0.3750 0.6250-0.3750 (   361 PWs)   bands (ev):

    -3.4776  -0.6796   3.7288   4.4394

          k =-0.3750 1.1250-0.3750 (   361 PWs)   bands (ev):

    -2.9829  -0.6011   2.0744   4.1240

          k =-0.3750-0.6250-0.3750 (   361 PWs)   bands (ev):

    -3.4776  -0.6796   3.7288   4.4394

          k =-0.3750-0.1250-0.3750 (   352 PWs)   bands (ev):

    -4.6114   1.3906   3.7110   5.2085

          k =-0.3750 0.1250-0.1250 (   353 PWs)   bands (ev):

    -5.1084   2.7632   4.6842   4.7473

          k =-0.3750 0.6250-0.1250 (   357 PWs)   bands (ev):

    -3.6668   0.1834   2.7249   4.0873

          k =-0.1250 0.3750-0.1250 (   353 PWs)   bands (ev):

    -5.1084   2.7632   4.6842   4.7473

          k =-0.1250 0.8750-0.1250 (   358 PWs)   bands (ev):

    -2.6126  -0.8112   2.6232   3.3459

          k =-0.1250-0.3750-0.1250 (   353 PWs)   bands (ev):

    -5.1084   2.7632   4.6842   4.7473

          k =-0.1250 0.1250-0.1250 (   338 PWs)   bands (ev):

    -5.6342   4.3813   5.6901   5.6901

          k =-0.1250-0.6250 0.1250 (   351 PWs)   bands (ev):

    -4.0802   1.0513   3.3641   3.8119

          k =-0.1250-0.1250 0.1250 (   338 PWs)   bands (ev):

    -5.6342   4.3813   5.6901   5.6901

          k = 0.6250-0.1250-0.1250 (   351 PWs)   bands (ev):

    -4.0802   1.0513   3.3641   3.8119

          k = 0.6250 0.3750-0.1250 (   357 PWs)   bands (ev):

    -3.6668   0.1834   2.7249   4.0873

          k = 0.6250 0.1250 0.1250 (   351 PWs)   bands (ev):

    -4.0802   1.0513   3.3641   3.8119

          k = 0.6250 0.6250 0.1250 (   361 PWs)   bands (ev):

    -2.9829  -0.6011   2.0744   4.1240

          k =-0.8750 0.1250-0.6250 (   361 PWs)   bands (ev):

    -2.4467  -0.9080   2.0180   3.0879

          k =-0.8750 0.6250-0.6250 (   352 PWs)   bands (ev):

    -4.6114   1.3906   3.7110   5.2085

          k =-0.1250 0.6250-0.8750 (   361 PWs)   bands (ev):

    -2.4467  -0.9080   2.0180   3.0879

          k =-0.1250 1.1250-0.8750 (   358 PWs)   bands (ev):

    -2.6126  -0.8112   2.6232   3.3459

          k =-0.1250 0.8750-0.6250 (   361 PWs)   bands (ev):

    -2.4467  -0.9080   2.0180   3.0879

          k =-0.1250 1.3750-0.6250 (   361 PWs)   bands (ev):

    -2.9829  -0.6011   2.0744   4.1240

          k =-0.1250-0.8750-0.6250 (   361 PWs)   bands (ev):

    -2.4467  -0.9080   2.0180   3.0879

          k =-0.1250-0.3750-0.6250 (   357 PWs)   bands (ev):

    -3.6668   0.1834   2.7249   4.0873

          k = 0.8750-0.6250 0.1250 (   361 PWs)   bands (ev):

    -2.4467  -0.9080   2.0180   3.0879

          k = 0.8750-0.1250 0.1250 (   358 PWs)   bands (ev):

    -2.6126  -0.8112   2.6232   3.3459

          k =-0.6250-0.1250-0.3750 (   357 PWs)   bands (ev):

    -3.6668   0.1834   2.7249   4.0873

          k =-0.6250 0.3750-0.3750 (   361 PWs)   bands (ev):

    -3.4776  -0.6796   3.7288   4.4394

          k = 0.1250 0.3750-0.6250 (   357 PWs)   bands (ev):

    -3.6668   0.1834   2.7249   4.0873

          k = 0.1250 0.8750-0.6250 (   361 PWs)   bands (ev):

    -2.4467  -0.9080   2.0180   3.0879

          k = 0.1250 0.6250-0.3750 (   357 PWs)   bands (ev):

    -3.6668   0.1834   2.7249   4.0873

          k = 0.1250 1.1250-0.3750 (   361 PWs)   bands (ev):

    -2.4467  -0.9080   2.0180   3.0879

          k = 0.1250-0.6250-0.3750 (   357 PWs)   bands (ev):

    -3.6668   0.1834   2.7249   4.0873

          k = 0.1250-0.1250-0.3750 (   353 PWs)   bands (ev):

    -5.1084   2.7632   4.6842   4.7473

          k = 0.6250-0.3750-0.1250 (   357 PWs)   bands (ev):

    -3.6668   0.1834   2.7249   4.0873

          k = 0.6250 0.1250-0.1250 (   351 PWs)   bands (ev):

    -4.0802   1.0513   3.3641   3.8119

          k =-0.1250 0.8750 0.1250 (   358 PWs)   bands (ev):

    -2.6126  -0.8112   2.6232   3.3459

          k =-0.1250 1.3750 0.1250 (   351 PWs)   bands (ev):

    -4.0802   1.0513   3.3641   3.8119

          k =-0.8750-0.1250-0.1250 (   358 PWs)   bands (ev):

    -2.6126  -0.8112   2.6232   3.3459

          k =-0.8750 0.3750-0.1250 (   361 PWs)   bands (ev):

    -2.4467  -0.9080   2.0180   3.0879

          k =-0.8750 0.1250 0.1250 (   358 PWs)   bands (ev):

    -2.6126  -0.8112   2.6232   3.3459

          k =-0.8750 0.6250 0.1250 (   361 PWs)   bands (ev):

    -2.4467  -0.9080   2.0180   3.0879

          k =-0.3750-0.3750 0.3750 (   353 PWs)   bands (ev):

    -4.1809   0.1068   4.9026   4.9026

          k =-0.3750 0.1250 0.3750 (   352 PWs)   bands (ev):

    -4.6114   1.3906   3.7110   5.2085

          k =-1.1250 0.3750-0.3750 (   361 PWs)   bands (ev):

    -2.9829  -0.6011   2.0744   4.1240

          k =-1.1250 0.8750-0.3750 (   351 PWs)   bands (ev):

    -4.0802   1.0513   3.3641   3.8119

          k =-0.3750 1.1250-0.3750 (   361 PWs)   bands (ev):

    -2.9829  -0.6011   2.0744   4.1240

          k =-0.3750 1.6250-0.3750 (   353 PWs)   bands (ev):

    -4.1809   0.1068   4.9026   4.9026

          k =-0.3750-1.1250-0.3750 (   361 PWs)   bands (ev):

    -2.9829  -0.6011   2.0744   4.1240

          k =-0.3750-0.6250-0.3750 (   361 PWs)   bands (ev):

    -3.4776  -0.6796   3.7288   4.4394

     highest occupied level (ev):     5.6901

     Writing output data file silicon.10.337.save

                                                                                

     bravais-lattice index     =            2
     lattice parameter (alat)  =      10.3370  a.u.
     unit-cell volume          =     276.1363 (a.u.)^3
     number of atoms/cell      =            2
     number of atomic types    =            1
     kinetic-energy cut-off    =      18.0000  Ry
     charge density cut-off    =      72.0000  Ry
     convergence threshold     =      1.0E-12
     beta                      =       0.7000
     number of iterations used =            4
     Exchange-correlation      = SLA  PW   PBE  PBE ( 1  4  3  4 0 0)


     celldm(1)=   10.33700  celldm(2)=    0.00000  celldm(3)=    0.00000
     celldm(4)=    0.00000  celldm(5)=    0.00000  celldm(6)=    0.00000

     crystal axes: (cart. coord. in units of alat)
               a(1) = ( -0.5000  0.0000  0.5000 )  
               a(2) = (  0.0000  0.5000  0.5000 )  
               a(3) = ( -0.5000  0.5000  0.0000 )  

     reciprocal axes: (cart. coord. in units 2 pi/alat)
               b(1) = ( -1.0000 -1.0000  1.0000 )  
               b(2) = (  1.0000  1.0000  1.0000 )  
               b(3) = ( -1.0000  1.0000 -1.0000 )  


     Atoms inside the unit cell: 

     Cartesian axes

     site n.  atom      mass           positions (alat units)
        1     Si  28.0860   tau(    1) = (    0.00000    0.00000    0.00000  )
        2     Si  28.0860   tau(    2) = (    0.25000    0.25000    0.25000  )

     Computing dynamical matrix for 
                    q = (   0.0000000   0.5000000   0.0000000 )

      8 Sym.Ops. (no q -> -q+G )


     G cutoff =  194.8775  (    685 G-vectors)     FFT grid: ( 20, 20, 20)
     number of k points=    80

     PseudoPot. # 1 for Si read from file:
     /home/max/quantum_espresso/qe-6.1/pseudo/si_pbe_v1.uspp.F.UPF.txt
     MD5 check sum: a056efeee980c13900f22a371efd63c1
     Pseudo is Ultrasoft + core correction, Zval =  4.0
     Generated by new atomic code, or converted to UPF format
     Using radial grid of  899 points,  6 beta functions with: 
                l(1) =   0
                l(2) =   0
                l(3) =   1
                l(4) =   1
                l(5) =   2
                l(6) =   2
     Q(r) pseudized with  8 coefficients,  rinner =    0.900   0.900   0.900
                                                       0.900   0.900

     Mode symmetry, C_4v (4mm)  point group:


     Atomic displacements:
     There are   4 irreducible representations

     Representation     1      1 modes -A_1  G_1 D_1  To be done

     Representation     2      1 modes -B_2  G_4 D_2'  To be done

     Representation     3      2 modes -E    G_5 D_5  To be done

     Representation     4      2 modes -E    G_5 D_5  To be done



     Alpha used in Ewald sum =   0.7000
     PHONON       :    23.15s CPU        25.68s WALL



     Representation #  1 mode #   1

     Self-consistent Calculation

      iter #   1 total cpu time :    26.0 secs   av.it.:   5.8
      thresh= 1.000E-02 alpha_mix =  0.700 |ddv_scf|^2 =  2.968E-03

      iter #   2 total cpu time :    26.2 secs   av.it.:   7.7
      thresh= 5.448E-03 alpha_mix =  0.700 |ddv_scf|^2 =  3.906E-02

      iter #   3 total cpu time :    26.4 secs   av.it.:   6.8
      thresh= 1.000E-02 alpha_mix =  0.700 |ddv_scf|^2 =  1.373E-07

      iter #   4 total cpu time :    26.6 secs   av.it.:   8.2
      thresh= 3.706E-05 alpha_mix =  0.700 |ddv_scf|^2 =  1.265E-08

      iter #   5 total cpu time :    26.8 secs   av.it.:   7.8
      thresh= 1.125E-05 alpha_mix =  0.700 |ddv_scf|^2 =  7.366E-10

      iter #   6 total cpu time :    27.0 secs   av.it.:   7.8
      thresh= 2.714E-06 alpha_mix =  0.700 |ddv_scf|^2 =  2.621E-12

      iter #   7 total cpu time :    27.2 secs   av.it.:   8.0
      thresh= 1.619E-07 alpha_mix =  0.700 |ddv_scf|^2 =  5.245E-13

     End of self-consistent calculation

     Convergence has been achieved 


     Representation #  2 mode #   2

     Self-consistent Calculation

      iter #   1 total cpu time :    27.4 secs   av.it.:   4.9
      thresh= 1.000E-02 alpha_mix =  0.700 |ddv_scf|^2 =  5.517E-06

      iter #   2 total cpu time :    27.6 secs   av.it.:   8.7
      thresh= 2.349E-04 alpha_mix =  0.700 |ddv_scf|^2 =  1.337E-06

      iter #   3 total cpu time :    28.0 secs   av.it.:   8.5
      thresh= 1.156E-04 alpha_mix =  0.700 |ddv_scf|^2 =  4.310E-08

      iter #   4 total cpu time :    28.2 secs   av.it.:   8.1
      thresh= 2.076E-05 alpha_mix =  0.700 |ddv_scf|^2 =  7.014E-10

      iter #   5 total cpu time :    28.5 secs   av.it.:   8.6
      thresh= 2.648E-06 alpha_mix =  0.700 |ddv_scf|^2 =  6.918E-12

      iter #   6 total cpu time :    28.7 secs   av.it.:   7.9
      thresh= 2.630E-07 alpha_mix =  0.700 |ddv_scf|^2 =  7.022E-14

     End of self-consistent calculation

     Convergence has been achieved 


     Representation #  3 modes #   3  4

     Self-consistent Calculation

      iter #   1 total cpu time :    29.0 secs   av.it.:   5.0
      thresh= 1.000E-02 alpha_mix =  0.700 |ddv_scf|^2 =  1.026E-06

      iter #   2 total cpu time :    29.5 secs   av.it.:   9.8
      thresh= 1.013E-04 alpha_mix =  0.700 |ddv_scf|^2 =  1.269E-07

      iter #   3 total cpu time :    30.1 secs   av.it.:   9.5
      thresh= 3.562E-05 alpha_mix =  0.700 |ddv_scf|^2 =  6.739E-09

      iter #   4 total cpu time :    30.6 secs   av.it.:   8.8
      thresh= 8.209E-06 alpha_mix =  0.700 |ddv_scf|^2 =  9.411E-12

      iter #   5 total cpu time :    31.0 secs   av.it.:   9.2
      thresh= 3.068E-07 alpha_mix =  0.700 |ddv_scf|^2 =  2.863E-13

     End of self-consistent calculation

     Convergence has been achieved 


     Representation #  4 modes #   5  6

     Self-consistent Calculation

      iter #   1 total cpu time :    31.4 secs   av.it.:   5.0
      thresh= 1.000E-02 alpha_mix =  0.700 |ddv_scf|^2 =  9.087E-07

      iter #   2 total cpu time :    32.0 secs   av.it.:   9.8
      thresh= 9.533E-05 alpha_mix =  0.700 |ddv_scf|^2 =  1.150E-07

      iter #   3 total cpu time :    32.5 secs   av.it.:   9.5
      thresh= 3.392E-05 alpha_mix =  0.700 |ddv_scf|^2 =  6.181E-09

      iter #   4 total cpu time :    32.9 secs   av.it.:   8.9
      thresh= 7.862E-06 alpha_mix =  0.700 |ddv_scf|^2 =  1.407E-11

      iter #   5 total cpu time :    33.4 secs   av.it.:   9.2
      thresh= 3.751E-07 alpha_mix =  0.700 |ddv_scf|^2 =  4.336E-14

     End of self-consistent calculation

     Convergence has been achieved 

     Number of q in the star =    6
     List of q in the star:
          1   0.000000000   0.500000000   0.000000000
          2   0.000000000  -0.500000000   0.000000000
          3   0.500000000   0.000000000   0.000000000
          4   0.000000000   0.000000000   0.500000000
          5   0.000000000   0.000000000  -0.500000000
          6  -0.500000000   0.000000000   0.000000000

     Diagonalizing the dynamical matrix

     q = (    0.000000000   0.500000000   0.000000000 ) 

 **************************************************************************
     freq (    1) =       4.221694 [THz] =     140.820570 [cm-1]
     freq (    2) =       4.221694 [THz] =     140.820570 [cm-1]
     freq (    3) =       7.178370 [THz] =     239.444637 [cm-1]
     freq (    4) =      13.686882 [THz] =     456.545236 [cm-1]
     freq (    5) =      13.686882 [THz] =     456.545236 [cm-1]
     freq (    6) =      14.303433 [THz] =     477.111164 [cm-1]
 **************************************************************************

     Mode symmetry, C_4v (4mm)  point group:

     freq (  1 -  2) =        140.8  [cm-1]   --> E    G_5 D_5       
     freq (  3 -  3) =        239.4  [cm-1]   --> A_1  G_1 D_1       
     freq (  4 -  5) =        456.5  [cm-1]   --> E    G_5 D_5       
     freq (  6 -  6) =        477.1  [cm-1]   --> B_2  G_4 D_2'      

     Calculation of q =    0.7500000  -0.2500000   0.7500000

   Info: using nr1, nr2, nr3 values from input

   Info: using nr1, nr2, nr3 values from input

     Parallelization info
     --------------------
     sticks:   dense  smooth     PW     G-vecs:    dense   smooth      PW
     Min          63      63     30                  684      684     216
     Max          64      64     31                  688      688     218
     Sum         253     253    121                 2741     2741     869



     bravais-lattice index     =            2
     lattice parameter (alat)  =      10.3370  a.u.
     unit-cell volume          =     276.1363 (a.u.)^3
     number of atoms/cell      =            2
     number of atomic types    =            1
     number of electrons       =         8.00
     number of Kohn-Sham states=            4
     kinetic-energy cutoff     =      18.0000  Ry
     charge density cutoff     =      72.0000  Ry
     Exchange-correlation      = SLA  PW   PBE  PBE ( 1  4  3  4 0 0)

     celldm(1)=  10.337000  celldm(2)=   0.000000  celldm(3)=   0.000000
     celldm(4)=   0.000000  celldm(5)=   0.000000  celldm(6)=   0.000000

     crystal axes: (cart. coord. in units of alat)
               a(1) = (  -0.500000   0.000000   0.500000 )  
               a(2) = (   0.000000   0.500000   0.500000 )  
               a(3) = (  -0.500000   0.500000   0.000000 )  

     reciprocal axes: (cart. coord. in units 2 pi/alat)
               b(1) = ( -1.000000 -1.000000  1.000000 )  
               b(2) = (  1.000000  1.000000  1.000000 )  
               b(3) = ( -1.000000  1.000000 -1.000000 )  


     PseudoPot. # 1 for Si read from file:
     /home/max/quantum_espresso/qe-6.1/pseudo/si_pbe_v1.uspp.F.UPF.txt
     MD5 check sum: a056efeee980c13900f22a371efd63c1
     Pseudo is Ultrasoft + core correction, Zval =  4.0
     Generated by new atomic code, or converted to UPF format
     Using radial grid of  899 points,  6 beta functions with: 
                l(1) =   0
                l(2) =   0
                l(3) =   1
                l(4) =   1
                l(5) =   2
                l(6) =   2
     Q(r) pseudized with  8 coefficients,  rinner =    0.900   0.900   0.900
                                                       0.900   0.900

     atomic species   valence    mass     pseudopotential
        Si             4.00    28.08600     Si( 1.00)

     48 Sym. Ops., with inversion, found



   Cartesian axes

     site n.     atom                  positions (alat units)
         1           Si  tau(   1) = (   0.0000000   0.0000000   0.0000000  )
         2           Si  tau(   2) = (   0.2500000   0.2500000   0.2500000  )

     number of k points=   288

     Number of k-points >= 100: set verbosity='high' to print them.

     Dense  grid:     2741 G-vectors     FFT dimensions: (  20,  20,  20)

     Estimated max dynamical RAM per process >       0.33MB

     Estimated total allocated dynamical RAM >       1.31MB

     Check: negative/imaginary core charge=   -0.000005    0.000000

     The potential is recalculated from file :
     ./_ph0/silicon.10.337.save/charge-density.dat

     Starting wfc are    8 atomic wfcs

     Band Structure Calculation
     Davidson diagonalization with overlap

     ethr =  1.25E-10,  avg # of iterations = 11.6

     total cpu time spent up to now is        4.5 secs

     End of band structure calculation

     Number of k-points >= 100: set verbosity='high' to print the bands.

     highest occupied level (ev):     5.6901

     Writing output data file silicon.10.337.save

                                                                                

     bravais-lattice index     =            2
     lattice parameter (alat)  =      10.3370  a.u.
     unit-cell volume          =     276.1363 (a.u.)^3
     number of atoms/cell      =            2
     number of atomic types    =            1
     kinetic-energy cut-off    =      18.0000  Ry
     charge density cut-off    =      72.0000  Ry
     convergence threshold     =      1.0E-12
     beta                      =       0.7000
     number of iterations used =            4
     Exchange-correlation      = SLA  PW   PBE  PBE ( 1  4  3  4 0 0)


     celldm(1)=   10.33700  celldm(2)=    0.00000  celldm(3)=    0.00000
     celldm(4)=    0.00000  celldm(5)=    0.00000  celldm(6)=    0.00000

     crystal axes: (cart. coord. in units of alat)
               a(1) = ( -0.5000  0.0000  0.5000 )  
               a(2) = (  0.0000  0.5000  0.5000 )  
               a(3) = ( -0.5000  0.5000  0.0000 )  

     reciprocal axes: (cart. coord. in units 2 pi/alat)
               b(1) = ( -1.0000 -1.0000  1.0000 )  
               b(2) = (  1.0000  1.0000  1.0000 )  
               b(3) = ( -1.0000  1.0000 -1.0000 )  


     Atoms inside the unit cell: 

     Cartesian axes

     site n.  atom      mass           positions (alat units)
        1     Si  28.0860   tau(    1) = (    0.00000    0.00000    0.00000  )
        2     Si  28.0860   tau(    2) = (    0.25000    0.25000    0.25000  )

     Computing dynamical matrix for 
                    q = (   0.7500000  -0.2500000   0.7500000 )

      2 Sym.Ops. (no q -> -q+G )


     G cutoff =  194.8775  (    685 G-vectors)     FFT grid: ( 20, 20, 20)
     number of k points=   288

     PseudoPot. # 1 for Si read from file:
     /home/max/quantum_espresso/qe-6.1/pseudo/si_pbe_v1.uspp.F.UPF.txt
     MD5 check sum: a056efeee980c13900f22a371efd63c1
     Pseudo is Ultrasoft + core correction, Zval =  4.0
     Generated by new atomic code, or converted to UPF format
     Using radial grid of  899 points,  6 beta functions with: 
                l(1) =   0
                l(2) =   0
                l(3) =   1
                l(4) =   1
                l(5) =   2
                l(6) =   2
     Q(r) pseudized with  8 coefficients,  rinner =    0.900   0.900   0.900
                                                       0.900   0.900

     Mode symmetry, C_s (m)     point group:


     Atomic displacements:
     There are   6 irreducible representations

     Representation     1      1 modes -A'  To be done

     Representation     2      1 modes -A'  To be done

     Representation     3      1 modes -A'  To be done

     Representation     4      1 modes -A'  To be done

     Representation     5      1 modes -A''  To be done

     Representation     6      1 modes -A''  To be done



     Alpha used in Ewald sum =   0.7000
     PHONON       :    33.40s CPU        36.48s WALL



     Representation #  1 mode #   1

     Self-consistent Calculation

      iter #   1 total cpu time :    37.1 secs   av.it.:   5.3
      thresh= 1.000E-02 alpha_mix =  0.700 |ddv_scf|^2 =  6.115E-05

      iter #   2 total cpu time :    38.0 secs   av.it.:   8.9
      thresh= 7.820E-04 alpha_mix =  0.700 |ddv_scf|^2 =  1.601E-04

      iter #   3 total cpu time :    38.7 secs   av.it.:   7.6
      thresh= 1.265E-03 alpha_mix =  0.700 |ddv_scf|^2 =  1.140E-06

      iter #   4 total cpu time :    39.4 secs   av.it.:   8.4
      thresh= 1.068E-04 alpha_mix =  0.700 |ddv_scf|^2 =  5.682E-08

      iter #   5 total cpu time :    40.4 secs   av.it.:   8.3
      thresh= 2.384E-05 alpha_mix =  0.700 |ddv_scf|^2 =  7.286E-09

      iter #   6 total cpu time :    41.1 secs   av.it.:   8.5
      thresh= 8.536E-06 alpha_mix =  0.700 |ddv_scf|^2 =  7.992E-11

      iter #   7 total cpu time :    42.1 secs   av.it.:   8.8
      thresh= 8.940E-07 alpha_mix =  0.700 |ddv_scf|^2 =  2.898E-12

      iter #   8 total cpu time :    42.8 secs   av.it.:   8.6
      thresh= 1.702E-07 alpha_mix =  0.700 |ddv_scf|^2 =  1.769E-13

     End of self-consistent calculation

     Convergence has been achieved 


     Representation #  2 mode #   2

     Self-consistent Calculation

      iter #   1 total cpu time :    43.5 secs   av.it.:   5.4
      thresh= 1.000E-02 alpha_mix =  0.700 |ddv_scf|^2 =  1.088E-04

      iter #   2 total cpu time :    44.5 secs   av.it.:   8.7
      thresh= 1.043E-03 alpha_mix =  0.700 |ddv_scf|^2 =  3.103E-04

      iter #   3 total cpu time :    45.2 secs   av.it.:   7.4
      thresh= 1.762E-03 alpha_mix =  0.700 |ddv_scf|^2 =  7.836E-07

      iter #   4 total cpu time :    46.1 secs   av.it.:   8.6
      thresh= 8.852E-05 alpha_mix =  0.700 |ddv_scf|^2 =  5.629E-08

      iter #   5 total cpu time :    46.9 secs   av.it.:   8.2
      thresh= 2.373E-05 alpha_mix =  0.700 |ddv_scf|^2 =  1.030E-08

      iter #   6 total cpu time :    47.6 secs   av.it.:   8.5
      thresh= 1.015E-05 alpha_mix =  0.700 |ddv_scf|^2 =  7.911E-11

      iter #   7 total cpu time :    48.6 secs   av.it.:   8.8
      thresh= 8.894E-07 alpha_mix =  0.700 |ddv_scf|^2 =  2.575E-12

      iter #   8 total cpu time :    49.3 secs   av.it.:   8.7
      thresh= 1.605E-07 alpha_mix =  0.700 |ddv_scf|^2 =  6.901E-13

     End of self-consistent calculation

     Convergence has been achieved 


     Representation #  3 mode #   3

     Self-consistent Calculation

      iter #   1 total cpu time :    50.2 secs   av.it.:   5.3
      thresh= 1.000E-02 alpha_mix =  0.700 |ddv_scf|^2 =  8.532E-05

      iter #   2 total cpu time :    50.9 secs   av.it.:   8.8
      thresh= 9.237E-04 alpha_mix =  0.700 |ddv_scf|^2 =  2.277E-04

      iter #   3 total cpu time :    51.6 secs   av.it.:   7.4
      thresh= 1.509E-03 alpha_mix =  0.700 |ddv_scf|^2 =  1.338E-06

      iter #   4 total cpu time :    52.5 secs   av.it.:   8.2
      thresh= 1.157E-04 alpha_mix =  0.700 |ddv_scf|^2 =  5.737E-08

      iter #   5 total cpu time :    53.3 secs   av.it.:   8.4
      thresh= 2.395E-05 alpha_mix =  0.700 |ddv_scf|^2 =  1.057E-08

      iter #   6 total cpu time :    54.2 secs   av.it.:   8.5
      thresh= 1.028E-05 alpha_mix =  0.700 |ddv_scf|^2 =  4.632E-11

      iter #   7 total cpu time :    55.0 secs   av.it.:   8.7
      thresh= 6.806E-07 alpha_mix =  0.700 |ddv_scf|^2 =  1.591E-12

      iter #   8 total cpu time :    56.0 secs   av.it.:   8.8
      thresh= 1.261E-07 alpha_mix =  0.700 |ddv_scf|^2 =  2.362E-13

     End of self-consistent calculation

     Convergence has been achieved 


     Representation #  4 mode #   4

     Self-consistent Calculation

      iter #   1 total cpu time :    56.6 secs   av.it.:   5.2
      thresh= 1.000E-02 alpha_mix =  0.700 |ddv_scf|^2 =  3.767E-05

      iter #   2 total cpu time :    57.4 secs   av.it.:   8.9
[...]
        k(   59) = (  -0.8750000   0.1250000  -0.1250000), wk =   0.0625000
        k(   60) = (  -1.3750000  -0.8750000  -0.1250000), wk =   0.0000000
        k(   61) = (  -1.1250000   0.3750000  -0.3750000), wk =   0.0625000
        k(   62) = (  -1.6250000  -0.6250000  -0.3750000), wk =   0.0000000
        k(   63) = (  -0.3750000   0.3750000   1.1250000), wk =   0.0625000
        k(   64) = (  -0.8750000  -0.6250000   1.1250000), wk =   0.0000000

     Dense  grid:     2741 G-vectors     FFT dimensions: (  20,  20,  20)

     Estimated max dynamical RAM per process >       0.33MB

     Estimated total allocated dynamical RAM >       1.31MB

     Check: negative/imaginary core charge=   -0.000005    0.000000

     The potential is recalculated from file :
     ./_ph0/silicon.10.337.save/charge-density.dat

     Starting wfc are    8 atomic wfcs

     Band Structure Calculation
     Davidson diagonalization with overlap

     ethr =  1.25E-10,  avg # of iterations = 11.6

     total cpu time spent up to now is        7.1 secs

     End of band structure calculation

          k =-0.1250 0.1250 0.1250 (   338 PWs)   bands (ev):

    -5.6342   4.3813   5.6901   5.6901

          k =-0.6250-0.8750 0.1250 (   361 PWs)   bands (ev):

    -2.4467  -0.9080   2.0180   3.0879

          k =-0.3750 0.3750-0.1250 (   352 PWs)   bands (ev):

    -4.6114   1.3906   3.7110   5.2085

          k =-0.8750-0.6250-0.1250 (   361 PWs)   bands (ev):

    -2.4467  -0.9080   2.0180   3.0879

          k = 0.3750-0.3750 0.6250 (   361 PWs)   bands (ev):

    -3.4776  -0.6796   3.7288   4.4394

          k =-0.1250-1.3750 0.6250 (   361 PWs)   bands (ev):

    -2.9829  -0.6011   2.0744   4.1240

          k = 0.1250-0.1250 0.3750 (   353 PWs)   bands (ev):

    -5.1084   2.7632   4.6842   4.7473

          k =-0.3750-1.1250 0.3750 (   361 PWs)   bands (ev):

    -2.9829  -0.6011   2.0744   4.1240

          k =-0.1250 0.6250 0.1250 (   351 PWs)   bands (ev):

    -4.0802   1.0513   3.3641   3.8119

          k =-0.6250-0.3750 0.1250 (   357 PWs)   bands (ev):

    -3.6668   0.1834   2.7249   4.0873

          k = 0.6250-0.1250 0.8750 (   361 PWs)   bands (ev):

    -2.4467  -0.9080   2.0180   3.0879

          k = 0.1250-1.1250 0.8750 (   358 PWs)   bands (ev):

    -2.6126  -0.8112   2.6232   3.3459

          k = 0.3750 0.1250 0.6250 (   357 PWs)   bands (ev):

    -3.6668   0.1834   2.7249   4.0873

          k =-0.1250-0.8750 0.6250 (   361 PWs)   bands (ev):

    -2.4467  -0.9080   2.0180   3.0879

          k =-0.1250-0.8750 0.1250 (   358 PWs)   bands (ev):

    -2.6126  -0.8112   2.6232   3.3459

          k =-0.6250-1.8750 0.1250 (   351 PWs)   bands (ev):

    -4.0802   1.0513   3.3641   3.8119

          k =-0.3750 0.3750 0.3750 (   353 PWs)   bands (ev):

    -4.1809   0.1068   4.9026   4.9026

          k =-0.8750-0.6250 0.3750 (   357 PWs)   bands (ev):

    -3.6668   0.1834   2.7249   4.0873

          k = 0.3750-0.3750 1.1250 (   361 PWs)   bands (ev):

    -2.9829  -0.6011   2.0744   4.1240

          k =-0.1250-1.3750 1.1250 (   361 PWs)   bands (ev):

    -2.4467  -0.9080   2.0180   3.0879

          k = 0.1250-0.3750 0.3750 (   352 PWs)   bands (ev):

    -4.6114   1.3906   3.7110   5.2085

          k =-0.3750-1.3750 0.3750 (   361 PWs)   bands (ev):

    -3.4776  -0.6796   3.7288   4.4394

          k = 0.3750-0.3750-0.1250 (   352 PWs)   bands (ev):

    -4.6114   1.3906   3.7110   5.2085

          k =-0.1250-1.3750-0.1250 (   351 PWs)   bands (ev):

    -4.0802   1.0513   3.3641   3.8119

          k =-0.6250 0.3750-0.3750 (   361 PWs)   bands (ev):

    -3.4776  -0.6796   3.7288   4.4394

          k =-1.1250-0.6250-0.3750 (   357 PWs)   bands (ev):

    -3.6668   0.1834   2.7249   4.0873

          k =-0.3750 0.3750 0.6250 (   361 PWs)   bands (ev):

    -3.4776  -0.6796   3.7288   4.4394

          k =-0.8750-0.6250 0.6250 (   352 PWs)   bands (ev):

    -4.6114   1.3906   3.7110   5.2085

          k =-0.3750 0.1250-0.1250 (   353 PWs)   bands (ev):

    -5.1084   2.7632   4.6842   4.7473

          k =-0.8750-0.8750-0.1250 (   358 PWs)   bands (ev):

    -2.6126  -0.8112   2.6232   3.3459

          k =-0.1250 0.1250 0.3750 (   353 PWs)   bands (ev):

    -5.1084   2.7632   4.6842   4.7473

          k =-0.6250-0.8750 0.3750 (   357 PWs)   bands (ev):

    -3.6668   0.1834   2.7249   4.0873

          k = 0.1250 0.6250-0.1250 (   351 PWs)   bands (ev):

    -4.0802   1.0513   3.3641   3.8119

          k =-0.3750-0.3750-0.1250 (   352 PWs)   bands (ev):

    -4.6114   1.3906   3.7110   5.2085

          k = 0.6250 0.1250-0.1250 (   351 PWs)   bands (ev):

    -4.0802   1.0513   3.3641   3.8119

          k = 0.1250-0.8750-0.1250 (   358 PWs)   bands (ev):

    -2.6126  -0.8112   2.6232   3.3459

          k =-0.8750 0.1250-0.6250 (   361 PWs)   bands (ev):

    -2.4467  -0.9080   2.0180   3.0879

          k =-1.3750-0.8750-0.6250 (   352 PWs)   bands (ev):

    -4.6114   1.3906   3.7110   5.2085

          k = 0.8750-0.1250 0.6250 (   361 PWs)   bands (ev):

    -2.4467  -0.9080   2.0180   3.0879

          k = 0.3750-1.1250 0.6250 (   357 PWs)   bands (ev):

    -3.6668   0.1834   2.7249   4.0873

          k =-0.6250 0.1250 0.8750 (   361 PWs)   bands (ev):

    -2.4467  -0.9080   2.0180   3.0879

          k =-1.1250-0.8750 0.8750 (   338 PWs)   bands (ev):

    -5.6342   4.3813   5.6901   5.6901

          k =-0.1250 0.8750 0.6250 (   361 PWs)   bands (ev):

    -2.4467  -0.9080   2.0180   3.0879

          k =-0.6250-0.1250 0.6250 (   361 PWs)   bands (ev):

    -2.9829  -0.6011   2.0744   4.1240

          k = 0.1250 0.8750-0.6250 (   361 PWs)   bands (ev):

    -2.4467  -0.9080   2.0180   3.0879

          k =-0.3750-0.1250-0.6250 (   357 PWs)   bands (ev):

    -3.6668   0.1834   2.7249   4.0873

          k =-0.6250-0.1250-0.3750 (   357 PWs)   bands (ev):

    -3.6668   0.1834   2.7249   4.0873

          k =-1.1250-1.1250-0.3750 (   351 PWs)   bands (ev):

    -4.0802   1.0513   3.3641   3.8119

          k = 0.6250 0.1250 0.3750 (   357 PWs)   bands (ev):

    -3.6668   0.1834   2.7249   4.0873

          k = 0.1250-0.8750 0.3750 (   361 PWs)   bands (ev):

    -2.4467  -0.9080   2.0180   3.0879

          k =-0.3750-0.1250 0.6250 (   357 PWs)   bands (ev):

    -3.6668   0.1834   2.7249   4.0873

          k =-0.8750-1.1250 0.6250 (   353 PWs)   bands (ev):

    -5.1084   2.7632   4.6842   4.7473

          k = 0.1250 0.6250 0.3750 (   357 PWs)   bands (ev):

    -3.6668   0.1834   2.7249   4.0873

          k =-0.3750-0.3750 0.3750 (   353 PWs)   bands (ev):

    -4.1809   0.1068   4.9026   4.9026

          k =-0.1250 0.6250-0.3750 (   357 PWs)   bands (ev):

    -3.6668   0.1834   2.7249   4.0873

          k =-0.6250-0.3750-0.3750 (   361 PWs)   bands (ev):

    -3.4776  -0.6796   3.7288   4.4394

          k = 0.1250-0.8750-0.1250 (   358 PWs)   bands (ev):

    -2.6126  -0.8112   2.6232   3.3459

          k =-0.3750-1.8750-0.1250 (   353 PWs)   bands (ev):

    -5.1084   2.7632   4.6842   4.7473

          k =-0.8750 0.1250-0.1250 (   358 PWs)   bands (ev):

    -2.6126  -0.8112   2.6232   3.3459

          k =-1.3750-0.8750-0.1250 (   361 PWs)   bands (ev):

    -2.4467  -0.9080   2.0180   3.0879

          k =-1.1250 0.3750-0.3750 (   361 PWs)   bands (ev):

    -2.9829  -0.6011   2.0744   4.1240

          k =-1.6250-0.6250-0.3750 (   361 PWs)   bands (ev):

    -3.4776  -0.6796   3.7288   4.4394

          k =-0.3750 0.3750 1.1250 (   361 PWs)   bands (ev):

    -2.9829  -0.6011   2.0744   4.1240

          k =-0.8750-0.6250 1.1250 (   353 PWs)   bands (ev):

    -5.1084   2.7632   4.6842   4.7473

     highest occupied level (ev):     5.6901

     Writing output data file silicon.10.337.save

                                                                                

     bravais-lattice index     =            2
     lattice parameter (alat)  =      10.3370  a.u.
     unit-cell volume          =     276.1363 (a.u.)^3
     number of atoms/cell      =            2
     number of atomic types    =            1
     kinetic-energy cut-off    =      18.0000  Ry
     charge density cut-off    =      72.0000  Ry
     convergence threshold     =      1.0E-12
     beta                      =       0.7000
     number of iterations used =            4
     Exchange-correlation      = SLA  PW   PBE  PBE ( 1  4  3  4 0 0)


     celldm(1)=   10.33700  celldm(2)=    0.00000  celldm(3)=    0.00000
     celldm(4)=    0.00000  celldm(5)=    0.00000  celldm(6)=    0.00000

     crystal axes: (cart. coord. in units of alat)
               a(1) = ( -0.5000  0.0000  0.5000 )  
               a(2) = (  0.0000  0.5000  0.5000 )  
               a(3) = ( -0.5000  0.5000  0.0000 )  

     reciprocal axes: (cart. coord. in units 2 pi/alat)
               b(1) = ( -1.0000 -1.0000  1.0000 )  
               b(2) = (  1.0000  1.0000  1.0000 )  
               b(3) = ( -1.0000  1.0000 -1.0000 )  


     Atoms inside the unit cell: 

     Cartesian axes

     site n.  atom      mass           positions (alat units)
        1     Si  28.0860   tau(    1) = (    0.00000    0.00000    0.00000  )
        2     Si  28.0860   tau(    2) = (    0.25000    0.25000    0.25000  )

     Computing dynamical matrix for 
                    q = (  -0.5000000  -1.0000000   0.0000000 )

      8 Sym.Ops. (no q -> -q+G )


     G cutoff =  194.8775  (    685 G-vectors)     FFT grid: ( 20, 20, 20)
     number of k points=    64

     PseudoPot. # 1 for Si read from file:
     /home/max/quantum_espresso/qe-6.1/pseudo/si_pbe_v1.uspp.F.UPF.txt
     MD5 check sum: a056efeee980c13900f22a371efd63c1
     Pseudo is Ultrasoft + core correction, Zval =  4.0
     Generated by new atomic code, or converted to UPF format
     Using radial grid of  899 points,  6 beta functions with: 
                l(1) =   0
                l(2) =   0
                l(3) =   1
                l(4) =   1
                l(5) =   2
                l(6) =   2
     Q(r) pseudized with  8 coefficients,  rinner =    0.900   0.900   0.900
                                                       0.900   0.900


     Atomic displacements:
     There are   3 irreducible representations

     Representation     1      2 modes -  To be done

     Representation     2      2 modes -  To be done

     Representation     3      2 modes -  To be done



     Alpha used in Ewald sum =   0.7000
     PHONON       :  1m24.27s CPU     1m32.77s WALL



     Representation #  1 modes #   1  2

     Self-consistent Calculation

      iter #   1 total cpu time :    93.1 secs   av.it.:   5.3
      thresh= 1.000E-02 alpha_mix =  0.700 |ddv_scf|^2 =  6.328E-06

      iter #   2 total cpu time :    93.4 secs   av.it.:   9.9
      thresh= 2.515E-04 alpha_mix =  0.700 |ddv_scf|^2 =  3.425E-06

      iter #   3 total cpu time :    94.0 secs   av.it.:   9.2
      thresh= 1.851E-04 alpha_mix =  0.700 |ddv_scf|^2 =  8.467E-09

      iter #   4 total cpu time :    94.4 secs   av.it.:   9.1
      thresh= 9.201E-06 alpha_mix =  0.700 |ddv_scf|^2 =  1.917E-11

      iter #   5 total cpu time :    94.7 secs   av.it.:   9.2
      thresh= 4.379E-07 alpha_mix =  0.700 |ddv_scf|^2 =  5.296E-13

     End of self-consistent calculation

     Convergence has been achieved 


     Representation #  2 modes #   3  4

     Self-consistent Calculation

      iter #   1 total cpu time :    95.0 secs   av.it.:   5.2
      thresh= 1.000E-02 alpha_mix =  0.700 |ddv_scf|^2 =  9.811E-06

      iter #   2 total cpu time :    95.4 secs   av.it.:   9.9
      thresh= 3.132E-04 alpha_mix =  0.700 |ddv_scf|^2 =  1.306E-05

      iter #   3 total cpu time :    95.8 secs   av.it.:   9.1
      thresh= 3.615E-04 alpha_mix =  0.700 |ddv_scf|^2 =  9.960E-09

      iter #   4 total cpu time :    96.2 secs   av.it.:   8.9
      thresh= 9.980E-06 alpha_mix =  0.700 |ddv_scf|^2 =  8.125E-11

      iter #   5 total cpu time :    96.6 secs   av.it.:   9.4
      thresh= 9.014E-07 alpha_mix =  0.700 |ddv_scf|^2 =  1.746E-12

      iter #   6 total cpu time :    97.0 secs   av.it.:   9.1
      thresh= 1.321E-07 alpha_mix =  0.700 |ddv_scf|^2 =  1.448E-14

     End of self-consistent calculation

     Convergence has been achieved 


     Representation #  3 modes #   5  6

     Self-consistent Calculation

      iter #   1 total cpu time :    97.2 secs   av.it.:   5.1
      thresh= 1.000E-02 alpha_mix =  0.700 |ddv_scf|^2 =  2.650E-06

      iter #   2 total cpu time :    97.6 secs   av.it.:   9.7
      thresh= 1.628E-04 alpha_mix =  0.700 |ddv_scf|^2 =  1.446E-06

      iter #   3 total cpu time :    98.2 secs   av.it.:   9.1
      thresh= 1.203E-04 alpha_mix =  0.700 |ddv_scf|^2 =  8.344E-09

      iter #   4 total cpu time :    98.5 secs   av.it.:   8.8
      thresh= 9.134E-06 alpha_mix =  0.700 |ddv_scf|^2 =  4.307E-11

      iter #   5 total cpu time :    98.9 secs   av.it.:   9.1
      thresh= 6.563E-07 alpha_mix =  0.700 |ddv_scf|^2 =  7.001E-13

     End of self-consistent calculation

     Convergence has been achieved 

     Number of q in the star =    6
     List of q in the star:
          1  -0.500000000  -1.000000000   0.000000000
          2   0.000000000   1.000000000   0.500000000
          3   0.000000000  -1.000000000  -0.500000000
          4   0.500000000   1.000000000   0.000000000
          5  -1.000000000  -0.500000000   0.000000000
          6   0.000000000  -0.500000000  -1.000000000

     Diagonalizing the dynamical matrix

     q = (   -0.500000000  -1.000000000   0.000000000 ) 

 **************************************************************************
     freq (    1) =       7.009648 [THz] =     233.816694 [cm-1]
     freq (    2) =       7.009648 [THz] =     233.816694 [cm-1]
     freq (    3) =      10.774955 [THz] =     359.413811 [cm-1]
     freq (    4) =      10.774955 [THz] =     359.413811 [cm-1]
     freq (    5) =      13.765838 [THz] =     459.178939 [cm-1]
     freq (    6) =      13.765838 [THz] =     459.178939 [cm-1]
 **************************************************************************

     init_run     :      0.55s CPU      0.59s WALL (       7 calls)
     electrons    :      5.30s CPU      5.71s WALL (       7 calls)

     Called by init_run:
     wfcinit      :      0.00s CPU      0.00s WALL (       7 calls)
     potinit      :      0.02s CPU      0.02s WALL (       7 calls)

     Called by electrons:
     c_bands      :      5.30s CPU      5.70s WALL (       7 calls)
     v_of_rho     :      0.01s CPU      0.01s WALL (       8 calls)
     newd         :      0.03s CPU      0.03s WALL (       8 calls)

     Called by c_bands:
     init_us_2    :      0.69s CPU      0.75s WALL (   17588 calls)
     cegterg      :      4.48s CPU      4.82s WALL (     796 calls)

     Called by sum_band:

     Called by *egterg:
     h_psi        :     49.22s CPU     54.10s WALL (  152272 calls)
     s_psi        :      5.87s CPU      6.40s WALL (  309264 calls)
     g_psi        :      0.03s CPU      0.03s WALL (    9268 calls)
     cdiaghg      :      0.49s CPU      0.53s WALL (   10064 calls)

     Called by h_psi:
     h_psi:pot    :     49.02s CPU     53.89s WALL (  152272 calls)
     h_psi:calbec :      5.35s CPU      5.95s WALL (  152272 calls)
     vloc_psi     :     40.51s CPU     44.48s WALL (  152272 calls)
     add_vuspsi   :      2.94s CPU      3.23s WALL (  152272 calls)

     General routines
     calbec       :     11.53s CPU     12.83s WALL (  345636 calls)
     fft          :      0.78s CPU      0.84s WALL (    5239 calls)
     ffts         :      0.21s CPU      0.23s WALL (    2748 calls)
     fftw         :     47.41s CPU     52.15s WALL ( 1378410 calls)
     davcio       :      0.31s CPU      0.34s WALL (   79045 calls)

     Parallel routines
     fft_scatter  :     15.20s CPU     16.92s WALL ( 1386397 calls)

     PHONON       :  1m29.89s CPU     1m38.91s WALL

     INITIALIZATION: 
     phq_setup    :      0.05s CPU      0.06s WALL (       8 calls)
     phq_init     :      2.29s CPU      2.47s WALL (       8 calls)

     phq_init     :      2.29s CPU      2.47s WALL (       8 calls)
     set_drhoc    :      0.28s CPU      0.32s WALL (      24 calls)
     init_vloc    :      0.00s CPU      0.01s WALL (       8 calls)
     init_us_1    :      0.52s CPU      0.53s WALL (       8 calls)
     newd         :      0.03s CPU      0.03s WALL (       8 calls)
     dvanqq       :      0.25s CPU      0.25s WALL (       8 calls)
     drho         :      1.18s CPU      1.26s WALL (       8 calls)

     DYNAMICAL MATRIX:
     dynmat0      :      0.62s CPU      0.70s WALL (       8 calls)
     phqscf       :     78.95s CPU     87.20s WALL (       8 calls)
     dynmatrix    :      0.01s CPU      0.01s WALL (       8 calls)

     phqscf       :     78.95s CPU     87.20s WALL (       8 calls)
     solve_linter :     78.18s CPU     86.39s WALL (      32 calls)
     drhodv       :      0.55s CPU      0.58s WALL (      32 calls)

     dynmat0      :      0.62s CPU      0.70s WALL (       8 calls)
     dynmat_us    :      0.37s CPU      0.41s WALL (       8 calls)
     d2ionq       :      0.01s CPU      0.01s WALL (       8 calls)
     dynmatcc     :      0.22s CPU      0.25s WALL (       8 calls)

     dynmat_us    :      0.37s CPU      0.41s WALL (       8 calls)
     addusdynmat  :      0.00s CPU      0.00s WALL (       8 calls)

     phqscf       :     78.95s CPU     87.20s WALL (       8 calls)
     solve_linter :     78.18s CPU     86.39s WALL (      32 calls)

     solve_linter :     78.18s CPU     86.39s WALL (      32 calls)
     dvqpsi_us    :      1.85s CPU      2.02s WALL (    2508 calls)
     ortho        :      1.29s CPU      1.44s WALL (   15550 calls)
     cgsolve      :     61.43s CPU     67.86s WALL (   15550 calls)
     incdrhoscf   :      5.39s CPU      5.97s WALL (   15550 calls)
     addusddens   :      1.26s CPU      1.34s WALL (     228 calls)
     vpsifft      :      3.96s CPU      4.39s WALL (   12922 calls)
     dv_of_drho   :      0.28s CPU      0.30s WALL (     295 calls)
     mix_pot      :      0.06s CPU      0.07s WALL (     201 calls)
     psymdvscf    :      0.82s CPU      0.90s WALL (     196 calls)
     newdq        :      1.28s CPU      1.39s WALL (     201 calls)
     adddvscf     :      0.47s CPU      0.52s WALL (   13042 calls)
     drhodvus     :      0.00s CPU      0.00s WALL (      32 calls)

     dvqpsi_us    :      1.85s CPU      2.02s WALL (    2508 calls)
     dvqpsi_us_on :      0.83s CPU      0.90s WALL (    2508 calls)

     cgsolve      :     61.43s CPU     67.86s WALL (   15550 calls)
     ch_psi       :     58.68s CPU     64.75s WALL (  141412 calls)

     ch_psi       :     58.68s CPU     64.75s WALL (  141412 calls)
     h_psi        :     49.22s CPU     54.10s WALL (  152272 calls)
     last         :     10.02s CPU     11.20s WALL (  141412 calls)

     h_psi        :     49.22s CPU     54.10s WALL (  152272 calls)
     add_vuspsi   :      2.94s CPU      3.23s WALL (  152272 calls)

     incdrhoscf   :      5.39s CPU      5.97s WALL (   15550 calls)
     addusdbec    :      0.80s CPU      0.89s WALL (   17998 calls)

     drhodvus     :      0.00s CPU      0.00s WALL (      32 calls)

      General routines
     calbec       :     11.53s CPU     12.83s WALL (  345636 calls)
     fft          :      0.78s CPU      0.84s WALL (    5239 calls)
     ffts         :      0.21s CPU      0.23s WALL (    2748 calls)
     fftw         :     47.41s CPU     52.15s WALL ( 1378410 calls)
     davcio       :      0.31s CPU      0.34s WALL (   79045 calls)
     write_rec    :      0.21s CPU      0.25s WALL (     233 calls)


     PHONON       :  1m29.89s CPU     1m38.91s WALL


   This run was terminated on:  12:32:27   9Nov2017            

=------------------------------------------------------------------------------=
   JOB DONE.
=------------------------------------------------------------------------------=
