
     Program PWSCF v.6.1 (svn rev. 13369) starts on  9Nov2017 at 12:30:48 

     This program is part of the open-source Quantum ESPRESSO suite
     for quantum simulation of materials; please cite
         "P. Giannozzi et al., J. Phys.:Condens. Matter 21 395502 (2009);
          URL http://www.quantum-espresso.org", 
     in publications or presentations arising from this work. More details at
     http://www.quantum-espresso.org/quote

     Parallel version (MPI), running on     4 processors
     R & G space division:  proc/nbgrp/npool/nimage =       4
     Waiting for input...
     Reading input from standard input
     Message from routine read_cards :
     DEPRECATED: no units specified in ATOMIC_POSITIONS card
     Message from routine read_cards :
     ATOMIC_POSITIONS: units set to alat

     Current dimensions of program PWSCF are:
     Max number of different atomic species (ntypx) = 10
     Max number of k-points (npk) =  40000
     Max angular momentum in pseudopotentials (lmaxx) =  3

     Subspace diagonalization in iterative solution of the eigenvalue problem:
     a serial algorithm will be used


     Parallelization info
     --------------------
     sticks:   dense  smooth     PW     G-vecs:    dense   smooth      PW
     Min          63      63     22                  684      684     140
     Max          64      64     23                  688      688     141
     Sum         253     253     91                 2741     2741     561



     bravais-lattice index     =            2
     lattice parameter (alat)  =      10.3370  a.u.
     unit-cell volume          =     276.1363 (a.u.)^3
     number of atoms/cell      =            2
     number of atomic types    =            1
     number of electrons       =         8.00
     number of Kohn-Sham states=            4
     kinetic-energy cutoff     =      18.0000  Ry
     charge density cutoff     =      72.0000  Ry
     convergence threshold     =      1.0E-08
     mixing beta               =       0.7000
     number of iterations used =            8  plain     mixing
     Exchange-correlation      = SLA  PW   PBE  PBE ( 1  4  3  4 0 0)

     celldm(1)=  10.337000  celldm(2)=   0.000000  celldm(3)=   0.000000
     celldm(4)=   0.000000  celldm(5)=   0.000000  celldm(6)=   0.000000

     crystal axes: (cart. coord. in units of alat)
               a(1) = (  -0.500000   0.000000   0.500000 )  
               a(2) = (   0.000000   0.500000   0.500000 )  
               a(3) = (  -0.500000   0.500000   0.000000 )  

     reciprocal axes: (cart. coord. in units 2 pi/alat)
               b(1) = ( -1.000000 -1.000000  1.000000 )  
               b(2) = (  1.000000  1.000000  1.000000 )  
               b(3) = ( -1.000000  1.000000 -1.000000 )  


     PseudoPot. # 1 for Si read from file:
     /home/max/quantum_espresso/qe-6.1/pseudo/si_pbe_v1.uspp.F.UPF.txt
     MD5 check sum: a056efeee980c13900f22a371efd63c1
     Pseudo is Ultrasoft + core correction, Zval =  4.0
     Generated by new atomic code, or converted to UPF format
     Using radial grid of  899 points,  6 beta functions with: 
                l(1) =   0
                l(2) =   0
                l(3) =   1
                l(4) =   1
                l(5) =   2
                l(6) =   2
     Q(r) pseudized with  8 coefficients,  rinner =    0.900   0.900   0.900
                                                       0.900   0.900

     atomic species   valence    mass     pseudopotential
        Si             4.00    28.08600     Si( 1.00)

     48 Sym. Ops., with inversion, found (24 have fractional translation)



   Cartesian axes

     site n.     atom                  positions (alat units)
         1           Si  tau(   1) = (   0.0000000   0.0000000   0.0000000  )
         2           Si  tau(   2) = (   0.2500000   0.2500000   0.2500000  )

     number of k points=    10
                       cart. coord. in units 2pi/alat
        k(    1) = (  -0.1250000   0.1250000   0.1250000), wk =   0.0625000
        k(    2) = (  -0.3750000   0.3750000  -0.1250000), wk =   0.1875000
        k(    3) = (   0.3750000  -0.3750000   0.6250000), wk =   0.1875000
        k(    4) = (   0.1250000  -0.1250000   0.3750000), wk =   0.1875000
        k(    5) = (  -0.1250000   0.6250000   0.1250000), wk =   0.1875000
        k(    6) = (   0.6250000  -0.1250000   0.8750000), wk =   0.3750000
        k(    7) = (   0.3750000   0.1250000   0.6250000), wk =   0.3750000
        k(    8) = (  -0.1250000  -0.8750000   0.1250000), wk =   0.1875000
        k(    9) = (  -0.3750000   0.3750000   0.3750000), wk =   0.0625000
        k(   10) = (   0.3750000  -0.3750000   1.1250000), wk =   0.1875000

     Dense  grid:     2741 G-vectors     FFT dimensions: (  20,  20,  20)

     Estimated max dynamical RAM per process >       0.57MB

     Estimated total allocated dynamical RAM >       2.30MB

     Check: negative/imaginary core charge=   -0.000005    0.000000

     Initial potential from superposition of free atoms

     starting charge    7.99866, renormalised to    8.00000
     Starting wfc are    8 randomized atomic wfcs

     total cpu time spent up to now is        0.1 secs

     per-process dynamical memory:     6.7 Mb

     Self-consistent Calculation

     iteration #  1     ecut=    18.00 Ry     beta=0.70
     Davidson diagonalization with overlap
     ethr =  1.00E-02,  avg # of iterations =  2.0

     Threshold (ethr) on eigenvalues was too large:
     Diagonalizing with lowered threshold

     Davidson diagonalization with overlap
     ethr =  6.85E-04,  avg # of iterations =  1.1

     total cpu time spent up to now is        0.2 secs

     total energy              =     -19.19470273 Ry
     Harris-Foulkes estimate   =     -19.20695712 Ry
     estimated scf accuracy    <       0.05466607 Ry

     iteration #  2     ecut=    18.00 Ry     beta=0.70
     Davidson diagonalization with overlap
     ethr =  6.83E-04,  avg # of iterations =  1.0

     total cpu time spent up to now is        0.2 secs

     total energy              =     -19.19633786 Ry
     Harris-Foulkes estimate   =     -19.19651205 Ry
     estimated scf accuracy    <       0.00250616 Ry

     iteration #  3     ecut=    18.00 Ry     beta=0.70
     Davidson diagonalization with overlap
     ethr =  3.13E-05,  avg # of iterations =  2.0

     total cpu time spent up to now is        0.3 secs

     total energy              =     -19.19660612 Ry
     Harris-Foulkes estimate   =     -19.19662055 Ry
     estimated scf accuracy    <       0.00004279 Ry

     iteration #  4     ecut=    18.00 Ry     beta=0.70
     Davidson diagonalization with overlap
     ethr =  5.35E-07,  avg # of iterations =  2.7

     total cpu time spent up to now is        0.4 secs

     total energy              =     -19.19662670 Ry
     Harris-Foulkes estimate   =     -19.19662757 Ry
     estimated scf accuracy    <       0.00000284 Ry

     iteration #  5     ecut=    18.00 Ry     beta=0.70
     Davidson diagonalization with overlap
     ethr =  3.56E-08,  avg # of iterations =  2.1

     total cpu time spent up to now is        0.5 secs

     total energy              =     -19.19662723 Ry
     Harris-Foulkes estimate   =     -19.19662726 Ry
     estimated scf accuracy    <       0.00000007 Ry

     iteration #  6     ecut=    18.00 Ry     beta=0.70
     Davidson diagonalization with overlap
     ethr =  8.79E-10,  avg # of iterations =  2.6

     total cpu time spent up to now is        0.5 secs

     End of self-consistent calculation

          k =-0.1250 0.1250 0.1250 (   338 PWs)   bands (ev):

    -5.6344   4.3811   5.6899   5.6899

          k =-0.3750 0.3750-0.1250 (   352 PWs)   bands (ev):

    -4.6116   1.3904   3.7108   5.2083

          k = 0.3750-0.3750 0.6250 (   361 PWs)   bands (ev):

    -3.4777  -0.6797   3.7287   4.4392

          k = 0.1250-0.1250 0.3750 (   353 PWs)   bands (ev):

    -5.1086   2.7630   4.6841   4.7472

          k =-0.1250 0.6250 0.1250 (   351 PWs)   bands (ev):

    -4.0804   1.0511   3.3640   3.8118

          k = 0.6250-0.1250 0.8750 (   361 PWs)   bands (ev):

    -2.4468  -0.9082   2.0178   3.0878

          k = 0.3750 0.1250 0.6250 (   357 PWs)   bands (ev):

    -3.6670   0.1832   2.7247   4.0871

          k =-0.1250-0.8750 0.1250 (   358 PWs)   bands (ev):

    -2.6128  -0.8114   2.6231   3.3457

          k =-0.3750 0.3750 0.3750 (   353 PWs)   bands (ev):

    -4.1811   0.1067   4.9024   4.9024

          k = 0.3750-0.3750 1.1250 (   361 PWs)   bands (ev):

    -2.9830  -0.6013   2.0742   4.1238

     highest occupied level (ev):     5.6899

!    total energy              =     -19.19662726 Ry
     Harris-Foulkes estimate   =     -19.19662726 Ry
     estimated scf accuracy    <          2.8E-09 Ry

     The total energy is the sum of the following terms:

     one-electron contribution =       4.94084484 Ry
     hartree contribution      =       1.14255936 Ry
     xc contribution           =      -8.60425143 Ry
     ewald contribution        =     -16.67578002 Ry

     convergence has been achieved in   6 iterations

     Writing output data file silicon.10.337.save

     init_run     :      0.08s CPU      0.09s WALL (       1 calls)
     electrons    :      0.35s CPU      0.36s WALL (       1 calls)

     Called by init_run:
     wfcinit      :      0.01s CPU      0.01s WALL (       1 calls)
     potinit      :      0.00s CPU      0.00s WALL (       1 calls)

     Called by electrons:
     c_bands      :      0.18s CPU      0.18s WALL (       7 calls)
     sum_band     :      0.09s CPU      0.09s WALL (       7 calls)
     v_of_rho     :      0.04s CPU      0.04s WALL (       7 calls)
     newd         :      0.04s CPU      0.04s WALL (       7 calls)
     mix_rho      :      0.00s CPU      0.00s WALL (       7 calls)

     Called by c_bands:
     init_us_2    :      0.01s CPU      0.01s WALL (     150 calls)
     cegterg      :      0.15s CPU      0.16s WALL (      70 calls)

     Called by sum_band:
     sum_band:bec :      0.00s CPU      0.00s WALL (      70 calls)
     addusdens    :      0.03s CPU      0.03s WALL (       7 calls)

     Called by *egterg:
     h_psi        :      0.12s CPU      0.12s WALL (     215 calls)
     s_psi        :      0.00s CPU      0.00s WALL (     215 calls)
     g_psi        :      0.00s CPU      0.00s WALL (     135 calls)
     cdiaghg      :      0.01s CPU      0.01s WALL (     195 calls)

     Called by h_psi:
     h_psi:pot    :      0.12s CPU      0.12s WALL (     215 calls)
     h_psi:calbec :      0.02s CPU      0.02s WALL (     215 calls)
     vloc_psi     :      0.09s CPU      0.09s WALL (     215 calls)
     add_vuspsi   :      0.00s CPU      0.00s WALL (     215 calls)

     General routines
     calbec       :      0.03s CPU      0.03s WALL (     285 calls)
     fft          :      0.05s CPU      0.05s WALL (      93 calls)
     fftw         :      0.12s CPU      0.13s WALL (    1934 calls)
     davcio       :      0.00s CPU      0.00s WALL (      10 calls)

     Parallel routines
     fft_scatter  :      0.12s CPU      0.13s WALL (    2027 calls)

     PWSCF        :     0.51s CPU         0.53s WALL


   This run was terminated on:  12:30:48   9Nov2017            

=------------------------------------------------------------------------------=
   JOB DONE.
=------------------------------------------------------------------------------=
