
     Program PHONON v.6.1 (svn rev. 13369) starts on 10Nov2017 at 15:53:29 

     This program is part of the open-source Quantum ESPRESSO suite
     for quantum simulation of materials; please cite
         "P. Giannozzi et al., J. Phys.:Condens. Matter 21 395502 (2009);
          URL http://www.quantum-espresso.org", 
     in publications or presentations arising from this work. More details at
     http://www.quantum-espresso.org/quote

     Parallel version (MPI), running on     4 processors
     R & G space division:  proc/nbgrp/npool/nimage =       4

     Reading data from directory:
     ./silicon.10.310.save

   Info: using nr1, nr2, nr3 values from input

   Info: using nr1, nr2, nr3 values from input

     IMPORTANT: XC functional enforced from input :
     Exchange-correlation      = SLA  PW   PBE  PBE ( 1  4  3  4 0 0)
     Any further DFT definition will be discarded
     Please, verify this is what you really want


     Parallelization info
     --------------------
     sticks:   dense  smooth     PW     G-vecs:    dense   smooth      PW
     Min         217     109     37                 4288     1520     284
     Max         219     111     38                 4289     1521     285
     Sum         871     439    151                17153     6081    1139



     Dynamical matrices for ( 4, 4, 4)  uniform grid of q-points
     (   8q-points):
       N         xq(1)         xq(2)         xq(3) 
       1   0.000000000   0.000000000   0.000000000
       2  -0.250000000   0.250000000  -0.250000000
       3   0.500000000  -0.500000000   0.500000000
       4   0.000000000   0.500000000   0.000000000
       5   0.750000000  -0.250000000   0.750000000
       6   0.500000000   0.000000000   0.500000000
       7   0.000000000  -1.000000000   0.000000000
       8  -0.500000000  -1.000000000   0.000000000

     Calculation of q =    0.0000000   0.0000000   0.0000000

                                                                                

     bravais-lattice index     =            2
     lattice parameter (alat)  =      10.3100  a.u.
     unit-cell volume          =     273.9782 (a.u.)^3
     number of atoms/cell      =            2
     number of atomic types    =            1
     kinetic-energy cut-off    =      30.0000  Ry
     charge density cut-off    =     240.0000  Ry
     convergence threshold     =      1.0E-12
     beta                      =       0.7000
     number of iterations used =            4
     Exchange-correlation      = SLA  PW   PBE  PBE ( 1  4  3  4 0 0)


     celldm(1)=   10.31000  celldm(2)=    0.00000  celldm(3)=    0.00000
     celldm(4)=    0.00000  celldm(5)=    0.00000  celldm(6)=    0.00000

     crystal axes: (cart. coord. in units of alat)
               a(1) = ( -0.5000  0.0000  0.5000 )  
               a(2) = (  0.0000  0.5000  0.5000 )  
               a(3) = ( -0.5000  0.5000  0.0000 )  

     reciprocal axes: (cart. coord. in units 2 pi/alat)
               b(1) = ( -1.0000 -1.0000  1.0000 )  
               b(2) = (  1.0000  1.0000  1.0000 )  
               b(3) = ( -1.0000  1.0000 -1.0000 )  


     Atoms inside the unit cell: 

     Cartesian axes

     site n.  atom      mass           positions (alat units)
        1     Si  28.0860   tau(    1) = (    0.00000    0.00000    0.00000  )
        2     Si  28.0860   tau(    2) = (    0.25000    0.25000    0.25000  )

     Computing dynamical matrix for 
                    q = (   0.0000000   0.0000000   0.0000000 )

     49 Sym.Ops. (with q -> -q+G )


     G cutoff =  646.2028  (   4288 G-vectors)     FFT grid: ( 36, 36, 36)
     G cutoff =  323.1014  (   1520 G-vectors)  smooth grid: ( 25, 25, 25)
     number of k points=    10

     PseudoPot. # 1 for Si read from file:
     /home/s1333534/quantum_espresso/qe-6.1/pseudo/si_pbe_v1.uspp.F.UPF.txt
     MD5 check sum: a056efeee980c13900f22a371efd63c1
     Pseudo is Ultrasoft + core correction, Zval =  4.0
     Generated by new atomic code, or converted to UPF format
     Using radial grid of  899 points,  6 beta functions with: 
                l(1) =   0
                l(2) =   0
                l(3) =   1
                l(4) =   1
                l(5) =   2
                l(6) =   2
     Q(r) pseudized with  8 coefficients,  rinner =    0.900   0.900   0.900
                                                       0.900   0.900

     Mode symmetry, O_h (m-3m)  point group:


     Electric field:
     Dielectric constant
     Born effective charges in two ways 


     Atomic displacements:
     There are   2 irreducible representations

     Representation     1      3 modes -T_2g G_25' G_5+  To be done

     Representation     2      3 modes -T_1u G_15  G_4-  To be done



     Alpha used in Ewald sum =   2.5000
     PHONON       :     0.94s CPU         1.26s WALL


     Electric Fields Calculation

      iter #   1 total cpu time :     2.3 secs   av.it.:   5.7
      thresh= 1.000E-02 alpha_mix =  0.700 |ddv_scf|^2 =  1.334E-07

      iter #   2 total cpu time :     3.1 secs   av.it.:  11.8
      thresh= 3.652E-05 alpha_mix =  0.700 |ddv_scf|^2 =  7.783E-09

      iter #   3 total cpu time :     3.8 secs   av.it.:  11.4
      thresh= 8.822E-06 alpha_mix =  0.700 |ddv_scf|^2 =  5.152E-10

      iter #   4 total cpu time :     4.4 secs   av.it.:  10.2
      thresh= 2.270E-06 alpha_mix =  0.700 |ddv_scf|^2 =  3.341E-12

      iter #   5 total cpu time :     4.9 secs   av.it.:  11.1
      thresh= 1.828E-07 alpha_mix =  0.700 |ddv_scf|^2 =  3.336E-15

     End of electric fields calculation

          Dielectric constant in cartesian axis 

          (      13.919768868       0.000000000      -0.000000000 )
          (      -0.000000000      13.919768868       0.000000000 )
          (      -0.000000000       0.000000000      13.919768868 )

          Effective charges (d Force / dE) in cartesian axis

           atom      1   Si 
      Ex  (       -0.03892        0.00000        0.00000 )
      Ey  (        0.00000       -0.03892        0.00000 )
      Ez  (       -0.00000       -0.00000       -0.03892 )
           atom      2   Si 
      Ex  (       -0.03892        0.00000       -0.00000 )
      Ey  (        0.00000       -0.03892       -0.00000 )
      Ez  (        0.00000       -0.00000       -0.03892 )


     Representation #  1 modes #   1  2  3

     Self-consistent Calculation

      iter #   1 total cpu time :     6.2 secs   av.it.:   5.1
      thresh= 1.000E-02 alpha_mix =  0.700 |ddv_scf|^2 =  2.354E-08

      iter #   2 total cpu time :     6.9 secs   av.it.:  11.6
      thresh= 1.534E-05 alpha_mix =  0.700 |ddv_scf|^2 =  9.649E-10

      iter #   3 total cpu time :     7.5 secs   av.it.:  11.1
      thresh= 3.106E-06 alpha_mix =  0.700 |ddv_scf|^2 =  6.562E-11

      iter #   4 total cpu time :     8.1 secs   av.it.:  10.1
      thresh= 8.101E-07 alpha_mix =  0.700 |ddv_scf|^2 =  1.603E-13

     End of self-consistent calculation

     Convergence has been achieved 


     Representation #  2 modes #   4  5  6

     Self-consistent Calculation

      iter #   1 total cpu time :     8.8 secs   av.it.:   5.2
      thresh= 1.000E-02 alpha_mix =  0.700 |ddv_scf|^2 =  1.857E-08

      iter #   2 total cpu time :     9.5 secs   av.it.:  11.6
      thresh= 1.363E-05 alpha_mix =  0.700 |ddv_scf|^2 =  1.094E-09

      iter #   3 total cpu time :    10.2 secs   av.it.:  11.2
      thresh= 3.308E-06 alpha_mix =  0.700 |ddv_scf|^2 =  6.776E-11

      iter #   4 total cpu time :    10.8 secs   av.it.:  11.3
      thresh= 8.232E-07 alpha_mix =  0.700 |ddv_scf|^2 =  2.624E-13

     End of self-consistent calculation

     Convergence has been achieved 

     Number of q in the star =    1
     List of q in the star:
          1   0.000000000   0.000000000   0.000000000

          Dielectric constant in cartesian axis 

          (      13.919768868       0.000000000      -0.000000000 )
          (      -0.000000000      13.919768868       0.000000000 )
          (      -0.000000000       0.000000000      13.919768868 )

          Effective charges (d Force / dE) in cartesian axis

           atom      1   Si 
      Ex  (       -0.03892        0.00000        0.00000 )
      Ey  (        0.00000       -0.03892        0.00000 )
      Ez  (       -0.00000       -0.00000       -0.03892 )
           atom      2   Si 
      Ex  (       -0.03892        0.00000       -0.00000 )
      Ey  (        0.00000       -0.03892       -0.00000 )
      Ez  (        0.00000       -0.00000       -0.03892 )

          Effective charges (d P / du) in cartesian axis 

           atom      1   Si 
      Px  (       -0.07217       -0.00000        0.00000 )
      Py  (       -0.00000       -0.07217        0.00000 )
      Pz  (       -0.00000        0.00000       -0.07217 )
           atom      2   Si 
      Px  (       -0.07217       -0.00000       -0.00000 )
      Py  (       -0.00000       -0.07217        0.00000 )
      Pz  (        0.00000        0.00000       -0.07217 )

     Diagonalizing the dynamical matrix

     q = (    0.000000000   0.000000000   0.000000000 ) 

 **************************************************************************
     freq (    1) =      -0.468870 [THz] =     -15.639823 [cm-1]
     freq (    2) =      -0.468870 [THz] =     -15.639823 [cm-1]
     freq (    3) =      -0.468870 [THz] =     -15.639823 [cm-1]
     freq (    4) =      15.169903 [THz] =     506.013511 [cm-1]
     freq (    5) =      15.169903 [THz] =     506.013511 [cm-1]
     freq (    6) =      15.169903 [THz] =     506.013511 [cm-1]
 **************************************************************************

     Mode symmetry, O_h (m-3m)  point group:

     freq (  1 -  3) =        -15.6  [cm-1]   --> T_1u G_15  G_4- I  
     freq (  4 -  6) =        506.0  [cm-1]   --> T_2g G_25' G_5+ R  

     Calculation of q =   -0.2500000   0.2500000  -0.2500000

   Info: using nr1, nr2, nr3 values from input

   Info: using nr1, nr2, nr3 values from input

     Parallelization info
     --------------------
     sticks:   dense  smooth     PW     G-vecs:    dense   smooth      PW
     Min         217     109     37                 4288     1520     309
     Max         218     111     38                 4289     1521     312
     Sum         871     439    151                17153     6081    1243



     bravais-lattice index     =            2
     lattice parameter (alat)  =      10.3100  a.u.
     unit-cell volume          =     273.9782 (a.u.)^3
     number of atoms/cell      =            2
     number of atomic types    =            1
     number of electrons       =         8.00
     number of Kohn-Sham states=            4
     kinetic-energy cutoff     =      30.0000  Ry
     charge density cutoff     =     240.0000  Ry
     Exchange-correlation      = SLA  PW   PBE  PBE ( 1  4  3  4 0 0)

     celldm(1)=  10.310000  celldm(2)=   0.000000  celldm(3)=   0.000000
     celldm(4)=   0.000000  celldm(5)=   0.000000  celldm(6)=   0.000000

     crystal axes: (cart. coord. in units of alat)
               a(1) = (  -0.500000   0.000000   0.500000 )  
               a(2) = (   0.000000   0.500000   0.500000 )  
               a(3) = (  -0.500000   0.500000   0.000000 )  

     reciprocal axes: (cart. coord. in units 2 pi/alat)
               b(1) = ( -1.000000 -1.000000  1.000000 )  
               b(2) = (  1.000000  1.000000  1.000000 )  
               b(3) = ( -1.000000  1.000000 -1.000000 )  


     PseudoPot. # 1 for Si read from file:
     /home/s1333534/quantum_espresso/qe-6.1/pseudo/si_pbe_v1.uspp.F.UPF.txt
     MD5 check sum: a056efeee980c13900f22a371efd63c1
     Pseudo is Ultrasoft + core correction, Zval =  4.0
     Generated by new atomic code, or converted to UPF format
     Using radial grid of  899 points,  6 beta functions with: 
                l(1) =   0
                l(2) =   0
                l(3) =   1
                l(4) =   1
                l(5) =   2
                l(6) =   2
     Q(r) pseudized with  8 coefficients,  rinner =    0.900   0.900   0.900
                                                       0.900   0.900

     atomic species   valence    mass     pseudopotential
        Si             4.00    28.08600     Si( 1.00)

     48 Sym. Ops., with inversion, found



   Cartesian axes

     site n.     atom                  positions (alat units)
         1           Si  tau(   1) = (   0.0000000   0.0000000   0.0000000  )
         2           Si  tau(   2) = (   0.2500000   0.2500000   0.2500000  )

     number of k points=   120

     Number of k-points >= 100: set verbosity='high' to print them.

     Dense  grid:    17153 G-vectors     FFT dimensions: (  36,  36,  36)

     Smooth grid:     6081 G-vectors     FFT dimensions: (  25,  25,  25)

     Estimated max dynamical RAM per process >       1.51MB

     Estimated total allocated dynamical RAM >       6.06MB

     The potential is recalculated from file :
     ./_ph0/silicon.10.310.save/charge-density.dat

     Starting wfc are    8 atomic wfcs

     Band Structure Calculation
     Davidson diagonalization with overlap

     ethr =  1.25E-10,  avg # of iterations = 12.2

     total cpu time spent up to now is        1.4 secs

     End of band structure calculation

     Number of k-points >= 100: set verbosity='high' to print the bands.

     highest occupied level (ev):     5.7647

     Writing output data file silicon.10.310.save

                                                                                

     bravais-lattice index     =            2
     lattice parameter (alat)  =      10.3100  a.u.
     unit-cell volume          =     273.9782 (a.u.)^3
     number of atoms/cell      =            2
     number of atomic types    =            1
     kinetic-energy cut-off    =      30.0000  Ry
     charge density cut-off    =     240.0000  Ry
     convergence threshold     =      1.0E-12
     beta                      =       0.7000
     number of iterations used =            4
     Exchange-correlation      = SLA  PW   PBE  PBE ( 1  4  3  4 0 0)


     celldm(1)=   10.31000  celldm(2)=    0.00000  celldm(3)=    0.00000
     celldm(4)=    0.00000  celldm(5)=    0.00000  celldm(6)=    0.00000

     crystal axes: (cart. coord. in units of alat)
               a(1) = ( -0.5000  0.0000  0.5000 )  
               a(2) = (  0.0000  0.5000  0.5000 )  
               a(3) = ( -0.5000  0.5000  0.0000 )  

     reciprocal axes: (cart. coord. in units 2 pi/alat)
               b(1) = ( -1.0000 -1.0000  1.0000 )  
               b(2) = (  1.0000  1.0000  1.0000 )  
               b(3) = ( -1.0000  1.0000 -1.0000 )  


     Atoms inside the unit cell: 

     Cartesian axes

     site n.  atom      mass           positions (alat units)
        1     Si  28.0860   tau(    1) = (    0.00000    0.00000    0.00000  )
        2     Si  28.0860   tau(    2) = (    0.25000    0.25000    0.25000  )

     Computing dynamical matrix for 
                    q = (  -0.2500000   0.2500000  -0.2500000 )

      6 Sym.Ops. (no q -> -q+G )


     G cutoff =  646.2028  (   4288 G-vectors)     FFT grid: ( 36, 36, 36)
     G cutoff =  323.1014  (   1520 G-vectors)  smooth grid: ( 25, 25, 25)
     number of k points=   120

     PseudoPot. # 1 for Si read from file:
     /home/s1333534/quantum_espresso/qe-6.1/pseudo/si_pbe_v1.uspp.F.UPF.txt
     MD5 check sum: a056efeee980c13900f22a371efd63c1
     Pseudo is Ultrasoft + core correction, Zval =  4.0
     Generated by new atomic code, or converted to UPF format
     Using radial grid of  899 points,  6 beta functions with: 
                l(1) =   0
                l(2) =   0
                l(3) =   1
                l(4) =   1
                l(5) =   2
                l(6) =   2
     Q(r) pseudized with  8 coefficients,  rinner =    0.900   0.900   0.900
                                                       0.900   0.900

     Mode symmetry, C_3v (3m)   point group:


     Atomic displacements:
     There are   4 irreducible representations

     Representation     1      1 modes -A_1  L_1  To be done

     Representation     2      1 modes -A_1  L_1  To be done

     Representation     3      2 modes -E    L_3  To be done

     Representation     4      2 modes -E    L_3  To be done



     Alpha used in Ewald sum =   2.5000
     PHONON       :    10.61s CPU        14.10s WALL



     Representation #  1 mode #   1

     Self-consistent Calculation

      iter #   1 total cpu time :    14.6 secs   av.it.:   5.9
      thresh= 1.000E-02 alpha_mix =  0.700 |ddv_scf|^2 =  4.291E-04

      iter #   2 total cpu time :    15.1 secs   av.it.:   9.0
      thresh= 2.071E-03 alpha_mix =  0.700 |ddv_scf|^2 =  6.523E-03

      iter #   3 total cpu time :    15.7 secs   av.it.:   7.0
      thresh= 8.077E-03 alpha_mix =  0.700 |ddv_scf|^2 =  2.719E-07

      iter #   4 total cpu time :    16.3 secs   av.it.:   9.6
      thresh= 5.214E-05 alpha_mix =  0.700 |ddv_scf|^2 =  1.790E-08

      iter #   5 total cpu time :    16.9 secs   av.it.:   9.6
      thresh= 1.338E-05 alpha_mix =  0.700 |ddv_scf|^2 =  3.399E-10

      iter #   6 total cpu time :    17.5 secs   av.it.:   9.7
      thresh= 1.844E-06 alpha_mix =  0.700 |ddv_scf|^2 =  1.200E-09

      iter #   7 total cpu time :    18.1 secs   av.it.:   7.6
      thresh= 3.465E-06 alpha_mix =  0.700 |ddv_scf|^2 =  3.658E-11

      iter #   8 total cpu time :    18.6 secs   av.it.:   9.3
      thresh= 6.048E-07 alpha_mix =  0.700 |ddv_scf|^2 =  4.685E-13

     End of self-consistent calculation

     Convergence has been achieved 


     Representation #  2 mode #   2

     Self-consistent Calculation

      iter #   1 total cpu time :    19.2 secs   av.it.:   5.9
      thresh= 1.000E-02 alpha_mix =  0.700 |ddv_scf|^2 =  4.291E-04

      iter #   2 total cpu time :    19.8 secs   av.it.:   9.0
      thresh= 2.071E-03 alpha_mix =  0.700 |ddv_scf|^2 =  6.523E-03

      iter #   3 total cpu time :    20.3 secs   av.it.:   7.0
      thresh= 8.077E-03 alpha_mix =  0.700 |ddv_scf|^2 =  2.719E-07

      iter #   4 total cpu time :    21.0 secs   av.it.:   9.6
      thresh= 5.214E-05 alpha_mix =  0.700 |ddv_scf|^2 =  1.790E-08

      iter #   5 total cpu time :    21.6 secs   av.it.:   9.6
      thresh= 1.338E-05 alpha_mix =  0.700 |ddv_scf|^2 =  3.399E-10

      iter #   6 total cpu time :    22.2 secs   av.it.:   9.7
      thresh= 1.844E-06 alpha_mix =  0.700 |ddv_scf|^2 =  1.200E-09

      iter #   7 total cpu time :    22.7 secs   av.it.:   7.6
      thresh= 3.465E-06 alpha_mix =  0.700 |ddv_scf|^2 =  3.658E-11

      iter #   8 total cpu time :    23.3 secs   av.it.:   9.3
      thresh= 6.048E-07 alpha_mix =  0.700 |ddv_scf|^2 =  4.685E-13

     End of self-consistent calculation

     Convergence has been achieved 


     Representation #  3 modes #   3  4

     Self-consistent Calculation

      iter #   1 total cpu time :    24.2 secs   av.it.:   5.2
      thresh= 1.000E-02 alpha_mix =  0.700 |ddv_scf|^2 =  6.629E-08

      iter #   2 total cpu time :    25.4 secs   av.it.:  11.4
      thresh= 2.575E-05 alpha_mix =  0.700 |ddv_scf|^2 =  4.261E-09

      iter #   3 total cpu time :    26.6 secs   av.it.:  11.1
      thresh= 6.527E-06 alpha_mix =  0.700 |ddv_scf|^2 =  2.256E-10

      iter #   4 total cpu time :    27.8 secs   av.it.:  11.0
      thresh= 1.502E-06 alpha_mix =  0.700 |ddv_scf|^2 =  8.554E-13

     End of self-consistent calculation

     Convergence has been achieved 


     Representation #  4 modes #   5  6

     Self-consistent Calculation

      iter #   1 total cpu time :    28.9 secs   av.it.:   5.2
      thresh= 1.000E-02 alpha_mix =  0.700 |ddv_scf|^2 =  6.629E-08

      iter #   2 total cpu time :    30.1 secs   av.it.:  11.4
      thresh= 2.575E-05 alpha_mix =  0.700 |ddv_scf|^2 =  4.259E-09

      iter #   3 total cpu time :    31.4 secs   av.it.:  11.2
      thresh= 6.526E-06 alpha_mix =  0.700 |ddv_scf|^2 =  2.255E-10

      iter #   4 total cpu time :    32.5 secs   av.it.:  11.0
      thresh= 1.502E-06 alpha_mix =  0.700 |ddv_scf|^2 =  8.603E-13

     End of self-consistent calculation

     Convergence has been achieved 

     Number of q in the star =    8
     List of q in the star:
          1  -0.250000000   0.250000000  -0.250000000
          2   0.250000000  -0.250000000  -0.250000000
          3   0.250000000  -0.250000000   0.250000000
          4   0.250000000   0.250000000   0.250000000
          5  -0.250000000  -0.250000000  -0.250000000
          6  -0.250000000  -0.250000000   0.250000000
          7  -0.250000000   0.250000000   0.250000000
          8   0.250000000   0.250000000  -0.250000000

     Diagonalizing the dynamical matrix

     q = (   -0.250000000   0.250000000  -0.250000000 ) 

 **************************************************************************
     freq (    1) =       2.772914 [THz] =      92.494450 [cm-1]
     freq (    2) =       2.772914 [THz] =      92.494450 [cm-1]
     freq (    3) =       6.779219 [THz] =     226.130405 [cm-1]
     freq (    4) =      14.319158 [THz] =     477.635687 [cm-1]
     freq (    5) =      14.604247 [THz] =     487.145229 [cm-1]
     freq (    6) =      14.604247 [THz] =     487.145229 [cm-1]
 **************************************************************************

     Mode symmetry, C_3v (3m)   point group:

     freq (  1 -  2) =         92.5  [cm-1]   --> E    L_3           
     freq (  3 -  3) =        226.1  [cm-1]   --> A_1  L_1           
     freq (  4 -  4) =        477.6  [cm-1]   --> A_1  L_1           
     freq (  5 -  6) =        487.1  [cm-1]   --> E    L_3           

     Calculation of q =    0.5000000  -0.5000000   0.5000000

   Info: using nr1, nr2, nr3 values from input

   Info: using nr1, nr2, nr3 values from input

     Parallelization info
     --------------------
     sticks:   dense  smooth     PW     G-vecs:    dense   smooth      PW
     Min         217     109     40                 4288     1520     351
     Max         219     111     41                 4289     1521     354
     Sum         871     439    163                17153     6081    1411



     bravais-lattice index     =            2
     lattice parameter (alat)  =      10.3100  a.u.
     unit-cell volume          =     273.9782 (a.u.)^3
     number of atoms/cell      =            2
     number of atomic types    =            1
     number of electrons       =         8.00
     number of Kohn-Sham states=            4
     kinetic-energy cutoff     =      30.0000  Ry
     charge density cutoff     =     240.0000  Ry
     Exchange-correlation      = SLA  PW   PBE  PBE ( 1  4  3  4 0 0)

     celldm(1)=  10.310000  celldm(2)=   0.000000  celldm(3)=   0.000000
     celldm(4)=   0.000000  celldm(5)=   0.000000  celldm(6)=   0.000000

     crystal axes: (cart. coord. in units of alat)
               a(1) = (  -0.500000   0.000000   0.500000 )  
               a(2) = (   0.000000   0.500000   0.500000 )  
               a(3) = (  -0.500000   0.500000   0.000000 )  

     reciprocal axes: (cart. coord. in units 2 pi/alat)
               b(1) = ( -1.000000 -1.000000  1.000000 )  
               b(2) = (  1.000000  1.000000  1.000000 )  
               b(3) = ( -1.000000  1.000000 -1.000000 )  


     PseudoPot. # 1 for Si read from file:
     /home/s1333534/quantum_espresso/qe-6.1/pseudo/si_pbe_v1.uspp.F.UPF.txt
     MD5 check sum: a056efeee980c13900f22a371efd63c1
     Pseudo is Ultrasoft + core correction, Zval =  4.0
     Generated by new atomic code, or converted to UPF format
     Using radial grid of  899 points,  6 beta functions with: 
                l(1) =   0
                l(2) =   0
                l(3) =   1
                l(4) =   1
                l(5) =   2
                l(6) =   2
     Q(r) pseudized with  8 coefficients,  rinner =    0.900   0.900   0.900
                                                       0.900   0.900

     atomic species   valence    mass     pseudopotential
        Si             4.00    28.08600     Si( 1.00)

     48 Sym. Ops., with inversion, found



   Cartesian axes

     site n.     atom                  positions (alat units)
         1           Si  tau(   1) = (   0.0000000   0.0000000   0.0000000  )
         2           Si  tau(   2) = (   0.2500000   0.2500000   0.2500000  )

     number of k points=    60
                       cart. coord. in units 2pi/alat
        k(    1) = (  -0.1250000   0.1250000   0.1250000), wk =   0.0468750
        k(    2) = (   0.3750000  -0.3750000   0.6250000), wk =   0.0000000
        k(    3) = (  -0.3750000   0.3750000  -0.1250000), wk =   0.0468750
        k(    4) = (   0.1250000  -0.1250000   0.3750000), wk =   0.0000000
        k(    5) = (   0.3750000  -0.3750000   0.6250000), wk =   0.0468750
        k(    6) = (   0.8750000  -0.8750000   1.1250000), wk =   0.0000000
        k(    7) = (   0.1250000  -0.1250000   0.3750000), wk =   0.0468750
        k(    8) = (   0.6250000  -0.6250000   0.8750000), wk =   0.0000000
        k(    9) = (  -0.1250000   0.6250000   0.1250000), wk =   0.0937500
        k(   10) = (   0.3750000   0.1250000   0.6250000), wk =   0.0000000
        k(   11) = (   0.6250000  -0.1250000   0.8750000), wk =   0.0937500
        k(   12) = (   1.1250000  -0.6250000   1.3750000), wk =   0.0000000
        k(   13) = (   0.3750000   0.1250000   0.6250000), wk =   0.0937500
        k(   14) = (   0.8750000  -0.3750000   1.1250000), wk =   0.0000000
        k(   15) = (  -0.1250000  -0.8750000   0.1250000), wk =   0.0937500
        k(   16) = (   0.3750000  -1.3750000   0.6250000), wk =   0.0000000
        k(   17) = (  -0.3750000   0.3750000   0.3750000), wk =   0.0468750
        k(   18) = (   0.1250000  -0.1250000   0.8750000), wk =   0.0000000
        k(   19) = (   0.3750000  -0.3750000   1.1250000), wk =   0.0468750
        k(   20) = (   0.8750000  -0.8750000   1.6250000), wk =   0.0000000
        k(   21) = (   0.1250000  -0.1250000   0.1250000), wk =   0.0156250
        k(   22) = (   0.6250000  -0.6250000   0.6250000), wk =   0.0000000
        k(   23) = (  -0.3750000  -0.3750000  -0.1250000), wk =   0.0937500
        k(   24) = (   0.1250000  -0.8750000   0.3750000), wk =   0.0000000
        k(   25) = (  -0.1250000  -0.3750000   0.3750000), wk =   0.0468750
        k(   26) = (   0.3750000  -0.8750000   0.8750000), wk =   0.0000000
        k(   27) = (   0.3750000   0.3750000   0.6250000), wk =   0.0937500
        k(   28) = (   0.8750000  -0.1250000   1.1250000), wk =   0.0000000
        k(   29) = (   0.6250000   0.3750000  -0.3750000), wk =   0.0468750
        k(   30) = (   1.1250000  -0.1250000   0.1250000), wk =   0.0000000
        k(   31) = (   0.1250000   0.1250000   0.3750000), wk =   0.0937500
        k(   32) = (   0.6250000  -0.3750000   0.8750000), wk =   0.0000000
        k(   33) = (   0.3750000   0.1250000  -0.1250000), wk =   0.0468750
        k(   34) = (   0.8750000  -0.3750000   0.3750000), wk =   0.0000000
        k(   35) = (  -0.1250000  -0.6250000  -0.1250000), wk =   0.0468750
        k(   36) = (   0.3750000  -1.1250000   0.3750000), wk =   0.0000000
        k(   37) = (   0.1250000  -0.6250000   0.1250000), wk =   0.0468750
        k(   38) = (   0.6250000  -1.1250000   0.6250000), wk =   0.0000000
        k(   39) = (   0.6250000   0.1250000   0.8750000), wk =   0.0937500
        k(   40) = (   1.1250000  -0.3750000   1.3750000), wk =   0.0000000
        k(   41) = (  -0.8750000   0.1250000   0.6250000), wk =   0.0937500
        k(   42) = (  -0.3750000  -0.3750000   1.1250000), wk =   0.0000000
        k(   43) = (   0.8750000   0.1250000  -0.6250000), wk =   0.0937500
        k(   44) = (   1.3750000  -0.3750000  -0.1250000), wk =   0.0000000
        k(   45) = (   0.3750000  -0.1250000   0.6250000), wk =   0.0937500
        k(   46) = (   0.8750000  -0.6250000   1.1250000), wk =   0.0000000
        k(   47) = (  -0.6250000  -0.1250000   0.3750000), wk =   0.0937500
        k(   48) = (  -0.1250000  -0.6250000   0.8750000), wk =   0.0000000
        k(   49) = (   0.6250000  -0.1250000  -0.3750000), wk =   0.0937500
        k(   50) = (   1.1250000  -0.6250000   0.1250000), wk =   0.0000000
        k(   51) = (  -0.1250000   0.8750000  -0.1250000), wk =   0.0468750
        k(   52) = (   0.3750000   0.3750000   0.3750000), wk =   0.0000000
        k(   53) = (   0.1250000   0.8750000   0.1250000), wk =   0.0468750
        k(   54) = (   0.6250000   0.3750000   0.6250000), wk =   0.0000000
        k(   55) = (   0.3750000  -0.3750000   0.3750000), wk =   0.0156250
        k(   56) = (   0.8750000  -0.8750000   0.8750000), wk =   0.0000000
        k(   57) = (   0.3750000   0.3750000   1.1250000), wk =   0.0937500
        k(   58) = (   0.8750000  -0.1250000   1.6250000), wk =   0.0000000
        k(   59) = (   1.1250000   0.3750000  -0.3750000), wk =   0.0468750
        k(   60) = (   1.6250000  -0.1250000   0.1250000), wk =   0.0000000

     Dense  grid:    17153 G-vectors     FFT dimensions: (  36,  36,  36)

     Smooth grid:     6081 G-vectors     FFT dimensions: (  25,  25,  25)

     Estimated max dynamical RAM per process >       1.51MB

     Estimated total allocated dynamical RAM >       6.06MB

     The potential is recalculated from file :
     ./_ph0/silicon.10.310.save/charge-density.dat

     Starting wfc are    8 atomic wfcs

     Band Structure Calculation
     Davidson diagonalization with overlap

     ethr =  1.25E-10,  avg # of iterations = 12.2

     total cpu time spent up to now is        2.4 secs

     End of band structure calculation

          k =-0.1250 0.1250 0.1250 (   752 PWs)   bands (ev):

    -5.6128   4.4556   5.7647   5.7647

          k = 0.3750-0.3750 0.6250 (   760 PWs)   bands (ev):

    -3.4321  -0.6391   3.7918   4.5064

          k =-0.3750 0.3750-0.1250 (   757 PWs)   bands (ev):

    -4.5802   1.4526   3.7680   5.2829

          k = 0.1250-0.1250 0.3750 (   766 PWs)   bands (ev):

    -5.0820   2.8367   4.7502   4.8180

          k = 0.3750-0.3750 0.6250 (   760 PWs)   bands (ev):

    -3.4321  -0.6391   3.7918   4.5064

          k = 0.8750-0.8750 1.1250 (   752 PWs)   bands (ev):

    -5.6128   4.4556   5.7647   5.7647

          k = 0.1250-0.1250 0.3750 (   766 PWs)   bands (ev):

    -5.0820   2.8367   4.7502   4.8180

          k = 0.6250-0.6250 0.8750 (   757 PWs)   bands (ev):

    -4.5802   1.4526   3.7680   5.2829

          k =-0.1250 0.6250 0.1250 (   762 PWs)   bands (ev):

    -4.0449   1.1243   3.4160   3.8715

          k = 0.3750 0.1250 0.6250 (   759 PWs)   bands (ev):

    -3.6262   0.2427   2.7716   4.1475

          k = 0.6250-0.1250 0.8750 (   754 PWs)   bands (ev):

    -2.3941  -0.8466   2.0510   3.1347

          k = 1.1250-0.6250 1.3750 (   757 PWs)   bands (ev):

    -4.5802   1.4526   3.7680   5.2829

          k = 0.3750 0.1250 0.6250 (   759 PWs)   bands (ev):

    -3.6262   0.2427   2.7716   4.1475

          k = 0.8750-0.3750 1.1250 (   762 PWs)   bands (ev):

    -4.0449   1.1243   3.4160   3.8715

          k =-0.1250-0.8750 0.1250 (   759 PWs)   bands (ev):

    -2.5644  -0.7479   2.6653   3.4022

          k = 0.3750-1.3750 0.6250 (   760 PWs)   bands (ev):

    -3.4321  -0.6391   3.7918   4.5064

          k =-0.3750 0.3750 0.3750 (   763 PWs)   bands (ev):

    -4.1442   0.1528   4.9742   4.9742

          k = 0.1250-0.1250 0.8750 (   759 PWs)   bands (ev):

    -2.5644  -0.7479   2.6653   3.4022

          k = 0.3750-0.3750 1.1250 (   759 PWs)   bands (ev):

    -2.9338  -0.5475   2.1121   4.1873

          k = 0.8750-0.8750 1.6250 (   762 PWs)   bands (ev):

    -4.0449   1.1243   3.4160   3.8715

          k = 0.1250-0.1250 0.1250 (   752 PWs)   bands (ev):

    -5.6128   4.4556   5.7647   5.7647

          k = 0.6250-0.6250 0.6250 (   763 PWs)   bands (ev):

    -4.1442   0.1528   4.9742   4.9742

          k =-0.3750-0.3750-0.1250 (   757 PWs)   bands (ev):

    -4.5802   1.4526   3.7680   5.2829

          k = 0.1250-0.8750 0.3750 (   754 PWs)   bands (ev):

    -2.3941  -0.8466   2.0510   3.1347

          k =-0.1250-0.3750 0.3750 (   757 PWs)   bands (ev):

    -4.5802   1.4526   3.7680   5.2829

          k = 0.3750-0.8750 0.8750 (   762 PWs)   bands (ev):

    -4.0449   1.1243   3.4160   3.8715

          k = 0.3750 0.3750 0.6250 (   760 PWs)   bands (ev):

    -3.4321  -0.6391   3.7918   4.5064

          k = 0.8750-0.1250 1.1250 (   759 PWs)   bands (ev):

    -2.5644  -0.7479   2.6653   3.4022

          k = 0.6250 0.3750-0.3750 (   760 PWs)   bands (ev):

    -3.4321  -0.6391   3.7918   4.5064

          k = 1.1250-0.1250 0.1250 (   759 PWs)   bands (ev):

    -2.5644  -0.7479   2.6653   3.4022

          k = 0.1250 0.1250 0.3750 (   766 PWs)   bands (ev):

    -5.0820   2.8367   4.7502   4.8180

          k = 0.6250-0.3750 0.8750 (   759 PWs)   bands (ev):

    -3.6262   0.2427   2.7716   4.1475

          k = 0.3750 0.1250-0.1250 (   766 PWs)   bands (ev):

    -5.0820   2.8367   4.7502   4.8180

          k = 0.8750-0.3750 0.3750 (   759 PWs)   bands (ev):

    -2.9338  -0.5475   2.1121   4.1873

          k =-0.1250-0.6250-0.1250 (   762 PWs)   bands (ev):

    -4.0449   1.1243   3.4160   3.8715

          k = 0.3750-1.1250 0.3750 (   759 PWs)   bands (ev):

    -2.9338  -0.5475   2.1121   4.1873

          k = 0.1250-0.6250 0.1250 (   762 PWs)   bands (ev):

    -4.0449   1.1243   3.4160   3.8715

          k = 0.6250-1.1250 0.6250 (   757 PWs)   bands (ev):

    -4.5802   1.4526   3.7680   5.2829

          k = 0.6250 0.1250 0.8750 (   754 PWs)   bands (ev):

    -2.3941  -0.8466   2.0510   3.1347

          k = 1.1250-0.3750 1.3750 (   759 PWs)   bands (ev):

    -3.6262   0.2427   2.7716   4.1475

          k =-0.8750 0.1250 0.6250 (   754 PWs)   bands (ev):

    -2.3941  -0.8466   2.0510   3.1347

          k =-0.3750-0.3750 1.1250 (   759 PWs)   bands (ev):

    -2.9338  -0.5475   2.1121   4.1873

          k = 0.8750 0.1250-0.6250 (   754 PWs)   bands (ev):

    -2.3941  -0.8466   2.0510   3.1347

          k = 1.3750-0.3750-0.1250 (   759 PWs)   bands (ev):

    -3.6262   0.2427   2.7716   4.1475

          k = 0.3750-0.1250 0.6250 (   759 PWs)   bands (ev):

    -3.6262   0.2427   2.7716   4.1475

          k = 0.8750-0.6250 1.1250 (   766 PWs)   bands (ev):

    -5.0820   2.8367   4.7502   4.8180

          k =-0.6250-0.1250 0.3750 (   759 PWs)   bands (ev):

    -3.6262   0.2427   2.7716   4.1475

          k =-0.1250-0.6250 0.8750 (   754 PWs)   bands (ev):

    -2.3941  -0.8466   2.0510   3.1347

          k = 0.6250-0.1250-0.3750 (   759 PWs)   bands (ev):

    -3.6262   0.2427   2.7716   4.1475

          k = 1.1250-0.6250 0.1250 (   754 PWs)   bands (ev):

    -2.3941  -0.8466   2.0510   3.1347

          k =-0.1250 0.8750-0.1250 (   759 PWs)   bands (ev):

    -2.5644  -0.7479   2.6653   3.4022

          k = 0.3750 0.3750 0.3750 (   763 PWs)   bands (ev):

    -4.1442   0.1528   4.9742   4.9742

          k = 0.1250 0.8750 0.1250 (   759 PWs)   bands (ev):

    -2.5644  -0.7479   2.6653   3.4022

          k = 0.6250 0.3750 0.6250 (   760 PWs)   bands (ev):

    -3.4321  -0.6391   3.7918   4.5064

          k = 0.3750-0.3750 0.3750 (   763 PWs)   bands (ev):

    -4.1442   0.1528   4.9742   4.9742

          k = 0.8750-0.8750 0.8750 (   752 PWs)   bands (ev):

    -5.6128   4.4556   5.7647   5.7647

          k = 0.3750 0.3750 1.1250 (   759 PWs)   bands (ev):

    -2.9338  -0.5475   2.1121   4.1873

          k = 0.8750-0.1250 1.6250 (   754 PWs)   bands (ev):

    -2.3941  -0.8466   2.0510   3.1347

          k = 1.1250 0.3750-0.3750 (   759 PWs)   bands (ev):

    -2.9338  -0.5475   2.1121   4.1873

          k = 1.6250-0.1250 0.1250 (   766 PWs)   bands (ev):

    -5.0820   2.8367   4.7502   4.8180

     highest occupied level (ev):     5.7647

     Writing output data file silicon.10.310.save

                                                                                

     bravais-lattice index     =            2
     lattice parameter (alat)  =      10.3100  a.u.
     unit-cell volume          =     273.9782 (a.u.)^3
     number of atoms/cell      =            2
     number of atomic types    =            1
     kinetic-energy cut-off    =      30.0000  Ry
     charge density cut-off    =     240.0000  Ry
     convergence threshold     =      1.0E-12
     beta                      =       0.7000
     number of iterations used =            4
     Exchange-correlation      = SLA  PW   PBE  PBE ( 1  4  3  4 0 0)


     celldm(1)=   10.31000  celldm(2)=    0.00000  celldm(3)=    0.00000
     celldm(4)=    0.00000  celldm(5)=    0.00000  celldm(6)=    0.00000

     crystal axes: (cart. coord. in units of alat)
               a(1) = ( -0.5000  0.0000  0.5000 )  
               a(2) = (  0.0000  0.5000  0.5000 )  
               a(3) = ( -0.5000  0.5000  0.0000 )  

     reciprocal axes: (cart. coord. in units 2 pi/alat)
               b(1) = ( -1.0000 -1.0000  1.0000 )  
               b(2) = (  1.0000  1.0000  1.0000 )  
               b(3) = ( -1.0000  1.0000 -1.0000 )  


     Atoms inside the unit cell: 

     Cartesian axes

     site n.  atom      mass           positions (alat units)
        1     Si  28.0860   tau(    1) = (    0.00000    0.00000    0.00000  )
        2     Si  28.0860   tau(    2) = (    0.25000    0.25000    0.25000  )

     Computing dynamical matrix for 
                    q = (   0.5000000  -0.5000000   0.5000000 )

     13 Sym.Ops. (with q -> -q+G )


     G cutoff =  646.2028  (   4288 G-vectors)     FFT grid: ( 36, 36, 36)
     G cutoff =  323.1014  (   1520 G-vectors)  smooth grid: ( 25, 25, 25)
     number of k points=    60

     PseudoPot. # 1 for Si read from file:
     /home/s1333534/quantum_espresso/qe-6.1/pseudo/si_pbe_v1.uspp.F.UPF.txt
     MD5 check sum: a056efeee980c13900f22a371efd63c1
     Pseudo is Ultrasoft + core correction, Zval =  4.0
     Generated by new atomic code, or converted to UPF format
     Using radial grid of  899 points,  6 beta functions with: 
                l(1) =   0
                l(2) =   0
                l(3) =   1
                l(4) =   1
                l(5) =   2
                l(6) =   2
     Q(r) pseudized with  8 coefficients,  rinner =    0.900   0.900   0.900
                                                       0.900   0.900


     Atomic displacements:
     There are   4 irreducible representations

     Representation     1      1 modes -  To be done

     Representation     2      1 modes -  To be done

     Representation     3      2 modes -  To be done

     Representation     4      2 modes -  To be done



     Alpha used in Ewald sum =   2.5000
     PHONON       :    27.69s CPU        34.82s WALL



     Representation #  1 mode #   1

     Self-consistent Calculation

      iter #   1 total cpu time :    35.1 secs   av.it.:   5.1
      thresh= 1.000E-02 alpha_mix =  0.700 |ddv_scf|^2 =  4.209E-06

      iter #   2 total cpu time :    36.0 secs   av.it.:   9.9
      thresh= 2.052E-04 alpha_mix =  0.700 |ddv_scf|^2 =  3.842E-06

      iter #   3 total cpu time :    36.6 secs   av.it.:   9.2
      thresh= 1.960E-04 alpha_mix =  0.700 |ddv_scf|^2 =  2.320E-09

      iter #   4 total cpu time :    37.4 secs   av.it.:   9.4
      thresh= 4.816E-06 alpha_mix =  0.700 |ddv_scf|^2 =  2.247E-11

      iter #   5 total cpu time :    37.8 secs   av.it.:   9.3
      thresh= 4.740E-07 alpha_mix =  0.700 |ddv_scf|^2 =  3.073E-13

     End of self-consistent calculation

     Convergence has been achieved 


     Representation #  2 mode #   2

     Self-consistent Calculation

      iter #   1 total cpu time :    38.4 secs   av.it.:   6.0
      thresh= 1.000E-02 alpha_mix =  0.700 |ddv_scf|^2 =  5.987E-05

      iter #   2 total cpu time :    38.9 secs   av.it.:   9.8
      thresh= 7.738E-04 alpha_mix =  0.700 |ddv_scf|^2 =  1.860E-04

      iter #   3 total cpu time :    39.9 secs   av.it.:   8.6
      thresh= 1.364E-03 alpha_mix =  0.700 |ddv_scf|^2 =  1.304E-08

      iter #   4 total cpu time :    40.6 secs   av.it.:   9.8
      thresh= 1.142E-05 alpha_mix =  0.700 |ddv_scf|^2 =  6.637E-10

      iter #   5 total cpu time :    41.2 secs   av.it.:  10.2
      thresh= 2.576E-06 alpha_mix =  0.700 |ddv_scf|^2 =  2.028E-11

      iter #   6 total cpu time :    41.8 secs   av.it.:   9.7
      thresh= 4.503E-07 alpha_mix =  0.700 |ddv_scf|^2 =  1.530E-13

     End of self-consistent calculation

     Convergence has been achieved 


     Representation #  3 modes #   3  4

     Self-consistent Calculation

      iter #   1 total cpu time :    42.6 secs   av.it.:   5.1
      thresh= 1.000E-02 alpha_mix =  0.700 |ddv_scf|^2 =  2.700E-08

      iter #   2 total cpu time :    43.8 secs   av.it.:  10.9
      thresh= 1.643E-05 alpha_mix =  0.700 |ddv_scf|^2 =  1.594E-09

      iter #   3 total cpu time :    45.2 secs   av.it.:  10.7
      thresh= 3.992E-06 alpha_mix =  0.700 |ddv_scf|^2 =  5.297E-11

      iter #   4 total cpu time :    45.9 secs   av.it.:  10.7
      thresh= 7.278E-07 alpha_mix =  0.700 |ddv_scf|^2 =  4.337E-13

     End of self-consistent calculation

     Convergence has been achieved 


     Representation #  4 modes #   5  6

     Self-consistent Calculation

      iter #   1 total cpu time :    46.9 secs   av.it.:   5.1
      thresh= 1.000E-02 alpha_mix =  0.700 |ddv_scf|^2 =  1.381E-07

      iter #   2 total cpu time :    47.9 secs   av.it.:  11.1
      thresh= 3.716E-05 alpha_mix =  0.700 |ddv_scf|^2 =  1.108E-08

      iter #   3 total cpu time :    48.7 secs   av.it.:  10.9
      thresh= 1.053E-05 alpha_mix =  0.700 |ddv_scf|^2 =  2.914E-10

      iter #   4 total cpu time :    49.5 secs   av.it.:   9.8
      thresh= 1.707E-06 alpha_mix =  0.700 |ddv_scf|^2 =  5.262E-13

     End of self-consistent calculation

     Convergence has been achieved 

     Number of q in the star =    4
     List of q in the star:
          1   0.500000000  -0.500000000   0.500000000
          2   0.500000000   0.500000000   0.500000000
          3  -0.500000000   0.500000000   0.500000000
          4   0.500000000   0.500000000  -0.500000000

     Diagonalizing the dynamical matrix

     q = (    0.500000000  -0.500000000   0.500000000 ) 

 **************************************************************************
     freq (    1) =       3.267005 [THz] =     108.975546 [cm-1]
     freq (    2) =       3.267005 [THz] =     108.975546 [cm-1]
     freq (    3) =      11.124833 [THz] =     371.084499 [cm-1]
     freq (    4) =      12.099599 [THz] =     403.599185 [cm-1]
     freq (    5) =      14.401965 [THz] =     480.397844 [cm-1]
     freq (    6) =      14.401965 [THz] =     480.397844 [cm-1]
 **************************************************************************

     Calculation of q =    0.0000000   0.5000000   0.0000000

   Info: using nr1, nr2, nr3 values from input

   Info: using nr1, nr2, nr3 values from input

     Parallelization info
     --------------------
     sticks:   dense  smooth     PW     G-vecs:    dense   smooth      PW
     Min         217     109     37                 4288     1520     309
     Max         218     111     38                 4289     1521     312
     Sum         871     439    151                17153     6081    1243



     bravais-lattice index     =            2
     lattice parameter (alat)  =      10.3100  a.u.
     unit-cell volume          =     273.9782 (a.u.)^3
     number of atoms/cell      =            2
     number of atomic types    =            1
     number of electrons       =         8.00
     number of Kohn-Sham states=            4
     kinetic-energy cutoff     =      30.0000  Ry
     charge density cutoff     =     240.0000  Ry
     Exchange-correlation      = SLA  PW   PBE  PBE ( 1  4  3  4 0 0)

     celldm(1)=  10.310000  celldm(2)=   0.000000  celldm(3)=   0.000000
     celldm(4)=   0.000000  celldm(5)=   0.000000  celldm(6)=   0.000000

     crystal axes: (cart. coord. in units of alat)
               a(1) = (  -0.500000   0.000000   0.500000 )  
               a(2) = (   0.000000   0.500000   0.500000 )  
               a(3) = (  -0.500000   0.500000   0.000000 )  

     reciprocal axes: (cart. coord. in units 2 pi/alat)
               b(1) = ( -1.000000 -1.000000  1.000000 )  
               b(2) = (  1.000000  1.000000  1.000000 )  
               b(3) = ( -1.000000  1.000000 -1.000000 )  


     PseudoPot. # 1 for Si read from file:
     /home/s1333534/quantum_espresso/qe-6.1/pseudo/si_pbe_v1.uspp.F.UPF.txt
     MD5 check sum: a056efeee980c13900f22a371efd63c1
     Pseudo is Ultrasoft + core correction, Zval =  4.0
     Generated by new atomic code, or converted to UPF format
     Using radial grid of  899 points,  6 beta functions with: 
                l(1) =   0
                l(2) =   0
                l(3) =   1
                l(4) =   1
                l(5) =   2
                l(6) =   2
     Q(r) pseudized with  8 coefficients,  rinner =    0.900   0.900   0.900
                                                       0.900   0.900

     atomic species   valence    mass     pseudopotential
        Si             4.00    28.08600     Si( 1.00)

     48 Sym. Ops., with inversion, found



   Cartesian axes

     site n.     atom                  positions (alat units)
         1           Si  tau(   1) = (   0.0000000   0.0000000   0.0000000  )
         2           Si  tau(   2) = (   0.2500000   0.2500000   0.2500000  )

     number of k points=    80
                       cart. coord. in units 2pi/alat
        k(    1) = (  -0.1250000   0.1250000   0.1250000), wk =   0.0312500
        k(    2) = (  -0.1250000   0.6250000   0.1250000), wk =   0.0000000
        k(    3) = (  -0.3750000   0.3750000  -0.1250000), wk =   0.0625000
        k(    4) = (  -0.3750000   0.8750000  -0.1250000), wk =   0.0000000
        k(    5) = (   0.3750000  -0.3750000   0.6250000), wk =   0.0625000
        k(    6) = (   0.3750000   0.1250000   0.6250000), wk =   0.0000000
        k(    7) = (   0.1250000  -0.1250000   0.3750000), wk =   0.0625000
        k(    8) = (   0.1250000   0.3750000   0.3750000), wk =   0.0000000
        k(    9) = (  -0.1250000   0.6250000   0.1250000), wk =   0.0312500
        k(   10) = (  -0.1250000   1.1250000   0.1250000), wk =   0.0000000
        k(   11) = (   0.6250000  -0.1250000   0.8750000), wk =   0.0625000
        k(   12) = (   0.6250000   0.3750000   0.8750000), wk =   0.0000000
        k(   13) = (   0.3750000   0.1250000   0.6250000), wk =   0.0625000
        k(   14) = (   0.3750000   0.6250000   0.6250000), wk =   0.0000000
        k(   15) = (  -0.1250000  -0.8750000   0.1250000), wk =   0.0312500
        k(   16) = (  -0.1250000  -0.3750000   0.1250000), wk =   0.0000000
        k(   17) = (  -0.3750000   0.3750000   0.3750000), wk =   0.0312500
        k(   18) = (  -0.3750000   0.8750000   0.3750000), wk =   0.0000000
        k(   19) = (   0.3750000  -0.3750000   1.1250000), wk =   0.0625000
        k(   20) = (   0.3750000   0.1250000   1.1250000), wk =   0.0000000
        k(   21) = (  -0.1250000  -0.1250000   0.1250000), wk =   0.0312500
        k(   22) = (  -0.1250000   0.3750000   0.1250000), wk =   0.0000000
        k(   23) = (   0.1250000  -0.3750000   0.3750000), wk =   0.0625000
        k(   24) = (   0.1250000   0.1250000   0.3750000), wk =   0.0000000
        k(   25) = (   0.3750000  -0.1250000   0.3750000), wk =   0.0312500
        k(   26) = (   0.3750000   0.3750000   0.3750000), wk =   0.0000000
        k(   27) = (   0.3750000   0.1250000   0.3750000), wk =   0.0312500
        k(   28) = (   0.3750000   0.6250000   0.3750000), wk =   0.0000000
        k(   29) = (  -0.6250000   0.3750000  -0.3750000), wk =   0.0625000
        k(   30) = (  -0.6250000   0.8750000  -0.3750000), wk =   0.0000000
        k(   31) = (  -0.3750000   0.6250000  -0.3750000), wk =   0.0312500
        k(   32) = (  -0.3750000   1.1250000  -0.3750000), wk =   0.0000000
        k(   33) = (  -0.3750000  -0.6250000  -0.3750000), wk =   0.0312500
        k(   34) = (  -0.3750000  -0.1250000  -0.3750000), wk =   0.0000000
        k(   35) = (  -0.3750000   0.1250000  -0.1250000), wk =   0.0625000
        k(   36) = (  -0.3750000   0.6250000  -0.1250000), wk =   0.0000000
        k(   37) = (  -0.1250000   0.3750000  -0.1250000), wk =   0.0312500
        k(   38) = (  -0.1250000   0.8750000  -0.1250000), wk =   0.0000000
        k(   39) = (  -0.1250000  -0.3750000  -0.1250000), wk =   0.0312500
        k(   40) = (  -0.1250000   0.1250000  -0.1250000), wk =   0.0000000
        k(   41) = (  -0.1250000  -0.6250000   0.1250000), wk =   0.0312500
        k(   42) = (  -0.1250000  -0.1250000   0.1250000), wk =   0.0000000
        k(   43) = (   0.6250000  -0.1250000  -0.1250000), wk =   0.0625000
        k(   44) = (   0.6250000   0.3750000  -0.1250000), wk =   0.0000000
        k(   45) = (   0.6250000   0.1250000   0.1250000), wk =   0.0625000
        k(   46) = (   0.6250000   0.6250000   0.1250000), wk =   0.0000000
        k(   47) = (  -0.8750000   0.1250000  -0.6250000), wk =   0.0625000
        k(   48) = (  -0.8750000   0.6250000  -0.6250000), wk =   0.0000000
        k(   49) = (  -0.1250000   0.6250000  -0.8750000), wk =   0.0625000
        k(   50) = (  -0.1250000   1.1250000  -0.8750000), wk =   0.0000000
        k(   51) = (  -0.1250000   0.8750000  -0.6250000), wk =   0.0625000
        k(   52) = (  -0.1250000   1.3750000  -0.6250000), wk =   0.0000000
        k(   53) = (  -0.1250000  -0.8750000  -0.6250000), wk =   0.0625000
        k(   54) = (  -0.1250000  -0.3750000  -0.6250000), wk =   0.0000000
        k(   55) = (   0.8750000  -0.6250000   0.1250000), wk =   0.0625000
        k(   56) = (   0.8750000  -0.1250000   0.1250000), wk =   0.0000000
        k(   57) = (  -0.6250000  -0.1250000  -0.3750000), wk =   0.0625000
        k(   58) = (  -0.6250000   0.3750000  -0.3750000), wk =   0.0000000
        k(   59) = (   0.1250000   0.3750000  -0.6250000), wk =   0.0625000
        k(   60) = (   0.1250000   0.8750000  -0.6250000), wk =   0.0000000
        k(   61) = (   0.1250000   0.6250000  -0.3750000), wk =   0.0625000
        k(   62) = (   0.1250000   1.1250000  -0.3750000), wk =   0.0000000
        k(   63) = (   0.1250000  -0.6250000  -0.3750000), wk =   0.0625000
        k(   64) = (   0.1250000  -0.1250000  -0.3750000), wk =   0.0000000
        k(   65) = (   0.6250000  -0.3750000  -0.1250000), wk =   0.0625000
        k(   66) = (   0.6250000   0.1250000  -0.1250000), wk =   0.0000000
        k(   67) = (  -0.1250000   0.8750000   0.1250000), wk =   0.0312500
        k(   68) = (  -0.1250000   1.3750000   0.1250000), wk =   0.0000000
        k(   69) = (  -0.8750000  -0.1250000  -0.1250000), wk =   0.0625000
        k(   70) = (  -0.8750000   0.3750000  -0.1250000), wk =   0.0000000
        k(   71) = (  -0.8750000   0.1250000   0.1250000), wk =   0.0625000
        k(   72) = (  -0.8750000   0.6250000   0.1250000), wk =   0.0000000
        k(   73) = (  -0.3750000  -0.3750000   0.3750000), wk =   0.0312500
        k(   74) = (  -0.3750000   0.1250000   0.3750000), wk =   0.0000000
        k(   75) = (  -1.1250000   0.3750000  -0.3750000), wk =   0.0625000
        k(   76) = (  -1.1250000   0.8750000  -0.3750000), wk =   0.0000000
        k(   77) = (  -0.3750000   1.1250000  -0.3750000), wk =   0.0312500
        k(   78) = (  -0.3750000   1.6250000  -0.3750000), wk =   0.0000000
        k(   79) = (  -0.3750000  -1.1250000  -0.3750000), wk =   0.0312500
        k(   80) = (  -0.3750000  -0.6250000  -0.3750000), wk =   0.0000000

     Dense  grid:    17153 G-vectors     FFT dimensions: (  36,  36,  36)

     Smooth grid:     6081 G-vectors     FFT dimensions: (  25,  25,  25)

     Estimated max dynamical RAM per process >       1.51MB

     Estimated total allocated dynamical RAM >       6.06MB

     The potential is recalculated from file :
     ./_ph0/silicon.10.310.save/charge-density.dat

     Starting wfc are    8 atomic wfcs

     Band Structure Calculation
     Davidson diagonalization with overlap

     ethr =  1.25E-10,  avg # of iterations = 12.2

     total cpu time spent up to now is        3.6 secs

     End of band structure calculation

          k =-0.1250 0.1250 0.1250 (   752 PWs)   bands (ev):

    -5.6128   4.4556   5.7647   5.7647

          k =-0.1250 0.6250 0.1250 (   762 PWs)   bands (ev):

    -4.0449   1.1243   3.4160   3.8715

          k =-0.3750 0.3750-0.1250 (   757 PWs)   bands (ev):

    -4.5802   1.4526   3.7680   5.2829

          k =-0.3750 0.8750-0.1250 (   754 PWs)   bands (ev):

    -2.3941  -0.8466   2.0510   3.1347

          k = 0.3750-0.3750 0.6250 (   760 PWs)   bands (ev):

    -3.4321  -0.6391   3.7918   4.5064

          k = 0.3750 0.1250 0.6250 (   759 PWs)   bands (ev):

    -3.6262   0.2427   2.7716   4.1475

          k = 0.1250-0.1250 0.3750 (   766 PWs)   bands (ev):

    -5.0820   2.8367   4.7502   4.8180

          k = 0.1250 0.3750 0.3750 (   757 PWs)   bands (ev):

    -4.5802   1.4526   3.7680   5.2829

          k =-0.1250 0.6250 0.1250 (   762 PWs)   bands (ev):

    -4.0449   1.1243   3.4160   3.8715

          k =-0.1250 1.1250 0.1250 (   759 PWs)   bands (ev):

    -2.5644  -0.7479   2.6653   3.4022

          k = 0.6250-0.1250 0.8750 (   754 PWs)   bands (ev):

    -2.3941  -0.8466   2.0510   3.1347

          k = 0.6250 0.3750 0.8750 (   759 PWs)   bands (ev):

    -3.6262   0.2427   2.7716   4.1475

          k = 0.3750 0.1250 0.6250 (   759 PWs)   bands (ev):

    -3.6262   0.2427   2.7716   4.1475

          k = 0.3750 0.6250 0.6250 (   760 PWs)   bands (ev):

    -3.4321  -0.6391   3.7918   4.5064

          k =-0.1250-0.8750 0.1250 (   759 PWs)   bands (ev):

    -2.5644  -0.7479   2.6653   3.4022

          k =-0.1250-0.3750 0.1250 (   766 PWs)   bands (ev):

    -5.0820   2.8367   4.7502   4.8180

          k =-0.3750 0.3750 0.3750 (   763 PWs)   bands (ev):

    -4.1442   0.1528   4.9742   4.9742

          k =-0.3750 0.8750 0.3750 (   759 PWs)   bands (ev):

    -2.9338  -0.5475   2.1121   4.1873

          k = 0.3750-0.3750 1.1250 (   759 PWs)   bands (ev):

    -2.9338  -0.5475   2.1121   4.1873

          k = 0.3750 0.1250 1.1250 (   754 PWs)   bands (ev):

    -2.3941  -0.8466   2.0510   3.1347

          k =-0.1250-0.1250 0.1250 (   752 PWs)   bands (ev):

    -5.6128   4.4556   5.7647   5.7647

          k =-0.1250 0.3750 0.1250 (   766 PWs)   bands (ev):

    -5.0820   2.8367   4.7502   4.8180

          k = 0.1250-0.3750 0.3750 (   757 PWs)   bands (ev):

    -4.5802   1.4526   3.7680   5.2829

          k = 0.1250 0.1250 0.3750 (   766 PWs)   bands (ev):

    -5.0820   2.8367   4.7502   4.8180

          k = 0.3750-0.1250 0.3750 (   757 PWs)   bands (ev):

    -4.5802   1.4526   3.7680   5.2829

          k = 0.3750 0.3750 0.3750 (   763 PWs)   bands (ev):

    -4.1442   0.1528   4.9742   4.9742

          k = 0.3750 0.1250 0.3750 (   757 PWs)   bands (ev):

    -4.5802   1.4526   3.7680   5.2829

          k = 0.3750 0.6250 0.3750 (   760 PWs)   bands (ev):

    -3.4321  -0.6391   3.7918   4.5064

          k =-0.6250 0.3750-0.3750 (   760 PWs)   bands (ev):

    -3.4321  -0.6391   3.7918   4.5064

          k =-0.6250 0.8750-0.3750 (   759 PWs)   bands (ev):

    -3.6262   0.2427   2.7716   4.1475

          k =-0.3750 0.6250-0.3750 (   760 PWs)   bands (ev):

    -3.4321  -0.6391   3.7918   4.5064

          k =-0.3750 1.1250-0.3750 (   759 PWs)   bands (ev):

    -2.9338  -0.5475   2.1121   4.1873

          k =-0.3750-0.6250-0.3750 (   760 PWs)   bands (ev):

    -3.4321  -0.6391   3.7918   4.5064

          k =-0.3750-0.1250-0.3750 (   757 PWs)   bands (ev):

    -4.5802   1.4526   3.7680   5.2829

          k =-0.3750 0.1250-0.1250 (   766 PWs)   bands (ev):

    -5.0820   2.8367   4.7502   4.8180

          k =-0.3750 0.6250-0.1250 (   759 PWs)   bands (ev):

    -3.6262   0.2427   2.7716   4.1475

          k =-0.1250 0.3750-0.1250 (   766 PWs)   bands (ev):

    -5.0820   2.8367   4.7502   4.8180

          k =-0.1250 0.8750-0.1250 (   759 PWs)   bands (ev):

    -2.5644  -0.7479   2.6653   3.4022

          k =-0.1250-0.3750-0.1250 (   766 PWs)   bands (ev):

    -5.0820   2.8367   4.7502   4.8180

          k =-0.1250 0.1250-0.1250 (   752 PWs)   bands (ev):

    -5.6128   4.4556   5.7647   5.7647

          k =-0.1250-0.6250 0.1250 (   762 PWs)   bands (ev):

    -4.0449   1.1243   3.4160   3.8715

          k =-0.1250-0.1250 0.1250 (   752 PWs)   bands (ev):

    -5.6128   4.4556   5.7647   5.7647

          k = 0.6250-0.1250-0.1250 (   762 PWs)   bands (ev):

    -4.0449   1.1243   3.4160   3.8715

          k = 0.6250 0.3750-0.1250 (   759 PWs)   bands (ev):

    -3.6262   0.2427   2.7716   4.1475

          k = 0.6250 0.1250 0.1250 (   762 PWs)   bands (ev):

    -4.0449   1.1243   3.4160   3.8715

          k = 0.6250 0.6250 0.1250 (   759 PWs)   bands (ev):

    -2.9338  -0.5475   2.1121   4.1873

          k =-0.8750 0.1250-0.6250 (   754 PWs)   bands (ev):

    -2.3941  -0.8466   2.0510   3.1347

          k =-0.8750 0.6250-0.6250 (   757 PWs)   bands (ev):

    -4.5802   1.4526   3.7680   5.2829

          k =-0.1250 0.6250-0.8750 (   754 PWs)   bands (ev):

    -2.3941  -0.8466   2.0510   3.1347

          k =-0.1250 1.1250-0.8750 (   759 PWs)   bands (ev):

    -2.5644  -0.7479   2.6653   3.4022

          k =-0.1250 0.8750-0.6250 (   754 PWs)   bands (ev):

    -2.3941  -0.8466   2.0510   3.1347

          k =-0.1250 1.3750-0.6250 (   759 PWs)   bands (ev):

    -2.9338  -0.5475   2.1121   4.1873

          k =-0.1250-0.8750-0.6250 (   754 PWs)   bands (ev):

    -2.3941  -0.8466   2.0510   3.1347

          k =-0.1250-0.3750-0.6250 (   759 PWs)   bands (ev):

    -3.6262   0.2427   2.7716   4.1475

          k = 0.8750-0.6250 0.1250 (   754 PWs)   bands (ev):

    -2.3941  -0.8466   2.0510   3.1347

          k = 0.8750-0.1250 0.1250 (   759 PWs)   bands (ev):

    -2.5644  -0.7479   2.6653   3.4022

          k =-0.6250-0.1250-0.3750 (   759 PWs)   bands (ev):

    -3.6262   0.2427   2.7716   4.1475

          k =-0.6250 0.3750-0.3750 (   760 PWs)   bands (ev):

    -3.4321  -0.6391   3.7918   4.5064

          k = 0.1250 0.3750-0.6250 (   759 PWs)   bands (ev):

    -3.6262   0.2427   2.7716   4.1475

          k = 0.1250 0.8750-0.6250 (   754 PWs)   bands (ev):

    -2.3941  -0.8466   2.0510   3.1347

          k = 0.1250 0.6250-0.3750 (   759 PWs)   bands (ev):

    -3.6262   0.2427   2.7716   4.1475

          k = 0.1250 1.1250-0.3750 (   754 PWs)   bands (ev):

    -2.3941  -0.8466   2.0510   3.1347

          k = 0.1250-0.6250-0.3750 (   759 PWs)   bands (ev):

    -3.6262   0.2427   2.7716   4.1475

          k = 0.1250-0.1250-0.3750 (   766 PWs)   bands (ev):

    -5.0820   2.8367   4.7502   4.8180

          k = 0.6250-0.3750-0.1250 (   759 PWs)   bands (ev):

    -3.6262   0.2427   2.7716   4.1475

          k = 0.6250 0.1250-0.1250 (   762 PWs)   bands (ev):

    -4.0449   1.1243   3.4160   3.8715

          k =-0.1250 0.8750 0.1250 (   759 PWs)   bands (ev):

    -2.5644  -0.7479   2.6653   3.4022

          k =-0.1250 1.3750 0.1250 (   762 PWs)   bands (ev):

    -4.0449   1.1243   3.4160   3.8715

          k =-0.8750-0.1250-0.1250 (   759 PWs)   bands (ev):

    -2.5644  -0.7479   2.6653   3.4022

          k =-0.8750 0.3750-0.1250 (   754 PWs)   bands (ev):

    -2.3941  -0.8466   2.0510   3.1347

          k =-0.8750 0.1250 0.1250 (   759 PWs)   bands (ev):

    -2.5644  -0.7479   2.6653   3.4022

          k =-0.8750 0.6250 0.1250 (   754 PWs)   bands (ev):

    -2.3941  -0.8466   2.0510   3.1347

          k =-0.3750-0.3750 0.3750 (   763 PWs)   bands (ev):

    -4.1442   0.1528   4.9742   4.9742

          k =-0.3750 0.1250 0.3750 (   757 PWs)   bands (ev):

    -4.5802   1.4526   3.7680   5.2829

          k =-1.1250 0.3750-0.3750 (   759 PWs)   bands (ev):

    -2.9338  -0.5475   2.1121   4.1873

          k =-1.1250 0.8750-0.3750 (   762 PWs)   bands (ev):

    -4.0449   1.1243   3.4160   3.8715

          k =-0.3750 1.1250-0.3750 (   759 PWs)   bands (ev):

    -2.9338  -0.5475   2.1121   4.1873

          k =-0.3750 1.6250-0.3750 (   763 PWs)   bands (ev):

    -4.1442   0.1528   4.9742   4.9742

          k =-0.3750-1.1250-0.3750 (   759 PWs)   bands (ev):

    -2.9338  -0.5475   2.1121   4.1873

          k =-0.3750-0.6250-0.3750 (   760 PWs)   bands (ev):

    -3.4321  -0.6391   3.7918   4.5064

     highest occupied level (ev):     5.7647

     Writing output data file silicon.10.310.save

                                                                                

     bravais-lattice index     =            2
     lattice parameter (alat)  =      10.3100  a.u.
     unit-cell volume          =     273.9782 (a.u.)^3
     number of atoms/cell      =            2
     number of atomic types    =            1
     kinetic-energy cut-off    =      30.0000  Ry
     charge density cut-off    =     240.0000  Ry
     convergence threshold     =      1.0E-12
     beta                      =       0.7000
     number of iterations used =            4
     Exchange-correlation      = SLA  PW   PBE  PBE ( 1  4  3  4 0 0)


     celldm(1)=   10.31000  celldm(2)=    0.00000  celldm(3)=    0.00000
     celldm(4)=    0.00000  celldm(5)=    0.00000  celldm(6)=    0.00000

     crystal axes: (cart. coord. in units of alat)
               a(1) = ( -0.5000  0.0000  0.5000 )  
               a(2) = (  0.0000  0.5000  0.5000 )  
               a(3) = ( -0.5000  0.5000  0.0000 )  

     reciprocal axes: (cart. coord. in units 2 pi/alat)
               b(1) = ( -1.0000 -1.0000  1.0000 )  
               b(2) = (  1.0000  1.0000  1.0000 )  
               b(3) = ( -1.0000  1.0000 -1.0000 )  


     Atoms inside the unit cell: 

     Cartesian axes

     site n.  atom      mass           positions (alat units)
        1     Si  28.0860   tau(    1) = (    0.00000    0.00000    0.00000  )
        2     Si  28.0860   tau(    2) = (    0.25000    0.25000    0.25000  )

     Computing dynamical matrix for 
                    q = (   0.0000000   0.5000000   0.0000000 )

      8 Sym.Ops. (no q -> -q+G )


     G cutoff =  646.2028  (   4288 G-vectors)     FFT grid: ( 36, 36, 36)
     G cutoff =  323.1014  (   1520 G-vectors)  smooth grid: ( 25, 25, 25)
     number of k points=    80

     PseudoPot. # 1 for Si read from file:
     /home/s1333534/quantum_espresso/qe-6.1/pseudo/si_pbe_v1.uspp.F.UPF.txt
     MD5 check sum: a056efeee980c13900f22a371efd63c1
     Pseudo is Ultrasoft + core correction, Zval =  4.0
     Generated by new atomic code, or converted to UPF format
     Using radial grid of  899 points,  6 beta functions with: 
                l(1) =   0
                l(2) =   0
                l(3) =   1
                l(4) =   1
                l(5) =   2
                l(6) =   2
     Q(r) pseudized with  8 coefficients,  rinner =    0.900   0.900   0.900
                                                       0.900   0.900

     Mode symmetry, C_4v (4mm)  point group:


     Atomic displacements:
     There are   4 irreducible representations

     Representation     1      1 modes -A_1  G_1 D_1  To be done

     Representation     2      1 modes -B_2  G_4 D_2'  To be done

     Representation     3      2 modes -E    G_5 D_5  To be done

     Representation     4      2 modes -E    G_5 D_5  To be done



     Alpha used in Ewald sum =   2.5000
     PHONON       :    37.72s CPU        53.43s WALL



     Representation #  1 mode #   1

     Self-consistent Calculation

      iter #   1 total cpu time :    53.9 secs   av.it.:   6.2
      thresh= 1.000E-02 alpha_mix =  0.700 |ddv_scf|^2 =  5.159E-04

      iter #   2 total cpu time :    54.5 secs   av.it.:   9.2
      thresh= 2.271E-03 alpha_mix =  0.700 |ddv_scf|^2 =  6.827E-03

      iter #   3 total cpu time :    55.4 secs   av.it.:   7.3
      thresh= 8.262E-03 alpha_mix =  0.700 |ddv_scf|^2 =  1.030E-08

      iter #   4 total cpu time :    56.4 secs   av.it.:  10.1
      thresh= 1.015E-05 alpha_mix =  0.700 |ddv_scf|^2 =  1.018E-09

      iter #   5 total cpu time :    57.4 secs   av.it.:   9.6
      thresh= 3.191E-06 alpha_mix =  0.700 |ddv_scf|^2 =  1.153E-10

      iter #   6 total cpu time :    57.9 secs   av.it.:   9.3
      thresh= 1.074E-06 alpha_mix =  0.700 |ddv_scf|^2 =  3.045E-13

     End of self-consistent calculation

     Convergence has been achieved 


     Representation #  2 mode #   2

     Self-consistent Calculation

      iter #   1 total cpu time :    58.7 secs   av.it.:   5.1
      thresh= 1.000E-02 alpha_mix =  0.700 |ddv_scf|^2 =  8.127E-07

      iter #   2 total cpu time :    59.3 secs   av.it.:  10.4
      thresh= 9.015E-05 alpha_mix =  0.700 |ddv_scf|^2 =  2.204E-07

      iter #   3 total cpu time :    59.8 secs   av.it.:   9.9
      thresh= 4.695E-05 alpha_mix =  0.700 |ddv_scf|^2 =  2.240E-09

      iter #   4 total cpu time :    60.7 secs   av.it.:  10.1
      thresh= 4.733E-06 alpha_mix =  0.700 |ddv_scf|^2 =  8.668E-11

      iter #   5 total cpu time :    61.3 secs   av.it.:  10.3
      thresh= 9.310E-07 alpha_mix =  0.700 |ddv_scf|^2 =  5.192E-13

     End of self-consistent calculation

     Convergence has been achieved 


     Representation #  3 modes #   3  4

     Self-consistent Calculation

      iter #   1 total cpu time :    62.1 secs   av.it.:   5.2
      thresh= 1.000E-02 alpha_mix =  0.700 |ddv_scf|^2 =  1.441E-07

      iter #   2 total cpu time :    63.8 secs   av.it.:  11.5
      thresh= 3.797E-05 alpha_mix =  0.700 |ddv_scf|^2 =  1.986E-08

      iter #   3 total cpu time :    65.0 secs   av.it.:  11.1
      thresh= 1.409E-05 alpha_mix =  0.700 |ddv_scf|^2 =  3.346E-10

      iter #   4 total cpu time :    66.2 secs   av.it.:  10.7
      thresh= 1.829E-06 alpha_mix =  0.700 |ddv_scf|^2 =  7.804E-13

     End of self-consistent calculation

     Convergence has been achieved 


     Representation #  4 modes #   5  6

     Self-consistent Calculation

      iter #   1 total cpu time :    67.7 secs   av.it.:   5.3
      thresh= 1.000E-02 alpha_mix =  0.700 |ddv_scf|^2 =  1.322E-07

      iter #   2 total cpu time :    69.0 secs   av.it.:  11.4
      thresh= 3.635E-05 alpha_mix =  0.700 |ddv_scf|^2 =  1.772E-08

      iter #   3 total cpu time :    70.3 secs   av.it.:  11.2
      thresh= 1.331E-05 alpha_mix =  0.700 |ddv_scf|^2 =  3.428E-10

      iter #   4 total cpu time :    71.5 secs   av.it.:  11.0
      thresh= 1.851E-06 alpha_mix =  0.700 |ddv_scf|^2 =  8.408E-13

     End of self-consistent calculation

     Convergence has been achieved 

     Number of q in the star =    6
     List of q in the star:
          1   0.000000000   0.500000000   0.000000000
          2   0.000000000  -0.500000000   0.000000000
          3   0.500000000   0.000000000   0.000000000
          4   0.000000000   0.000000000   0.500000000
          5   0.000000000   0.000000000  -0.500000000
          6  -0.500000000   0.000000000   0.000000000

     Diagonalizing the dynamical matrix

     q = (    0.000000000   0.500000000   0.000000000 ) 

 **************************************************************************
     freq (    1) =       3.754740 [THz] =     125.244653 [cm-1]
     freq (    2) =       3.754740 [THz] =     125.244653 [cm-1]
     freq (    3) =       7.110218 [THz] =     237.171332 [cm-1]
     freq (    4) =      13.941986 [THz] =     465.054600 [cm-1]
     freq (    5) =      13.941986 [THz] =     465.054600 [cm-1]
     freq (    6) =      14.553323 [THz] =     485.446591 [cm-1]
 **************************************************************************

     Mode symmetry, C_4v (4mm)  point group:

     freq (  1 -  2) =        125.2  [cm-1]   --> E    G_5 D_5       
     freq (  3 -  3) =        237.2  [cm-1]   --> A_1  G_1 D_1       
     freq (  4 -  5) =        465.1  [cm-1]   --> E    G_5 D_5       
     freq (  6 -  6) =        485.4  [cm-1]   --> B_2  G_4 D_2'      

     Calculation of q =    0.7500000  -0.2500000   0.7500000

   Info: using nr1, nr2, nr3 values from input

   Info: using nr1, nr2, nr3 values from input

     Parallelization info
     --------------------
     sticks:   dense  smooth     PW     G-vecs:    dense   smooth      PW
     Min         217     109     40                 4288     1520     362
     Max         219     111     41                 4289     1521     366
     Sum         871     439    163                17153     6081    1459



     bravais-lattice index     =            2
     lattice parameter (alat)  =      10.3100  a.u.
     unit-cell volume          =     273.9782 (a.u.)^3
     number of atoms/cell      =            2
     number of atomic types    =            1
     number of electrons       =         8.00
     number of Kohn-Sham states=            4
     kinetic-energy cutoff     =      30.0000  Ry
     charge density cutoff     =     240.0000  Ry
     Exchange-correlation      = SLA  PW   PBE  PBE ( 1  4  3  4 0 0)

     celldm(1)=  10.310000  celldm(2)=   0.000000  celldm(3)=   0.000000
     celldm(4)=   0.000000  celldm(5)=   0.000000  celldm(6)=   0.000000

     crystal axes: (cart. coord. in units of alat)
               a(1) = (  -0.500000   0.000000   0.500000 )  
               a(2) = (   0.000000   0.500000   0.500000 )  
               a(3) = (  -0.500000   0.500000   0.000000 )  

     reciprocal axes: (cart. coord. in units 2 pi/alat)
               b(1) = ( -1.000000 -1.000000  1.000000 )  
               b(2) = (  1.000000  1.000000  1.000000 )  
               b(3) = ( -1.000000  1.000000 -1.000000 )  


     PseudoPot. # 1 for Si read from file:
     /home/s1333534/quantum_espresso/qe-6.1/pseudo/si_pbe_v1.uspp.F.UPF.txt
     MD5 check sum: a056efeee980c13900f22a371efd63c1
     Pseudo is Ultrasoft + core correction, Zval =  4.0
     Generated by new atomic code, or converted to UPF format
     Using radial grid of  899 points,  6 beta functions with: 
                l(1) =   0
                l(2) =   0
                l(3) =   1
                l(4) =   1
                l(5) =   2
                l(6) =   2
     Q(r) pseudized with  8 coefficients,  rinner =    0.900   0.900   0.900
                                                       0.900   0.900

     atomic species   valence    mass     pseudopotential
        Si             4.00    28.08600     Si( 1.00)

     48 Sym. Ops., with inversion, found



   Cartesian axes

     site n.     atom                  positions (alat units)
         1           Si  tau(   1) = (   0.0000000   0.0000000   0.0000000  )
         2           Si  tau(   2) = (   0.2500000   0.2500000   0.2500000  )

     number of k points=   288

     Number of k-points >= 100: set verbosity='high' to print them.

     Dense  grid:    17153 G-vectors     FFT dimensions: (  36,  36,  36)

     Smooth grid:     6081 G-vectors     FFT dimensions: (  25,  25,  25)

     Estimated max dynamical RAM per process >       1.51MB

     Estimated total allocated dynamical RAM >       6.06MB

     The potential is recalculated from file :
     ./_ph0/silicon.10.310.save/charge-density.dat

     Starting wfc are    8 atomic wfcs

     Band Structure Calculation
     Davidson diagonalization with overlap

     ethr =  1.25E-10,  avg # of iterations = 12.1

     total cpu time spent up to now is        7.3 secs

     End of band structure calculation

     Number of k-points >= 100: set verbosity='high' to print the bands.

     highest occupied level (ev):     5.7647

     Writing output data file silicon.10.310.save

                                                                                

     bravais-lattice index     =            2
     lattice parameter (alat)  =      10.3100  a.u.
     unit-cell volume          =     273.9782 (a.u.)^3
     number of atoms/cell      =            2
     number of atomic types    =            1
     kinetic-energy cut-off    =      30.0000  Ry
     charge density cut-off    =     240.0000  Ry
     convergence threshold     =      1.0E-12
     beta                      =       0.7000
     number of iterations used =            4
     Exchange-correlation      = SLA  PW   PBE  PBE ( 1  4  3  4 0 0)


     celldm(1)=   10.31000  celldm(2)=    0.00000  celldm(3)=    0.00000
     celldm(4)=    0.00000  celldm(5)=    0.00000  celldm(6)=    0.00000

     crystal axes: (cart. coord. in units of alat)
               a(1) = ( -0.5000  0.0000  0.5000 )  
               a(2) = (  0.0000  0.5000  0.5000 )  
               a(3) = ( -0.5000  0.5000  0.0000 )  

     reciprocal axes: (cart. coord. in units 2 pi/alat)
               b(1) = ( -1.0000 -1.0000  1.0000 )  
               b(2) = (  1.0000  1.0000  1.0000 )  
               b(3) = ( -1.0000  1.0000 -1.0000 )  


     Atoms inside the unit cell: 

     Cartesian axes

     site n.  atom      mass           positions (alat units)
        1     Si  28.0860   tau(    1) = (    0.00000    0.00000    0.00000  )
        2     Si  28.0860   tau(    2) = (    0.25000    0.25000    0.25000  )

     Computing dynamical matrix for 
                    q = (   0.7500000  -0.2500000   0.7500000 )

      2 Sym.Ops. (no q -> -q+G )


     G cutoff =  646.2028  (   4288 G-vectors)     FFT grid: ( 36, 36, 36)
     G cutoff =  323.1014  (   1520 G-vectors)  smooth grid: ( 25, 25, 25)
     number of k points=   288

     PseudoPot. # 1 for Si read from file:
     /home/s1333534/quantum_espresso/qe-6.1/pseudo/si_pbe_v1.uspp.F.UPF.txt
     MD5 check sum: a056efeee980c13900f22a371efd63c1
     Pseudo is Ultrasoft + core correction, Zval =  4.0
     Generated by new atomic code, or converted to UPF format
     Using radial grid of  899 points,  6 beta functions with: 
                l(1) =   0
                l(2) =   0
                l(3) =   1
                l(4) =   1
                l(5) =   2
                l(6) =   2
     Q(r) pseudized with  8 coefficients,  rinner =    0.900   0.900   0.900
                                                       0.900   0.900

     Mode symmetry, C_s (m)     point group:


     Atomic displacements:
     There are   6 irreducible representations

     Representation     1      1 modes -A'  To be done

     Representation     2      1 modes -A'  To be done

     Representation     3      1 modes -A'  To be done

     Representation     4      1 modes -A'  To be done

     Representation     5      1 modes -A''  To be done

     Representation     6      1 modes -A''  To be done



     Alpha used in Ewald sum =   2.5000
     PHONON       :  0m51.88s CPU     1m17.32s WALL



     Representation #  1 mode #   1

     Self-consistent Calculation

      iter #   1 total cpu time :    78.2 secs   av.it.:   5.7
      thresh= 1.000E-02 alpha_mix =  0.700 |ddv_scf|^2 =  1.052E-05

      iter #   2 total cpu time :    79.9 secs   av.it.:  10.5
      thresh= 3.243E-04 alpha_mix =  0.700 |ddv_scf|^2 =  2.799E-05

      iter #   3 total cpu time :    81.3 secs   av.it.:   9.2
      thresh= 5.291E-04 alpha_mix =  0.700 |ddv_scf|^2 =  1.880E-07

      iter #   4 total cpu time :    82.6 secs   av.it.:   9.9
      thresh= 4.336E-05 alpha_mix =  0.700 |ddv_scf|^2 =  3.702E-09

      iter #   5 total cpu time :    83.9 secs   av.it.:  10.4
      thresh= 6.084E-06 alpha_mix =  0.700 |ddv_scf|^2 =  6.395E-10

      iter #   6 total cpu time :    85.2 secs   av.it.:  10.3
      thresh= 2.529E-06 alpha_mix =  0.700 |ddv_scf|^2 =  9.530E-12

      iter #   7 total cpu time :    86.5 secs   av.it.:  10.6
      thresh= 3.087E-07 alpha_mix =  0.700 |ddv_scf|^2 =  3.564E-13

     End of self-consistent calculation

     Convergence has been achieved 


     Representation #  2 mode #   2

     Self-consistent Calculation

      iter #   1 total cpu time :    87.6 secs   av.it.:   5.8
      thresh= 1.000E-02 alpha_mix =  0.700 |ddv_scf|^2 =  1.885E-05

      iter #   2 total cpu time :    89.0 secs   av.it.:  10.4
      thresh= 4.342E-04 alpha_mix =  0.700 |ddv_scf|^2 =  5.452E-05

      iter #   3 total cpu time :    90.2 secs   av.it.:   9.0
      thresh= 7.384E-04 alpha_mix =  0.700 |ddv_scf|^2 =  1.261E-07

      iter #   4 total cpu time :    91.5 secs   av.it.:  10.2
      thresh= 3.550E-05 alpha_mix =  0.700 |ddv_scf|^2 =  4.181E-09

      iter #   5 total cpu time :    92.8 secs   av.it.:  10.4
      thresh= 6.466E-06 alpha_mix =  0.700 |ddv_scf|^2 =  8.530E-10

      iter #   6 total cpu time :    94.0 secs   av.it.:  10.3
      thresh= 2.921E-06 alpha_mix =  0.700 |ddv_scf|^2 =  8.797E-12

      iter #   7 total cpu time :    95.4 secs   av.it.:  10.6
      thresh= 2.966E-07 alpha_mix =  0.700 |ddv_scf|^2 =  3.086E-13

     End of self-consistent calculation

     Convergence has been achieved 


     Representation #  3 mode #   3

     Self-consistent Calculation

      iter #   1 total cpu time :    96.4 secs   av.it.:   5.7
      thresh= 1.000E-02 alpha_mix =  0.700 |ddv_scf|^2 =  1.478E-05

      iter #   2 total cpu time :    97.7 secs   av.it.:  10.4
      thresh= 3.844E-04 alpha_mix =  0.700 |ddv_scf|^2 =  4.015E-05

      iter #   3 total cpu time :    98.9 secs   av.it.:   9.0
      thresh= 6.336E-04 alpha_mix =  0.700 |ddv_scf|^2 =  2.201E-07

      iter #   4 total cpu time :   100.2 secs   av.it.:  10.0
      thresh= 4.692E-05 alpha_mix =  0.700 |ddv_scf|^2 =  4.263E-09

      iter #   5 total cpu time :   101.5 secs   av.it.:  10.4
      thresh= 6.529E-06 alpha_mix =  0.700 |ddv_scf|^2 =  8.317E-10

      iter #   6 total cpu time :   102.8 secs   av.it.:  10.3
      thresh= 2.884E-06 alpha_mix =  0.700 |ddv_scf|^2 =  6.141E-12

      iter #   7 total cpu time :   104.1 secs   av.it.:  10.5
      thresh= 2.478E-07 alpha_mix =  0.700 |ddv_scf|^2 =  1.790E-13

     End of self-consistent calculation

     Convergence has been achieved 


     Representation #  4 mode #   4

     Self-consistent Calculation

      iter #   1 total cpu time :   105.2 secs   av.it.:   5.5
      thresh= 1.000E-02 alpha_mix =  0.700 |ddv_scf|^2 =  6.435E-06

      iter #   2 total cpu time :   106.5 secs   av.it.:  10.7
      thresh= 2.537E-04 alpha_mix =  0.700 |ddv_scf|^2 =  1.360E-05

      iter #   3 total cpu time :   107.7 secs   av.it.:   9.5
      thresh= 3.688E-04 alpha_mix =  0.700 |ddv_scf|^2 =  2.945E-07

      iter #   4 total cpu time :   109.0 secs   av.it.:   9.8
      thresh= 5.427E-05 alpha_mix =  0.700 |ddv_scf|^2 =  3.653E-09

      iter #   5 total cpu time :   110.3 secs   av.it.:  10.5
      thresh= 6.044E-06 alpha_mix =  0.700 |ddv_scf|^2 =  6.834E-10

      iter #   6 total cpu time :   111.6 secs   av.it.:  10.4
      thresh= 2.614E-06 alpha_mix =  0.700 |ddv_scf|^2 =  4.022E-12

      iter #   7 total cpu time :   113.1 secs   av.it.:  10.6
      thresh= 2.005E-07 alpha_mix =  0.700 |ddv_scf|^2 =  1.812E-13

     End of self-consistent calculation

     Convergence has been achieved 


     Representation #  5 mode #   5

     Self-consistent Calculation

      iter #   1 total cpu time :   114.0 secs   av.it.:   5.2
      thresh= 1.000E-02 alpha_mix =  0.700 |ddv_scf|^2 =  6.665E-07

      iter #   2 total cpu time :   115.3 secs   av.it.:  10.4
      thresh= 8.164E-05 alpha_mix =  0.700 |ddv_scf|^2 =  1.086E-07

      iter #   3 total cpu time :   116.6 secs   av.it.:  10.0
      thresh= 3.296E-05 alpha_mix =  0.700 |ddv_scf|^2 =  1.450E-09

      iter #   4 total cpu time :   117.9 secs   av.it.:   9.6
      thresh= 3.808E-06 alpha_mix =  0.700 |ddv_scf|^2 =  3.373E-12

      iter #   5 total cpu time :   119.1 secs   av.it.:  10.0
      thresh= 1.837E-07 alpha_mix =  0.700 |ddv_scf|^2 =  9.436E-14

     End of self-consistent calculation

     Convergence has been achieved 


     Representation #  6 mode #   6

     Self-consistent Calculation

      iter #   1 total cpu time :   120.2 secs   av.it.:   5.2
      thresh= 1.000E-02 alpha_mix =  0.700 |ddv_scf|^2 =  6.665E-07

      iter #   2 total cpu time :   121.5 secs   av.it.:  10.4
[...]
        k(   59) = (  -0.8750000   0.1250000  -0.1250000), wk =   0.0625000
        k(   60) = (  -1.3750000  -0.8750000  -0.1250000), wk =   0.0000000
        k(   61) = (  -1.1250000   0.3750000  -0.3750000), wk =   0.0625000
        k(   62) = (  -1.6250000  -0.6250000  -0.3750000), wk =   0.0000000
        k(   63) = (  -0.3750000   0.3750000   1.1250000), wk =   0.0625000
        k(   64) = (  -0.8750000  -0.6250000   1.1250000), wk =   0.0000000

     Dense  grid:    17153 G-vectors     FFT dimensions: (  36,  36,  36)

     Smooth grid:     6081 G-vectors     FFT dimensions: (  25,  25,  25)

     Estimated max dynamical RAM per process >       1.51MB

     Estimated total allocated dynamical RAM >       6.06MB

     The potential is recalculated from file :
     ./_ph0/silicon.10.310.save/charge-density.dat

     Starting wfc are    8 atomic wfcs

     Band Structure Calculation
     Davidson diagonalization with overlap

     ethr =  1.25E-10,  avg # of iterations = 12.1

     total cpu time spent up to now is       11.2 secs

     End of band structure calculation

          k =-0.1250 0.1250 0.1250 (   752 PWs)   bands (ev):

    -5.6128   4.4556   5.7647   5.7647

          k =-0.6250-0.8750 0.1250 (   754 PWs)   bands (ev):

    -2.3941  -0.8466   2.0510   3.1347

          k =-0.3750 0.3750-0.1250 (   757 PWs)   bands (ev):

    -4.5802   1.4526   3.7680   5.2829

          k =-0.8750-0.6250-0.1250 (   754 PWs)   bands (ev):

    -2.3941  -0.8466   2.0510   3.1347

          k = 0.3750-0.3750 0.6250 (   760 PWs)   bands (ev):

    -3.4321  -0.6391   3.7918   4.5064

          k =-0.1250-1.3750 0.6250 (   759 PWs)   bands (ev):

    -2.9338  -0.5475   2.1121   4.1873

          k = 0.1250-0.1250 0.3750 (   766 PWs)   bands (ev):

    -5.0820   2.8367   4.7502   4.8180

          k =-0.3750-1.1250 0.3750 (   759 PWs)   bands (ev):

    -2.9338  -0.5475   2.1121   4.1873

          k =-0.1250 0.6250 0.1250 (   762 PWs)   bands (ev):

    -4.0449   1.1243   3.4160   3.8715

          k =-0.6250-0.3750 0.1250 (   759 PWs)   bands (ev):

    -3.6262   0.2427   2.7716   4.1475

          k = 0.6250-0.1250 0.8750 (   754 PWs)   bands (ev):

    -2.3941  -0.8466   2.0510   3.1347

          k = 0.1250-1.1250 0.8750 (   759 PWs)   bands (ev):

    -2.5644  -0.7479   2.6653   3.4022

          k = 0.3750 0.1250 0.6250 (   759 PWs)   bands (ev):

    -3.6262   0.2427   2.7716   4.1475

          k =-0.1250-0.8750 0.6250 (   754 PWs)   bands (ev):

    -2.3941  -0.8466   2.0510   3.1347

          k =-0.1250-0.8750 0.1250 (   759 PWs)   bands (ev):

    -2.5644  -0.7479   2.6653   3.4022

          k =-0.6250-1.8750 0.1250 (   762 PWs)   bands (ev):

    -4.0449   1.1243   3.4160   3.8715

          k =-0.3750 0.3750 0.3750 (   763 PWs)   bands (ev):

    -4.1442   0.1528   4.9742   4.9742

          k =-0.8750-0.6250 0.3750 (   759 PWs)   bands (ev):

    -3.6262   0.2427   2.7716   4.1475

          k = 0.3750-0.3750 1.1250 (   759 PWs)   bands (ev):

    -2.9338  -0.5475   2.1121   4.1873

          k =-0.1250-1.3750 1.1250 (   754 PWs)   bands (ev):

    -2.3941  -0.8466   2.0510   3.1347

          k = 0.1250-0.3750 0.3750 (   757 PWs)   bands (ev):

    -4.5802   1.4526   3.7680   5.2829

          k =-0.3750-1.3750 0.3750 (   760 PWs)   bands (ev):

    -3.4321  -0.6391   3.7918   4.5064

          k = 0.3750-0.3750-0.1250 (   757 PWs)   bands (ev):

    -4.5802   1.4526   3.7680   5.2829

          k =-0.1250-1.3750-0.1250 (   762 PWs)   bands (ev):

    -4.0449   1.1243   3.4160   3.8715

          k =-0.6250 0.3750-0.3750 (   760 PWs)   bands (ev):

    -3.4321  -0.6391   3.7918   4.5064

          k =-1.1250-0.6250-0.3750 (   759 PWs)   bands (ev):

    -3.6262   0.2427   2.7716   4.1475

          k =-0.3750 0.3750 0.6250 (   760 PWs)   bands (ev):

    -3.4321  -0.6391   3.7918   4.5064

          k =-0.8750-0.6250 0.6250 (   757 PWs)   bands (ev):

    -4.5802   1.4526   3.7680   5.2829

          k =-0.3750 0.1250-0.1250 (   766 PWs)   bands (ev):

    -5.0820   2.8367   4.7502   4.8180

          k =-0.8750-0.8750-0.1250 (   759 PWs)   bands (ev):

    -2.5644  -0.7479   2.6653   3.4022

          k =-0.1250 0.1250 0.3750 (   766 PWs)   bands (ev):

    -5.0820   2.8367   4.7502   4.8180

          k =-0.6250-0.8750 0.3750 (   759 PWs)   bands (ev):

    -3.6262   0.2427   2.7716   4.1475

          k = 0.1250 0.6250-0.1250 (   762 PWs)   bands (ev):

    -4.0449   1.1243   3.4160   3.8715

          k =-0.3750-0.3750-0.1250 (   757 PWs)   bands (ev):

    -4.5802   1.4526   3.7680   5.2829

          k = 0.6250 0.1250-0.1250 (   762 PWs)   bands (ev):

    -4.0449   1.1243   3.4160   3.8715

          k = 0.1250-0.8750-0.1250 (   759 PWs)   bands (ev):

    -2.5644  -0.7479   2.6653   3.4022

          k =-0.8750 0.1250-0.6250 (   754 PWs)   bands (ev):

    -2.3941  -0.8466   2.0510   3.1347

          k =-1.3750-0.8750-0.6250 (   757 PWs)   bands (ev):

    -4.5802   1.4526   3.7680   5.2829

          k = 0.8750-0.1250 0.6250 (   754 PWs)   bands (ev):

    -2.3941  -0.8466   2.0510   3.1347

          k = 0.3750-1.1250 0.6250 (   759 PWs)   bands (ev):

    -3.6262   0.2427   2.7716   4.1475

          k =-0.6250 0.1250 0.8750 (   754 PWs)   bands (ev):

    -2.3941  -0.8466   2.0510   3.1347

          k =-1.1250-0.8750 0.8750 (   752 PWs)   bands (ev):

    -5.6128   4.4556   5.7647   5.7647

          k =-0.1250 0.8750 0.6250 (   754 PWs)   bands (ev):

    -2.3941  -0.8466   2.0510   3.1347

          k =-0.6250-0.1250 0.6250 (   759 PWs)   bands (ev):

    -2.9338  -0.5475   2.1121   4.1873

          k = 0.1250 0.8750-0.6250 (   754 PWs)   bands (ev):

    -2.3941  -0.8466   2.0510   3.1347

          k =-0.3750-0.1250-0.6250 (   759 PWs)   bands (ev):

    -3.6262   0.2427   2.7716   4.1475

          k =-0.6250-0.1250-0.3750 (   759 PWs)   bands (ev):

    -3.6262   0.2427   2.7716   4.1475

          k =-1.1250-1.1250-0.3750 (   762 PWs)   bands (ev):

    -4.0449   1.1243   3.4160   3.8715

          k = 0.6250 0.1250 0.3750 (   759 PWs)   bands (ev):

    -3.6262   0.2427   2.7716   4.1475

          k = 0.1250-0.8750 0.3750 (   754 PWs)   bands (ev):

    -2.3941  -0.8466   2.0510   3.1347

          k =-0.3750-0.1250 0.6250 (   759 PWs)   bands (ev):

    -3.6262   0.2427   2.7716   4.1475

          k =-0.8750-1.1250 0.6250 (   766 PWs)   bands (ev):

    -5.0820   2.8367   4.7502   4.8180

          k = 0.1250 0.6250 0.3750 (   759 PWs)   bands (ev):

    -3.6262   0.2427   2.7716   4.1475

          k =-0.3750-0.3750 0.3750 (   763 PWs)   bands (ev):

    -4.1442   0.1528   4.9742   4.9742

          k =-0.1250 0.6250-0.3750 (   759 PWs)   bands (ev):

    -3.6262   0.2427   2.7716   4.1475

          k =-0.6250-0.3750-0.3750 (   760 PWs)   bands (ev):

    -3.4321  -0.6391   3.7918   4.5064

          k = 0.1250-0.8750-0.1250 (   759 PWs)   bands (ev):

    -2.5644  -0.7479   2.6653   3.4022

          k =-0.3750-1.8750-0.1250 (   766 PWs)   bands (ev):

    -5.0820   2.8367   4.7502   4.8180

          k =-0.8750 0.1250-0.1250 (   759 PWs)   bands (ev):

    -2.5644  -0.7479   2.6653   3.4022

          k =-1.3750-0.8750-0.1250 (   754 PWs)   bands (ev):

    -2.3941  -0.8466   2.0510   3.1347

          k =-1.1250 0.3750-0.3750 (   759 PWs)   bands (ev):

    -2.9338  -0.5475   2.1121   4.1873

          k =-1.6250-0.6250-0.3750 (   760 PWs)   bands (ev):

    -3.4321  -0.6391   3.7918   4.5064

          k =-0.3750 0.3750 1.1250 (   759 PWs)   bands (ev):

    -2.9338  -0.5475   2.1121   4.1873

          k =-0.8750-0.6250 1.1250 (   766 PWs)   bands (ev):

    -5.0820   2.8367   4.7502   4.8180

     highest occupied level (ev):     5.7647

     Writing output data file silicon.10.310.save

                                                                                

     bravais-lattice index     =            2
     lattice parameter (alat)  =      10.3100  a.u.
     unit-cell volume          =     273.9782 (a.u.)^3
     number of atoms/cell      =            2
     number of atomic types    =            1
     kinetic-energy cut-off    =      30.0000  Ry
     charge density cut-off    =     240.0000  Ry
     convergence threshold     =      1.0E-12
     beta                      =       0.7000
     number of iterations used =            4
     Exchange-correlation      = SLA  PW   PBE  PBE ( 1  4  3  4 0 0)


     celldm(1)=   10.31000  celldm(2)=    0.00000  celldm(3)=    0.00000
     celldm(4)=    0.00000  celldm(5)=    0.00000  celldm(6)=    0.00000

     crystal axes: (cart. coord. in units of alat)
               a(1) = ( -0.5000  0.0000  0.5000 )  
               a(2) = (  0.0000  0.5000  0.5000 )  
               a(3) = ( -0.5000  0.5000  0.0000 )  

     reciprocal axes: (cart. coord. in units 2 pi/alat)
               b(1) = ( -1.0000 -1.0000  1.0000 )  
               b(2) = (  1.0000  1.0000  1.0000 )  
               b(3) = ( -1.0000  1.0000 -1.0000 )  


     Atoms inside the unit cell: 

     Cartesian axes

     site n.  atom      mass           positions (alat units)
        1     Si  28.0860   tau(    1) = (    0.00000    0.00000    0.00000  )
        2     Si  28.0860   tau(    2) = (    0.25000    0.25000    0.25000  )

     Computing dynamical matrix for 
                    q = (  -0.5000000  -1.0000000   0.0000000 )

      8 Sym.Ops. (no q -> -q+G )


     G cutoff =  646.2028  (   4288 G-vectors)     FFT grid: ( 36, 36, 36)
     G cutoff =  323.1014  (   1520 G-vectors)  smooth grid: ( 25, 25, 25)
     number of k points=    64

     PseudoPot. # 1 for Si read from file:
     /home/s1333534/quantum_espresso/qe-6.1/pseudo/si_pbe_v1.uspp.F.UPF.txt
     MD5 check sum: a056efeee980c13900f22a371efd63c1
     Pseudo is Ultrasoft + core correction, Zval =  4.0
     Generated by new atomic code, or converted to UPF format
     Using radial grid of  899 points,  6 beta functions with: 
                l(1) =   0
                l(2) =   0
                l(3) =   1
                l(4) =   1
                l(5) =   2
                l(6) =   2
     Q(r) pseudized with  8 coefficients,  rinner =    0.900   0.900   0.900
                                                       0.900   0.900


     Atomic displacements:
     There are   3 irreducible representations

     Representation     1      2 modes -  To be done

     Representation     2      2 modes -  To be done

     Representation     3      2 modes -  To be done



     Alpha used in Ewald sum =   2.5000
     PHONON       :  2m 3.74s CPU     2m45.62s WALL



     Representation #  1 modes #   1  2

     Self-consistent Calculation

      iter #   1 total cpu time :   166.3 secs   av.it.:   5.7
      thresh= 1.000E-02 alpha_mix =  0.700 |ddv_scf|^2 =  1.089E-06

      iter #   2 total cpu time :   167.1 secs   av.it.:  11.6
      thresh= 1.043E-04 alpha_mix =  0.700 |ddv_scf|^2 =  6.171E-07

      iter #   3 total cpu time :   167.9 secs   av.it.:  11.0
      thresh= 7.855E-05 alpha_mix =  0.700 |ddv_scf|^2 =  5.905E-10

      iter #   4 total cpu time :   168.7 secs   av.it.:  11.0
      thresh= 2.430E-06 alpha_mix =  0.700 |ddv_scf|^2 =  2.630E-12

      iter #   5 total cpu time :   169.5 secs   av.it.:  11.1
      thresh= 1.622E-07 alpha_mix =  0.700 |ddv_scf|^2 =  6.931E-14

     End of self-consistent calculation

     Convergence has been achieved 


     Representation #  2 modes #   3  4

     Self-consistent Calculation

      iter #   1 total cpu time :   170.3 secs   av.it.:   5.7
      thresh= 1.000E-02 alpha_mix =  0.700 |ddv_scf|^2 =  1.685E-06

      iter #   2 total cpu time :   171.2 secs   av.it.:  11.6
      thresh= 1.298E-04 alpha_mix =  0.700 |ddv_scf|^2 =  2.271E-06

      iter #   3 total cpu time :   171.9 secs   av.it.:  10.9
      thresh= 1.507E-04 alpha_mix =  0.700 |ddv_scf|^2 =  6.974E-10

      iter #   4 total cpu time :   172.7 secs   av.it.:  11.0
      thresh= 2.641E-06 alpha_mix =  0.700 |ddv_scf|^2 =  1.041E-11

      iter #   5 total cpu time :   173.4 secs   av.it.:  11.1
      thresh= 3.227E-07 alpha_mix =  0.700 |ddv_scf|^2 =  1.759E-13

     End of self-consistent calculation

     Convergence has been achieved 


     Representation #  3 modes #   5  6

     Self-consistent Calculation

      iter #   1 total cpu time :   174.1 secs   av.it.:   5.3
      thresh= 1.000E-02 alpha_mix =  0.700 |ddv_scf|^2 =  4.423E-07

      iter #   2 total cpu time :   174.9 secs   av.it.:  11.6
      thresh= 6.651E-05 alpha_mix =  0.700 |ddv_scf|^2 =  2.586E-07

      iter #   3 total cpu time :   175.7 secs   av.it.:  11.0
      thresh= 5.085E-05 alpha_mix =  0.700 |ddv_scf|^2 =  5.137E-10

      iter #   4 total cpu time :   176.5 secs   av.it.:  11.0
      thresh= 2.267E-06 alpha_mix =  0.700 |ddv_scf|^2 =  5.995E-12

      iter #   5 total cpu time :   177.2 secs   av.it.:  11.1
      thresh= 2.449E-07 alpha_mix =  0.700 |ddv_scf|^2 =  8.332E-14

     End of self-consistent calculation

     Convergence has been achieved 

     Number of q in the star =    6
     List of q in the star:
          1  -0.500000000  -1.000000000   0.000000000
          2   0.000000000   1.000000000   0.500000000
          3   0.000000000  -1.000000000  -0.500000000
          4   0.500000000   1.000000000   0.000000000
          5  -1.000000000  -0.500000000   0.000000000
          6   0.000000000  -0.500000000  -1.000000000

     Diagonalizing the dynamical matrix

     q = (   -0.500000000  -1.000000000   0.000000000 ) 

 **************************************************************************
     freq (    1) =       6.001048 [THz] =     200.173423 [cm-1]
     freq (    2) =       6.001048 [THz] =     200.173423 [cm-1]
     freq (    3) =      10.407506 [THz] =     347.157038 [cm-1]
     freq (    4) =      10.407506 [THz] =     347.157038 [cm-1]
     freq (    5) =      13.694348 [THz] =     456.794280 [cm-1]
     freq (    6) =      13.694348 [THz] =     456.794280 [cm-1]
 **************************************************************************

     init_run     :      1.26s CPU      1.32s WALL (       7 calls)
     electrons    :      7.19s CPU      7.86s WALL (       7 calls)

     Called by init_run:
     wfcinit      :      0.00s CPU      0.03s WALL (       7 calls)
     potinit      :      0.08s CPU      0.10s WALL (       7 calls)

     Called by electrons:
     c_bands      :      7.19s CPU      7.86s WALL (       7 calls)
     v_of_rho     :      0.06s CPU      0.07s WALL (       8 calls)
     newd         :      0.12s CPU      0.12s WALL (       8 calls)

     Called by c_bands:
     init_us_2    :      1.62s CPU      1.57s WALL (   16040 calls)
     cegterg      :      6.01s CPU      6.55s WALL (     796 calls)

     Called by sum_band:

     Called by *egterg:
     h_psi        :     69.12s CPU     74.17s WALL (  154447 calls)
     s_psi        :      5.68s CPU      7.03s WALL (  311296 calls)
     g_psi        :      0.05s CPU      0.07s WALL (    9666 calls)
     cdiaghg      :      0.56s CPU      0.57s WALL (   10462 calls)

     Called by h_psi:
     h_psi:pot    :     68.72s CPU     73.66s WALL (  154447 calls)
     h_psi:calbec :      3.47s CPU      3.97s WALL (  154447 calls)
     vloc_psi     :     60.56s CPU     65.51s WALL (  154447 calls)
     add_vuspsi   :      4.37s CPU      3.70s WALL (  154447 calls)

     General routines
     calbec       :      8.42s CPU      8.73s WALL (  345748 calls)
     fft          :      1.30s CPU      1.36s WALL (    5265 calls)
     ffts         :      0.21s CPU      0.23s WALL (    3320 calls)
     fftw         :     63.93s CPU     68.26s WALL ( 1383446 calls)
     interpolate  :      0.20s CPU      0.22s WALL (     572 calls)
     davcio       :      0.31s CPU      1.04s WALL (   69876 calls)

     Parallel routines
     fft_scatter  :     15.99s CPU     19.56s WALL ( 1392031 calls)

     PHONON       :  2m12.86s CPU     2m57.79s WALL

     INITIALIZATION: 
     phq_setup    :      0.22s CPU      0.46s WALL (       8 calls)
     phq_init     :      7.12s CPU      7.71s WALL (       8 calls)

     phq_init     :      7.12s CPU      7.71s WALL (       8 calls)
     set_drhoc    :      1.82s CPU      1.82s WALL (      24 calls)
     init_vloc    :      0.03s CPU      0.03s WALL (       8 calls)
     init_us_1    :      0.99s CPU      0.99s WALL (       8 calls)
     newd         :      0.12s CPU      0.12s WALL (       8 calls)
     dvanqq       :      1.16s CPU      1.17s WALL (       8 calls)
     drho         :      2.57s CPU      2.67s WALL (       8 calls)

     DYNAMICAL MATRIX:
     dynmat0      :      1.72s CPU      1.93s WALL (       8 calls)
     phqscf       :    112.19s CPU    150.32s WALL (       8 calls)
     dynmatrix    :      0.01s CPU      0.24s WALL (       8 calls)

     phqscf       :    112.19s CPU    150.32s WALL (       8 calls)
     solve_linter :    111.33s CPU    147.34s WALL (      32 calls)
     drhodv       :      0.57s CPU      0.60s WALL (      32 calls)

     dynmat0      :      1.72s CPU      1.93s WALL (       8 calls)
     dynmat_us    :      0.39s CPU      0.39s WALL (       8 calls)
     d2ionq       :      0.04s CPU      0.04s WALL (       8 calls)
     dynmatcc     :      1.28s CPU      1.28s WALL (       8 calls)

     dynmat_us    :      0.39s CPU      0.39s WALL (       8 calls)
     addusdynmat  :      0.00s CPU      0.00s WALL (       8 calls)

     phqscf       :    112.19s CPU    150.32s WALL (       8 calls)
     solve_linter :    111.33s CPU    147.34s WALL (      32 calls)

     solve_linter :    111.33s CPU    147.34s WALL (      32 calls)
     dvqpsi_us    :      2.12s CPU      2.28s WALL (    2508 calls)
     ortho        :      0.87s CPU      1.00s WALL (   13630 calls)
     cgsolve      :     76.58s CPU     83.30s WALL (   13630 calls)
     incdrhoscf   :      6.26s CPU      6.90s WALL (   13630 calls)
     addusddens   :      7.06s CPU      7.13s WALL (     202 calls)
     vpsifft      :      4.49s CPU      4.94s WALL (   11002 calls)
     dv_of_drho   :      1.16s CPU      1.21s WALL (     256 calls)
     mix_pot      :      0.59s CPU     13.12s WALL (     175 calls)
     psymdvscf    :      4.06s CPU      4.11s WALL (     170 calls)
     newdq        :      7.81s CPU      7.85s WALL (     175 calls)
     adddvscf     :      0.45s CPU      0.44s WALL (   11122 calls)
     drhodvus     :      0.01s CPU      0.02s WALL (      32 calls)

     dvqpsi_us    :      2.12s CPU      2.28s WALL (    2508 calls)
     dvqpsi_us_on :      0.90s CPU      0.93s WALL (    2508 calls)

     cgsolve      :     76.58s CPU     83.30s WALL (   13630 calls)
     ch_psi       :     75.42s CPU     81.55s WALL (  143189 calls)

     ch_psi       :     75.42s CPU     81.55s WALL (  143189 calls)
     h_psi        :     69.12s CPU     74.17s WALL (  154447 calls)
     last         :      8.87s CPU      9.01s WALL (  143189 calls)

     h_psi        :     69.12s CPU     74.17s WALL (  154447 calls)
     add_vuspsi   :      4.37s CPU      3.70s WALL (  154447 calls)

     incdrhoscf   :      6.26s CPU      6.90s WALL (   13630 calls)
     addusdbec    :      0.49s CPU      0.52s WALL (   16078 calls)

     drhodvus     :      0.01s CPU      0.02s WALL (      32 calls)

      General routines
     calbec       :      8.42s CPU      8.73s WALL (  345748 calls)
     fft          :      1.30s CPU      1.36s WALL (    5265 calls)
     ffts         :      0.21s CPU      0.23s WALL (    3320 calls)
     fftw         :     63.93s CPU     68.26s WALL ( 1383446 calls)
     davcio       :      0.31s CPU      1.04s WALL (   69876 calls)
     write_rec    :      0.23s CPU     17.12s WALL (     207 calls)


     PHONON       :  2m12.86s CPU     2m57.79s WALL


   This run was terminated on:  15:56:27  10Nov2017            

=------------------------------------------------------------------------------=
   JOB DONE.
=------------------------------------------------------------------------------=
