
     Program PHONON v.6.1 (svn rev. 13369) starts on  9Nov2017 at  1:19:51 

     This program is part of the open-source Quantum ESPRESSO suite
     for quantum simulation of materials; please cite
         "P. Giannozzi et al., J. Phys.:Condens. Matter 21 395502 (2009);
          URL http://www.quantum-espresso.org", 
     in publications or presentations arising from this work. More details at
     http://www.quantum-espresso.org/quote

     Parallel version (MPI), running on     4 processors
     R & G space division:  proc/nbgrp/npool/nimage =       4

     Reading data from directory:
     ./silicon.10.31.save

   Info: using nr1, nr2, nr3 values from input

   Info: using nr1, nr2, nr3 values from input

     IMPORTANT: XC functional enforced from input :
     Exchange-correlation      = SLA  PW   PBE  PBE ( 1  4  3  4 0 0)
     Any further DFT definition will be discarded
     Please, verify this is what you really want


     Parallelization info
     --------------------
     sticks:   dense  smooth     PW     G-vecs:    dense   smooth      PW
     Min          63      63     22                  684      684     140
     Max          64      64     23                  688      688     141
     Sum         253     253     91                 2741     2741     561


     Check: negative/imaginary core charge=   -0.000005    0.000000


     Dynamical matrices for ( 4, 4, 4)  uniform grid of q-points
     (   8q-points):
       N         xq(1)         xq(2)         xq(3) 
       1   0.000000000   0.000000000   0.000000000
       2  -0.250000000   0.250000000  -0.250000000
       3   0.500000000  -0.500000000   0.500000000
       4   0.000000000   0.500000000   0.000000000
       5   0.750000000  -0.250000000   0.750000000
       6   0.500000000   0.000000000   0.500000000
       7   0.000000000  -1.000000000   0.000000000
       8  -0.500000000  -1.000000000   0.000000000

     Calculation of q =    0.0000000   0.0000000   0.0000000

                                                                                

     bravais-lattice index     =            2
     lattice parameter (alat)  =      10.3100  a.u.
     unit-cell volume          =     273.9782 (a.u.)^3
     number of atoms/cell      =            2
     number of atomic types    =            1
     kinetic-energy cut-off    =      18.0000  Ry
     charge density cut-off    =      72.0000  Ry
     convergence threshold     =      1.0E-12
     beta                      =       0.7000
     number of iterations used =            4
     Exchange-correlation      = SLA  PW   PBE  PBE ( 1  4  3  4 0 0)


     celldm(1)=   10.31000  celldm(2)=    0.00000  celldm(3)=    0.00000
     celldm(4)=    0.00000  celldm(5)=    0.00000  celldm(6)=    0.00000

     crystal axes: (cart. coord. in units of alat)
               a(1) = ( -0.5000  0.0000  0.5000 )  
               a(2) = (  0.0000  0.5000  0.5000 )  
               a(3) = ( -0.5000  0.5000  0.0000 )  

     reciprocal axes: (cart. coord. in units 2 pi/alat)
               b(1) = ( -1.0000 -1.0000  1.0000 )  
               b(2) = (  1.0000  1.0000  1.0000 )  
               b(3) = ( -1.0000  1.0000 -1.0000 )  


     Atoms inside the unit cell: 

     Cartesian axes

     site n.  atom      mass           positions (alat units)
        1     Si  28.0860   tau(    1) = (    0.00000    0.00000    0.00000  )
        2     Si  28.0860   tau(    2) = (    0.25000    0.25000    0.25000  )

     Computing dynamical matrix for 
                    q = (   0.0000000   0.0000000   0.0000000 )

     49 Sym.Ops. (with q -> -q+G )


     G cutoff =  193.8608  (    685 G-vectors)     FFT grid: ( 20, 20, 20)
     number of k points=    10

     PseudoPot. # 1 for Si read from file:
     /home/max/quantum_espresso/qe-6.1/pseudo/si_pbe_v1.uspp.F.UPF.txt
     MD5 check sum: a056efeee980c13900f22a371efd63c1
     Pseudo is Ultrasoft + core correction, Zval =  4.0
     Generated by new atomic code, or converted to UPF format
     Using radial grid of  899 points,  6 beta functions with: 
                l(1) =   0
                l(2) =   0
                l(3) =   1
                l(4) =   1
                l(5) =   2
                l(6) =   2
     Q(r) pseudized with  8 coefficients,  rinner =    0.900   0.900   0.900
                                                       0.900   0.900

     Mode symmetry, O_h (m-3m)  point group:


     Electric field:
     Dielectric constant
     Born effective charges in two ways 


     Atomic displacements:
     There are   2 irreducible representations

     Representation     1      3 modes -T_2g G_25' G_5+  To be done

     Representation     2      3 modes -T_1u G_15  G_4-  To be done



     Alpha used in Ewald sum =   0.7000
     PHONON       :     0.40s CPU         0.40s WALL


     Electric Fields Calculation

      iter #   1 total cpu time :     0.8 secs   av.it.:   5.5
      thresh= 1.000E-02 alpha_mix =  0.700 |ddv_scf|^2 =  9.050E-07

      iter #   2 total cpu time :     1.0 secs   av.it.:   9.9
      thresh= 9.513E-05 alpha_mix =  0.700 |ddv_scf|^2 =  5.528E-08

      iter #   3 total cpu time :     1.1 secs   av.it.:   9.8
      thresh= 2.351E-05 alpha_mix =  0.700 |ddv_scf|^2 =  4.199E-09

      iter #   4 total cpu time :     1.3 secs   av.it.:   9.0
      thresh= 6.480E-06 alpha_mix =  0.700 |ddv_scf|^2 =  2.443E-11

      iter #   5 total cpu time :     1.5 secs   av.it.:   9.1
      thresh= 4.942E-07 alpha_mix =  0.700 |ddv_scf|^2 =  1.313E-14

     End of electric fields calculation

          Dielectric constant in cartesian axis 

          (      13.824963358       0.000000000      -0.000000000 )
          (       0.000000000      13.824963358       0.000000000 )
          (       0.000000000      -0.000000000      13.824963358 )

          Effective charges (d Force / dE) in cartesian axis

           atom      1   Si 
      Ex  (       -0.03140        0.00000        0.00000 )
      Ey  (        0.00000       -0.03140        0.00000 )
      Ez  (        0.00000        0.00000       -0.03140 )
           atom      2   Si 
      Ex  (       -0.03140       -0.00000       -0.00000 )
      Ey  (       -0.00000       -0.03140       -0.00000 )
      Ez  (       -0.00000        0.00000       -0.03140 )


     Representation #  1 modes #   1  2  3

     Self-consistent Calculation

      iter #   1 total cpu time :     1.8 secs   av.it.:   5.0
      thresh= 1.000E-02 alpha_mix =  0.700 |ddv_scf|^2 =  2.224E-07

      iter #   2 total cpu time :     2.0 secs   av.it.:   9.8
      thresh= 4.716E-05 alpha_mix =  0.700 |ddv_scf|^2 =  1.369E-08

      iter #   3 total cpu time :     2.2 secs   av.it.:   9.3
      thresh= 1.170E-05 alpha_mix =  0.700 |ddv_scf|^2 =  8.490E-10

      iter #   4 total cpu time :     2.4 secs   av.it.:   9.0
      thresh= 2.914E-06 alpha_mix =  0.700 |ddv_scf|^2 =  1.862E-12

      iter #   5 total cpu time :     2.5 secs   av.it.:   9.5
      thresh= 1.365E-07 alpha_mix =  0.700 |ddv_scf|^2 =  1.218E-14

     End of self-consistent calculation

     Convergence has been achieved 


     Representation #  2 modes #   4  5  6

     Self-consistent Calculation

      iter #   1 total cpu time :     2.8 secs   av.it.:   5.0
      thresh= 1.000E-02 alpha_mix =  0.700 |ddv_scf|^2 =  1.693E-07

      iter #   2 total cpu time :     3.0 secs   av.it.:   9.6
      thresh= 4.114E-05 alpha_mix =  0.700 |ddv_scf|^2 =  1.316E-08

      iter #   3 total cpu time :     3.1 secs   av.it.:   9.3
      thresh= 1.147E-05 alpha_mix =  0.700 |ddv_scf|^2 =  8.386E-10

      iter #   4 total cpu time :     3.3 secs   av.it.:   9.5
      thresh= 2.896E-06 alpha_mix =  0.700 |ddv_scf|^2 =  5.030E-12

      iter #   5 total cpu time :     3.5 secs   av.it.:   9.0
      thresh= 2.243E-07 alpha_mix =  0.700 |ddv_scf|^2 =  4.364E-15

     End of self-consistent calculation

     Convergence has been achieved 

     Number of q in the star =    1
     List of q in the star:
          1   0.000000000   0.000000000   0.000000000

          Dielectric constant in cartesian axis 

          (      13.824963358       0.000000000      -0.000000000 )
          (       0.000000000      13.824963358       0.000000000 )
          (       0.000000000      -0.000000000      13.824963358 )

          Effective charges (d Force / dE) in cartesian axis

           atom      1   Si 
      Ex  (       -0.03140        0.00000        0.00000 )
      Ey  (        0.00000       -0.03140        0.00000 )
      Ez  (        0.00000        0.00000       -0.03140 )
           atom      2   Si 
      Ex  (       -0.03140       -0.00000       -0.00000 )
      Ey  (       -0.00000       -0.03140       -0.00000 )
      Ez  (       -0.00000        0.00000       -0.03140 )

          Effective charges (d P / du) in cartesian axis 

           atom      1   Si 
      Px  (       -0.07172        0.00000        0.00000 )
      Py  (        0.00000       -0.07172       -0.00000 )
      Pz  (        0.00000       -0.00000       -0.07172 )
           atom      2   Si 
      Px  (       -0.07172       -0.00000       -0.00000 )
      Py  (       -0.00000       -0.07172       -0.00000 )
      Pz  (       -0.00000        0.00000       -0.07172 )

     Diagonalizing the dynamical matrix

     q = (    0.000000000   0.000000000   0.000000000 ) 

 **************************************************************************
     freq (    1) =       1.938548 [THz] =      64.662996 [cm-1]
     freq (    2) =       1.938548 [THz] =      64.662996 [cm-1]
     freq (    3) =       1.938548 [THz] =      64.662996 [cm-1]
     freq (    4) =      15.119221 [THz] =     504.322937 [cm-1]
     freq (    5) =      15.119221 [THz] =     504.322937 [cm-1]
     freq (    6) =      15.119221 [THz] =     504.322937 [cm-1]
 **************************************************************************

     Mode symmetry, O_h (m-3m)  point group:

     freq (  1 -  3) =         64.7  [cm-1]   --> T_1u G_15  G_4- I  
     freq (  4 -  6) =        504.3  [cm-1]   --> T_2g G_25' G_5+ R  

     Calculation of q =   -0.2500000   0.2500000  -0.2500000

   Info: using nr1, nr2, nr3 values from input

   Info: using nr1, nr2, nr3 values from input

     Parallelization info
     --------------------
     sticks:   dense  smooth     PW     G-vecs:    dense   smooth      PW
     Min          63      63     24                  684      684     161
     Max          64      64     25                  688      688     162
     Sum         253     253     97                 2741     2741     645



     bravais-lattice index     =            2
     lattice parameter (alat)  =      10.3100  a.u.
     unit-cell volume          =     273.9782 (a.u.)^3
     number of atoms/cell      =            2
     number of atomic types    =            1
     number of electrons       =         8.00
     number of Kohn-Sham states=            4
     kinetic-energy cutoff     =      18.0000  Ry
     charge density cutoff     =      72.0000  Ry
     Exchange-correlation      = SLA  PW   PBE  PBE ( 1  4  3  4 0 0)

     celldm(1)=  10.310000  celldm(2)=   0.000000  celldm(3)=   0.000000
     celldm(4)=   0.000000  celldm(5)=   0.000000  celldm(6)=   0.000000

     crystal axes: (cart. coord. in units of alat)
               a(1) = (  -0.500000   0.000000   0.500000 )  
               a(2) = (   0.000000   0.500000   0.500000 )  
               a(3) = (  -0.500000   0.500000   0.000000 )  

     reciprocal axes: (cart. coord. in units 2 pi/alat)
               b(1) = ( -1.000000 -1.000000  1.000000 )  
               b(2) = (  1.000000  1.000000  1.000000 )  
               b(3) = ( -1.000000  1.000000 -1.000000 )  


     PseudoPot. # 1 for Si read from file:
     /home/max/quantum_espresso/qe-6.1/pseudo/si_pbe_v1.uspp.F.UPF.txt
     MD5 check sum: a056efeee980c13900f22a371efd63c1
     Pseudo is Ultrasoft + core correction, Zval =  4.0
     Generated by new atomic code, or converted to UPF format
     Using radial grid of  899 points,  6 beta functions with: 
                l(1) =   0
                l(2) =   0
                l(3) =   1
                l(4) =   1
                l(5) =   2
                l(6) =   2
     Q(r) pseudized with  8 coefficients,  rinner =    0.900   0.900   0.900
                                                       0.900   0.900

     atomic species   valence    mass     pseudopotential
        Si             4.00    28.08600     Si( 1.00)

     48 Sym. Ops., with inversion, found



   Cartesian axes

     site n.     atom                  positions (alat units)
         1           Si  tau(   1) = (   0.0000000   0.0000000   0.0000000  )
         2           Si  tau(   2) = (   0.2500000   0.2500000   0.2500000  )

     number of k points=   120

     Number of k-points >= 100: set verbosity='high' to print them.

     Dense  grid:     2741 G-vectors     FFT dimensions: (  20,  20,  20)

     Estimated max dynamical RAM per process >       0.33MB

     Estimated total allocated dynamical RAM >       1.30MB

     Check: negative/imaginary core charge=   -0.000005    0.000000

     The potential is recalculated from file :
     ./_ph0/silicon.10.31.save/charge-density.dat

     Starting wfc are    8 atomic wfcs

     Band Structure Calculation
     Davidson diagonalization with overlap

     ethr =  1.25E-10,  avg # of iterations = 11.7

     total cpu time spent up to now is        0.8 secs

     End of band structure calculation

     Number of k-points >= 100: set verbosity='high' to print the bands.

     highest occupied level (ev):     5.7683

     Writing output data file silicon.10.31.save

                                                                                

     bravais-lattice index     =            2
     lattice parameter (alat)  =      10.3100  a.u.
     unit-cell volume          =     273.9782 (a.u.)^3
     number of atoms/cell      =            2
     number of atomic types    =            1
     kinetic-energy cut-off    =      18.0000  Ry
     charge density cut-off    =      72.0000  Ry
     convergence threshold     =      1.0E-12
     beta                      =       0.7000
     number of iterations used =            4
     Exchange-correlation      = SLA  PW   PBE  PBE ( 1  4  3  4 0 0)


     celldm(1)=   10.31000  celldm(2)=    0.00000  celldm(3)=    0.00000
     celldm(4)=    0.00000  celldm(5)=    0.00000  celldm(6)=    0.00000

     crystal axes: (cart. coord. in units of alat)
               a(1) = ( -0.5000  0.0000  0.5000 )  
               a(2) = (  0.0000  0.5000  0.5000 )  
               a(3) = ( -0.5000  0.5000  0.0000 )  

     reciprocal axes: (cart. coord. in units 2 pi/alat)
               b(1) = ( -1.0000 -1.0000  1.0000 )  
               b(2) = (  1.0000  1.0000  1.0000 )  
               b(3) = ( -1.0000  1.0000 -1.0000 )  


     Atoms inside the unit cell: 

     Cartesian axes

     site n.  atom      mass           positions (alat units)
        1     Si  28.0860   tau(    1) = (    0.00000    0.00000    0.00000  )
        2     Si  28.0860   tau(    2) = (    0.25000    0.25000    0.25000  )

     Computing dynamical matrix for 
                    q = (  -0.2500000   0.2500000  -0.2500000 )

      6 Sym.Ops. (no q -> -q+G )


     G cutoff =  193.8608  (    685 G-vectors)     FFT grid: ( 20, 20, 20)
     number of k points=   120

     PseudoPot. # 1 for Si read from file:
     /home/max/quantum_espresso/qe-6.1/pseudo/si_pbe_v1.uspp.F.UPF.txt
     MD5 check sum: a056efeee980c13900f22a371efd63c1
     Pseudo is Ultrasoft + core correction, Zval =  4.0
     Generated by new atomic code, or converted to UPF format
     Using radial grid of  899 points,  6 beta functions with: 
                l(1) =   0
                l(2) =   0
                l(3) =   1
                l(4) =   1
                l(5) =   2
                l(6) =   2
     Q(r) pseudized with  8 coefficients,  rinner =    0.900   0.900   0.900
                                                       0.900   0.900

     Mode symmetry, C_3v (3m)   point group:


     Atomic displacements:
     There are   4 irreducible representations

     Representation     1      1 modes -A_1  L_1  To be done

     Representation     2      1 modes -A_1  L_1  To be done

     Representation     3      2 modes -E    L_3  To be done

     Representation     4      2 modes -E    L_3  To be done



     Alpha used in Ewald sum =   0.7000
     PHONON       :     4.53s CPU         4.71s WALL



     Representation #  1 mode #   1

     Self-consistent Calculation

      iter #   1 total cpu time :     4.9 secs   av.it.:   5.5
      thresh= 1.000E-02 alpha_mix =  0.700 |ddv_scf|^2 =  2.487E-03

      iter #   2 total cpu time :     5.2 secs   av.it.:   7.5
      thresh= 4.987E-03 alpha_mix =  0.700 |ddv_scf|^2 =  3.743E-02

      iter #   3 total cpu time :     5.4 secs   av.it.:   6.3
      thresh= 1.000E-02 alpha_mix =  0.700 |ddv_scf|^2 =  1.706E-06

      iter #   4 total cpu time :     5.6 secs   av.it.:   8.2
      thresh= 1.306E-04 alpha_mix =  0.700 |ddv_scf|^2 =  1.134E-07

      iter #   5 total cpu time :     5.9 secs   av.it.:   8.1
      thresh= 3.368E-05 alpha_mix =  0.700 |ddv_scf|^2 =  4.631E-09

      iter #   6 total cpu time :     6.2 secs   av.it.:   7.9
      thresh= 6.805E-06 alpha_mix =  0.700 |ddv_scf|^2 =  1.012E-08

      iter #   7 total cpu time :     6.4 secs   av.it.:   5.9
      thresh= 1.006E-05 alpha_mix =  0.700 |ddv_scf|^2 =  2.257E-10

      iter #   8 total cpu time :     6.6 secs   av.it.:   7.5
      thresh= 1.502E-06 alpha_mix =  0.700 |ddv_scf|^2 =  4.009E-12

      iter #   9 total cpu time :     6.8 secs   av.it.:   7.1
      thresh= 2.002E-07 alpha_mix =  0.700 |ddv_scf|^2 =  1.455E-13

     End of self-consistent calculation

     Convergence has been achieved 


     Representation #  2 mode #   2

     Self-consistent Calculation

      iter #   1 total cpu time :     7.1 secs   av.it.:   5.5
      thresh= 1.000E-02 alpha_mix =  0.700 |ddv_scf|^2 =  2.487E-03

      iter #   2 total cpu time :     7.3 secs   av.it.:   7.5
      thresh= 4.987E-03 alpha_mix =  0.700 |ddv_scf|^2 =  3.743E-02

      iter #   3 total cpu time :     7.5 secs   av.it.:   6.3
      thresh= 1.000E-02 alpha_mix =  0.700 |ddv_scf|^2 =  1.706E-06

      iter #   4 total cpu time :     7.8 secs   av.it.:   8.2
      thresh= 1.306E-04 alpha_mix =  0.700 |ddv_scf|^2 =  1.134E-07

      iter #   5 total cpu time :     8.0 secs   av.it.:   8.1
      thresh= 3.368E-05 alpha_mix =  0.700 |ddv_scf|^2 =  4.631E-09

      iter #   6 total cpu time :     8.3 secs   av.it.:   7.9
      thresh= 6.805E-06 alpha_mix =  0.700 |ddv_scf|^2 =  1.012E-08

      iter #   7 total cpu time :     8.5 secs   av.it.:   5.9
      thresh= 1.006E-05 alpha_mix =  0.700 |ddv_scf|^2 =  2.257E-10

      iter #   8 total cpu time :     8.7 secs   av.it.:   7.5
      thresh= 1.502E-06 alpha_mix =  0.700 |ddv_scf|^2 =  4.009E-12

      iter #   9 total cpu time :     9.0 secs   av.it.:   7.1
      thresh= 2.002E-07 alpha_mix =  0.700 |ddv_scf|^2 =  1.455E-13

     End of self-consistent calculation

     Convergence has been achieved 


     Representation #  3 modes #   3  4

     Self-consistent Calculation

      iter #   1 total cpu time :     9.4 secs   av.it.:   4.9
      thresh= 1.000E-02 alpha_mix =  0.700 |ddv_scf|^2 =  5.519E-07

      iter #   2 total cpu time :    10.0 secs   av.it.:   9.5
      thresh= 7.429E-05 alpha_mix =  0.700 |ddv_scf|^2 =  4.062E-08

      iter #   3 total cpu time :    10.5 secs   av.it.:   9.3
      thresh= 2.015E-05 alpha_mix =  0.700 |ddv_scf|^2 =  3.473E-09

      iter #   4 total cpu time :    11.1 secs   av.it.:   8.9
      thresh= 5.893E-06 alpha_mix =  0.700 |ddv_scf|^2 =  1.072E-11

      iter #   5 total cpu time :    11.6 secs   av.it.:   9.1
      thresh= 3.275E-07 alpha_mix =  0.700 |ddv_scf|^2 =  4.920E-13

     End of self-consistent calculation

     Convergence has been achieved 


     Representation #  4 modes #   5  6

     Self-consistent Calculation

      iter #   1 total cpu time :    12.0 secs   av.it.:   5.0
      thresh= 1.000E-02 alpha_mix =  0.700 |ddv_scf|^2 =  5.518E-07

      iter #   2 total cpu time :    12.6 secs   av.it.:   9.6
      thresh= 7.428E-05 alpha_mix =  0.700 |ddv_scf|^2 =  4.059E-08

      iter #   3 total cpu time :    13.2 secs   av.it.:   9.4
      thresh= 2.015E-05 alpha_mix =  0.700 |ddv_scf|^2 =  3.470E-09

      iter #   4 total cpu time :    13.7 secs   av.it.:   9.1
      thresh= 5.891E-06 alpha_mix =  0.700 |ddv_scf|^2 =  1.073E-11

      iter #   5 total cpu time :    14.3 secs   av.it.:   9.2
      thresh= 3.276E-07 alpha_mix =  0.700 |ddv_scf|^2 =  4.927E-13

     End of self-consistent calculation

     Convergence has been achieved 

     Number of q in the star =    8
     List of q in the star:
          1  -0.250000000   0.250000000  -0.250000000
          2   0.250000000  -0.250000000  -0.250000000
          3   0.250000000  -0.250000000   0.250000000
          4   0.250000000   0.250000000   0.250000000
          5  -0.250000000  -0.250000000  -0.250000000
          6  -0.250000000  -0.250000000   0.250000000
          7  -0.250000000   0.250000000   0.250000000
          8   0.250000000   0.250000000  -0.250000000

     Diagonalizing the dynamical matrix

     q = (   -0.250000000   0.250000000  -0.250000000 ) 

 **************************************************************************
     freq (    1) =       3.374716 [THz] =     112.568406 [cm-1]
     freq (    2) =       3.374716 [THz] =     112.568406 [cm-1]
     freq (    3) =       6.977205 [THz] =     232.734497 [cm-1]
     freq (    4) =      14.190981 [THz] =     473.360183 [cm-1]
     freq (    5) =      14.515373 [THz] =     484.180732 [cm-1]
     freq (    6) =      14.515373 [THz] =     484.180732 [cm-1]
 **************************************************************************

     Mode symmetry, C_3v (3m)   point group:

     freq (  1 -  2) =        112.6  [cm-1]   --> E    L_3           
     freq (  3 -  3) =        232.7  [cm-1]   --> A_1  L_1           
     freq (  4 -  4) =        473.4  [cm-1]   --> A_1  L_1           
     freq (  5 -  6) =        484.2  [cm-1]   --> E    L_3           

     Calculation of q =    0.5000000  -0.5000000   0.5000000

   Info: using nr1, nr2, nr3 values from input

   Info: using nr1, nr2, nr3 values from input

     Parallelization info
     --------------------
     sticks:   dense  smooth     PW     G-vecs:    dense   smooth      PW
     Min          63      63     27                  684      684     186
     Max          64      64     28                  688      688     189
     Sum         253     253    109                 2741     2741     749



     bravais-lattice index     =            2
     lattice parameter (alat)  =      10.3100  a.u.
     unit-cell volume          =     273.9782 (a.u.)^3
     number of atoms/cell      =            2
     number of atomic types    =            1
     number of electrons       =         8.00
     number of Kohn-Sham states=            4
     kinetic-energy cutoff     =      18.0000  Ry
     charge density cutoff     =      72.0000  Ry
     Exchange-correlation      = SLA  PW   PBE  PBE ( 1  4  3  4 0 0)

     celldm(1)=  10.310000  celldm(2)=   0.000000  celldm(3)=   0.000000
     celldm(4)=   0.000000  celldm(5)=   0.000000  celldm(6)=   0.000000

     crystal axes: (cart. coord. in units of alat)
               a(1) = (  -0.500000   0.000000   0.500000 )  
               a(2) = (   0.000000   0.500000   0.500000 )  
               a(3) = (  -0.500000   0.500000   0.000000 )  

     reciprocal axes: (cart. coord. in units 2 pi/alat)
               b(1) = ( -1.000000 -1.000000  1.000000 )  
               b(2) = (  1.000000  1.000000  1.000000 )  
               b(3) = ( -1.000000  1.000000 -1.000000 )  


     PseudoPot. # 1 for Si read from file:
     /home/max/quantum_espresso/qe-6.1/pseudo/si_pbe_v1.uspp.F.UPF.txt
     MD5 check sum: a056efeee980c13900f22a371efd63c1
     Pseudo is Ultrasoft + core correction, Zval =  4.0
     Generated by new atomic code, or converted to UPF format
     Using radial grid of  899 points,  6 beta functions with: 
                l(1) =   0
                l(2) =   0
                l(3) =   1
                l(4) =   1
                l(5) =   2
                l(6) =   2
     Q(r) pseudized with  8 coefficients,  rinner =    0.900   0.900   0.900
                                                       0.900   0.900

     atomic species   valence    mass     pseudopotential
        Si             4.00    28.08600     Si( 1.00)

     48 Sym. Ops., with inversion, found



   Cartesian axes

     site n.     atom                  positions (alat units)
         1           Si  tau(   1) = (   0.0000000   0.0000000   0.0000000  )
         2           Si  tau(   2) = (   0.2500000   0.2500000   0.2500000  )

     number of k points=    60
                       cart. coord. in units 2pi/alat
        k(    1) = (  -0.1250000   0.1250000   0.1250000), wk =   0.0468750
        k(    2) = (   0.3750000  -0.3750000   0.6250000), wk =   0.0000000
        k(    3) = (  -0.3750000   0.3750000  -0.1250000), wk =   0.0468750
        k(    4) = (   0.1250000  -0.1250000   0.3750000), wk =   0.0000000
        k(    5) = (   0.3750000  -0.3750000   0.6250000), wk =   0.0468750
        k(    6) = (   0.8750000  -0.8750000   1.1250000), wk =   0.0000000
        k(    7) = (   0.1250000  -0.1250000   0.3750000), wk =   0.0468750
        k(    8) = (   0.6250000  -0.6250000   0.8750000), wk =   0.0000000
        k(    9) = (  -0.1250000   0.6250000   0.1250000), wk =   0.0937500
        k(   10) = (   0.3750000   0.1250000   0.6250000), wk =   0.0000000
        k(   11) = (   0.6250000  -0.1250000   0.8750000), wk =   0.0937500
        k(   12) = (   1.1250000  -0.6250000   1.3750000), wk =   0.0000000
        k(   13) = (   0.3750000   0.1250000   0.6250000), wk =   0.0937500
        k(   14) = (   0.8750000  -0.3750000   1.1250000), wk =   0.0000000
        k(   15) = (  -0.1250000  -0.8750000   0.1250000), wk =   0.0937500
        k(   16) = (   0.3750000  -1.3750000   0.6250000), wk =   0.0000000
        k(   17) = (  -0.3750000   0.3750000   0.3750000), wk =   0.0468750
        k(   18) = (   0.1250000  -0.1250000   0.8750000), wk =   0.0000000
        k(   19) = (   0.3750000  -0.3750000   1.1250000), wk =   0.0468750
        k(   20) = (   0.8750000  -0.8750000   1.6250000), wk =   0.0000000
        k(   21) = (   0.1250000  -0.1250000   0.1250000), wk =   0.0156250
        k(   22) = (   0.6250000  -0.6250000   0.6250000), wk =   0.0000000
        k(   23) = (  -0.3750000  -0.3750000  -0.1250000), wk =   0.0937500
        k(   24) = (   0.1250000  -0.8750000   0.3750000), wk =   0.0000000
        k(   25) = (  -0.1250000  -0.3750000   0.3750000), wk =   0.0468750
        k(   26) = (   0.3750000  -0.8750000   0.8750000), wk =   0.0000000
        k(   27) = (   0.3750000   0.3750000   0.6250000), wk =   0.0937500
        k(   28) = (   0.8750000  -0.1250000   1.1250000), wk =   0.0000000
        k(   29) = (   0.6250000   0.3750000  -0.3750000), wk =   0.0468750
        k(   30) = (   1.1250000  -0.1250000   0.1250000), wk =   0.0000000
        k(   31) = (   0.1250000   0.1250000   0.3750000), wk =   0.0937500
        k(   32) = (   0.6250000  -0.3750000   0.8750000), wk =   0.0000000
        k(   33) = (   0.3750000   0.1250000  -0.1250000), wk =   0.0468750
        k(   34) = (   0.8750000  -0.3750000   0.3750000), wk =   0.0000000
        k(   35) = (  -0.1250000  -0.6250000  -0.1250000), wk =   0.0468750
        k(   36) = (   0.3750000  -1.1250000   0.3750000), wk =   0.0000000
        k(   37) = (   0.1250000  -0.6250000   0.1250000), wk =   0.0468750
        k(   38) = (   0.6250000  -1.1250000   0.6250000), wk =   0.0000000
        k(   39) = (   0.6250000   0.1250000   0.8750000), wk =   0.0937500
        k(   40) = (   1.1250000  -0.3750000   1.3750000), wk =   0.0000000
        k(   41) = (  -0.8750000   0.1250000   0.6250000), wk =   0.0937500
        k(   42) = (  -0.3750000  -0.3750000   1.1250000), wk =   0.0000000
        k(   43) = (   0.8750000   0.1250000  -0.6250000), wk =   0.0937500
        k(   44) = (   1.3750000  -0.3750000  -0.1250000), wk =   0.0000000
        k(   45) = (   0.3750000  -0.1250000   0.6250000), wk =   0.0937500
        k(   46) = (   0.8750000  -0.6250000   1.1250000), wk =   0.0000000
        k(   47) = (  -0.6250000  -0.1250000   0.3750000), wk =   0.0937500
        k(   48) = (  -0.1250000  -0.6250000   0.8750000), wk =   0.0000000
        k(   49) = (   0.6250000  -0.1250000  -0.3750000), wk =   0.0937500
        k(   50) = (   1.1250000  -0.6250000   0.1250000), wk =   0.0000000
        k(   51) = (  -0.1250000   0.8750000  -0.1250000), wk =   0.0468750
        k(   52) = (   0.3750000   0.3750000   0.3750000), wk =   0.0000000
        k(   53) = (   0.1250000   0.8750000   0.1250000), wk =   0.0468750
        k(   54) = (   0.6250000   0.3750000   0.6250000), wk =   0.0000000
        k(   55) = (   0.3750000  -0.3750000   0.3750000), wk =   0.0156250
        k(   56) = (   0.8750000  -0.8750000   0.8750000), wk =   0.0000000
        k(   57) = (   0.3750000   0.3750000   1.1250000), wk =   0.0937500
        k(   58) = (   0.8750000  -0.1250000   1.6250000), wk =   0.0000000
        k(   59) = (   1.1250000   0.3750000  -0.3750000), wk =   0.0468750
        k(   60) = (   1.6250000  -0.1250000   0.1250000), wk =   0.0000000

     Dense  grid:     2741 G-vectors     FFT dimensions: (  20,  20,  20)

     Estimated max dynamical RAM per process >       0.33MB

     Estimated total allocated dynamical RAM >       1.30MB

     Check: negative/imaginary core charge=   -0.000005    0.000000

     The potential is recalculated from file :
     ./_ph0/silicon.10.31.save/charge-density.dat

     Starting wfc are    8 atomic wfcs

     Band Structure Calculation
     Davidson diagonalization with overlap

     ethr =  1.25E-10,  avg # of iterations = 11.7

     total cpu time spent up to now is        1.3 secs

     End of band structure calculation

          k =-0.1250 0.1250 0.1250 (   338 PWs)   bands (ev):

    -5.6056   4.4598   5.7683   5.7683

          k = 0.3750-0.3750 0.6250 (   359 PWs)   bands (ev):

    -3.4306  -0.6311   3.7974   4.5094

          k =-0.3750 0.3750-0.1250 (   350 PWs)   bands (ev):

    -4.5751   1.4562   3.7758   5.2848

          k = 0.1250-0.1250 0.3750 (   349 PWs)   bands (ev):

    -5.0761   2.8386   4.7544   4.8223

          k = 0.3750-0.3750 0.6250 (   359 PWs)   bands (ev):

    -3.4306  -0.6311   3.7974   4.5094

          k = 0.8750-0.8750 1.1250 (   338 PWs)   bands (ev):

    -5.6056   4.4598   5.7683   5.7683

          k = 0.1250-0.1250 0.3750 (   349 PWs)   bands (ev):

    -5.0761   2.8386   4.7544   4.8223

          k = 0.6250-0.6250 0.8750 (   350 PWs)   bands (ev):

    -4.5751   1.4562   3.7758   5.2848

          k =-0.1250 0.6250 0.1250 (   349 PWs)   bands (ev):

    -4.0404   1.1241   3.4247   3.8760

          k = 0.3750 0.1250 0.6250 (   353 PWs)   bands (ev):

    -3.6229   0.2455   2.7822   4.1531

          k = 0.6250-0.1250 0.8750 (   359 PWs)   bands (ev):

    -2.3932  -0.8467   2.0652   3.1443

          k = 1.1250-0.6250 1.3750 (   350 PWs)   bands (ev):

    -4.5751   1.4562   3.7758   5.2848

          k = 0.3750 0.1250 0.6250 (   353 PWs)   bands (ev):

    -3.6229   0.2455   2.7822   4.1531

          k = 0.8750-0.3750 1.1250 (   349 PWs)   bands (ev):

    -4.0404   1.1241   3.4247   3.8760

          k =-0.1250-0.8750 0.1250 (   352 PWs)   bands (ev):

    -2.5618  -0.7479   2.6761   3.4070

          k = 0.3750-1.3750 0.6250 (   359 PWs)   bands (ev):

    -3.4306  -0.6311   3.7974   4.5094

          k =-0.3750 0.3750 0.3750 (   353 PWs)   bands (ev):

    -4.1409   0.1603   4.9766   4.9766

          k = 0.1250-0.1250 0.8750 (   352 PWs)   bands (ev):

    -2.5618  -0.7479   2.6761   3.4070

          k = 0.3750-0.3750 1.1250 (   359 PWs)   bands (ev):

    -2.9327  -0.5440   2.1251   4.1912

          k = 0.8750-0.8750 1.6250 (   349 PWs)   bands (ev):

    -4.0404   1.1241   3.4247   3.8760

          k = 0.1250-0.1250 0.1250 (   338 PWs)   bands (ev):

    -5.6056   4.4598   5.7683   5.7683

          k = 0.6250-0.6250 0.6250 (   353 PWs)   bands (ev):

    -4.1409   0.1603   4.9766   4.9766

          k =-0.3750-0.3750-0.1250 (   350 PWs)   bands (ev):

    -4.5751   1.4562   3.7758   5.2848

          k = 0.1250-0.8750 0.3750 (   359 PWs)   bands (ev):

    -2.3932  -0.8467   2.0652   3.1443

          k =-0.1250-0.3750 0.3750 (   350 PWs)   bands (ev):

    -4.5751   1.4562   3.7758   5.2848

          k = 0.3750-0.8750 0.8750 (   349 PWs)   bands (ev):

    -4.0404   1.1241   3.4247   3.8760

          k = 0.3750 0.3750 0.6250 (   359 PWs)   bands (ev):

    -3.4306  -0.6311   3.7974   4.5094

          k = 0.8750-0.1250 1.1250 (   352 PWs)   bands (ev):

    -2.5618  -0.7479   2.6761   3.4070

          k = 0.6250 0.3750-0.3750 (   359 PWs)   bands (ev):

    -3.4306  -0.6311   3.7974   4.5094

          k = 1.1250-0.1250 0.1250 (   352 PWs)   bands (ev):

    -2.5618  -0.7479   2.6761   3.4070

          k = 0.1250 0.1250 0.3750 (   349 PWs)   bands (ev):

    -5.0761   2.8386   4.7544   4.8223

          k = 0.6250-0.3750 0.8750 (   353 PWs)   bands (ev):

    -3.6229   0.2455   2.7822   4.1531

          k = 0.3750 0.1250-0.1250 (   349 PWs)   bands (ev):

    -5.0761   2.8386   4.7544   4.8223

          k = 0.8750-0.3750 0.3750 (   359 PWs)   bands (ev):

    -2.9327  -0.5440   2.1251   4.1912

          k =-0.1250-0.6250-0.1250 (   349 PWs)   bands (ev):

    -4.0404   1.1241   3.4247   3.8760

          k = 0.3750-1.1250 0.3750 (   359 PWs)   bands (ev):

    -2.9327  -0.5440   2.1251   4.1912

          k = 0.1250-0.6250 0.1250 (   349 PWs)   bands (ev):

    -4.0404   1.1241   3.4247   3.8760

          k = 0.6250-1.1250 0.6250 (   350 PWs)   bands (ev):

    -4.5751   1.4562   3.7758   5.2848

          k = 0.6250 0.1250 0.8750 (   359 PWs)   bands (ev):

    -2.3932  -0.8467   2.0652   3.1443

          k = 1.1250-0.3750 1.3750 (   353 PWs)   bands (ev):

    -3.6229   0.2455   2.7822   4.1531

          k =-0.8750 0.1250 0.6250 (   359 PWs)   bands (ev):

    -2.3932  -0.8467   2.0652   3.1443

          k =-0.3750-0.3750 1.1250 (   359 PWs)   bands (ev):

    -2.9327  -0.5440   2.1251   4.1912

          k = 0.8750 0.1250-0.6250 (   359 PWs)   bands (ev):

    -2.3932  -0.8467   2.0652   3.1443

          k = 1.3750-0.3750-0.1250 (   353 PWs)   bands (ev):

    -3.6229   0.2455   2.7822   4.1531

          k = 0.3750-0.1250 0.6250 (   353 PWs)   bands (ev):

    -3.6229   0.2455   2.7822   4.1531

          k = 0.8750-0.6250 1.1250 (   349 PWs)   bands (ev):

    -5.0761   2.8386   4.7544   4.8223

          k =-0.6250-0.1250 0.3750 (   353 PWs)   bands (ev):

    -3.6229   0.2455   2.7822   4.1531

          k =-0.1250-0.6250 0.8750 (   359 PWs)   bands (ev):

    -2.3932  -0.8467   2.0652   3.1443

          k = 0.6250-0.1250-0.3750 (   353 PWs)   bands (ev):

    -3.6229   0.2455   2.7822   4.1531

          k = 1.1250-0.6250 0.1250 (   359 PWs)   bands (ev):

    -2.3932  -0.8467   2.0652   3.1443

          k =-0.1250 0.8750-0.1250 (   352 PWs)   bands (ev):

    -2.5618  -0.7479   2.6761   3.4070

          k = 0.3750 0.3750 0.3750 (   353 PWs)   bands (ev):

    -4.1409   0.1603   4.9766   4.9766

          k = 0.1250 0.8750 0.1250 (   352 PWs)   bands (ev):

    -2.5618  -0.7479   2.6761   3.4070

          k = 0.6250 0.3750 0.6250 (   359 PWs)   bands (ev):

    -3.4306  -0.6311   3.7974   4.5094

          k = 0.3750-0.3750 0.3750 (   353 PWs)   bands (ev):

    -4.1409   0.1603   4.9766   4.9766

          k = 0.8750-0.8750 0.8750 (   338 PWs)   bands (ev):

    -5.6056   4.4598   5.7683   5.7683

          k = 0.3750 0.3750 1.1250 (   359 PWs)   bands (ev):

    -2.9327  -0.5440   2.1251   4.1912

          k = 0.8750-0.1250 1.6250 (   359 PWs)   bands (ev):

    -2.3932  -0.8467   2.0652   3.1443

          k = 1.1250 0.3750-0.3750 (   359 PWs)   bands (ev):

    -2.9327  -0.5440   2.1251   4.1912

          k = 1.6250-0.1250 0.1250 (   349 PWs)   bands (ev):

    -5.0761   2.8386   4.7544   4.8223

     highest occupied level (ev):     5.7683

     Writing output data file silicon.10.31.save

                                                                                

     bravais-lattice index     =            2
     lattice parameter (alat)  =      10.3100  a.u.
     unit-cell volume          =     273.9782 (a.u.)^3
     number of atoms/cell      =            2
     number of atomic types    =            1
     kinetic-energy cut-off    =      18.0000  Ry
     charge density cut-off    =      72.0000  Ry
     convergence threshold     =      1.0E-12
     beta                      =       0.7000
     number of iterations used =            4
     Exchange-correlation      = SLA  PW   PBE  PBE ( 1  4  3  4 0 0)


     celldm(1)=   10.31000  celldm(2)=    0.00000  celldm(3)=    0.00000
     celldm(4)=    0.00000  celldm(5)=    0.00000  celldm(6)=    0.00000

     crystal axes: (cart. coord. in units of alat)
               a(1) = ( -0.5000  0.0000  0.5000 )  
               a(2) = (  0.0000  0.5000  0.5000 )  
               a(3) = ( -0.5000  0.5000  0.0000 )  

     reciprocal axes: (cart. coord. in units 2 pi/alat)
               b(1) = ( -1.0000 -1.0000  1.0000 )  
               b(2) = (  1.0000  1.0000  1.0000 )  
               b(3) = ( -1.0000  1.0000 -1.0000 )  


     Atoms inside the unit cell: 

     Cartesian axes

     site n.  atom      mass           positions (alat units)
        1     Si  28.0860   tau(    1) = (    0.00000    0.00000    0.00000  )
        2     Si  28.0860   tau(    2) = (    0.25000    0.25000    0.25000  )

     Computing dynamical matrix for 
                    q = (   0.5000000  -0.5000000   0.5000000 )

     13 Sym.Ops. (with q -> -q+G )


     G cutoff =  193.8608  (    685 G-vectors)     FFT grid: ( 20, 20, 20)
     number of k points=    60

     PseudoPot. # 1 for Si read from file:
     /home/max/quantum_espresso/qe-6.1/pseudo/si_pbe_v1.uspp.F.UPF.txt
     MD5 check sum: a056efeee980c13900f22a371efd63c1
     Pseudo is Ultrasoft + core correction, Zval =  4.0
     Generated by new atomic code, or converted to UPF format
     Using radial grid of  899 points,  6 beta functions with: 
                l(1) =   0
                l(2) =   0
                l(3) =   1
                l(4) =   1
                l(5) =   2
                l(6) =   2
     Q(r) pseudized with  8 coefficients,  rinner =    0.900   0.900   0.900
                                                       0.900   0.900


     Atomic displacements:
     There are   4 irreducible representations

     Representation     1      1 modes -  To be done

     Representation     2      1 modes -  To be done

     Representation     3      2 modes -  To be done

     Representation     4      2 modes -  To be done



     Alpha used in Ewald sum =   0.7000
     PHONON       :    14.44s CPU        15.03s WALL



     Representation #  1 mode #   1

     Self-consistent Calculation

      iter #   1 total cpu time :    15.1 secs   av.it.:   4.8
      thresh= 1.000E-02 alpha_mix =  0.700 |ddv_scf|^2 =  2.495E-05

      iter #   2 total cpu time :    15.3 secs   av.it.:   8.3
      thresh= 4.995E-04 alpha_mix =  0.700 |ddv_scf|^2 =  2.210E-05

      iter #   3 total cpu time :    15.4 secs   av.it.:   7.5
      thresh= 4.701E-04 alpha_mix =  0.700 |ddv_scf|^2 =  4.131E-08

      iter #   4 total cpu time :    15.6 secs   av.it.:   7.6
      thresh= 2.032E-05 alpha_mix =  0.700 |ddv_scf|^2 =  1.409E-10

      iter #   5 total cpu time :    15.7 secs   av.it.:   7.9
      thresh= 1.187E-06 alpha_mix =  0.700 |ddv_scf|^2 =  3.573E-12

      iter #   6 total cpu time :    15.8 secs   av.it.:   7.9
      thresh= 1.890E-07 alpha_mix =  0.700 |ddv_scf|^2 =  5.536E-14

     End of self-consistent calculation

     Convergence has been achieved 


     Representation #  2 mode #   2

     Self-consistent Calculation

      iter #   1 total cpu time :    16.0 secs   av.it.:   5.6
      thresh= 1.000E-02 alpha_mix =  0.700 |ddv_scf|^2 =  3.472E-04

      iter #   2 total cpu time :    16.1 secs   av.it.:   8.3
      thresh= 1.863E-03 alpha_mix =  0.700 |ddv_scf|^2 =  1.068E-03

      iter #   3 total cpu time :    16.2 secs   av.it.:   7.1
      thresh= 3.269E-03 alpha_mix =  0.700 |ddv_scf|^2 =  1.110E-07

      iter #   4 total cpu time :    16.4 secs   av.it.:   8.2
      thresh= 3.331E-05 alpha_mix =  0.700 |ddv_scf|^2 =  7.042E-09

      iter #   5 total cpu time :    16.5 secs   av.it.:   8.5
      thresh= 8.392E-06 alpha_mix =  0.700 |ddv_scf|^2 =  1.279E-10

      iter #   6 total cpu time :    16.7 secs   av.it.:   8.2
      thresh= 1.131E-06 alpha_mix =  0.700 |ddv_scf|^2 =  2.025E-12

      iter #   7 total cpu time :    16.8 secs   av.it.:   7.8
      thresh= 1.423E-07 alpha_mix =  0.700 |ddv_scf|^2 =  3.118E-15

     End of self-consistent calculation

     Convergence has been achieved 


     Representation #  3 modes #   3  4

     Self-consistent Calculation

      iter #   1 total cpu time :    17.0 secs   av.it.:   4.7
      thresh= 1.000E-02 alpha_mix =  0.700 |ddv_scf|^2 =  3.004E-07

      iter #   2 total cpu time :    17.3 secs   av.it.:   9.1
      thresh= 5.481E-05 alpha_mix =  0.700 |ddv_scf|^2 =  2.469E-08

      iter #   3 total cpu time :    17.6 secs   av.it.:   8.4
      thresh= 1.571E-05 alpha_mix =  0.700 |ddv_scf|^2 =  4.907E-10

      iter #   4 total cpu time :    17.9 secs   av.it.:   8.9
      thresh= 2.215E-06 alpha_mix =  0.700 |ddv_scf|^2 =  6.184E-12

      iter #   5 total cpu time :    18.2 secs   av.it.:   8.7
      thresh= 2.487E-07 alpha_mix =  0.700 |ddv_scf|^2 =  3.189E-14

     End of self-consistent calculation

     Convergence has been achieved 


     Representation #  4 modes #   5  6

     Self-consistent Calculation

      iter #   1 total cpu time :    18.4 secs   av.it.:   5.0
      thresh= 1.000E-02 alpha_mix =  0.700 |ddv_scf|^2 =  9.760E-07

      iter #   2 total cpu time :    18.7 secs   av.it.:   9.5
      thresh= 9.879E-05 alpha_mix =  0.700 |ddv_scf|^2 =  7.635E-08

      iter #   3 total cpu time :    19.0 secs   av.it.:   9.3
      thresh= 2.763E-05 alpha_mix =  0.700 |ddv_scf|^2 =  4.829E-09

      iter #   4 total cpu time :    19.3 secs   av.it.:   8.5
      thresh= 6.949E-06 alpha_mix =  0.700 |ddv_scf|^2 =  6.515E-12

      iter #   5 total cpu time :    19.6 secs   av.it.:   8.8
      thresh= 2.553E-07 alpha_mix =  0.700 |ddv_scf|^2 =  2.268E-14

     End of self-consistent calculation

     Convergence has been achieved 

     Number of q in the star =    4
     List of q in the star:
          1   0.500000000  -0.500000000   0.500000000
          2   0.500000000   0.500000000   0.500000000
          3  -0.500000000   0.500000000   0.500000000
          4   0.500000000   0.500000000  -0.500000000

     Diagonalizing the dynamical matrix

     q = (    0.500000000  -0.500000000   0.500000000 ) 

 **************************************************************************
     freq (    1) =       4.500755 [THz] =     150.129031 [cm-1]
     freq (    2) =       4.500755 [THz] =     150.129031 [cm-1]
     freq (    3) =      11.558127 [THz] =     385.537619 [cm-1]
     freq (    4) =      12.248374 [THz] =     408.561790 [cm-1]
     freq (    5) =      14.527768 [THz] =     484.594184 [cm-1]
     freq (    6) =      14.527768 [THz] =     484.594184 [cm-1]
 **************************************************************************

     Calculation of q =    0.0000000   0.5000000   0.0000000

   Info: using nr1, nr2, nr3 values from input

   Info: using nr1, nr2, nr3 values from input

     Parallelization info
     --------------------
     sticks:   dense  smooth     PW     G-vecs:    dense   smooth      PW
     Min          63      63     27                  684      684     175
     Max          64      64     28                  688      688     176
     Sum         253     253    109                 2741     2741     701



     bravais-lattice index     =            2
     lattice parameter (alat)  =      10.3100  a.u.
     unit-cell volume          =     273.9782 (a.u.)^3
     number of atoms/cell      =            2
     number of atomic types    =            1
     number of electrons       =         8.00
     number of Kohn-Sham states=            4
     kinetic-energy cutoff     =      18.0000  Ry
     charge density cutoff     =      72.0000  Ry
     Exchange-correlation      = SLA  PW   PBE  PBE ( 1  4  3  4 0 0)

     celldm(1)=  10.310000  celldm(2)=   0.000000  celldm(3)=   0.000000
     celldm(4)=   0.000000  celldm(5)=   0.000000  celldm(6)=   0.000000

     crystal axes: (cart. coord. in units of alat)
               a(1) = (  -0.500000   0.000000   0.500000 )  
               a(2) = (   0.000000   0.500000   0.500000 )  
               a(3) = (  -0.500000   0.500000   0.000000 )  

     reciprocal axes: (cart. coord. in units 2 pi/alat)
               b(1) = ( -1.000000 -1.000000  1.000000 )  
               b(2) = (  1.000000  1.000000  1.000000 )  
               b(3) = ( -1.000000  1.000000 -1.000000 )  


     PseudoPot. # 1 for Si read from file:
     /home/max/quantum_espresso/qe-6.1/pseudo/si_pbe_v1.uspp.F.UPF.txt
     MD5 check sum: a056efeee980c13900f22a371efd63c1
     Pseudo is Ultrasoft + core correction, Zval =  4.0
     Generated by new atomic code, or converted to UPF format
     Using radial grid of  899 points,  6 beta functions with: 
                l(1) =   0
                l(2) =   0
                l(3) =   1
                l(4) =   1
                l(5) =   2
                l(6) =   2
     Q(r) pseudized with  8 coefficients,  rinner =    0.900   0.900   0.900
                                                       0.900   0.900

     atomic species   valence    mass     pseudopotential
        Si             4.00    28.08600     Si( 1.00)

     48 Sym. Ops., with inversion, found



   Cartesian axes

     site n.     atom                  positions (alat units)
         1           Si  tau(   1) = (   0.0000000   0.0000000   0.0000000  )
         2           Si  tau(   2) = (   0.2500000   0.2500000   0.2500000  )

     number of k points=    80
                       cart. coord. in units 2pi/alat
        k(    1) = (  -0.1250000   0.1250000   0.1250000), wk =   0.0312500
        k(    2) = (  -0.1250000   0.6250000   0.1250000), wk =   0.0000000
        k(    3) = (  -0.3750000   0.3750000  -0.1250000), wk =   0.0625000
        k(    4) = (  -0.3750000   0.8750000  -0.1250000), wk =   0.0000000
        k(    5) = (   0.3750000  -0.3750000   0.6250000), wk =   0.0625000
        k(    6) = (   0.3750000   0.1250000   0.6250000), wk =   0.0000000
        k(    7) = (   0.1250000  -0.1250000   0.3750000), wk =   0.0625000
        k(    8) = (   0.1250000   0.3750000   0.3750000), wk =   0.0000000
        k(    9) = (  -0.1250000   0.6250000   0.1250000), wk =   0.0312500
        k(   10) = (  -0.1250000   1.1250000   0.1250000), wk =   0.0000000
        k(   11) = (   0.6250000  -0.1250000   0.8750000), wk =   0.0625000
        k(   12) = (   0.6250000   0.3750000   0.8750000), wk =   0.0000000
        k(   13) = (   0.3750000   0.1250000   0.6250000), wk =   0.0625000
        k(   14) = (   0.3750000   0.6250000   0.6250000), wk =   0.0000000
        k(   15) = (  -0.1250000  -0.8750000   0.1250000), wk =   0.0312500
        k(   16) = (  -0.1250000  -0.3750000   0.1250000), wk =   0.0000000
        k(   17) = (  -0.3750000   0.3750000   0.3750000), wk =   0.0312500
        k(   18) = (  -0.3750000   0.8750000   0.3750000), wk =   0.0000000
        k(   19) = (   0.3750000  -0.3750000   1.1250000), wk =   0.0625000
        k(   20) = (   0.3750000   0.1250000   1.1250000), wk =   0.0000000
        k(   21) = (  -0.1250000  -0.1250000   0.1250000), wk =   0.0312500
        k(   22) = (  -0.1250000   0.3750000   0.1250000), wk =   0.0000000
        k(   23) = (   0.1250000  -0.3750000   0.3750000), wk =   0.0625000
        k(   24) = (   0.1250000   0.1250000   0.3750000), wk =   0.0000000
        k(   25) = (   0.3750000  -0.1250000   0.3750000), wk =   0.0312500
        k(   26) = (   0.3750000   0.3750000   0.3750000), wk =   0.0000000
        k(   27) = (   0.3750000   0.1250000   0.3750000), wk =   0.0312500
        k(   28) = (   0.3750000   0.6250000   0.3750000), wk =   0.0000000
        k(   29) = (  -0.6250000   0.3750000  -0.3750000), wk =   0.0625000
        k(   30) = (  -0.6250000   0.8750000  -0.3750000), wk =   0.0000000
        k(   31) = (  -0.3750000   0.6250000  -0.3750000), wk =   0.0312500
        k(   32) = (  -0.3750000   1.1250000  -0.3750000), wk =   0.0000000
        k(   33) = (  -0.3750000  -0.6250000  -0.3750000), wk =   0.0312500
        k(   34) = (  -0.3750000  -0.1250000  -0.3750000), wk =   0.0000000
        k(   35) = (  -0.3750000   0.1250000  -0.1250000), wk =   0.0625000
        k(   36) = (  -0.3750000   0.6250000  -0.1250000), wk =   0.0000000
        k(   37) = (  -0.1250000   0.3750000  -0.1250000), wk =   0.0312500
        k(   38) = (  -0.1250000   0.8750000  -0.1250000), wk =   0.0000000
        k(   39) = (  -0.1250000  -0.3750000  -0.1250000), wk =   0.0312500
        k(   40) = (  -0.1250000   0.1250000  -0.1250000), wk =   0.0000000
        k(   41) = (  -0.1250000  -0.6250000   0.1250000), wk =   0.0312500
        k(   42) = (  -0.1250000  -0.1250000   0.1250000), wk =   0.0000000
        k(   43) = (   0.6250000  -0.1250000  -0.1250000), wk =   0.0625000
        k(   44) = (   0.6250000   0.3750000  -0.1250000), wk =   0.0000000
        k(   45) = (   0.6250000   0.1250000   0.1250000), wk =   0.0625000
        k(   46) = (   0.6250000   0.6250000   0.1250000), wk =   0.0000000
        k(   47) = (  -0.8750000   0.1250000  -0.6250000), wk =   0.0625000
        k(   48) = (  -0.8750000   0.6250000  -0.6250000), wk =   0.0000000
        k(   49) = (  -0.1250000   0.6250000  -0.8750000), wk =   0.0625000
        k(   50) = (  -0.1250000   1.1250000  -0.8750000), wk =   0.0000000
        k(   51) = (  -0.1250000   0.8750000  -0.6250000), wk =   0.0625000
        k(   52) = (  -0.1250000   1.3750000  -0.6250000), wk =   0.0000000
        k(   53) = (  -0.1250000  -0.8750000  -0.6250000), wk =   0.0625000
        k(   54) = (  -0.1250000  -0.3750000  -0.6250000), wk =   0.0000000
        k(   55) = (   0.8750000  -0.6250000   0.1250000), wk =   0.0625000
        k(   56) = (   0.8750000  -0.1250000   0.1250000), wk =   0.0000000
        k(   57) = (  -0.6250000  -0.1250000  -0.3750000), wk =   0.0625000
        k(   58) = (  -0.6250000   0.3750000  -0.3750000), wk =   0.0000000
        k(   59) = (   0.1250000   0.3750000  -0.6250000), wk =   0.0625000
        k(   60) = (   0.1250000   0.8750000  -0.6250000), wk =   0.0000000
        k(   61) = (   0.1250000   0.6250000  -0.3750000), wk =   0.0625000
        k(   62) = (   0.1250000   1.1250000  -0.3750000), wk =   0.0000000
        k(   63) = (   0.1250000  -0.6250000  -0.3750000), wk =   0.0625000
        k(   64) = (   0.1250000  -0.1250000  -0.3750000), wk =   0.0000000
        k(   65) = (   0.6250000  -0.3750000  -0.1250000), wk =   0.0625000
        k(   66) = (   0.6250000   0.1250000  -0.1250000), wk =   0.0000000
        k(   67) = (  -0.1250000   0.8750000   0.1250000), wk =   0.0312500
        k(   68) = (  -0.1250000   1.3750000   0.1250000), wk =   0.0000000
        k(   69) = (  -0.8750000  -0.1250000  -0.1250000), wk =   0.0625000
        k(   70) = (  -0.8750000   0.3750000  -0.1250000), wk =   0.0000000
        k(   71) = (  -0.8750000   0.1250000   0.1250000), wk =   0.0625000
        k(   72) = (  -0.8750000   0.6250000   0.1250000), wk =   0.0000000
        k(   73) = (  -0.3750000  -0.3750000   0.3750000), wk =   0.0312500
        k(   74) = (  -0.3750000   0.1250000   0.3750000), wk =   0.0000000
        k(   75) = (  -1.1250000   0.3750000  -0.3750000), wk =   0.0625000
        k(   76) = (  -1.1250000   0.8750000  -0.3750000), wk =   0.0000000
        k(   77) = (  -0.3750000   1.1250000  -0.3750000), wk =   0.0312500
        k(   78) = (  -0.3750000   1.6250000  -0.3750000), wk =   0.0000000
        k(   79) = (  -0.3750000  -1.1250000  -0.3750000), wk =   0.0312500
        k(   80) = (  -0.3750000  -0.6250000  -0.3750000), wk =   0.0000000

     Dense  grid:     2741 G-vectors     FFT dimensions: (  20,  20,  20)

     Estimated max dynamical RAM per process >       0.33MB

     Estimated total allocated dynamical RAM >       1.30MB

     Check: negative/imaginary core charge=   -0.000005    0.000000

     The potential is recalculated from file :
     ./_ph0/silicon.10.31.save/charge-density.dat

     Starting wfc are    8 atomic wfcs

     Band Structure Calculation
     Davidson diagonalization with overlap

     ethr =  1.25E-10,  avg # of iterations = 11.7

     total cpu time spent up to now is        1.9 secs

     End of band structure calculation

          k =-0.1250 0.1250 0.1250 (   338 PWs)   bands (ev):

    -5.6056   4.4598   5.7683   5.7683

          k =-0.1250 0.6250 0.1250 (   349 PWs)   bands (ev):

    -4.0404   1.1241   3.4247   3.8760

          k =-0.3750 0.3750-0.1250 (   350 PWs)   bands (ev):

    -4.5751   1.4562   3.7758   5.2848

          k =-0.3750 0.8750-0.1250 (   359 PWs)   bands (ev):

    -2.3932  -0.8467   2.0652   3.1443

          k = 0.3750-0.3750 0.6250 (   359 PWs)   bands (ev):

    -3.4306  -0.6311   3.7974   4.5094

          k = 0.3750 0.1250 0.6250 (   353 PWs)   bands (ev):

    -3.6229   0.2455   2.7822   4.1531

          k = 0.1250-0.1250 0.3750 (   349 PWs)   bands (ev):

    -5.0761   2.8386   4.7544   4.8223

          k = 0.1250 0.3750 0.3750 (   350 PWs)   bands (ev):

    -4.5751   1.4562   3.7758   5.2848

          k =-0.1250 0.6250 0.1250 (   349 PWs)   bands (ev):

    -4.0404   1.1241   3.4247   3.8760

          k =-0.1250 1.1250 0.1250 (   352 PWs)   bands (ev):

    -2.5618  -0.7479   2.6761   3.4070

          k = 0.6250-0.1250 0.8750 (   359 PWs)   bands (ev):

    -2.3932  -0.8467   2.0652   3.1443

          k = 0.6250 0.3750 0.8750 (   353 PWs)   bands (ev):

    -3.6229   0.2455   2.7822   4.1531

          k = 0.3750 0.1250 0.6250 (   353 PWs)   bands (ev):

    -3.6229   0.2455   2.7822   4.1531

          k = 0.3750 0.6250 0.6250 (   359 PWs)   bands (ev):

    -3.4306  -0.6311   3.7974   4.5094

          k =-0.1250-0.8750 0.1250 (   352 PWs)   bands (ev):

    -2.5618  -0.7479   2.6761   3.4070

          k =-0.1250-0.3750 0.1250 (   349 PWs)   bands (ev):

    -5.0761   2.8386   4.7544   4.8223

          k =-0.3750 0.3750 0.3750 (   353 PWs)   bands (ev):

    -4.1409   0.1603   4.9766   4.9766

          k =-0.3750 0.8750 0.3750 (   359 PWs)   bands (ev):

    -2.9327  -0.5440   2.1251   4.1912

          k = 0.3750-0.3750 1.1250 (   359 PWs)   bands (ev):

    -2.9327  -0.5440   2.1251   4.1912

          k = 0.3750 0.1250 1.1250 (   359 PWs)   bands (ev):

    -2.3932  -0.8467   2.0652   3.1443

          k =-0.1250-0.1250 0.1250 (   338 PWs)   bands (ev):

    -5.6056   4.4598   5.7683   5.7683

          k =-0.1250 0.3750 0.1250 (   349 PWs)   bands (ev):

    -5.0761   2.8386   4.7544   4.8223

          k = 0.1250-0.3750 0.3750 (   350 PWs)   bands (ev):

    -4.5751   1.4562   3.7758   5.2848

          k = 0.1250 0.1250 0.3750 (   349 PWs)   bands (ev):

    -5.0761   2.8386   4.7544   4.8223

          k = 0.3750-0.1250 0.3750 (   350 PWs)   bands (ev):

    -4.5751   1.4562   3.7758   5.2848

          k = 0.3750 0.3750 0.3750 (   353 PWs)   bands (ev):

    -4.1409   0.1603   4.9766   4.9766

          k = 0.3750 0.1250 0.3750 (   350 PWs)   bands (ev):

    -4.5751   1.4562   3.7758   5.2848

          k = 0.3750 0.6250 0.3750 (   359 PWs)   bands (ev):

    -3.4306  -0.6311   3.7974   4.5094

          k =-0.6250 0.3750-0.3750 (   359 PWs)   bands (ev):

    -3.4306  -0.6311   3.7974   4.5094

          k =-0.6250 0.8750-0.3750 (   353 PWs)   bands (ev):

    -3.6229   0.2455   2.7822   4.1531

          k =-0.3750 0.6250-0.3750 (   359 PWs)   bands (ev):

    -3.4306  -0.6311   3.7974   4.5094

          k =-0.3750 1.1250-0.3750 (   359 PWs)   bands (ev):

    -2.9327  -0.5440   2.1251   4.1912

          k =-0.3750-0.6250-0.3750 (   359 PWs)   bands (ev):

    -3.4306  -0.6311   3.7974   4.5094

          k =-0.3750-0.1250-0.3750 (   350 PWs)   bands (ev):

    -4.5751   1.4562   3.7758   5.2848

          k =-0.3750 0.1250-0.1250 (   349 PWs)   bands (ev):

    -5.0761   2.8386   4.7544   4.8223

          k =-0.3750 0.6250-0.1250 (   353 PWs)   bands (ev):

    -3.6229   0.2455   2.7822   4.1531

          k =-0.1250 0.3750-0.1250 (   349 PWs)   bands (ev):

    -5.0761   2.8386   4.7544   4.8223

          k =-0.1250 0.8750-0.1250 (   352 PWs)   bands (ev):

    -2.5618  -0.7479   2.6761   3.4070

          k =-0.1250-0.3750-0.1250 (   349 PWs)   bands (ev):

    -5.0761   2.8386   4.7544   4.8223

          k =-0.1250 0.1250-0.1250 (   338 PWs)   bands (ev):

    -5.6056   4.4598   5.7683   5.7683

          k =-0.1250-0.6250 0.1250 (   349 PWs)   bands (ev):

    -4.0404   1.1241   3.4247   3.8760

          k =-0.1250-0.1250 0.1250 (   338 PWs)   bands (ev):

    -5.6056   4.4598   5.7683   5.7683

          k = 0.6250-0.1250-0.1250 (   349 PWs)   bands (ev):

    -4.0404   1.1241   3.4247   3.8760

          k = 0.6250 0.3750-0.1250 (   353 PWs)   bands (ev):

    -3.6229   0.2455   2.7822   4.1531

          k = 0.6250 0.1250 0.1250 (   349 PWs)   bands (ev):

    -4.0404   1.1241   3.4247   3.8760

          k = 0.6250 0.6250 0.1250 (   359 PWs)   bands (ev):

    -2.9327  -0.5440   2.1251   4.1912

          k =-0.8750 0.1250-0.6250 (   359 PWs)   bands (ev):

    -2.3932  -0.8467   2.0652   3.1443

          k =-0.8750 0.6250-0.6250 (   350 PWs)   bands (ev):

    -4.5751   1.4562   3.7758   5.2848

          k =-0.1250 0.6250-0.8750 (   359 PWs)   bands (ev):

    -2.3932  -0.8467   2.0652   3.1443

          k =-0.1250 1.1250-0.8750 (   352 PWs)   bands (ev):

    -2.5618  -0.7479   2.6761   3.4070

          k =-0.1250 0.8750-0.6250 (   359 PWs)   bands (ev):

    -2.3932  -0.8467   2.0652   3.1443

          k =-0.1250 1.3750-0.6250 (   359 PWs)   bands (ev):

    -2.9327  -0.5440   2.1251   4.1912

          k =-0.1250-0.8750-0.6250 (   359 PWs)   bands (ev):

    -2.3932  -0.8467   2.0652   3.1443

          k =-0.1250-0.3750-0.6250 (   353 PWs)   bands (ev):

    -3.6229   0.2455   2.7822   4.1531

          k = 0.8750-0.6250 0.1250 (   359 PWs)   bands (ev):

    -2.3932  -0.8467   2.0652   3.1443

          k = 0.8750-0.1250 0.1250 (   352 PWs)   bands (ev):

    -2.5618  -0.7479   2.6761   3.4070

          k =-0.6250-0.1250-0.3750 (   353 PWs)   bands (ev):

    -3.6229   0.2455   2.7822   4.1531

          k =-0.6250 0.3750-0.3750 (   359 PWs)   bands (ev):

    -3.4306  -0.6311   3.7974   4.5094

          k = 0.1250 0.3750-0.6250 (   353 PWs)   bands (ev):

    -3.6229   0.2455   2.7822   4.1531

          k = 0.1250 0.8750-0.6250 (   359 PWs)   bands (ev):

    -2.3932  -0.8467   2.0652   3.1443

          k = 0.1250 0.6250-0.3750 (   353 PWs)   bands (ev):

    -3.6229   0.2455   2.7822   4.1531

          k = 0.1250 1.1250-0.3750 (   359 PWs)   bands (ev):

    -2.3932  -0.8467   2.0652   3.1443

          k = 0.1250-0.6250-0.3750 (   353 PWs)   bands (ev):

    -3.6229   0.2455   2.7822   4.1531

          k = 0.1250-0.1250-0.3750 (   349 PWs)   bands (ev):

    -5.0761   2.8386   4.7544   4.8223

          k = 0.6250-0.3750-0.1250 (   353 PWs)   bands (ev):

    -3.6229   0.2455   2.7822   4.1531

          k = 0.6250 0.1250-0.1250 (   349 PWs)   bands (ev):

    -4.0404   1.1241   3.4247   3.8760

          k =-0.1250 0.8750 0.1250 (   352 PWs)   bands (ev):

    -2.5618  -0.7479   2.6761   3.4070

          k =-0.1250 1.3750 0.1250 (   349 PWs)   bands (ev):

    -4.0404   1.1241   3.4247   3.8760

          k =-0.8750-0.1250-0.1250 (   352 PWs)   bands (ev):

    -2.5618  -0.7479   2.6761   3.4070

          k =-0.8750 0.3750-0.1250 (   359 PWs)   bands (ev):

    -2.3932  -0.8467   2.0652   3.1443

          k =-0.8750 0.1250 0.1250 (   352 PWs)   bands (ev):

    -2.5618  -0.7479   2.6761   3.4070

          k =-0.8750 0.6250 0.1250 (   359 PWs)   bands (ev):

    -2.3932  -0.8467   2.0652   3.1443

          k =-0.3750-0.3750 0.3750 (   353 PWs)   bands (ev):

    -4.1409   0.1603   4.9766   4.9766

          k =-0.3750 0.1250 0.3750 (   350 PWs)   bands (ev):

    -4.5751   1.4562   3.7758   5.2848

          k =-1.1250 0.3750-0.3750 (   359 PWs)   bands (ev):

    -2.9327  -0.5440   2.1251   4.1912

          k =-1.1250 0.8750-0.3750 (   349 PWs)   bands (ev):

    -4.0404   1.1241   3.4247   3.8760

          k =-0.3750 1.1250-0.3750 (   359 PWs)   bands (ev):

    -2.9327  -0.5440   2.1251   4.1912

          k =-0.3750 1.6250-0.3750 (   353 PWs)   bands (ev):

    -4.1409   0.1603   4.9766   4.9766

          k =-0.3750-1.1250-0.3750 (   359 PWs)   bands (ev):

    -2.9327  -0.5440   2.1251   4.1912

          k =-0.3750-0.6250-0.3750 (   359 PWs)   bands (ev):

    -3.4306  -0.6311   3.7974   4.5094

     highest occupied level (ev):     5.7683

     Writing output data file silicon.10.31.save

                                                                                

     bravais-lattice index     =            2
     lattice parameter (alat)  =      10.3100  a.u.
     unit-cell volume          =     273.9782 (a.u.)^3
     number of atoms/cell      =            2
     number of atomic types    =            1
     kinetic-energy cut-off    =      18.0000  Ry
     charge density cut-off    =      72.0000  Ry
     convergence threshold     =      1.0E-12
     beta                      =       0.7000
     number of iterations used =            4
     Exchange-correlation      = SLA  PW   PBE  PBE ( 1  4  3  4 0 0)


     celldm(1)=   10.31000  celldm(2)=    0.00000  celldm(3)=    0.00000
     celldm(4)=    0.00000  celldm(5)=    0.00000  celldm(6)=    0.00000

     crystal axes: (cart. coord. in units of alat)
               a(1) = ( -0.5000  0.0000  0.5000 )  
               a(2) = (  0.0000  0.5000  0.5000 )  
               a(3) = ( -0.5000  0.5000  0.0000 )  

     reciprocal axes: (cart. coord. in units 2 pi/alat)
               b(1) = ( -1.0000 -1.0000  1.0000 )  
               b(2) = (  1.0000  1.0000  1.0000 )  
               b(3) = ( -1.0000  1.0000 -1.0000 )  


     Atoms inside the unit cell: 

     Cartesian axes

     site n.  atom      mass           positions (alat units)
        1     Si  28.0860   tau(    1) = (    0.00000    0.00000    0.00000  )
        2     Si  28.0860   tau(    2) = (    0.25000    0.25000    0.25000  )

     Computing dynamical matrix for 
                    q = (   0.0000000   0.5000000   0.0000000 )

      8 Sym.Ops. (no q -> -q+G )


     G cutoff =  193.8608  (    685 G-vectors)     FFT grid: ( 20, 20, 20)
     number of k points=    80

     PseudoPot. # 1 for Si read from file:
     /home/max/quantum_espresso/qe-6.1/pseudo/si_pbe_v1.uspp.F.UPF.txt
     MD5 check sum: a056efeee980c13900f22a371efd63c1
     Pseudo is Ultrasoft + core correction, Zval =  4.0
     Generated by new atomic code, or converted to UPF format
     Using radial grid of  899 points,  6 beta functions with: 
                l(1) =   0
                l(2) =   0
                l(3) =   1
                l(4) =   1
                l(5) =   2
                l(6) =   2
     Q(r) pseudized with  8 coefficients,  rinner =    0.900   0.900   0.900
                                                       0.900   0.900

     Mode symmetry, C_4v (4mm)  point group:


     Atomic displacements:
     There are   4 irreducible representations

     Representation     1      1 modes -A_1  G_1 D_1  To be done

     Representation     2      1 modes -B_2  G_4 D_2'  To be done

     Representation     3      2 modes -E    G_5 D_5  To be done

     Representation     4      2 modes -E    G_5 D_5  To be done



     Alpha used in Ewald sum =   0.7000
     PHONON       :    19.56s CPU        20.43s WALL



     Representation #  1 mode #   1

     Self-consistent Calculation

      iter #   1 total cpu time :    20.6 secs   av.it.:   5.8
      thresh= 1.000E-02 alpha_mix =  0.700 |ddv_scf|^2 =  2.989E-03

      iter #   2 total cpu time :    20.8 secs   av.it.:   7.6
      thresh= 5.468E-03 alpha_mix =  0.700 |ddv_scf|^2 =  3.920E-02

      iter #   3 total cpu time :    20.9 secs   av.it.:   6.7
      thresh= 1.000E-02 alpha_mix =  0.700 |ddv_scf|^2 =  1.372E-07

      iter #   4 total cpu time :    21.1 secs   av.it.:   8.2
      thresh= 3.704E-05 alpha_mix =  0.700 |ddv_scf|^2 =  1.224E-08

      iter #   5 total cpu time :    21.3 secs   av.it.:   7.8
      thresh= 1.107E-05 alpha_mix =  0.700 |ddv_scf|^2 =  7.434E-10

      iter #   6 total cpu time :    21.4 secs   av.it.:   7.8
      thresh= 2.727E-06 alpha_mix =  0.700 |ddv_scf|^2 =  2.633E-12

      iter #   7 total cpu time :    21.6 secs   av.it.:   7.9
      thresh= 1.623E-07 alpha_mix =  0.700 |ddv_scf|^2 =  5.222E-13

     End of self-consistent calculation

     Convergence has been achieved 


     Representation #  2 mode #   2

     Self-consistent Calculation

      iter #   1 total cpu time :    21.8 secs   av.it.:   4.9
      thresh= 1.000E-02 alpha_mix =  0.700 |ddv_scf|^2 =  5.499E-06

      iter #   2 total cpu time :    22.0 secs   av.it.:   8.7
      thresh= 2.345E-04 alpha_mix =  0.700 |ddv_scf|^2 =  1.321E-06

      iter #   3 total cpu time :    22.1 secs   av.it.:   8.5
      thresh= 1.149E-04 alpha_mix =  0.700 |ddv_scf|^2 =  4.137E-08

      iter #   4 total cpu time :    22.3 secs   av.it.:   8.2
      thresh= 2.034E-05 alpha_mix =  0.700 |ddv_scf|^2 =  6.685E-10

      iter #   5 total cpu time :    22.5 secs   av.it.:   8.5
      thresh= 2.586E-06 alpha_mix =  0.700 |ddv_scf|^2 =  6.759E-12

      iter #   6 total cpu time :    22.7 secs   av.it.:   7.9
      thresh= 2.600E-07 alpha_mix =  0.700 |ddv_scf|^2 =  6.840E-14

     End of self-consistent calculation

     Convergence has been achieved 


     Representation #  3 modes #   3  4

     Self-consistent Calculation

      iter #   1 total cpu time :    23.0 secs   av.it.:   5.0
      thresh= 1.000E-02 alpha_mix =  0.700 |ddv_scf|^2 =  1.022E-06

      iter #   2 total cpu time :    23.4 secs   av.it.:   9.7
      thresh= 1.011E-04 alpha_mix =  0.700 |ddv_scf|^2 =  1.266E-07

      iter #   3 total cpu time :    23.8 secs   av.it.:   9.5
      thresh= 3.559E-05 alpha_mix =  0.700 |ddv_scf|^2 =  6.553E-09

      iter #   4 total cpu time :    24.1 secs   av.it.:   8.8
      thresh= 8.095E-06 alpha_mix =  0.700 |ddv_scf|^2 =  9.250E-12

      iter #   5 total cpu time :    24.5 secs   av.it.:   9.1
      thresh= 3.041E-07 alpha_mix =  0.700 |ddv_scf|^2 =  2.823E-13

     End of self-consistent calculation

     Convergence has been achieved 


     Representation #  4 modes #   5  6

     Self-consistent Calculation

      iter #   1 total cpu time :    24.8 secs   av.it.:   5.0
      thresh= 1.000E-02 alpha_mix =  0.700 |ddv_scf|^2 =  9.072E-07

      iter #   2 total cpu time :    25.2 secs   av.it.:   9.8
      thresh= 9.524E-05 alpha_mix =  0.700 |ddv_scf|^2 =  1.149E-07

      iter #   3 total cpu time :    25.6 secs   av.it.:   9.4
      thresh= 3.389E-05 alpha_mix =  0.700 |ddv_scf|^2 =  6.050E-09

      iter #   4 total cpu time :    26.0 secs   av.it.:   8.9
      thresh= 7.778E-06 alpha_mix =  0.700 |ddv_scf|^2 =  1.392E-11

      iter #   5 total cpu time :    26.4 secs   av.it.:   9.2
      thresh= 3.731E-07 alpha_mix =  0.700 |ddv_scf|^2 =  4.273E-14

     End of self-consistent calculation

     Convergence has been achieved 

     Number of q in the star =    6
     List of q in the star:
          1   0.000000000   0.500000000   0.000000000
          2   0.000000000  -0.500000000   0.000000000
          3   0.500000000   0.000000000   0.000000000
          4   0.000000000   0.000000000   0.500000000
          5   0.000000000   0.000000000  -0.500000000
          6  -0.500000000   0.000000000   0.000000000

     Diagonalizing the dynamical matrix

     q = (    0.000000000   0.500000000   0.000000000 ) 

 **************************************************************************
     freq (    1) =       4.200039 [THz] =     140.098216 [cm-1]
     freq (    2) =       4.200039 [THz] =     140.098216 [cm-1]
     freq (    3) =       7.230157 [THz] =     241.172069 [cm-1]
     freq (    4) =      13.834438 [THz] =     461.467180 [cm-1]
     freq (    5) =      13.834438 [THz] =     461.467180 [cm-1]
     freq (    6) =      14.423102 [THz] =     481.102889 [cm-1]
 **************************************************************************

     Mode symmetry, C_4v (4mm)  point group:

     freq (  1 -  2) =        140.1  [cm-1]   --> E    G_5 D_5       
     freq (  3 -  3) =        241.2  [cm-1]   --> A_1  G_1 D_1       
     freq (  4 -  5) =        461.5  [cm-1]   --> E    G_5 D_5       
     freq (  6 -  6) =        481.1  [cm-1]   --> B_2  G_4 D_2'      

     Calculation of q =    0.7500000  -0.2500000   0.7500000

   Info: using nr1, nr2, nr3 values from input

   Info: using nr1, nr2, nr3 values from input

     Parallelization info
     --------------------
     sticks:   dense  smooth     PW     G-vecs:    dense   smooth      PW
     Min          63      63     30                  684      684     216
     Max          64      64     31                  688      688     218
     Sum         253     253    121                 2741     2741     869



     bravais-lattice index     =            2
     lattice parameter (alat)  =      10.3100  a.u.
     unit-cell volume          =     273.9782 (a.u.)^3
     number of atoms/cell      =            2
     number of atomic types    =            1
     number of electrons       =         8.00
     number of Kohn-Sham states=            4
     kinetic-energy cutoff     =      18.0000  Ry
     charge density cutoff     =      72.0000  Ry
     Exchange-correlation      = SLA  PW   PBE  PBE ( 1  4  3  4 0 0)

     celldm(1)=  10.310000  celldm(2)=   0.000000  celldm(3)=   0.000000
     celldm(4)=   0.000000  celldm(5)=   0.000000  celldm(6)=   0.000000

     crystal axes: (cart. coord. in units of alat)
               a(1) = (  -0.500000   0.000000   0.500000 )  
               a(2) = (   0.000000   0.500000   0.500000 )  
               a(3) = (  -0.500000   0.500000   0.000000 )  

     reciprocal axes: (cart. coord. in units 2 pi/alat)
               b(1) = ( -1.000000 -1.000000  1.000000 )  
               b(2) = (  1.000000  1.000000  1.000000 )  
               b(3) = ( -1.000000  1.000000 -1.000000 )  


     PseudoPot. # 1 for Si read from file:
     /home/max/quantum_espresso/qe-6.1/pseudo/si_pbe_v1.uspp.F.UPF.txt
     MD5 check sum: a056efeee980c13900f22a371efd63c1
     Pseudo is Ultrasoft + core correction, Zval =  4.0
     Generated by new atomic code, or converted to UPF format
     Using radial grid of  899 points,  6 beta functions with: 
                l(1) =   0
                l(2) =   0
                l(3) =   1
                l(4) =   1
                l(5) =   2
                l(6) =   2
     Q(r) pseudized with  8 coefficients,  rinner =    0.900   0.900   0.900
                                                       0.900   0.900

     atomic species   valence    mass     pseudopotential
        Si             4.00    28.08600     Si( 1.00)

     48 Sym. Ops., with inversion, found



   Cartesian axes

     site n.     atom                  positions (alat units)
         1           Si  tau(   1) = (   0.0000000   0.0000000   0.0000000  )
         2           Si  tau(   2) = (   0.2500000   0.2500000   0.2500000  )

     number of k points=   288

     Number of k-points >= 100: set verbosity='high' to print them.

     Dense  grid:     2741 G-vectors     FFT dimensions: (  20,  20,  20)

     Estimated max dynamical RAM per process >       0.33MB

     Estimated total allocated dynamical RAM >       1.30MB

     Check: negative/imaginary core charge=   -0.000005    0.000000

     The potential is recalculated from file :
     ./_ph0/silicon.10.31.save/charge-density.dat

     Starting wfc are    8 atomic wfcs

     Band Structure Calculation
     Davidson diagonalization with overlap

     ethr =  1.25E-10,  avg # of iterations = 11.6

     total cpu time spent up to now is        3.8 secs

     End of band structure calculation

     Number of k-points >= 100: set verbosity='high' to print the bands.

     highest occupied level (ev):     5.7683

     Writing output data file silicon.10.31.save

                                                                                

     bravais-lattice index     =            2
     lattice parameter (alat)  =      10.3100  a.u.
     unit-cell volume          =     273.9782 (a.u.)^3
     number of atoms/cell      =            2
     number of atomic types    =            1
     kinetic-energy cut-off    =      18.0000  Ry
     charge density cut-off    =      72.0000  Ry
     convergence threshold     =      1.0E-12
     beta                      =       0.7000
     number of iterations used =            4
     Exchange-correlation      = SLA  PW   PBE  PBE ( 1  4  3  4 0 0)


     celldm(1)=   10.31000  celldm(2)=    0.00000  celldm(3)=    0.00000
     celldm(4)=    0.00000  celldm(5)=    0.00000  celldm(6)=    0.00000

     crystal axes: (cart. coord. in units of alat)
               a(1) = ( -0.5000  0.0000  0.5000 )  
               a(2) = (  0.0000  0.5000  0.5000 )  
               a(3) = ( -0.5000  0.5000  0.0000 )  

     reciprocal axes: (cart. coord. in units 2 pi/alat)
               b(1) = ( -1.0000 -1.0000  1.0000 )  
               b(2) = (  1.0000  1.0000  1.0000 )  
               b(3) = ( -1.0000  1.0000 -1.0000 )  


     Atoms inside the unit cell: 

     Cartesian axes

     site n.  atom      mass           positions (alat units)
        1     Si  28.0860   tau(    1) = (    0.00000    0.00000    0.00000  )
        2     Si  28.0860   tau(    2) = (    0.25000    0.25000    0.25000  )

     Computing dynamical matrix for 
                    q = (   0.7500000  -0.2500000   0.7500000 )

      2 Sym.Ops. (no q -> -q+G )


     G cutoff =  193.8608  (    685 G-vectors)     FFT grid: ( 20, 20, 20)
     number of k points=   288

     PseudoPot. # 1 for Si read from file:
     /home/max/quantum_espresso/qe-6.1/pseudo/si_pbe_v1.uspp.F.UPF.txt
     MD5 check sum: a056efeee980c13900f22a371efd63c1
     Pseudo is Ultrasoft + core correction, Zval =  4.0
     Generated by new atomic code, or converted to UPF format
     Using radial grid of  899 points,  6 beta functions with: 
                l(1) =   0
                l(2) =   0
                l(3) =   1
                l(4) =   1
                l(5) =   2
                l(6) =   2
     Q(r) pseudized with  8 coefficients,  rinner =    0.900   0.900   0.900
                                                       0.900   0.900

     Mode symmetry, C_s (m)     point group:


     Atomic displacements:
     There are   6 irreducible representations

     Representation     1      1 modes -A'  To be done

     Representation     2      1 modes -A'  To be done

     Representation     3      1 modes -A'  To be done

     Representation     4      1 modes -A'  To be done

     Representation     5      1 modes -A''  To be done

     Representation     6      1 modes -A''  To be done



     Alpha used in Ewald sum =   0.7000
     PHONON       :    27.68s CPU        28.89s WALL



     Representation #  1 mode #   1

     Self-consistent Calculation

      iter #   1 total cpu time :    29.4 secs   av.it.:   5.3
      thresh= 1.000E-02 alpha_mix =  0.700 |ddv_scf|^2 =  6.149E-05

      iter #   2 total cpu time :    30.0 secs   av.it.:   8.9
      thresh= 7.841E-04 alpha_mix =  0.700 |ddv_scf|^2 =  1.603E-04

      iter #   3 total cpu time :    30.6 secs   av.it.:   7.5
      thresh= 1.266E-03 alpha_mix =  0.700 |ddv_scf|^2 =  1.142E-06

      iter #   4 total cpu time :    31.2 secs   av.it.:   8.4
      thresh= 1.068E-04 alpha_mix =  0.700 |ddv_scf|^2 =  5.491E-08

      iter #   5 total cpu time :    31.9 secs   av.it.:   8.3
      thresh= 2.343E-05 alpha_mix =  0.700 |ddv_scf|^2 =  7.186E-09

      iter #   6 total cpu time :    32.5 secs   av.it.:   8.5
      thresh= 8.477E-06 alpha_mix =  0.700 |ddv_scf|^2 =  7.713E-11

      iter #   7 total cpu time :    33.2 secs   av.it.:   8.8
      thresh= 8.782E-07 alpha_mix =  0.700 |ddv_scf|^2 =  2.797E-12

      iter #   8 total cpu time :    33.8 secs   av.it.:   8.6
      thresh= 1.672E-07 alpha_mix =  0.700 |ddv_scf|^2 =  2.092E-13

     End of self-consistent calculation

     Convergence has been achieved 


     Representation #  2 mode #   2

     Self-consistent Calculation

      iter #   1 total cpu time :    34.3 secs   av.it.:   5.4
      thresh= 1.000E-02 alpha_mix =  0.700 |ddv_scf|^2 =  1.096E-04

      iter #   2 total cpu time :    35.0 secs   av.it.:   8.7
      thresh= 1.047E-03 alpha_mix =  0.700 |ddv_scf|^2 =  3.117E-04

      iter #   3 total cpu time :    35.6 secs   av.it.:   7.4
      thresh= 1.765E-03 alpha_mix =  0.700 |ddv_scf|^2 =  7.771E-07

      iter #   4 total cpu time :    36.2 secs   av.it.:   8.6
      thresh= 8.815E-05 alpha_mix =  0.700 |ddv_scf|^2 =  5.463E-08

      iter #   5 total cpu time :    36.8 secs   av.it.:   8.2
      thresh= 2.337E-05 alpha_mix =  0.700 |ddv_scf|^2 =  1.003E-08

      iter #   6 total cpu time :    37.5 secs   av.it.:   8.5
      thresh= 1.002E-05 alpha_mix =  0.700 |ddv_scf|^2 =  7.732E-11

      iter #   7 total cpu time :    38.1 secs   av.it.:   8.8
      thresh= 8.793E-07 alpha_mix =  0.700 |ddv_scf|^2 =  2.519E-12

      iter #   8 total cpu time :    38.8 secs   av.it.:   8.7
      thresh= 1.587E-07 alpha_mix =  0.700 |ddv_scf|^2 =  7.031E-13

     End of self-consistent calculation

     Convergence has been achieved 


     Representation #  3 mode #   3

     Self-consistent Calculation

      iter #   1 total cpu time :    39.3 secs   av.it.:   5.3
      thresh= 1.000E-02 alpha_mix =  0.700 |ddv_scf|^2 =  8.597E-05

      iter #   2 total cpu time :    39.9 secs   av.it.:   8.7
      thresh= 9.272E-04 alpha_mix =  0.700 |ddv_scf|^2 =  2.290E-04

      iter #   3 total cpu time :    40.5 secs   av.it.:   7.4
      thresh= 1.513E-03 alpha_mix =  0.700 |ddv_scf|^2 =  1.330E-06

      iter #   4 total cpu time :    41.1 secs   av.it.:   8.2
      thresh= 1.153E-04 alpha_mix =  0.700 |ddv_scf|^2 =  5.574E-08

      iter #   5 total cpu time :    41.8 secs   av.it.:   8.4
      thresh= 2.361E-05 alpha_mix =  0.700 |ddv_scf|^2 =  1.024E-08

      iter #   6 total cpu time :    42.4 secs   av.it.:   8.5
      thresh= 1.012E-05 alpha_mix =  0.700 |ddv_scf|^2 =  4.568E-11

      iter #   7 total cpu time :    43.1 secs   av.it.:   8.7
      thresh= 6.759E-07 alpha_mix =  0.700 |ddv_scf|^2 =  1.568E-12

      iter #   8 total cpu time :    43.7 secs   av.it.:   8.8
      thresh= 1.252E-07 alpha_mix =  0.700 |ddv_scf|^2 =  2.548E-13

     End of self-consistent calculation

     Convergence has been achieved 


     Representation #  4 mode #   4

     Self-consistent Calculation

      iter #   1 total cpu time :    44.2 secs   av.it.:   5.2
      thresh= 1.000E-02 alpha_mix =  0.700 |ddv_scf|^2 =  3.787E-05

      iter #   2 total cpu time :    44.9 secs   av.it.:   8.9
[...]
        k(   59) = (  -0.8750000   0.1250000  -0.1250000), wk =   0.0625000
        k(   60) = (  -1.3750000  -0.8750000  -0.1250000), wk =   0.0000000
        k(   61) = (  -1.1250000   0.3750000  -0.3750000), wk =   0.0625000
        k(   62) = (  -1.6250000  -0.6250000  -0.3750000), wk =   0.0000000
        k(   63) = (  -0.3750000   0.3750000   1.1250000), wk =   0.0625000
        k(   64) = (  -0.8750000  -0.6250000   1.1250000), wk =   0.0000000

     Dense  grid:     2741 G-vectors     FFT dimensions: (  20,  20,  20)

     Estimated max dynamical RAM per process >       0.33MB

     Estimated total allocated dynamical RAM >       1.30MB

     Check: negative/imaginary core charge=   -0.000005    0.000000

     The potential is recalculated from file :
     ./_ph0/silicon.10.31.save/charge-density.dat

     Starting wfc are    8 atomic wfcs

     Band Structure Calculation
     Davidson diagonalization with overlap

     ethr =  1.25E-10,  avg # of iterations = 11.6

     total cpu time spent up to now is        5.9 secs

     End of band structure calculation

          k =-0.1250 0.1250 0.1250 (   338 PWs)   bands (ev):

    -5.6056   4.4598   5.7683   5.7683

          k =-0.6250-0.8750 0.1250 (   359 PWs)   bands (ev):

    -2.3932  -0.8467   2.0652   3.1443

          k =-0.3750 0.3750-0.1250 (   350 PWs)   bands (ev):

    -4.5751   1.4562   3.7758   5.2848

          k =-0.8750-0.6250-0.1250 (   359 PWs)   bands (ev):

    -2.3932  -0.8467   2.0652   3.1443

          k = 0.3750-0.3750 0.6250 (   359 PWs)   bands (ev):

    -3.4306  -0.6311   3.7974   4.5094

          k =-0.1250-1.3750 0.6250 (   359 PWs)   bands (ev):

    -2.9327  -0.5440   2.1251   4.1912

          k = 0.1250-0.1250 0.3750 (   349 PWs)   bands (ev):

    -5.0761   2.8386   4.7544   4.8223

          k =-0.3750-1.1250 0.3750 (   359 PWs)   bands (ev):

    -2.9327  -0.5440   2.1251   4.1912

          k =-0.1250 0.6250 0.1250 (   349 PWs)   bands (ev):

    -4.0404   1.1241   3.4247   3.8760

          k =-0.6250-0.3750 0.1250 (   353 PWs)   bands (ev):

    -3.6229   0.2455   2.7822   4.1531

          k = 0.6250-0.1250 0.8750 (   359 PWs)   bands (ev):

    -2.3932  -0.8467   2.0652   3.1443

          k = 0.1250-1.1250 0.8750 (   352 PWs)   bands (ev):

    -2.5618  -0.7479   2.6761   3.4070

          k = 0.3750 0.1250 0.6250 (   353 PWs)   bands (ev):

    -3.6229   0.2455   2.7822   4.1531

          k =-0.1250-0.8750 0.6250 (   359 PWs)   bands (ev):

    -2.3932  -0.8467   2.0652   3.1443

          k =-0.1250-0.8750 0.1250 (   352 PWs)   bands (ev):

    -2.5618  -0.7479   2.6761   3.4070

          k =-0.6250-1.8750 0.1250 (   349 PWs)   bands (ev):

    -4.0404   1.1241   3.4247   3.8760

          k =-0.3750 0.3750 0.3750 (   353 PWs)   bands (ev):

    -4.1409   0.1603   4.9766   4.9766

          k =-0.8750-0.6250 0.3750 (   353 PWs)   bands (ev):

    -3.6229   0.2455   2.7822   4.1531

          k = 0.3750-0.3750 1.1250 (   359 PWs)   bands (ev):

    -2.9327  -0.5440   2.1251   4.1912

          k =-0.1250-1.3750 1.1250 (   359 PWs)   bands (ev):

    -2.3932  -0.8467   2.0652   3.1443

          k = 0.1250-0.3750 0.3750 (   350 PWs)   bands (ev):

    -4.5751   1.4562   3.7758   5.2848

          k =-0.3750-1.3750 0.3750 (   359 PWs)   bands (ev):

    -3.4306  -0.6311   3.7974   4.5094

          k = 0.3750-0.3750-0.1250 (   350 PWs)   bands (ev):

    -4.5751   1.4562   3.7758   5.2848

          k =-0.1250-1.3750-0.1250 (   349 PWs)   bands (ev):

    -4.0404   1.1241   3.4247   3.8760

          k =-0.6250 0.3750-0.3750 (   359 PWs)   bands (ev):

    -3.4306  -0.6311   3.7974   4.5094

          k =-1.1250-0.6250-0.3750 (   353 PWs)   bands (ev):

    -3.6229   0.2455   2.7822   4.1531

          k =-0.3750 0.3750 0.6250 (   359 PWs)   bands (ev):

    -3.4306  -0.6311   3.7974   4.5094

          k =-0.8750-0.6250 0.6250 (   350 PWs)   bands (ev):

    -4.5751   1.4562   3.7758   5.2848

          k =-0.3750 0.1250-0.1250 (   349 PWs)   bands (ev):

    -5.0761   2.8386   4.7544   4.8223

          k =-0.8750-0.8750-0.1250 (   352 PWs)   bands (ev):

    -2.5618  -0.7479   2.6761   3.4070

          k =-0.1250 0.1250 0.3750 (   349 PWs)   bands (ev):

    -5.0761   2.8386   4.7544   4.8223

          k =-0.6250-0.8750 0.3750 (   353 PWs)   bands (ev):

    -3.6229   0.2455   2.7822   4.1531

          k = 0.1250 0.6250-0.1250 (   349 PWs)   bands (ev):

    -4.0404   1.1241   3.4247   3.8760

          k =-0.3750-0.3750-0.1250 (   350 PWs)   bands (ev):

    -4.5751   1.4562   3.7758   5.2848

          k = 0.6250 0.1250-0.1250 (   349 PWs)   bands (ev):

    -4.0404   1.1241   3.4247   3.8760

          k = 0.1250-0.8750-0.1250 (   352 PWs)   bands (ev):

    -2.5618  -0.7479   2.6761   3.4070

          k =-0.8750 0.1250-0.6250 (   359 PWs)   bands (ev):

    -2.3932  -0.8467   2.0652   3.1443

          k =-1.3750-0.8750-0.6250 (   350 PWs)   bands (ev):

    -4.5751   1.4562   3.7758   5.2848

          k = 0.8750-0.1250 0.6250 (   359 PWs)   bands (ev):

    -2.3932  -0.8467   2.0652   3.1443

          k = 0.3750-1.1250 0.6250 (   353 PWs)   bands (ev):

    -3.6229   0.2455   2.7822   4.1531

          k =-0.6250 0.1250 0.8750 (   359 PWs)   bands (ev):

    -2.3932  -0.8467   2.0652   3.1443

          k =-1.1250-0.8750 0.8750 (   338 PWs)   bands (ev):

    -5.6056   4.4598   5.7683   5.7683

          k =-0.1250 0.8750 0.6250 (   359 PWs)   bands (ev):

    -2.3932  -0.8467   2.0652   3.1443

          k =-0.6250-0.1250 0.6250 (   359 PWs)   bands (ev):

    -2.9327  -0.5440   2.1251   4.1912

          k = 0.1250 0.8750-0.6250 (   359 PWs)   bands (ev):

    -2.3932  -0.8467   2.0652   3.1443

          k =-0.3750-0.1250-0.6250 (   353 PWs)   bands (ev):

    -3.6229   0.2455   2.7822   4.1531

          k =-0.6250-0.1250-0.3750 (   353 PWs)   bands (ev):

    -3.6229   0.2455   2.7822   4.1531

          k =-1.1250-1.1250-0.3750 (   349 PWs)   bands (ev):

    -4.0404   1.1241   3.4247   3.8760

          k = 0.6250 0.1250 0.3750 (   353 PWs)   bands (ev):

    -3.6229   0.2455   2.7822   4.1531

          k = 0.1250-0.8750 0.3750 (   359 PWs)   bands (ev):

    -2.3932  -0.8467   2.0652   3.1443

          k =-0.3750-0.1250 0.6250 (   353 PWs)   bands (ev):

    -3.6229   0.2455   2.7822   4.1531

          k =-0.8750-1.1250 0.6250 (   349 PWs)   bands (ev):

    -5.0761   2.8386   4.7544   4.8223

          k = 0.1250 0.6250 0.3750 (   353 PWs)   bands (ev):

    -3.6229   0.2455   2.7822   4.1531

          k =-0.3750-0.3750 0.3750 (   353 PWs)   bands (ev):

    -4.1409   0.1603   4.9766   4.9766

          k =-0.1250 0.6250-0.3750 (   353 PWs)   bands (ev):

    -3.6229   0.2455   2.7822   4.1531

          k =-0.6250-0.3750-0.3750 (   359 PWs)   bands (ev):

    -3.4306  -0.6311   3.7974   4.5094

          k = 0.1250-0.8750-0.1250 (   352 PWs)   bands (ev):

    -2.5618  -0.7479   2.6761   3.4070

          k =-0.3750-1.8750-0.1250 (   349 PWs)   bands (ev):

    -5.0761   2.8386   4.7544   4.8223

          k =-0.8750 0.1250-0.1250 (   352 PWs)   bands (ev):

    -2.5618  -0.7479   2.6761   3.4070

          k =-1.3750-0.8750-0.1250 (   359 PWs)   bands (ev):

    -2.3932  -0.8467   2.0652   3.1443

          k =-1.1250 0.3750-0.3750 (   359 PWs)   bands (ev):

    -2.9327  -0.5440   2.1251   4.1912

          k =-1.6250-0.6250-0.3750 (   359 PWs)   bands (ev):

    -3.4306  -0.6311   3.7974   4.5094

          k =-0.3750 0.3750 1.1250 (   359 PWs)   bands (ev):

    -2.9327  -0.5440   2.1251   4.1912

          k =-0.8750-0.6250 1.1250 (   349 PWs)   bands (ev):

    -5.0761   2.8386   4.7544   4.8223

     highest occupied level (ev):     5.7683

     Writing output data file silicon.10.31.save

                                                                                

     bravais-lattice index     =            2
     lattice parameter (alat)  =      10.3100  a.u.
     unit-cell volume          =     273.9782 (a.u.)^3
     number of atoms/cell      =            2
     number of atomic types    =            1
     kinetic-energy cut-off    =      18.0000  Ry
     charge density cut-off    =      72.0000  Ry
     convergence threshold     =      1.0E-12
     beta                      =       0.7000
     number of iterations used =            4
     Exchange-correlation      = SLA  PW   PBE  PBE ( 1  4  3  4 0 0)


     celldm(1)=   10.31000  celldm(2)=    0.00000  celldm(3)=    0.00000
     celldm(4)=    0.00000  celldm(5)=    0.00000  celldm(6)=    0.00000

     crystal axes: (cart. coord. in units of alat)
               a(1) = ( -0.5000  0.0000  0.5000 )  
               a(2) = (  0.0000  0.5000  0.5000 )  
               a(3) = ( -0.5000  0.5000  0.0000 )  

     reciprocal axes: (cart. coord. in units 2 pi/alat)
               b(1) = ( -1.0000 -1.0000  1.0000 )  
               b(2) = (  1.0000  1.0000  1.0000 )  
               b(3) = ( -1.0000  1.0000 -1.0000 )  


     Atoms inside the unit cell: 

     Cartesian axes

     site n.  atom      mass           positions (alat units)
        1     Si  28.0860   tau(    1) = (    0.00000    0.00000    0.00000  )
        2     Si  28.0860   tau(    2) = (    0.25000    0.25000    0.25000  )

     Computing dynamical matrix for 
                    q = (  -0.5000000  -1.0000000   0.0000000 )

      8 Sym.Ops. (no q -> -q+G )


     G cutoff =  193.8608  (    685 G-vectors)     FFT grid: ( 20, 20, 20)
     number of k points=    64

     PseudoPot. # 1 for Si read from file:
     /home/max/quantum_espresso/qe-6.1/pseudo/si_pbe_v1.uspp.F.UPF.txt
     MD5 check sum: a056efeee980c13900f22a371efd63c1
     Pseudo is Ultrasoft + core correction, Zval =  4.0
     Generated by new atomic code, or converted to UPF format
     Using radial grid of  899 points,  6 beta functions with: 
                l(1) =   0
                l(2) =   0
                l(3) =   1
                l(4) =   1
                l(5) =   2
                l(6) =   2
     Q(r) pseudized with  8 coefficients,  rinner =    0.900   0.900   0.900
                                                       0.900   0.900


     Atomic displacements:
     There are   3 irreducible representations

     Representation     1      2 modes -  To be done

     Representation     2      2 modes -  To be done

     Representation     3      2 modes -  To be done



     Alpha used in Ewald sum =   0.7000
     PHONON       :  1m 8.99s CPU     1m12.03s WALL



     Representation #  1 modes #   1  2

     Self-consistent Calculation

      iter #   1 total cpu time :    72.3 secs   av.it.:   5.3
      thresh= 1.000E-02 alpha_mix =  0.700 |ddv_scf|^2 =  6.373E-06

      iter #   2 total cpu time :    72.6 secs   av.it.:   9.9
      thresh= 2.525E-04 alpha_mix =  0.700 |ddv_scf|^2 =  3.458E-06

      iter #   3 total cpu time :    72.9 secs   av.it.:   9.2
      thresh= 1.860E-04 alpha_mix =  0.700 |ddv_scf|^2 =  8.327E-09

      iter #   4 total cpu time :    73.2 secs   av.it.:   9.1
      thresh= 9.125E-06 alpha_mix =  0.700 |ddv_scf|^2 =  1.900E-11

      iter #   5 total cpu time :    73.5 secs   av.it.:   9.1
      thresh= 4.359E-07 alpha_mix =  0.700 |ddv_scf|^2 =  5.251E-13

     End of self-consistent calculation

     Convergence has been achieved 


     Representation #  2 modes #   3  4

     Self-consistent Calculation

      iter #   1 total cpu time :    73.8 secs   av.it.:   5.2
      thresh= 1.000E-02 alpha_mix =  0.700 |ddv_scf|^2 =  9.855E-06

      iter #   2 total cpu time :    74.1 secs   av.it.:   9.9
      thresh= 3.139E-04 alpha_mix =  0.700 |ddv_scf|^2 =  1.303E-05

      iter #   3 total cpu time :    74.4 secs   av.it.:   9.1
      thresh= 3.609E-04 alpha_mix =  0.700 |ddv_scf|^2 =  9.753E-09

      iter #   4 total cpu time :    74.7 secs   av.it.:   8.9
      thresh= 9.876E-06 alpha_mix =  0.700 |ddv_scf|^2 =  7.690E-11

      iter #   5 total cpu time :    75.0 secs   av.it.:   9.4
      thresh= 8.769E-07 alpha_mix =  0.700 |ddv_scf|^2 =  1.695E-12

      iter #   6 total cpu time :    75.3 secs   av.it.:   9.1
      thresh= 1.302E-07 alpha_mix =  0.700 |ddv_scf|^2 =  1.414E-14

     End of self-consistent calculation

     Convergence has been achieved 


     Representation #  3 modes #   5  6

     Self-consistent Calculation

      iter #   1 total cpu time :    75.6 secs   av.it.:   5.1
      thresh= 1.000E-02 alpha_mix =  0.700 |ddv_scf|^2 =  2.665E-06

      iter #   2 total cpu time :    75.9 secs   av.it.:   9.7
      thresh= 1.632E-04 alpha_mix =  0.700 |ddv_scf|^2 =  1.459E-06

      iter #   3 total cpu time :    76.2 secs   av.it.:   9.1
      thresh= 1.208E-04 alpha_mix =  0.700 |ddv_scf|^2 =  8.194E-09

      iter #   4 total cpu time :    76.5 secs   av.it.:   8.8
      thresh= 9.052E-06 alpha_mix =  0.700 |ddv_scf|^2 =  4.249E-11

      iter #   5 total cpu time :    76.8 secs   av.it.:   9.1
      thresh= 6.518E-07 alpha_mix =  0.700 |ddv_scf|^2 =  6.996E-13

     End of self-consistent calculation

     Convergence has been achieved 

     Number of q in the star =    6
     List of q in the star:
          1  -0.500000000  -1.000000000   0.000000000
          2   0.000000000   1.000000000   0.500000000
          3   0.000000000  -1.000000000  -0.500000000
          4   0.500000000   1.000000000   0.000000000
          5  -1.000000000  -0.500000000   0.000000000
          6   0.000000000  -0.500000000  -1.000000000

     Diagonalizing the dynamical matrix

     q = (   -0.500000000  -1.000000000   0.000000000 ) 

 **************************************************************************
     freq (    1) =       6.950547 [THz] =     231.845286 [cm-1]
     freq (    2) =       6.950547 [THz] =     231.845286 [cm-1]
     freq (    3) =      10.842775 [THz] =     361.676037 [cm-1]
     freq (    4) =      10.842775 [THz] =     361.676037 [cm-1]
     freq (    5) =      13.905513 [THz] =     463.837992 [cm-1]
     freq (    6) =      13.905513 [THz] =     463.837992 [cm-1]
 **************************************************************************

     init_run     :      0.51s CPU      0.53s WALL (       7 calls)
     electrons    :      4.42s CPU      4.59s WALL (       7 calls)

     Called by init_run:
     wfcinit      :      0.00s CPU      0.00s WALL (       7 calls)
     potinit      :      0.02s CPU      0.02s WALL (       7 calls)

     Called by electrons:
     c_bands      :      4.42s CPU      4.58s WALL (       7 calls)
     v_of_rho     :      0.01s CPU      0.01s WALL (       8 calls)
     newd         :      0.02s CPU      0.03s WALL (       8 calls)

     Called by c_bands:
     init_us_2    :      0.65s CPU      0.68s WALL (   17588 calls)
     cegterg      :      3.72s CPU      3.85s WALL (     796 calls)

     Called by sum_band:

     Called by *egterg:
     h_psi        :     40.91s CPU     42.79s WALL (  152238 calls)
     s_psi        :      5.71s CPU      5.99s WALL (  309196 calls)
     g_psi        :      0.03s CPU      0.03s WALL (    9268 calls)
     cdiaghg      :      0.43s CPU      0.44s WALL (   10064 calls)

     Called by h_psi:
     h_psi:pot    :     40.72s CPU     42.60s WALL (  152238 calls)
     h_psi:calbec :      3.99s CPU      4.17s WALL (  152238 calls)
     vloc_psi     :     33.67s CPU     35.23s WALL (  152238 calls)
     add_vuspsi   :      2.85s CPU      2.99s WALL (  152238 calls)

     General routines
     calbec       :      8.78s CPU      9.19s WALL (  345568 calls)
     fft          :      0.28s CPU      0.29s WALL (    5239 calls)
     ffts         :      0.13s CPU      0.13s WALL (    2748 calls)
     fftw         :     38.91s CPU     40.69s WALL ( 1377938 calls)
     davcio       :      0.29s CPU      0.31s WALL (   79045 calls)

     Parallel routines
     fft_scatter  :      7.08s CPU      7.43s WALL ( 1385925 calls)

     PHONON       :  1m13.61s CPU     1m16.85s WALL

     INITIALIZATION: 
     phq_setup    :      0.05s CPU      0.06s WALL (       8 calls)
     phq_init     :      1.90s CPU      1.93s WALL (       8 calls)

     phq_init     :      1.90s CPU      1.93s WALL (       8 calls)
     set_drhoc    :      0.28s CPU      0.28s WALL (      24 calls)
     init_vloc    :      0.00s CPU      0.01s WALL (       8 calls)
     init_us_1    :      0.48s CPU      0.48s WALL (       8 calls)
     newd         :      0.02s CPU      0.03s WALL (       8 calls)
     dvanqq       :      0.22s CPU      0.22s WALL (       8 calls)
     drho         :      0.98s CPU      1.00s WALL (       8 calls)

     DYNAMICAL MATRIX:
     dynmat0      :      0.47s CPU      0.48s WALL (       8 calls)
     phqscf       :     64.32s CPU     67.25s WALL (       8 calls)
     dynmatrix    :      0.01s CPU      0.02s WALL (       8 calls)

     phqscf       :     64.32s CPU     67.25s WALL (       8 calls)
     solve_linter :     63.63s CPU     66.55s WALL (      32 calls)
     drhodv       :      0.48s CPU      0.49s WALL (      32 calls)

     dynmat0      :      0.47s CPU      0.48s WALL (       8 calls)
     dynmat_us    :      0.26s CPU      0.27s WALL (       8 calls)
     d2ionq       :      0.01s CPU      0.01s WALL (       8 calls)
     dynmatcc     :      0.20s CPU      0.20s WALL (       8 calls)

     dynmat_us    :      0.26s CPU      0.27s WALL (       8 calls)
     addusdynmat  :      0.00s CPU      0.00s WALL (       8 calls)

     phqscf       :     64.32s CPU     67.25s WALL (       8 calls)
     solve_linter :     63.63s CPU     66.55s WALL (      32 calls)

     solve_linter :     63.63s CPU     66.55s WALL (      32 calls)
     dvqpsi_us    :      1.57s CPU      1.64s WALL (    2508 calls)
     ortho        :      0.91s CPU      0.95s WALL (   15550 calls)
     cgsolve      :     49.80s CPU     52.14s WALL (   15550 calls)
     incdrhoscf   :      4.38s CPU      4.57s WALL (   15550 calls)
     addusddens   :      1.05s CPU      1.07s WALL (     228 calls)
     vpsifft      :      3.21s CPU      3.35s WALL (   12922 calls)
     dv_of_drho   :      0.20s CPU      0.20s WALL (     295 calls)
     mix_pot      :      0.05s CPU      0.06s WALL (     201 calls)
     psymdvscf    :      0.80s CPU      0.81s WALL (     196 calls)
     newdq        :      1.12s CPU      1.17s WALL (     201 calls)
     adddvscf     :      0.46s CPU      0.48s WALL (   13042 calls)
     drhodvus     :      0.00s CPU      0.00s WALL (      32 calls)

     dvqpsi_us    :      1.57s CPU      1.64s WALL (    2508 calls)
     dvqpsi_us_on :      0.81s CPU      0.84s WALL (    2508 calls)

     cgsolve      :     49.80s CPU     52.14s WALL (   15550 calls)
     ch_psi       :     48.39s CPU     50.65s WALL (  141378 calls)

     ch_psi       :     48.39s CPU     50.65s WALL (  141378 calls)
     h_psi        :     40.91s CPU     42.79s WALL (  152238 calls)
     last         :      7.57s CPU      7.92s WALL (  141378 calls)

     h_psi        :     40.91s CPU     42.79s WALL (  152238 calls)
     add_vuspsi   :      2.85s CPU      2.99s WALL (  152238 calls)

     incdrhoscf   :      4.38s CPU      4.57s WALL (   15550 calls)
     addusdbec    :      0.58s CPU      0.60s WALL (   17998 calls)

     drhodvus     :      0.00s CPU      0.00s WALL (      32 calls)

      General routines
     calbec       :      8.78s CPU      9.19s WALL (  345568 calls)
     fft          :      0.28s CPU      0.29s WALL (    5239 calls)
     ffts         :      0.13s CPU      0.13s WALL (    2748 calls)
     fftw         :     38.91s CPU     40.69s WALL ( 1377938 calls)
     davcio       :      0.29s CPU      0.31s WALL (   79045 calls)
     write_rec    :      0.20s CPU      0.21s WALL (     233 calls)


     PHONON       :  1m13.62s CPU     1m16.85s WALL


   This run was terminated on:   1:21: 8   9Nov2017            

=------------------------------------------------------------------------------=
   JOB DONE.
=------------------------------------------------------------------------------=
