
     Program PWSCF v.6.1 (svn rev. 13369) starts on 10Nov2017 at 10:15:14 

     This program is part of the open-source Quantum ESPRESSO suite
     for quantum simulation of materials; please cite
         "P. Giannozzi et al., J. Phys.:Condens. Matter 21 395502 (2009);
          URL http://www.quantum-espresso.org", 
     in publications or presentations arising from this work. More details at
     http://www.quantum-espresso.org/quote

     Parallel version (MPI), running on     4 processors
     R & G space division:  proc/nbgrp/npool/nimage =       4
     Waiting for input...
     Reading input from standard input
     Message from routine read_cards :
     DEPRECATED: no units specified in ATOMIC_POSITIONS card
     Message from routine read_cards :
     ATOMIC_POSITIONS: units set to alat

     Current dimensions of program PWSCF are:
     Max number of different atomic species (ntypx) = 10
     Max number of k-points (npk) =  40000
     Max angular momentum in pseudopotentials (lmaxx) =  3

     Subspace diagonalization in iterative solution of the eigenvalue problem:
     a serial algorithm will be used


     Parallelization info
     --------------------
     sticks:   dense  smooth     PW     G-vecs:    dense   smooth      PW
     Min         228     112     37                 4482     1575     309
     Max         229     114     38                 4484     1576     312
     Sum         913     451    151                17933     6303    1243



     bravais-lattice index     =            2
     lattice parameter (alat)  =      10.4400  a.u.
     unit-cell volume          =     284.4733 (a.u.)^3
     number of atoms/cell      =            2
     number of atomic types    =            1
     number of electrons       =         8.00
     number of Kohn-Sham states=            4
     kinetic-energy cutoff     =      30.0000  Ry
     charge density cutoff     =     240.0000  Ry
     convergence threshold     =      1.0E-08
     mixing beta               =       0.7000
     number of iterations used =            8  plain     mixing
     Exchange-correlation      = SLA  PW   PBE  PBE ( 1  4  3  4 0 0)

     celldm(1)=  10.440000  celldm(2)=   0.000000  celldm(3)=   0.000000
     celldm(4)=   0.000000  celldm(5)=   0.000000  celldm(6)=   0.000000

     crystal axes: (cart. coord. in units of alat)
               a(1) = (  -0.500000   0.000000   0.500000 )  
               a(2) = (   0.000000   0.500000   0.500000 )  
               a(3) = (  -0.500000   0.500000   0.000000 )  

     reciprocal axes: (cart. coord. in units 2 pi/alat)
               b(1) = ( -1.000000 -1.000000  1.000000 )  
               b(2) = (  1.000000  1.000000  1.000000 )  
               b(3) = ( -1.000000  1.000000 -1.000000 )  


     PseudoPot. # 1 for Si read from file:
     /home/max/quantum_espresso/qe-6.1/pseudo/si_pbe_v1.uspp.F.UPF.txt
     MD5 check sum: a056efeee980c13900f22a371efd63c1
     Pseudo is Ultrasoft + core correction, Zval =  4.0
     Generated by new atomic code, or converted to UPF format
     Using radial grid of  899 points,  6 beta functions with: 
                l(1) =   0
                l(2) =   0
                l(3) =   1
                l(4) =   1
                l(5) =   2
                l(6) =   2
     Q(r) pseudized with  8 coefficients,  rinner =    0.900   0.900   0.900
                                                       0.900   0.900

     atomic species   valence    mass     pseudopotential
        Si             4.00    28.08600     Si( 1.00)

     48 Sym. Ops., with inversion, found (24 have fractional translation)



   Cartesian axes

     site n.     atom                  positions (alat units)
         1           Si  tau(   1) = (   0.0000000   0.0000000   0.0000000  )
         2           Si  tau(   2) = (   0.2500000   0.2500000   0.2500000  )

     number of k points=    28
                       cart. coord. in units 2pi/alat
        k(    1) = (  -0.0833333   0.0833333   0.0833333), wk =   0.0185185
        k(    2) = (  -0.2500000   0.2500000  -0.0833333), wk =   0.0555556
        k(    3) = (  -0.4166667   0.4166667  -0.2500000), wk =   0.0555556
        k(    4) = (   0.4166667  -0.4166667   0.5833333), wk =   0.0555556
        k(    5) = (   0.2500000  -0.2500000   0.4166667), wk =   0.0555556
        k(    6) = (   0.0833333  -0.0833333   0.2500000), wk =   0.0555556
        k(    7) = (  -0.0833333   0.4166667   0.0833333), wk =   0.0555556
        k(    8) = (  -0.2500000   0.5833333  -0.0833333), wk =   0.1111111
        k(    9) = (   0.5833333  -0.2500000   0.7500000), wk =   0.1111111
        k(   10) = (   0.4166667  -0.0833333   0.5833333), wk =   0.1111111
        k(   11) = (   0.2500000   0.0833333   0.4166667), wk =   0.1111111
        k(   12) = (  -0.0833333   0.7500000   0.0833333), wk =   0.0555556
        k(   13) = (   0.7500000  -0.0833333   0.9166667), wk =   0.1111111
        k(   14) = (   0.5833333   0.0833333   0.7500000), wk =   0.1111111
        k(   15) = (   0.4166667   0.2500000   0.5833333), wk =   0.1111111
        k(   16) = (  -0.0833333  -0.9166667   0.0833333), wk =   0.0555556
        k(   17) = (  -0.2500000  -0.7500000  -0.0833333), wk =   0.1111111
        k(   18) = (  -0.0833333  -0.5833333   0.0833333), wk =   0.0555556
        k(   19) = (  -0.2500000   0.2500000   0.2500000), wk =   0.0185185
        k(   20) = (  -0.4166667   0.4166667   0.0833333), wk =   0.0555556
        k(   21) = (   0.4166667  -0.4166667   0.9166667), wk =   0.0555556
        k(   22) = (   0.2500000  -0.2500000   0.7500000), wk =   0.0555556
        k(   23) = (  -0.2500000   0.5833333   0.2500000), wk =   0.0555556
        k(   24) = (   0.5833333  -0.2500000   1.0833333), wk =   0.1111111
        k(   25) = (   0.4166667  -0.0833333   0.9166667), wk =   0.1111111
        k(   26) = (  -0.2500000  -1.0833333   0.2500000), wk =   0.0555556
        k(   27) = (  -0.4166667   0.4166667   0.4166667), wk =   0.0185185
        k(   28) = (   0.4166667  -0.4166667   1.2500000), wk =   0.0555556

     Dense  grid:    17933 G-vectors     FFT dimensions: (  40,  40,  40)

     Smooth grid:     6303 G-vectors     FFT dimensions: (  25,  25,  25)

     Estimated max dynamical RAM per process >       3.44MB

     Estimated total allocated dynamical RAM >      13.74MB

     Initial potential from superposition of free atoms

     starting charge    7.99866, renormalised to    8.00000
     Starting wfc are    8 randomized atomic wfcs

     total cpu time spent up to now is        0.5 secs

     per-process dynamical memory:     9.9 Mb

     Self-consistent Calculation

     iteration #  1     ecut=    30.00 Ry     beta=0.70
     Davidson diagonalization with overlap
     ethr =  1.00E-02,  avg # of iterations =  2.0

     Threshold (ethr) on eigenvalues was too large:
     Diagonalizing with lowered threshold

     Davidson diagonalization with overlap
     ethr =  6.43E-04,  avg # of iterations =  1.0

     total cpu time spent up to now is        1.0 secs

     total energy              =     -19.19068263 Ry
     Harris-Foulkes estimate   =     -19.20191014 Ry
     estimated scf accuracy    <       0.05099801 Ry

     iteration #  2     ecut=    30.00 Ry     beta=0.70
     Davidson diagonalization with overlap
     ethr =  6.37E-04,  avg # of iterations =  1.0

     total cpu time spent up to now is        1.2 secs

     total energy              =     -19.19224282 Ry
     Harris-Foulkes estimate   =     -19.19241185 Ry
     estimated scf accuracy    <       0.00245405 Ry

     iteration #  3     ecut=    30.00 Ry     beta=0.70
     Davidson diagonalization with overlap
     ethr =  3.07E-05,  avg # of iterations =  2.1

     total cpu time spent up to now is        1.4 secs

     total energy              =     -19.19255612 Ry
     Harris-Foulkes estimate   =     -19.19256626 Ry
     estimated scf accuracy    <       0.00003634 Ry

     iteration #  4     ecut=    30.00 Ry     beta=0.70
     Davidson diagonalization with overlap
     ethr =  4.54E-07,  avg # of iterations =  3.4

     total cpu time spent up to now is        1.7 secs

     total energy              =     -19.19259200 Ry
     Harris-Foulkes estimate   =     -19.19259240 Ry
     estimated scf accuracy    <       0.00000174 Ry

     iteration #  5     ecut=    30.00 Ry     beta=0.70
     Davidson diagonalization with overlap
     ethr =  2.17E-08,  avg # of iterations =  2.1

     total cpu time spent up to now is        2.3 secs

     End of self-consistent calculation

          k =-0.0833 0.0833 0.0833 (   791 PWs)   bands (ev):

    -5.8575   4.8061   5.5319   5.5319

          k =-0.2500 0.2500-0.0833 (   801 PWs)   bands (ev):

    -5.4006   2.7648   4.3507   5.3240

          k =-0.4167 0.4167-0.2500 (   790 PWs)   bands (ev):

    -4.3590   0.1114   3.8897   4.7120

          k = 0.4167-0.4167 0.5833 (   789 PWs)   bands (ev):

    -3.7034  -0.9742   3.9451   4.3496

          k = 0.2500-0.2500 0.4167 (   794 PWs)   bands (ev):

    -4.7503   0.9225   4.4133   4.4243

          k = 0.0833-0.0833 0.2500 (   795 PWs)   bands (ev):

    -5.6267   3.7429   4.9187   5.0794

          k =-0.0833 0.4167 0.0833 (   801 PWs)   bands (ev):

    -5.1692   2.5481   4.1926   4.2199

          k =-0.2500 0.5833-0.0833 (   792 PWs)   bands (ev):

    -4.2984   0.7670   2.9402   3.8458

          k = 0.5833-0.2500 0.7500 (   792 PWs)   bands (ev):

    -3.2440  -0.8884   2.3496   3.6327

          k = 0.4167-0.0833 0.5833 (   786 PWs)   bands (ev):

    -3.9242   0.1092   2.3262   4.0925

          k = 0.2500 0.0833 0.4167 (   795 PWs)   bands (ev):

    -4.9538   1.7585   3.6056   4.7232

          k =-0.0833 0.7500 0.0833 (   787 PWs)   bands (ev):

    -3.6149  -0.0550   2.9127   3.2306

          k = 0.7500-0.0833 0.9167 (   782 PWs)   bands (ev):

    -2.4750  -1.3452   2.1199   2.8498

          k = 0.5833 0.0833 0.7500 (   790 PWs)   bands (ev):

    -2.8409  -1.0020   1.6552   3.3695

          k = 0.4167 0.2500 0.5833 (   793 PWs)   bands (ev):

    -3.8223  -0.5119   3.2016   4.1834

          k =-0.0833-0.9167 0.0833 (   777 PWs)   bands (ev):

    -2.5573  -1.3505   2.6555   3.0231

          k =-0.2500-0.7500-0.0833 (   785 PWs)   bands (ev):

    -3.4567  -0.2653   2.4181   3.1760

          k =-0.0833-0.5833 0.0833 (   799 PWs)   bands (ev):

    -4.4936   1.2682   3.4294   3.6370

          k =-0.2500 0.2500 0.2500 (   797 PWs)   bands (ev):

    -5.1812   1.8314   4.9413   4.9413

          k =-0.4167 0.4167 0.0833 (   794 PWs)   bands (ev):

    -4.5319   0.9005   2.9045   4.7751

          k = 0.4167-0.4167 0.9167 (   787 PWs)   bands (ev):

    -3.4109  -0.5030   1.8540   4.0266

          k = 0.2500-0.2500 0.7500 (   788 PWs)   bands (ev):

    -3.3586  -0.5804   2.3031   3.5677

          k =-0.2500 0.5833 0.2500 (   795 PWs)   bands (ev):

    -4.1278   0.1312   3.3264   3.9252

          k = 0.5833-0.2500 1.0833 (   785 PWs)   bands (ev):

    -3.1728  -0.6298   1.9525   3.1786

          k = 0.4167-0.0833 0.9167 (   776 PWs)   bands (ev):

    -2.3804  -1.3528   1.8089   2.5467

          k =-0.2500-1.0833 0.2500 (   784 PWs)   bands (ev):

    -2.5834  -1.2499   1.6880   3.3810

          k =-0.4167 0.4167 0.4167 (   790 PWs)   bands (ev):

    -4.0498  -0.5921   4.5632   4.5632

          k = 0.4167-0.4167 1.2500 (   788 PWs)   bands (ev):

    -3.4767  -0.8969   2.7969   4.1466

     highest occupied level (ev):     5.5319

!    total energy              =     -19.19259229 Ry
     Harris-Foulkes estimate   =     -19.19259228 Ry
     estimated scf accuracy    <          5.9E-09 Ry

     The total energy is the sum of the following terms:

     one-electron contribution =       4.71842297 Ry
     hartree contribution      =       1.16116126 Ry
     xc contribution           =      -8.56091814 Ry
     ewald contribution        =     -16.51125838 Ry

     convergence has been achieved in   5 iterations

     Writing output data file silicon.10.44.save

     init_run     :      0.37s CPU      0.40s WALL (       1 calls)
     electrons    :      1.39s CPU      1.77s WALL (       1 calls)

     Called by init_run:
     wfcinit      :      0.08s CPU      0.09s WALL (       1 calls)
     potinit      :      0.03s CPU      0.03s WALL (       1 calls)

     Called by electrons:
     c_bands      :      0.85s CPU      1.16s WALL (       6 calls)
     sum_band     :      0.30s CPU      0.35s WALL (       6 calls)
     v_of_rho     :      0.12s CPU      0.12s WALL (       6 calls)
     newd         :      0.14s CPU      0.16s WALL (       6 calls)
     mix_rho      :      0.01s CPU      0.01s WALL (       6 calls)

     Called by c_bands:
     init_us_2    :      0.05s CPU      0.06s WALL (     364 calls)
     cegterg      :      0.73s CPU      1.00s WALL (     168 calls)

     Called by sum_band:
     sum_band:bec :      0.00s CPU      0.00s WALL (     168 calls)
     addusdens    :      0.15s CPU      0.16s WALL (       6 calls)

     Called by *egterg:
     h_psi        :      0.63s CPU      0.85s WALL (     525 calls)
     s_psi        :      0.04s CPU      0.05s WALL (     525 calls)
     g_psi        :      0.00s CPU      0.00s WALL (     329 calls)
     cdiaghg      :      0.04s CPU      0.06s WALL (     469 calls)

     Called by h_psi:
     h_psi:pot    :      0.63s CPU      0.85s WALL (     525 calls)
     h_psi:calbec :      0.08s CPU      0.10s WALL (     525 calls)
     vloc_psi     :      0.50s CPU      0.69s WALL (     525 calls)
     add_vuspsi   :      0.04s CPU      0.05s WALL (     525 calls)

     General routines
     calbec       :      0.10s CPU      0.13s WALL (     693 calls)
     fft          :      0.10s CPU      0.11s WALL (      96 calls)
     ffts         :      0.00s CPU      0.00s WALL (      12 calls)
     fftw         :      0.50s CPU      0.70s WALL (    4630 calls)
     interpolate  :      0.01s CPU      0.01s WALL (      12 calls)
     davcio       :      0.00s CPU      0.00s WALL (      28 calls)

     Parallel routines
     fft_scatter  :      0.31s CPU      0.48s WALL (    4738 calls)

     PWSCF        :     1.98s CPU         2.40s WALL


   This run was terminated on:  10:15:16  10Nov2017            

=------------------------------------------------------------------------------=
   JOB DONE.
=------------------------------------------------------------------------------=
