
     Program PWSCF v.6.1 (svn rev. 13369) starts on 10Nov2017 at 12: 7:56 

     This program is part of the open-source Quantum ESPRESSO suite
     for quantum simulation of materials; please cite
         "P. Giannozzi et al., J. Phys.:Condens. Matter 21 395502 (2009);
          URL http://www.quantum-espresso.org", 
     in publications or presentations arising from this work. More details at
     http://www.quantum-espresso.org/quote

     Parallel version (MPI), running on     4 processors
     R & G space division:  proc/nbgrp/npool/nimage =       4
     Waiting for input...
     Reading input from standard input
     Message from routine read_cards :
     DEPRECATED: no units specified in ATOMIC_POSITIONS card
     Message from routine read_cards :
     ATOMIC_POSITIONS: units set to alat

     Current dimensions of program PWSCF are:
     Max number of different atomic species (ntypx) = 10
     Max number of k-points (npk) =  40000
     Max angular momentum in pseudopotentials (lmaxx) =  3

     Subspace diagonalization in iterative solution of the eigenvalue problem:
     a serial algorithm will be used


     Parallelization info
     --------------------
     sticks:   dense  smooth     PW     G-vecs:    dense   smooth      PW
     Min         124      63     21                 1846      659     133
     Max         125      64     22                 1849      660     136
     Sum         499     253     85                 7391     2637     537



     bravais-lattice index     =            2
     lattice parameter (alat)  =      10.3330  a.u.
     unit-cell volume          =     275.8159 (a.u.)^3
     number of atoms/cell      =            2
     number of atomic types    =            1
     number of electrons       =         8.00
     number of Kohn-Sham states=            4
     kinetic-energy cutoff     =      17.0000  Ry
     charge density cutoff     =     136.0000  Ry
     convergence threshold     =      1.0E-08
     mixing beta               =       0.7000
     number of iterations used =            8  plain     mixing
     Exchange-correlation      = SLA  PW   PBE  PBE ( 1  4  3  4 0 0)

     celldm(1)=  10.333000  celldm(2)=   0.000000  celldm(3)=   0.000000
     celldm(4)=   0.000000  celldm(5)=   0.000000  celldm(6)=   0.000000

     crystal axes: (cart. coord. in units of alat)
               a(1) = (  -0.500000   0.000000   0.500000 )  
               a(2) = (   0.000000   0.500000   0.500000 )  
               a(3) = (  -0.500000   0.500000   0.000000 )  

     reciprocal axes: (cart. coord. in units 2 pi/alat)
               b(1) = ( -1.000000 -1.000000  1.000000 )  
               b(2) = (  1.000000  1.000000  1.000000 )  
               b(3) = ( -1.000000  1.000000 -1.000000 )  


     PseudoPot. # 1 for Si read from file:
     /home/max/quantum_espresso/qe-6.1/pseudo/si_pbe_v1.uspp.F.UPF.txt
     MD5 check sum: a056efeee980c13900f22a371efd63c1
     Pseudo is Ultrasoft + core correction, Zval =  4.0
     Generated by new atomic code, or converted to UPF format
     Using radial grid of  899 points,  6 beta functions with: 
                l(1) =   0
                l(2) =   0
                l(3) =   1
                l(4) =   1
                l(5) =   2
                l(6) =   2
     Q(r) pseudized with  8 coefficients,  rinner =    0.900   0.900   0.900
                                                       0.900   0.900

     atomic species   valence    mass     pseudopotential
        Si             4.00    28.08600     Si( 1.00)

     24 Sym. Ops. (no inversion) found
          (note: 24 additional sym.ops. were found but ignored
           their fractional translations are incommensurate with FFT grid)


   Cartesian axes

     site n.     atom                  positions (alat units)
         1           Si  tau(   1) = (   0.0000000   0.0000000   0.0000000  )
         2           Si  tau(   2) = (   0.2500000   0.2500000   0.2500000  )

     number of k points=    28
                       cart. coord. in units 2pi/alat
        k(    1) = (  -0.0833333   0.0833333   0.0833333), wk =   0.0185185
        k(    2) = (  -0.2500000   0.2500000  -0.0833333), wk =   0.0555556
        k(    3) = (  -0.4166667   0.4166667  -0.2500000), wk =   0.0555556
        k(    4) = (   0.4166667  -0.4166667   0.5833333), wk =   0.0555556
        k(    5) = (   0.2500000  -0.2500000   0.4166667), wk =   0.0555556
        k(    6) = (   0.0833333  -0.0833333   0.2500000), wk =   0.0555556
        k(    7) = (  -0.0833333   0.4166667   0.0833333), wk =   0.0555556
        k(    8) = (  -0.2500000   0.5833333  -0.0833333), wk =   0.1111111
        k(    9) = (   0.5833333  -0.2500000   0.7500000), wk =   0.1111111
        k(   10) = (   0.4166667  -0.0833333   0.5833333), wk =   0.1111111
        k(   11) = (   0.2500000   0.0833333   0.4166667), wk =   0.1111111
        k(   12) = (  -0.0833333   0.7500000   0.0833333), wk =   0.0555556
        k(   13) = (   0.7500000  -0.0833333   0.9166667), wk =   0.1111111
        k(   14) = (   0.5833333   0.0833333   0.7500000), wk =   0.1111111
        k(   15) = (   0.4166667   0.2500000   0.5833333), wk =   0.1111111
        k(   16) = (  -0.0833333  -0.9166667   0.0833333), wk =   0.0555556
        k(   17) = (  -0.2500000  -0.7500000  -0.0833333), wk =   0.1111111
        k(   18) = (  -0.0833333  -0.5833333   0.0833333), wk =   0.0555556
        k(   19) = (  -0.2500000   0.2500000   0.2500000), wk =   0.0185185
        k(   20) = (  -0.4166667   0.4166667   0.0833333), wk =   0.0555556
        k(   21) = (   0.4166667  -0.4166667   0.9166667), wk =   0.0555556
        k(   22) = (   0.2500000  -0.2500000   0.7500000), wk =   0.0555556
        k(   23) = (  -0.2500000   0.5833333   0.2500000), wk =   0.0555556
        k(   24) = (   0.5833333  -0.2500000   1.0833333), wk =   0.1111111
        k(   25) = (   0.4166667  -0.0833333   0.9166667), wk =   0.1111111
        k(   26) = (  -0.2500000  -1.0833333   0.2500000), wk =   0.0555556
        k(   27) = (  -0.4166667   0.4166667   0.4166667), wk =   0.0185185
        k(   28) = (   0.4166667  -0.4166667   1.2500000), wk =   0.0555556

     Dense  grid:     7391 G-vectors     FFT dimensions: (  27,  27,  27)

     Smooth grid:     2637 G-vectors     FFT dimensions: (  20,  20,  20)

     Estimated max dynamical RAM per process >       1.32MB

     Estimated total allocated dynamical RAM >       5.28MB

     Initial potential from superposition of free atoms

     starting charge    7.99866, renormalised to    8.00000
     Starting wfc are    8 randomized atomic wfcs

     total cpu time spent up to now is        0.5 secs

     per-process dynamical memory:     8.2 Mb

     Self-consistent Calculation

     iteration #  1     ecut=    17.00 Ry     beta=0.70
     Davidson diagonalization with overlap
     ethr =  1.00E-02,  avg # of iterations =  2.0

     Threshold (ethr) on eigenvalues was too large:
     Diagonalizing with lowered threshold

     Davidson diagonalization with overlap
     ethr =  6.75E-04,  avg # of iterations =  1.0

     total cpu time spent up to now is        0.7 secs

     total energy              =     -19.18823670 Ry
     Harris-Foulkes estimate   =     -19.20061579 Ry
     estimated scf accuracy    <       0.05373041 Ry

     iteration #  2     ecut=    17.00 Ry     beta=0.70
     Davidson diagonalization with overlap
     ethr =  6.72E-04,  avg # of iterations =  1.0

     total cpu time spent up to now is        0.7 secs

     total energy              =     -19.18995627 Ry
     Harris-Foulkes estimate   =     -19.19012699 Ry
     estimated scf accuracy    <       0.00245620 Ry

     iteration #  3     ecut=    17.00 Ry     beta=0.70
     Davidson diagonalization with overlap
     ethr =  3.07E-05,  avg # of iterations =  2.0

     total cpu time spent up to now is        0.8 secs

     total energy              =     -19.19023339 Ry
     Harris-Foulkes estimate   =     -19.19024610 Ry
     estimated scf accuracy    <       0.00004061 Ry

     iteration #  4     ecut=    17.00 Ry     beta=0.70
     Davidson diagonalization with overlap
     ethr =  5.08E-07,  avg # of iterations =  2.7

     total cpu time spent up to now is        0.9 secs

     total energy              =     -19.19025462 Ry
     Harris-Foulkes estimate   =     -19.19025505 Ry
     estimated scf accuracy    <       0.00000202 Ry

     iteration #  5     ecut=    17.00 Ry     beta=0.70
     Davidson diagonalization with overlap
     ethr =  2.53E-08,  avg # of iterations =  2.1

     total cpu time spent up to now is        1.0 secs

     total energy              =     -19.19025500 Ry
     Harris-Foulkes estimate   =     -19.19025500 Ry
     estimated scf accuracy    <       0.00000004 Ry

     iteration #  6     ecut=    17.00 Ry     beta=0.70
     Davidson diagonalization with overlap
     ethr =  4.74E-10,  avg # of iterations =  2.7

     total cpu time spent up to now is        1.1 secs

     End of self-consistent calculation

          k =-0.0833 0.0833 0.0833 (   331 PWs)   bands (ev):

    -5.7461   5.1246   5.8413   5.8413

          k =-0.2500 0.2500-0.0833 (   322 PWs)   bands (ev):

    -5.2762   3.0603   4.6246   5.6325

          k =-0.4167 0.4167-0.2500 (   327 PWs)   bands (ev):

    -4.2010   0.3336   4.1619   5.0036

          k = 0.4167-0.4167 0.5833 (   329 PWs)   bands (ev):

    -3.5168  -0.7908   4.2248   4.6283

          k = 0.2500-0.2500 0.4167 (   327 PWs)   bands (ev):

    -4.6061   1.1679   4.6896   4.7179

          k = 0.0833-0.0833 0.2500 (   325 PWs)   bands (ev):

    -5.5089   4.0600   5.2059   5.3855

          k =-0.0833 0.4167 0.0833 (   322 PWs)   bands (ev):

    -5.0385   2.8647   4.4685   4.4864

          k =-0.2500 0.5833-0.0833 (   324 PWs)   bands (ev):

    -4.1412   1.0437   3.1724   4.1041

          k = 0.5833-0.2500 0.7500 (   327 PWs)   bands (ev):

    -3.0459  -0.6752   2.5754   3.8814

          k = 0.4167-0.0833 0.5833 (   326 PWs)   bands (ev):

    -3.7540   0.3625   2.5394   4.3595

          k = 0.2500 0.0833 0.4167 (   326 PWs)   bands (ev):

    -4.8163   2.0416   3.8586   5.0153

          k =-0.0833 0.7500 0.0833 (   325 PWs)   bands (ev):

    -3.4400   0.2187   3.1385   3.4706

          k = 0.7500-0.0833 0.9167 (   327 PWs)   bands (ev):

    -2.2632  -1.1040   2.3134   3.0729

          k = 0.5833 0.0833 0.7500 (   328 PWs)   bands (ev):

    -2.6320  -0.7663   1.8371   3.6097

          k = 0.4167 0.2500 0.5833 (   329 PWs)   bands (ev):

    -3.6453  -0.3020   3.4595   4.4548

          k =-0.0833-0.9167 0.0833 (   328 PWs)   bands (ev):

    -2.3528  -1.1106   2.8731   3.2580

          k =-0.2500-0.7500-0.0833 (   330 PWs)   bands (ev):

    -3.2749  -0.0005   2.6274   3.4083

          k =-0.0833-0.5833 0.0833 (   321 PWs)   bands (ev):

    -4.3432   1.5713   3.6743   3.8879

          k =-0.2500 0.2500 0.2500 (   323 PWs)   bands (ev):

    -5.0503   2.0964   5.2355   5.2355

          k =-0.4167 0.4167 0.0833 (   325 PWs)   bands (ev):

    -4.3813   1.1642   3.1368   5.0674

          k = 0.4167-0.4167 0.9167 (   330 PWs)   bands (ev):

    -3.2222  -0.2639   2.0486   4.2930

          k = 0.2500-0.2500 0.7500 (   327 PWs)   bands (ev):

    -3.1692  -0.3425   2.5174   3.8187

          k =-0.2500 0.5833 0.2500 (   325 PWs)   bands (ev):

    -3.9638   0.3689   3.5883   4.1866

          k = 0.5833-0.2500 1.0833 (   329 PWs)   bands (ev):

    -2.9783  -0.3809   2.1482   3.4082

          k = 0.4167-0.0833 0.9167 (   328 PWs)   bands (ev):

    -2.1611  -1.1113   1.9904   2.7527

          k =-0.2500-1.0833 0.2500 (   329 PWs)   bands (ev):

    -2.3686  -1.0149   1.8657   3.6271

          k =-0.4167 0.4167 0.4167 (   329 PWs)   bands (ev):

    -3.8788  -0.3971   4.8502   4.8502

          k = 0.4167-0.4167 1.2500 (   327 PWs)   bands (ev):

    -3.2839  -0.6989   3.0412   4.4175

     highest occupied level (ev):     5.8413

!    total energy              =     -19.19025501 Ry
     Harris-Foulkes estimate   =     -19.19025502 Ry
     estimated scf accuracy    <          5.6E-09 Ry

     The total energy is the sum of the following terms:

     one-electron contribution =       4.95451625 Ry
     hartree contribution      =       1.13280872 Ry
     xc contribution           =      -8.59534464 Ry
     ewald contribution        =     -16.68223535 Ry

     convergence has been achieved in   6 iterations


     Computing stress (Cartesian axis) and pressure

          total   stress  (Ry/bohr**3)                   (kbar)     P=   -8.45
  -0.00005744  -0.00000000  -0.00000000         -8.45     -0.00     -0.00
  -0.00000000  -0.00005744   0.00000000         -0.00     -8.45      0.00
  -0.00000000   0.00000000  -0.00005744         -0.00      0.00     -8.45


     Writing output data file silicon.17.save

     init_run     :      0.29s CPU      0.38s WALL (       1 calls)
     electrons    :      0.56s CPU      0.61s WALL (       1 calls)
     stress       :      0.13s CPU      0.18s WALL (       1 calls)

     Called by init_run:
     wfcinit      :      0.03s CPU      0.03s WALL (       1 calls)
     potinit      :      0.01s CPU      0.01s WALL (       1 calls)

     Called by electrons:
     c_bands      :      0.33s CPU      0.36s WALL (       7 calls)
     sum_band     :      0.13s CPU      0.14s WALL (       7 calls)
     v_of_rho     :      0.04s CPU      0.04s WALL (       7 calls)
     newd         :      0.07s CPU      0.07s WALL (       7 calls)
     mix_rho      :      0.00s CPU      0.00s WALL (       7 calls)

     Called by c_bands:
     init_us_2    :      0.03s CPU      0.03s WALL (     448 calls)
     cegterg      :      0.27s CPU      0.30s WALL (     196 calls)

     Called by sum_band:
     sum_band:bec :      0.00s CPU      0.00s WALL (     196 calls)
     addusdens    :      0.07s CPU      0.07s WALL (       7 calls)

     Called by *egterg:
     h_psi        :      0.20s CPU      0.22s WALL (     603 calls)
     s_psi        :      0.03s CPU      0.03s WALL (     603 calls)
     g_psi        :      0.00s CPU      0.00s WALL (     379 calls)
     cdiaghg      :      0.03s CPU      0.04s WALL (     547 calls)

     Called by h_psi:
     h_psi:pot    :      0.20s CPU      0.22s WALL (     603 calls)
     h_psi:calbec :      0.03s CPU      0.03s WALL (     603 calls)
     vloc_psi     :      0.14s CPU      0.16s WALL (     603 calls)
     add_vuspsi   :      0.03s CPU      0.03s WALL (     603 calls)

     General routines
     calbec       :      0.04s CPU      0.04s WALL (     827 calls)
     fft          :      0.03s CPU      0.03s WALL (     126 calls)
     ffts         :      0.00s CPU      0.00s WALL (      14 calls)
     fftw         :      0.13s CPU      0.15s WALL (    5430 calls)
     interpolate  :      0.00s CPU      0.00s WALL (      14 calls)
     davcio       :      0.00s CPU      0.00s WALL (      28 calls)

     Parallel routines
     fft_scatter  :      0.06s CPU      0.06s WALL (    5570 calls)

     PWSCF        :     1.17s CPU         1.41s WALL


   This run was terminated on:  12: 7:57  10Nov2017            

=------------------------------------------------------------------------------=
   JOB DONE.
=------------------------------------------------------------------------------=
