
     Program PHONON v.6.1 (svn rev. 13369) starts on  9Nov2017 at 12:43:56 

     This program is part of the open-source Quantum ESPRESSO suite
     for quantum simulation of materials; please cite
         "P. Giannozzi et al., J. Phys.:Condens. Matter 21 395502 (2009);
          URL http://www.quantum-espresso.org", 
     in publications or presentations arising from this work. More details at
     http://www.quantum-espresso.org/quote

     Parallel version (MPI), running on     4 processors
     R & G space division:  proc/nbgrp/npool/nimage =       4

     Reading data from directory:
     ./silicon.10.344.save

   Info: using nr1, nr2, nr3 values from input

   Info: using nr1, nr2, nr3 values from input

     IMPORTANT: XC functional enforced from input :
     Exchange-correlation      = SLA  PW   PBE  PBE ( 1  4  3  4 0 0)
     Any further DFT definition will be discarded
     Please, verify this is what you really want


     Parallelization info
     --------------------
     sticks:   dense  smooth     PW     G-vecs:    dense   smooth      PW
     Min          64      64     22                  709      709     140
     Max          67      67     23                  710      710     141
     Sum         265     265     91                 2837     2837     561


     Check: negative/imaginary core charge=   -0.000006    0.000000


     Dynamical matrices for ( 4, 4, 4)  uniform grid of q-points
     (   8q-points):
       N         xq(1)         xq(2)         xq(3) 
       1   0.000000000   0.000000000   0.000000000
       2  -0.250000000   0.250000000  -0.250000000
       3   0.500000000  -0.500000000   0.500000000
       4   0.000000000   0.500000000   0.000000000
       5   0.750000000  -0.250000000   0.750000000
       6   0.500000000   0.000000000   0.500000000
       7   0.000000000  -1.000000000   0.000000000
       8  -0.500000000  -1.000000000   0.000000000

     Calculation of q =    0.0000000   0.0000000   0.0000000

                                                                                

     bravais-lattice index     =            2
     lattice parameter (alat)  =      10.3440  a.u.
     unit-cell volume          =     276.6977 (a.u.)^3
     number of atoms/cell      =            2
     number of atomic types    =            1
     kinetic-energy cut-off    =      18.0000  Ry
     charge density cut-off    =      72.0000  Ry
     convergence threshold     =      1.0E-12
     beta                      =       0.7000
     number of iterations used =            4
     Exchange-correlation      = SLA  PW   PBE  PBE ( 1  4  3  4 0 0)


     celldm(1)=   10.34400  celldm(2)=    0.00000  celldm(3)=    0.00000
     celldm(4)=    0.00000  celldm(5)=    0.00000  celldm(6)=    0.00000

     crystal axes: (cart. coord. in units of alat)
               a(1) = ( -0.5000  0.0000  0.5000 )  
               a(2) = (  0.0000  0.5000  0.5000 )  
               a(3) = ( -0.5000  0.5000  0.0000 )  

     reciprocal axes: (cart. coord. in units 2 pi/alat)
               b(1) = ( -1.0000 -1.0000  1.0000 )  
               b(2) = (  1.0000  1.0000  1.0000 )  
               b(3) = ( -1.0000  1.0000 -1.0000 )  


     Atoms inside the unit cell: 

     Cartesian axes

     site n.  atom      mass           positions (alat units)
        1     Si  28.0860   tau(    1) = (    0.00000    0.00000    0.00000  )
        2     Si  28.0860   tau(    2) = (    0.25000    0.25000    0.25000  )

     Computing dynamical matrix for 
                    q = (   0.0000000   0.0000000   0.0000000 )

     49 Sym.Ops. (with q -> -q+G )


     G cutoff =  195.1416  (    710 G-vectors)     FFT grid: ( 20, 20, 20)
     number of k points=    10

     PseudoPot. # 1 for Si read from file:
     /home/max/quantum_espresso/qe-6.1/pseudo/si_pbe_v1.uspp.F.UPF.txt
     MD5 check sum: a056efeee980c13900f22a371efd63c1
     Pseudo is Ultrasoft + core correction, Zval =  4.0
     Generated by new atomic code, or converted to UPF format
     Using radial grid of  899 points,  6 beta functions with: 
                l(1) =   0
                l(2) =   0
                l(3) =   1
                l(4) =   1
                l(5) =   2
                l(6) =   2
     Q(r) pseudized with  8 coefficients,  rinner =    0.900   0.900   0.900
                                                       0.900   0.900

     Mode symmetry, O_h (m-3m)  point group:


     Electric field:
     Dielectric constant
     Born effective charges in two ways 


     Atomic displacements:
     There are   2 irreducible representations

     Representation     1      3 modes -T_2g G_25' G_5+  To be done

     Representation     2      3 modes -T_1u G_15  G_4-  To be done



     Alpha used in Ewald sum =   0.7000
     PHONON       :     0.42s CPU         0.43s WALL


     Electric Fields Calculation

      iter #   1 total cpu time :     1.0 secs   av.it.:   5.6
      thresh= 1.000E-02 alpha_mix =  0.700 |ddv_scf|^2 =  9.354E-07

      iter #   2 total cpu time :     1.2 secs   av.it.:   9.9
      thresh= 9.672E-05 alpha_mix =  0.700 |ddv_scf|^2 =  5.961E-08

      iter #   3 total cpu time :     1.4 secs   av.it.:   9.8
      thresh= 2.442E-05 alpha_mix =  0.700 |ddv_scf|^2 =  4.689E-09

      iter #   4 total cpu time :     1.6 secs   av.it.:   8.9
      thresh= 6.847E-06 alpha_mix =  0.700 |ddv_scf|^2 =  2.816E-11

      iter #   5 total cpu time :     1.8 secs   av.it.:   9.1
      thresh= 5.306E-07 alpha_mix =  0.700 |ddv_scf|^2 =  1.460E-14

     End of electric fields calculation

          Dielectric constant in cartesian axis 

          (      13.890464286       0.000000000       0.000000000 )
          (       0.000000000      13.890464286      -0.000000000 )
          (       0.000000000      -0.000000000      13.890464286 )

          Effective charges (d Force / dE) in cartesian axis

           atom      1   Si 
      Ex  (       -0.03556        0.00000        0.00000 )
      Ey  (        0.00000       -0.03556        0.00000 )
      Ez  (       -0.00000        0.00000       -0.03556 )
           atom      2   Si 
      Ex  (       -0.03556       -0.00000       -0.00000 )
      Ey  (       -0.00000       -0.03556        0.00000 )
      Ez  (       -0.00000        0.00000       -0.03556 )


     Representation #  1 modes #   1  2  3

     Self-consistent Calculation

      iter #   1 total cpu time :     2.2 secs   av.it.:   4.9
      thresh= 1.000E-02 alpha_mix =  0.700 |ddv_scf|^2 =  2.235E-07

      iter #   2 total cpu time :     2.4 secs   av.it.:   9.9
      thresh= 4.727E-05 alpha_mix =  0.700 |ddv_scf|^2 =  1.384E-08

      iter #   3 total cpu time :     2.8 secs   av.it.:   9.2
      thresh= 1.176E-05 alpha_mix =  0.700 |ddv_scf|^2 =  8.590E-10

      iter #   4 total cpu time :     3.1 secs   av.it.:   9.0
      thresh= 2.931E-06 alpha_mix =  0.700 |ddv_scf|^2 =  1.899E-12

      iter #   5 total cpu time :     3.3 secs   av.it.:   9.5
      thresh= 1.378E-07 alpha_mix =  0.700 |ddv_scf|^2 =  1.338E-14

     End of self-consistent calculation

     Convergence has been achieved 


     Representation #  2 modes #   4  5  6

     Self-consistent Calculation

      iter #   1 total cpu time :     3.5 secs   av.it.:   5.0
      thresh= 1.000E-02 alpha_mix =  0.700 |ddv_scf|^2 =  1.851E-07

      iter #   2 total cpu time :     3.7 secs   av.it.:   9.6
      thresh= 4.302E-05 alpha_mix =  0.700 |ddv_scf|^2 =  1.501E-08

      iter #   3 total cpu time :     3.9 secs   av.it.:   9.3
      thresh= 1.225E-05 alpha_mix =  0.700 |ddv_scf|^2 =  9.130E-10

      iter #   4 total cpu time :     4.2 secs   av.it.:   9.5
      thresh= 3.022E-06 alpha_mix =  0.700 |ddv_scf|^2 =  5.325E-12

      iter #   5 total cpu time :     4.4 secs   av.it.:   9.0
      thresh= 2.308E-07 alpha_mix =  0.700 |ddv_scf|^2 =  4.670E-15

     End of self-consistent calculation

     Convergence has been achieved 

     Number of q in the star =    1
     List of q in the star:
          1   0.000000000   0.000000000   0.000000000

          Dielectric constant in cartesian axis 

          (      13.890464286       0.000000000       0.000000000 )
          (       0.000000000      13.890464286      -0.000000000 )
          (       0.000000000      -0.000000000      13.890464286 )

          Effective charges (d Force / dE) in cartesian axis

           atom      1   Si 
      Ex  (       -0.03556        0.00000        0.00000 )
      Ey  (        0.00000       -0.03556        0.00000 )
      Ez  (       -0.00000        0.00000       -0.03556 )
           atom      2   Si 
      Ex  (       -0.03556       -0.00000       -0.00000 )
      Ey  (       -0.00000       -0.03556        0.00000 )
      Ez  (       -0.00000        0.00000       -0.03556 )

          Effective charges (d P / du) in cartesian axis 

           atom      1   Si 
      Px  (       -0.07512        0.00000       -0.00000 )
      Py  (        0.00000       -0.07512        0.00000 )
      Pz  (       -0.00000        0.00000       -0.07512 )
           atom      2   Si 
      Px  (       -0.07512        0.00000        0.00000 )
      Py  (        0.00000       -0.07512        0.00000 )
      Pz  (        0.00000        0.00000       -0.07512 )

     Diagonalizing the dynamical matrix

     q = (    0.000000000   0.000000000   0.000000000 ) 

 **************************************************************************
     freq (    1) =       1.893909 [THz] =      63.174005 [cm-1]
     freq (    2) =       1.893909 [THz] =      63.174005 [cm-1]
     freq (    3) =       1.893909 [THz] =      63.174005 [cm-1]
     freq (    4) =      15.342500 [THz] =     511.770711 [cm-1]
     freq (    5) =      15.342500 [THz] =     511.770711 [cm-1]
     freq (    6) =      15.342500 [THz] =     511.770711 [cm-1]
 **************************************************************************

     Mode symmetry, O_h (m-3m)  point group:

     freq (  1 -  3) =         63.2  [cm-1]   --> T_1u G_15  G_4- I  
     freq (  4 -  6) =        511.8  [cm-1]   --> T_2g G_25' G_5+ R  

     Calculation of q =   -0.2500000   0.2500000  -0.2500000

   Info: using nr1, nr2, nr3 values from input

   Info: using nr1, nr2, nr3 values from input

     Parallelization info
     --------------------
     sticks:   dense  smooth     PW     G-vecs:    dense   smooth      PW
     Min          64      64     24                  709      709     161
     Max          67      67     25                  710      710     162
     Sum         265     265     97                 2837     2837     645



     bravais-lattice index     =            2
     lattice parameter (alat)  =      10.3440  a.u.
     unit-cell volume          =     276.6977 (a.u.)^3
     number of atoms/cell      =            2
     number of atomic types    =            1
     number of electrons       =         8.00
     number of Kohn-Sham states=            4
     kinetic-energy cutoff     =      18.0000  Ry
     charge density cutoff     =      72.0000  Ry
     Exchange-correlation      = SLA  PW   PBE  PBE ( 1  4  3  4 0 0)

     celldm(1)=  10.344000  celldm(2)=   0.000000  celldm(3)=   0.000000
     celldm(4)=   0.000000  celldm(5)=   0.000000  celldm(6)=   0.000000

     crystal axes: (cart. coord. in units of alat)
               a(1) = (  -0.500000   0.000000   0.500000 )  
               a(2) = (   0.000000   0.500000   0.500000 )  
               a(3) = (  -0.500000   0.500000   0.000000 )  

     reciprocal axes: (cart. coord. in units 2 pi/alat)
               b(1) = ( -1.000000 -1.000000  1.000000 )  
               b(2) = (  1.000000  1.000000  1.000000 )  
               b(3) = ( -1.000000  1.000000 -1.000000 )  


     PseudoPot. # 1 for Si read from file:
     /home/max/quantum_espresso/qe-6.1/pseudo/si_pbe_v1.uspp.F.UPF.txt
     MD5 check sum: a056efeee980c13900f22a371efd63c1
     Pseudo is Ultrasoft + core correction, Zval =  4.0
     Generated by new atomic code, or converted to UPF format
     Using radial grid of  899 points,  6 beta functions with: 
                l(1) =   0
                l(2) =   0
                l(3) =   1
                l(4) =   1
                l(5) =   2
                l(6) =   2
     Q(r) pseudized with  8 coefficients,  rinner =    0.900   0.900   0.900
                                                       0.900   0.900

     atomic species   valence    mass     pseudopotential
        Si             4.00    28.08600     Si( 1.00)

     48 Sym. Ops., with inversion, found



   Cartesian axes

     site n.     atom                  positions (alat units)
         1           Si  tau(   1) = (   0.0000000   0.0000000   0.0000000  )
         2           Si  tau(   2) = (   0.2500000   0.2500000   0.2500000  )

     number of k points=   120

     Number of k-points >= 100: set verbosity='high' to print them.

     Dense  grid:     2837 G-vectors     FFT dimensions: (  20,  20,  20)

     Estimated max dynamical RAM per process >       0.33MB

     Estimated total allocated dynamical RAM >       1.32MB

     Check: negative/imaginary core charge=   -0.000006    0.000000

     The potential is recalculated from file :
     ./_ph0/silicon.10.344.save/charge-density.dat

     Starting wfc are    8 atomic wfcs

     Band Structure Calculation
     Davidson diagonalization with overlap

     ethr =  1.25E-10,  avg # of iterations = 11.7

     total cpu time spent up to now is        1.1 secs

     End of band structure calculation

     Number of k-points >= 100: set verbosity='high' to print the bands.

     highest occupied level (ev):     5.6699

     Writing output data file silicon.10.344.save

                                                                                

     bravais-lattice index     =            2
     lattice parameter (alat)  =      10.3440  a.u.
     unit-cell volume          =     276.6977 (a.u.)^3
     number of atoms/cell      =            2
     number of atomic types    =            1
     kinetic-energy cut-off    =      18.0000  Ry
     charge density cut-off    =      72.0000  Ry
     convergence threshold     =      1.0E-12
     beta                      =       0.7000
     number of iterations used =            4
     Exchange-correlation      = SLA  PW   PBE  PBE ( 1  4  3  4 0 0)


     celldm(1)=   10.34400  celldm(2)=    0.00000  celldm(3)=    0.00000
     celldm(4)=    0.00000  celldm(5)=    0.00000  celldm(6)=    0.00000

     crystal axes: (cart. coord. in units of alat)
               a(1) = ( -0.5000  0.0000  0.5000 )  
               a(2) = (  0.0000  0.5000  0.5000 )  
               a(3) = ( -0.5000  0.5000  0.0000 )  

     reciprocal axes: (cart. coord. in units 2 pi/alat)
               b(1) = ( -1.0000 -1.0000  1.0000 )  
               b(2) = (  1.0000  1.0000  1.0000 )  
               b(3) = ( -1.0000  1.0000 -1.0000 )  


     Atoms inside the unit cell: 

     Cartesian axes

     site n.  atom      mass           positions (alat units)
        1     Si  28.0860   tau(    1) = (    0.00000    0.00000    0.00000  )
        2     Si  28.0860   tau(    2) = (    0.25000    0.25000    0.25000  )

     Computing dynamical matrix for 
                    q = (  -0.2500000   0.2500000  -0.2500000 )

      6 Sym.Ops. (no q -> -q+G )


     G cutoff =  195.1416  (    710 G-vectors)     FFT grid: ( 20, 20, 20)
     number of k points=   120

     PseudoPot. # 1 for Si read from file:
     /home/max/quantum_espresso/qe-6.1/pseudo/si_pbe_v1.uspp.F.UPF.txt
     MD5 check sum: a056efeee980c13900f22a371efd63c1
     Pseudo is Ultrasoft + core correction, Zval =  4.0
     Generated by new atomic code, or converted to UPF format
     Using radial grid of  899 points,  6 beta functions with: 
                l(1) =   0
                l(2) =   0
                l(3) =   1
                l(4) =   1
                l(5) =   2
                l(6) =   2
     Q(r) pseudized with  8 coefficients,  rinner =    0.900   0.900   0.900
                                                       0.900   0.900

     Mode symmetry, C_3v (3m)   point group:


     Atomic displacements:
     There are   4 irreducible representations

     Representation     1      1 modes -A_1  L_1  To be done

     Representation     2      1 modes -A_1  L_1  To be done

     Representation     3      2 modes -E    L_3  To be done

     Representation     4      2 modes -E    L_3  To be done



     Alpha used in Ewald sum =   0.7000
     PHONON       :     5.13s CPU         6.02s WALL



     Representation #  1 mode #   1

     Self-consistent Calculation

      iter #   1 total cpu time :     6.3 secs   av.it.:   5.5
      thresh= 1.000E-02 alpha_mix =  0.700 |ddv_scf|^2 =  2.464E-03

      iter #   2 total cpu time :     6.6 secs   av.it.:   7.5
      thresh= 4.964E-03 alpha_mix =  0.700 |ddv_scf|^2 =  3.723E-02

      iter #   3 total cpu time :     7.0 secs   av.it.:   6.3
      thresh= 1.000E-02 alpha_mix =  0.700 |ddv_scf|^2 =  1.711E-06

      iter #   4 total cpu time :     7.3 secs   av.it.:   8.2
      thresh= 1.308E-04 alpha_mix =  0.700 |ddv_scf|^2 =  1.156E-07

      iter #   5 total cpu time :     7.6 secs   av.it.:   8.1
      thresh= 3.400E-05 alpha_mix =  0.700 |ddv_scf|^2 =  4.812E-09

      iter #   6 total cpu time :     7.9 secs   av.it.:   8.0
      thresh= 6.937E-06 alpha_mix =  0.700 |ddv_scf|^2 =  6.008E-09

      iter #   7 total cpu time :     8.2 secs   av.it.:   6.0
      thresh= 7.751E-06 alpha_mix =  0.700 |ddv_scf|^2 =  3.753E-10

      iter #   8 total cpu time :     8.5 secs   av.it.:   7.4
      thresh= 1.937E-06 alpha_mix =  0.700 |ddv_scf|^2 =  3.950E-12

      iter #   9 total cpu time :     8.9 secs   av.it.:   7.1
      thresh= 1.987E-07 alpha_mix =  0.700 |ddv_scf|^2 =  1.620E-13

     End of self-consistent calculation

     Convergence has been achieved 


     Representation #  2 mode #   2

     Self-consistent Calculation

      iter #   1 total cpu time :     9.2 secs   av.it.:   5.5
      thresh= 1.000E-02 alpha_mix =  0.700 |ddv_scf|^2 =  2.464E-03

      iter #   2 total cpu time :     9.5 secs   av.it.:   7.5
      thresh= 4.964E-03 alpha_mix =  0.700 |ddv_scf|^2 =  3.723E-02

      iter #   3 total cpu time :     9.8 secs   av.it.:   6.3
      thresh= 1.000E-02 alpha_mix =  0.700 |ddv_scf|^2 =  1.711E-06

      iter #   4 total cpu time :    10.1 secs   av.it.:   8.2
      thresh= 1.308E-04 alpha_mix =  0.700 |ddv_scf|^2 =  1.156E-07

      iter #   5 total cpu time :    10.4 secs   av.it.:   8.1
      thresh= 3.400E-05 alpha_mix =  0.700 |ddv_scf|^2 =  4.812E-09

      iter #   6 total cpu time :    10.8 secs   av.it.:   8.0
      thresh= 6.937E-06 alpha_mix =  0.700 |ddv_scf|^2 =  6.008E-09

      iter #   7 total cpu time :    11.1 secs   av.it.:   6.0
      thresh= 7.751E-06 alpha_mix =  0.700 |ddv_scf|^2 =  3.753E-10

      iter #   8 total cpu time :    11.4 secs   av.it.:   7.4
      thresh= 1.937E-06 alpha_mix =  0.700 |ddv_scf|^2 =  3.950E-12

      iter #   9 total cpu time :    11.7 secs   av.it.:   7.1
      thresh= 1.987E-07 alpha_mix =  0.700 |ddv_scf|^2 =  1.620E-13

     End of self-consistent calculation

     Convergence has been achieved 


     Representation #  3 modes #   3  4

     Self-consistent Calculation

      iter #   1 total cpu time :    12.1 secs   av.it.:   5.0
      thresh= 1.000E-02 alpha_mix =  0.700 |ddv_scf|^2 =  5.712E-07

      iter #   2 total cpu time :    13.0 secs   av.it.:   9.4
      thresh= 7.557E-05 alpha_mix =  0.700 |ddv_scf|^2 =  4.295E-08

      iter #   3 total cpu time :    13.7 secs   av.it.:   9.2
      thresh= 2.073E-05 alpha_mix =  0.700 |ddv_scf|^2 =  3.716E-09

      iter #   4 total cpu time :    14.3 secs   av.it.:   8.9
      thresh= 6.096E-06 alpha_mix =  0.700 |ddv_scf|^2 =  1.115E-11

      iter #   5 total cpu time :    15.2 secs   av.it.:   9.1
      thresh= 3.340E-07 alpha_mix =  0.700 |ddv_scf|^2 =  4.982E-13

     End of self-consistent calculation

     Convergence has been achieved 


     Representation #  4 modes #   5  6

     Self-consistent Calculation

      iter #   1 total cpu time :    15.7 secs   av.it.:   5.0
      thresh= 1.000E-02 alpha_mix =  0.700 |ddv_scf|^2 =  5.710E-07

      iter #   2 total cpu time :    16.4 secs   av.it.:   9.6
      thresh= 7.557E-05 alpha_mix =  0.700 |ddv_scf|^2 =  4.291E-08

      iter #   3 total cpu time :    17.3 secs   av.it.:   9.4
      thresh= 2.071E-05 alpha_mix =  0.700 |ddv_scf|^2 =  3.712E-09

      iter #   4 total cpu time :    18.0 secs   av.it.:   9.1
      thresh= 6.093E-06 alpha_mix =  0.700 |ddv_scf|^2 =  1.116E-11

      iter #   5 total cpu time :    18.9 secs   av.it.:   9.3
      thresh= 3.341E-07 alpha_mix =  0.700 |ddv_scf|^2 =  4.986E-13

     End of self-consistent calculation

     Convergence has been achieved 

     Number of q in the star =    8
     List of q in the star:
          1  -0.250000000   0.250000000  -0.250000000
          2   0.250000000  -0.250000000  -0.250000000
          3   0.250000000  -0.250000000   0.250000000
          4   0.250000000   0.250000000   0.250000000
          5  -0.250000000  -0.250000000  -0.250000000
          6  -0.250000000  -0.250000000   0.250000000
          7  -0.250000000   0.250000000   0.250000000
          8   0.250000000   0.250000000  -0.250000000

     Diagonalizing the dynamical matrix

     q = (   -0.250000000   0.250000000  -0.250000000 ) 

 **************************************************************************
     freq (    1) =       3.397840 [THz] =     113.339747 [cm-1]
     freq (    2) =       3.397840 [THz] =     113.339747 [cm-1]
     freq (    3) =       6.921184 [THz] =     230.865864 [cm-1]
     freq (    4) =      14.421396 [THz] =     481.046004 [cm-1]
     freq (    5) =      14.730211 [THz] =     491.346936 [cm-1]
     freq (    6) =      14.730211 [THz] =     491.346936 [cm-1]
 **************************************************************************

     Mode symmetry, C_3v (3m)   point group:

     freq (  1 -  2) =        113.3  [cm-1]   --> E    L_3           
     freq (  3 -  3) =        230.9  [cm-1]   --> A_1  L_1           
     freq (  4 -  4) =        481.0  [cm-1]   --> A_1  L_1           
     freq (  5 -  6) =        491.3  [cm-1]   --> E    L_3           

     Calculation of q =    0.5000000  -0.5000000   0.5000000

   Info: using nr1, nr2, nr3 values from input

   Info: using nr1, nr2, nr3 values from input

     Parallelization info
     --------------------
     sticks:   dense  smooth     PW     G-vecs:    dense   smooth      PW
     Min          64      64     27                  709      709     186
     Max          67      67     28                  710      710     189
     Sum         265     265    109                 2837     2837     749



     bravais-lattice index     =            2
     lattice parameter (alat)  =      10.3440  a.u.
     unit-cell volume          =     276.6977 (a.u.)^3
     number of atoms/cell      =            2
     number of atomic types    =            1
     number of electrons       =         8.00
     number of Kohn-Sham states=            4
     kinetic-energy cutoff     =      18.0000  Ry
     charge density cutoff     =      72.0000  Ry
     Exchange-correlation      = SLA  PW   PBE  PBE ( 1  4  3  4 0 0)

     celldm(1)=  10.344000  celldm(2)=   0.000000  celldm(3)=   0.000000
     celldm(4)=   0.000000  celldm(5)=   0.000000  celldm(6)=   0.000000

     crystal axes: (cart. coord. in units of alat)
               a(1) = (  -0.500000   0.000000   0.500000 )  
               a(2) = (   0.000000   0.500000   0.500000 )  
               a(3) = (  -0.500000   0.500000   0.000000 )  

     reciprocal axes: (cart. coord. in units 2 pi/alat)
               b(1) = ( -1.000000 -1.000000  1.000000 )  
               b(2) = (  1.000000  1.000000  1.000000 )  
               b(3) = ( -1.000000  1.000000 -1.000000 )  


     PseudoPot. # 1 for Si read from file:
     /home/max/quantum_espresso/qe-6.1/pseudo/si_pbe_v1.uspp.F.UPF.txt
     MD5 check sum: a056efeee980c13900f22a371efd63c1
     Pseudo is Ultrasoft + core correction, Zval =  4.0
     Generated by new atomic code, or converted to UPF format
     Using radial grid of  899 points,  6 beta functions with: 
                l(1) =   0
                l(2) =   0
                l(3) =   1
                l(4) =   1
                l(5) =   2
                l(6) =   2
     Q(r) pseudized with  8 coefficients,  rinner =    0.900   0.900   0.900
                                                       0.900   0.900

     atomic species   valence    mass     pseudopotential
        Si             4.00    28.08600     Si( 1.00)

     48 Sym. Ops., with inversion, found



   Cartesian axes

     site n.     atom                  positions (alat units)
         1           Si  tau(   1) = (   0.0000000   0.0000000   0.0000000  )
         2           Si  tau(   2) = (   0.2500000   0.2500000   0.2500000  )

     number of k points=    60
                       cart. coord. in units 2pi/alat
        k(    1) = (  -0.1250000   0.1250000   0.1250000), wk =   0.0468750
        k(    2) = (   0.3750000  -0.3750000   0.6250000), wk =   0.0000000
        k(    3) = (  -0.3750000   0.3750000  -0.1250000), wk =   0.0468750
        k(    4) = (   0.1250000  -0.1250000   0.3750000), wk =   0.0000000
        k(    5) = (   0.3750000  -0.3750000   0.6250000), wk =   0.0468750
        k(    6) = (   0.8750000  -0.8750000   1.1250000), wk =   0.0000000
        k(    7) = (   0.1250000  -0.1250000   0.3750000), wk =   0.0468750
        k(    8) = (   0.6250000  -0.6250000   0.8750000), wk =   0.0000000
        k(    9) = (  -0.1250000   0.6250000   0.1250000), wk =   0.0937500
        k(   10) = (   0.3750000   0.1250000   0.6250000), wk =   0.0000000
        k(   11) = (   0.6250000  -0.1250000   0.8750000), wk =   0.0937500
        k(   12) = (   1.1250000  -0.6250000   1.3750000), wk =   0.0000000
        k(   13) = (   0.3750000   0.1250000   0.6250000), wk =   0.0937500
        k(   14) = (   0.8750000  -0.3750000   1.1250000), wk =   0.0000000
        k(   15) = (  -0.1250000  -0.8750000   0.1250000), wk =   0.0937500
        k(   16) = (   0.3750000  -1.3750000   0.6250000), wk =   0.0000000
        k(   17) = (  -0.3750000   0.3750000   0.3750000), wk =   0.0468750
        k(   18) = (   0.1250000  -0.1250000   0.8750000), wk =   0.0000000
        k(   19) = (   0.3750000  -0.3750000   1.1250000), wk =   0.0468750
        k(   20) = (   0.8750000  -0.8750000   1.6250000), wk =   0.0000000
        k(   21) = (   0.1250000  -0.1250000   0.1250000), wk =   0.0156250
        k(   22) = (   0.6250000  -0.6250000   0.6250000), wk =   0.0000000
        k(   23) = (  -0.3750000  -0.3750000  -0.1250000), wk =   0.0937500
        k(   24) = (   0.1250000  -0.8750000   0.3750000), wk =   0.0000000
        k(   25) = (  -0.1250000  -0.3750000   0.3750000), wk =   0.0468750
        k(   26) = (   0.3750000  -0.8750000   0.8750000), wk =   0.0000000
        k(   27) = (   0.3750000   0.3750000   0.6250000), wk =   0.0937500
        k(   28) = (   0.8750000  -0.1250000   1.1250000), wk =   0.0000000
        k(   29) = (   0.6250000   0.3750000  -0.3750000), wk =   0.0468750
        k(   30) = (   1.1250000  -0.1250000   0.1250000), wk =   0.0000000
        k(   31) = (   0.1250000   0.1250000   0.3750000), wk =   0.0937500
        k(   32) = (   0.6250000  -0.3750000   0.8750000), wk =   0.0000000
        k(   33) = (   0.3750000   0.1250000  -0.1250000), wk =   0.0468750
        k(   34) = (   0.8750000  -0.3750000   0.3750000), wk =   0.0000000
        k(   35) = (  -0.1250000  -0.6250000  -0.1250000), wk =   0.0468750
        k(   36) = (   0.3750000  -1.1250000   0.3750000), wk =   0.0000000
        k(   37) = (   0.1250000  -0.6250000   0.1250000), wk =   0.0468750
        k(   38) = (   0.6250000  -1.1250000   0.6250000), wk =   0.0000000
        k(   39) = (   0.6250000   0.1250000   0.8750000), wk =   0.0937500
        k(   40) = (   1.1250000  -0.3750000   1.3750000), wk =   0.0000000
        k(   41) = (  -0.8750000   0.1250000   0.6250000), wk =   0.0937500
        k(   42) = (  -0.3750000  -0.3750000   1.1250000), wk =   0.0000000
        k(   43) = (   0.8750000   0.1250000  -0.6250000), wk =   0.0937500
        k(   44) = (   1.3750000  -0.3750000  -0.1250000), wk =   0.0000000
        k(   45) = (   0.3750000  -0.1250000   0.6250000), wk =   0.0937500
        k(   46) = (   0.8750000  -0.6250000   1.1250000), wk =   0.0000000
        k(   47) = (  -0.6250000  -0.1250000   0.3750000), wk =   0.0937500
        k(   48) = (  -0.1250000  -0.6250000   0.8750000), wk =   0.0000000
        k(   49) = (   0.6250000  -0.1250000  -0.3750000), wk =   0.0937500
        k(   50) = (   1.1250000  -0.6250000   0.1250000), wk =   0.0000000
        k(   51) = (  -0.1250000   0.8750000  -0.1250000), wk =   0.0468750
        k(   52) = (   0.3750000   0.3750000   0.3750000), wk =   0.0000000
        k(   53) = (   0.1250000   0.8750000   0.1250000), wk =   0.0468750
        k(   54) = (   0.6250000   0.3750000   0.6250000), wk =   0.0000000
        k(   55) = (   0.3750000  -0.3750000   0.3750000), wk =   0.0156250
        k(   56) = (   0.8750000  -0.8750000   0.8750000), wk =   0.0000000
        k(   57) = (   0.3750000   0.3750000   1.1250000), wk =   0.0937500
        k(   58) = (   0.8750000  -0.1250000   1.6250000), wk =   0.0000000
        k(   59) = (   1.1250000   0.3750000  -0.3750000), wk =   0.0468750
        k(   60) = (   1.6250000  -0.1250000   0.1250000), wk =   0.0000000

     Dense  grid:     2837 G-vectors     FFT dimensions: (  20,  20,  20)

     Estimated max dynamical RAM per process >       0.33MB

     Estimated total allocated dynamical RAM >       1.32MB

     Check: negative/imaginary core charge=   -0.000006    0.000000

     The potential is recalculated from file :
     ./_ph0/silicon.10.344.save/charge-density.dat

     Starting wfc are    8 atomic wfcs

     Band Structure Calculation
     Davidson diagonalization with overlap

     ethr =  1.25E-10,  avg # of iterations = 11.7

     total cpu time spent up to now is        1.7 secs

     End of band structure calculation

          k =-0.1250 0.1250 0.1250 (   338 PWs)   bands (ev):

    -5.6412   4.3612   5.6699   5.6699

          k = 0.3750-0.3750 0.6250 (   361 PWs)   bands (ev):

    -3.4892  -0.6919   3.7113   4.4215

          k =-0.3750 0.3750-0.1250 (   352 PWs)   bands (ev):

    -4.6203   1.3740   3.6944   5.1887

          k = 0.1250-0.1250 0.3750 (   353 PWs)   bands (ev):

    -5.1164   2.7442   4.6663   4.7282

          k = 0.3750-0.3750 0.6250 (   361 PWs)   bands (ev):

    -3.4892  -0.6919   3.7113   4.4215

          k = 0.8750-0.8750 1.1250 (   338 PWs)   bands (ev):

    -5.6412   4.3612   5.6699   5.6699

          k = 0.1250-0.1250 0.3750 (   353 PWs)   bands (ev):

    -5.1164   2.7442   4.6663   4.7282

          k = 0.6250-0.6250 0.8750 (   352 PWs)   bands (ev):

    -4.6203   1.3740   3.6944   5.1887

          k =-0.1250 0.6250 0.1250 (   351 PWs)   bands (ev):

    -4.0900   1.0330   3.3487   3.7957

          k = 0.3750 0.1250 0.6250 (   357 PWs)   bands (ev):

    -3.6776   0.1677   2.7102   4.0704

          k = 0.6250-0.1250 0.8750 (   361 PWs)   bands (ev):

    -2.4600  -0.9233   2.0058   3.0736

          k = 1.1250-0.6250 1.3750 (   352 PWs)   bands (ev):

    -4.6203   1.3740   3.6944   5.1887

          k = 0.3750 0.1250 0.6250 (   357 PWs)   bands (ev):

    -3.6776   0.1677   2.7102   4.0704

          k = 0.8750-0.3750 1.1250 (   351 PWs)   bands (ev):

    -4.0900   1.0330   3.3487   3.7957

          k =-0.1250-0.8750 0.1250 (   358 PWs)   bands (ev):

    -2.6251  -0.8269   2.6098   3.3304

          k = 0.3750-1.3750 0.6250 (   361 PWs)   bands (ev):

    -3.4892  -0.6919   3.7113   4.4215

          k =-0.3750 0.3750 0.3750 (   353 PWs)   bands (ev):

    -4.1908   0.0933   4.8835   4.8835

          k = 0.1250-0.1250 0.8750 (   358 PWs)   bands (ev):

    -2.6251  -0.8269   2.6098   3.3304

          k = 0.3750-0.3750 1.1250 (   361 PWs)   bands (ev):

    -2.9953  -0.6155   2.0614   4.1068

          k = 0.8750-0.8750 1.6250 (   351 PWs)   bands (ev):

    -4.0900   1.0330   3.3487   3.7957

          k = 0.1250-0.1250 0.1250 (   338 PWs)   bands (ev):

    -5.6412   4.3612   5.6699   5.6699

          k = 0.6250-0.6250 0.6250 (   353 PWs)   bands (ev):

    -4.1908   0.0933   4.8835   4.8835

          k =-0.3750-0.3750-0.1250 (   352 PWs)   bands (ev):

    -4.6203   1.3740   3.6944   5.1887

          k = 0.1250-0.8750 0.3750 (   361 PWs)   bands (ev):

    -2.4600  -0.9233   2.0058   3.0736

          k =-0.1250-0.3750 0.3750 (   352 PWs)   bands (ev):

    -4.6203   1.3740   3.6944   5.1887

          k = 0.3750-0.8750 0.8750 (   351 PWs)   bands (ev):

    -4.0900   1.0330   3.3487   3.7957

          k = 0.3750 0.3750 0.6250 (   361 PWs)   bands (ev):

    -3.4892  -0.6919   3.7113   4.4215

          k = 0.8750-0.1250 1.1250 (   358 PWs)   bands (ev):

    -2.6251  -0.8269   2.6098   3.3304

          k = 0.6250 0.3750-0.3750 (   361 PWs)   bands (ev):

    -3.4892  -0.6919   3.7113   4.4215

          k = 1.1250-0.1250 0.1250 (   358 PWs)   bands (ev):

    -2.6251  -0.8269   2.6098   3.3304

          k = 0.1250 0.1250 0.3750 (   353 PWs)   bands (ev):

    -5.1164   2.7442   4.6663   4.7282

          k = 0.6250-0.3750 0.8750 (   357 PWs)   bands (ev):

    -3.6776   0.1677   2.7102   4.0704

          k = 0.3750 0.1250-0.1250 (   353 PWs)   bands (ev):

    -5.1164   2.7442   4.6663   4.7282

          k = 0.8750-0.3750 0.3750 (   361 PWs)   bands (ev):

    -2.9953  -0.6155   2.0614   4.1068

          k =-0.1250-0.6250-0.1250 (   351 PWs)   bands (ev):

    -4.0900   1.0330   3.3487   3.7957

          k = 0.3750-1.1250 0.3750 (   361 PWs)   bands (ev):

    -2.9953  -0.6155   2.0614   4.1068

          k = 0.1250-0.6250 0.1250 (   351 PWs)   bands (ev):

    -4.0900   1.0330   3.3487   3.7957

          k = 0.6250-1.1250 0.6250 (   352 PWs)   bands (ev):

    -4.6203   1.3740   3.6944   5.1887

          k = 0.6250 0.1250 0.8750 (   361 PWs)   bands (ev):

    -2.4600  -0.9233   2.0058   3.0736

          k = 1.1250-0.3750 1.3750 (   357 PWs)   bands (ev):

    -3.6776   0.1677   2.7102   4.0704

          k =-0.8750 0.1250 0.6250 (   361 PWs)   bands (ev):

    -2.4600  -0.9233   2.0058   3.0736

          k =-0.3750-0.3750 1.1250 (   361 PWs)   bands (ev):

    -2.9953  -0.6155   2.0614   4.1068

          k = 0.8750 0.1250-0.6250 (   361 PWs)   bands (ev):

    -2.4600  -0.9233   2.0058   3.0736

          k = 1.3750-0.3750-0.1250 (   357 PWs)   bands (ev):

    -3.6776   0.1677   2.7102   4.0704

          k = 0.3750-0.1250 0.6250 (   357 PWs)   bands (ev):

    -3.6776   0.1677   2.7102   4.0704

          k = 0.8750-0.6250 1.1250 (   353 PWs)   bands (ev):

    -5.1164   2.7442   4.6663   4.7282

          k =-0.6250-0.1250 0.3750 (   357 PWs)   bands (ev):

    -3.6776   0.1677   2.7102   4.0704

          k =-0.1250-0.6250 0.8750 (   361 PWs)   bands (ev):

    -2.4600  -0.9233   2.0058   3.0736

          k = 0.6250-0.1250-0.3750 (   357 PWs)   bands (ev):

    -3.6776   0.1677   2.7102   4.0704

          k = 1.1250-0.6250 0.1250 (   361 PWs)   bands (ev):

    -2.4600  -0.9233   2.0058   3.0736

          k =-0.1250 0.8750-0.1250 (   358 PWs)   bands (ev):

    -2.6251  -0.8269   2.6098   3.3304

          k = 0.3750 0.3750 0.3750 (   353 PWs)   bands (ev):

    -4.1908   0.0933   4.8835   4.8835

          k = 0.1250 0.8750 0.1250 (   358 PWs)   bands (ev):

    -2.6251  -0.8269   2.6098   3.3304

          k = 0.6250 0.3750 0.6250 (   361 PWs)   bands (ev):

    -3.4892  -0.6919   3.7113   4.4215

          k = 0.3750-0.3750 0.3750 (   353 PWs)   bands (ev):

    -4.1908   0.0933   4.8835   4.8835

          k = 0.8750-0.8750 0.8750 (   338 PWs)   bands (ev):

    -5.6412   4.3612   5.6699   5.6699

          k = 0.3750 0.3750 1.1250 (   361 PWs)   bands (ev):

    -2.9953  -0.6155   2.0614   4.1068

          k = 0.8750-0.1250 1.6250 (   361 PWs)   bands (ev):

    -2.4600  -0.9233   2.0058   3.0736

          k = 1.1250 0.3750-0.3750 (   361 PWs)   bands (ev):

    -2.9953  -0.6155   2.0614   4.1068

          k = 1.6250-0.1250 0.1250 (   353 PWs)   bands (ev):

    -5.1164   2.7442   4.6663   4.7282

     highest occupied level (ev):     5.6699

     Writing output data file silicon.10.344.save

                                                                                

     bravais-lattice index     =            2
     lattice parameter (alat)  =      10.3440  a.u.
     unit-cell volume          =     276.6977 (a.u.)^3
     number of atoms/cell      =            2
     number of atomic types    =            1
     kinetic-energy cut-off    =      18.0000  Ry
     charge density cut-off    =      72.0000  Ry
     convergence threshold     =      1.0E-12
     beta                      =       0.7000
     number of iterations used =            4
     Exchange-correlation      = SLA  PW   PBE  PBE ( 1  4  3  4 0 0)


     celldm(1)=   10.34400  celldm(2)=    0.00000  celldm(3)=    0.00000
     celldm(4)=    0.00000  celldm(5)=    0.00000  celldm(6)=    0.00000

     crystal axes: (cart. coord. in units of alat)
               a(1) = ( -0.5000  0.0000  0.5000 )  
               a(2) = (  0.0000  0.5000  0.5000 )  
               a(3) = ( -0.5000  0.5000  0.0000 )  

     reciprocal axes: (cart. coord. in units 2 pi/alat)
               b(1) = ( -1.0000 -1.0000  1.0000 )  
               b(2) = (  1.0000  1.0000  1.0000 )  
               b(3) = ( -1.0000  1.0000 -1.0000 )  


     Atoms inside the unit cell: 

     Cartesian axes

     site n.  atom      mass           positions (alat units)
        1     Si  28.0860   tau(    1) = (    0.00000    0.00000    0.00000  )
        2     Si  28.0860   tau(    2) = (    0.25000    0.25000    0.25000  )

     Computing dynamical matrix for 
                    q = (   0.5000000  -0.5000000   0.5000000 )

     13 Sym.Ops. (with q -> -q+G )


     G cutoff =  195.1416  (    710 G-vectors)     FFT grid: ( 20, 20, 20)
     number of k points=    60

     PseudoPot. # 1 for Si read from file:
     /home/max/quantum_espresso/qe-6.1/pseudo/si_pbe_v1.uspp.F.UPF.txt
     MD5 check sum: a056efeee980c13900f22a371efd63c1
     Pseudo is Ultrasoft + core correction, Zval =  4.0
     Generated by new atomic code, or converted to UPF format
     Using radial grid of  899 points,  6 beta functions with: 
                l(1) =   0
                l(2) =   0
                l(3) =   1
                l(4) =   1
                l(5) =   2
                l(6) =   2
     Q(r) pseudized with  8 coefficients,  rinner =    0.900   0.900   0.900
                                                       0.900   0.900


     Atomic displacements:
     There are   4 irreducible representations

     Representation     1      1 modes -  To be done

     Representation     2      1 modes -  To be done

     Representation     3      2 modes -  To be done

     Representation     4      2 modes -  To be done



     Alpha used in Ewald sum =   0.7000
     PHONON       :    17.32s CPU        19.73s WALL



     Representation #  1 mode #   1

     Self-consistent Calculation

      iter #   1 total cpu time :    19.9 secs   av.it.:   4.8
      thresh= 1.000E-02 alpha_mix =  0.700 |ddv_scf|^2 =  2.483E-05

      iter #   2 total cpu time :    20.0 secs   av.it.:   8.3
      thresh= 4.983E-04 alpha_mix =  0.700 |ddv_scf|^2 =  2.213E-05

      iter #   3 total cpu time :    20.2 secs   av.it.:   7.5
      thresh= 4.705E-04 alpha_mix =  0.700 |ddv_scf|^2 =  4.360E-08

      iter #   4 total cpu time :    20.4 secs   av.it.:   7.4
      thresh= 2.088E-05 alpha_mix =  0.700 |ddv_scf|^2 =  1.338E-10

      iter #   5 total cpu time :    20.5 secs   av.it.:   7.9
      thresh= 1.157E-06 alpha_mix =  0.700 |ddv_scf|^2 =  3.559E-12

      iter #   6 total cpu time :    20.9 secs   av.it.:   7.9
      thresh= 1.887E-07 alpha_mix =  0.700 |ddv_scf|^2 =  4.303E-14

     End of self-consistent calculation

     Convergence has been achieved 


     Representation #  2 mode #   2

     Self-consistent Calculation

      iter #   1 total cpu time :    21.0 secs   av.it.:   5.6
      thresh= 1.000E-02 alpha_mix =  0.700 |ddv_scf|^2 =  3.449E-04

      iter #   2 total cpu time :    21.2 secs   av.it.:   8.3
      thresh= 1.857E-03 alpha_mix =  0.700 |ddv_scf|^2 =  1.063E-03

      iter #   3 total cpu time :    21.4 secs   av.it.:   7.1
      thresh= 3.260E-03 alpha_mix =  0.700 |ddv_scf|^2 =  1.308E-07

      iter #   4 total cpu time :    21.5 secs   av.it.:   8.1
      thresh= 3.616E-05 alpha_mix =  0.700 |ddv_scf|^2 =  8.437E-09

      iter #   5 total cpu time :    21.7 secs   av.it.:   8.5
      thresh= 9.185E-06 alpha_mix =  0.700 |ddv_scf|^2 =  1.348E-10

      iter #   6 total cpu time :    21.9 secs   av.it.:   8.2
      thresh= 1.161E-06 alpha_mix =  0.700 |ddv_scf|^2 =  2.509E-12

      iter #   7 total cpu time :    22.0 secs   av.it.:   7.9
      thresh= 1.584E-07 alpha_mix =  0.700 |ddv_scf|^2 =  4.920E-15

     End of self-consistent calculation

     Convergence has been achieved 


     Representation #  3 modes #   3  4

     Self-consistent Calculation

      iter #   1 total cpu time :    22.3 secs   av.it.:   4.7
      thresh= 1.000E-02 alpha_mix =  0.700 |ddv_scf|^2 =  3.327E-07

      iter #   2 total cpu time :    22.8 secs   av.it.:   9.0
      thresh= 5.768E-05 alpha_mix =  0.700 |ddv_scf|^2 =  2.819E-08

      iter #   3 total cpu time :    23.1 secs   av.it.:   8.3
      thresh= 1.679E-05 alpha_mix =  0.700 |ddv_scf|^2 =  5.014E-10

      iter #   4 total cpu time :    23.5 secs   av.it.:   8.8
      thresh= 2.239E-06 alpha_mix =  0.700 |ddv_scf|^2 =  6.208E-12

      iter #   5 total cpu time :    23.8 secs   av.it.:   8.7
      thresh= 2.492E-07 alpha_mix =  0.700 |ddv_scf|^2 =  3.102E-14

     End of self-consistent calculation

     Convergence has been achieved 


     Representation #  4 modes #   5  6

     Self-consistent Calculation

      iter #   1 total cpu time :    24.1 secs   av.it.:   4.9
      thresh= 1.000E-02 alpha_mix =  0.700 |ddv_scf|^2 =  9.861E-07

      iter #   2 total cpu time :    24.4 secs   av.it.:   9.4
      thresh= 9.930E-05 alpha_mix =  0.700 |ddv_scf|^2 =  7.749E-08

      iter #   3 total cpu time :    25.0 secs   av.it.:   9.3
      thresh= 2.784E-05 alpha_mix =  0.700 |ddv_scf|^2 =  5.021E-09

      iter #   4 total cpu time :    25.3 secs   av.it.:   8.5
      thresh= 7.086E-06 alpha_mix =  0.700 |ddv_scf|^2 =  6.455E-12

      iter #   5 total cpu time :    25.6 secs   av.it.:   8.8
      thresh= 2.541E-07 alpha_mix =  0.700 |ddv_scf|^2 =  2.334E-14

     End of self-consistent calculation

     Convergence has been achieved 

     Number of q in the star =    4
     List of q in the star:
          1   0.500000000  -0.500000000   0.500000000
          2   0.500000000   0.500000000   0.500000000
          3  -0.500000000   0.500000000   0.500000000
          4   0.500000000   0.500000000  -0.500000000

     Diagonalizing the dynamical matrix

     q = (    0.500000000  -0.500000000   0.500000000 ) 

 **************************************************************************
     freq (    1) =       4.783803 [THz] =     159.570503 [cm-1]
     freq (    2) =       4.783803 [THz] =     159.570503 [cm-1]
     freq (    3) =      11.809536 [THz] =     393.923708 [cm-1]
     freq (    4) =      12.125008 [THz] =     404.446727 [cm-1]
     freq (    5) =      14.655415 [THz] =     488.852026 [cm-1]
     freq (    6) =      14.655415 [THz] =     488.852026 [cm-1]
 **************************************************************************

     Calculation of q =    0.0000000   0.5000000   0.0000000

   Info: using nr1, nr2, nr3 values from input

   Info: using nr1, nr2, nr3 values from input

     Parallelization info
     --------------------
     sticks:   dense  smooth     PW     G-vecs:    dense   smooth      PW
     Min          64      64     27                  709      709     175
     Max          67      67     28                  710      710     176
     Sum         265     265    109                 2837     2837     701



     bravais-lattice index     =            2
     lattice parameter (alat)  =      10.3440  a.u.
     unit-cell volume          =     276.6977 (a.u.)^3
     number of atoms/cell      =            2
     number of atomic types    =            1
     number of electrons       =         8.00
     number of Kohn-Sham states=            4
     kinetic-energy cutoff     =      18.0000  Ry
     charge density cutoff     =      72.0000  Ry
     Exchange-correlation      = SLA  PW   PBE  PBE ( 1  4  3  4 0 0)

     celldm(1)=  10.344000  celldm(2)=   0.000000  celldm(3)=   0.000000
     celldm(4)=   0.000000  celldm(5)=   0.000000  celldm(6)=   0.000000

     crystal axes: (cart. coord. in units of alat)
               a(1) = (  -0.500000   0.000000   0.500000 )  
               a(2) = (   0.000000   0.500000   0.500000 )  
               a(3) = (  -0.500000   0.500000   0.000000 )  

     reciprocal axes: (cart. coord. in units 2 pi/alat)
               b(1) = ( -1.000000 -1.000000  1.000000 )  
               b(2) = (  1.000000  1.000000  1.000000 )  
               b(3) = ( -1.000000  1.000000 -1.000000 )  


     PseudoPot. # 1 for Si read from file:
     /home/max/quantum_espresso/qe-6.1/pseudo/si_pbe_v1.uspp.F.UPF.txt
     MD5 check sum: a056efeee980c13900f22a371efd63c1
     Pseudo is Ultrasoft + core correction, Zval =  4.0
     Generated by new atomic code, or converted to UPF format
     Using radial grid of  899 points,  6 beta functions with: 
                l(1) =   0
                l(2) =   0
                l(3) =   1
                l(4) =   1
                l(5) =   2
                l(6) =   2
     Q(r) pseudized with  8 coefficients,  rinner =    0.900   0.900   0.900
                                                       0.900   0.900

     atomic species   valence    mass     pseudopotential
        Si             4.00    28.08600     Si( 1.00)

     48 Sym. Ops., with inversion, found



   Cartesian axes

     site n.     atom                  positions (alat units)
         1           Si  tau(   1) = (   0.0000000   0.0000000   0.0000000  )
         2           Si  tau(   2) = (   0.2500000   0.2500000   0.2500000  )

     number of k points=    80
                       cart. coord. in units 2pi/alat
        k(    1) = (  -0.1250000   0.1250000   0.1250000), wk =   0.0312500
        k(    2) = (  -0.1250000   0.6250000   0.1250000), wk =   0.0000000
        k(    3) = (  -0.3750000   0.3750000  -0.1250000), wk =   0.0625000
        k(    4) = (  -0.3750000   0.8750000  -0.1250000), wk =   0.0000000
        k(    5) = (   0.3750000  -0.3750000   0.6250000), wk =   0.0625000
        k(    6) = (   0.3750000   0.1250000   0.6250000), wk =   0.0000000
        k(    7) = (   0.1250000  -0.1250000   0.3750000), wk =   0.0625000
        k(    8) = (   0.1250000   0.3750000   0.3750000), wk =   0.0000000
        k(    9) = (  -0.1250000   0.6250000   0.1250000), wk =   0.0312500
        k(   10) = (  -0.1250000   1.1250000   0.1250000), wk =   0.0000000
        k(   11) = (   0.6250000  -0.1250000   0.8750000), wk =   0.0625000
        k(   12) = (   0.6250000   0.3750000   0.8750000), wk =   0.0000000
        k(   13) = (   0.3750000   0.1250000   0.6250000), wk =   0.0625000
        k(   14) = (   0.3750000   0.6250000   0.6250000), wk =   0.0000000
        k(   15) = (  -0.1250000  -0.8750000   0.1250000), wk =   0.0312500
        k(   16) = (  -0.1250000  -0.3750000   0.1250000), wk =   0.0000000
        k(   17) = (  -0.3750000   0.3750000   0.3750000), wk =   0.0312500
        k(   18) = (  -0.3750000   0.8750000   0.3750000), wk =   0.0000000
        k(   19) = (   0.3750000  -0.3750000   1.1250000), wk =   0.0625000
        k(   20) = (   0.3750000   0.1250000   1.1250000), wk =   0.0000000
        k(   21) = (  -0.1250000  -0.1250000   0.1250000), wk =   0.0312500
        k(   22) = (  -0.1250000   0.3750000   0.1250000), wk =   0.0000000
        k(   23) = (   0.1250000  -0.3750000   0.3750000), wk =   0.0625000
        k(   24) = (   0.1250000   0.1250000   0.3750000), wk =   0.0000000
        k(   25) = (   0.3750000  -0.1250000   0.3750000), wk =   0.0312500
        k(   26) = (   0.3750000   0.3750000   0.3750000), wk =   0.0000000
        k(   27) = (   0.3750000   0.1250000   0.3750000), wk =   0.0312500
        k(   28) = (   0.3750000   0.6250000   0.3750000), wk =   0.0000000
        k(   29) = (  -0.6250000   0.3750000  -0.3750000), wk =   0.0625000
        k(   30) = (  -0.6250000   0.8750000  -0.3750000), wk =   0.0000000
        k(   31) = (  -0.3750000   0.6250000  -0.3750000), wk =   0.0312500
        k(   32) = (  -0.3750000   1.1250000  -0.3750000), wk =   0.0000000
        k(   33) = (  -0.3750000  -0.6250000  -0.3750000), wk =   0.0312500
        k(   34) = (  -0.3750000  -0.1250000  -0.3750000), wk =   0.0000000
        k(   35) = (  -0.3750000   0.1250000  -0.1250000), wk =   0.0625000
        k(   36) = (  -0.3750000   0.6250000  -0.1250000), wk =   0.0000000
        k(   37) = (  -0.1250000   0.3750000  -0.1250000), wk =   0.0312500
        k(   38) = (  -0.1250000   0.8750000  -0.1250000), wk =   0.0000000
        k(   39) = (  -0.1250000  -0.3750000  -0.1250000), wk =   0.0312500
        k(   40) = (  -0.1250000   0.1250000  -0.1250000), wk =   0.0000000
        k(   41) = (  -0.1250000  -0.6250000   0.1250000), wk =   0.0312500
        k(   42) = (  -0.1250000  -0.1250000   0.1250000), wk =   0.0000000
        k(   43) = (   0.6250000  -0.1250000  -0.1250000), wk =   0.0625000
        k(   44) = (   0.6250000   0.3750000  -0.1250000), wk =   0.0000000
        k(   45) = (   0.6250000   0.1250000   0.1250000), wk =   0.0625000
        k(   46) = (   0.6250000   0.6250000   0.1250000), wk =   0.0000000
        k(   47) = (  -0.8750000   0.1250000  -0.6250000), wk =   0.0625000
        k(   48) = (  -0.8750000   0.6250000  -0.6250000), wk =   0.0000000
        k(   49) = (  -0.1250000   0.6250000  -0.8750000), wk =   0.0625000
        k(   50) = (  -0.1250000   1.1250000  -0.8750000), wk =   0.0000000
        k(   51) = (  -0.1250000   0.8750000  -0.6250000), wk =   0.0625000
        k(   52) = (  -0.1250000   1.3750000  -0.6250000), wk =   0.0000000
        k(   53) = (  -0.1250000  -0.8750000  -0.6250000), wk =   0.0625000
        k(   54) = (  -0.1250000  -0.3750000  -0.6250000), wk =   0.0000000
        k(   55) = (   0.8750000  -0.6250000   0.1250000), wk =   0.0625000
        k(   56) = (   0.8750000  -0.1250000   0.1250000), wk =   0.0000000
        k(   57) = (  -0.6250000  -0.1250000  -0.3750000), wk =   0.0625000
        k(   58) = (  -0.6250000   0.3750000  -0.3750000), wk =   0.0000000
        k(   59) = (   0.1250000   0.3750000  -0.6250000), wk =   0.0625000
        k(   60) = (   0.1250000   0.8750000  -0.6250000), wk =   0.0000000
        k(   61) = (   0.1250000   0.6250000  -0.3750000), wk =   0.0625000
        k(   62) = (   0.1250000   1.1250000  -0.3750000), wk =   0.0000000
        k(   63) = (   0.1250000  -0.6250000  -0.3750000), wk =   0.0625000
        k(   64) = (   0.1250000  -0.1250000  -0.3750000), wk =   0.0000000
        k(   65) = (   0.6250000  -0.3750000  -0.1250000), wk =   0.0625000
        k(   66) = (   0.6250000   0.1250000  -0.1250000), wk =   0.0000000
        k(   67) = (  -0.1250000   0.8750000   0.1250000), wk =   0.0312500
        k(   68) = (  -0.1250000   1.3750000   0.1250000), wk =   0.0000000
        k(   69) = (  -0.8750000  -0.1250000  -0.1250000), wk =   0.0625000
        k(   70) = (  -0.8750000   0.3750000  -0.1250000), wk =   0.0000000
        k(   71) = (  -0.8750000   0.1250000   0.1250000), wk =   0.0625000
        k(   72) = (  -0.8750000   0.6250000   0.1250000), wk =   0.0000000
        k(   73) = (  -0.3750000  -0.3750000   0.3750000), wk =   0.0312500
        k(   74) = (  -0.3750000   0.1250000   0.3750000), wk =   0.0000000
        k(   75) = (  -1.1250000   0.3750000  -0.3750000), wk =   0.0625000
        k(   76) = (  -1.1250000   0.8750000  -0.3750000), wk =   0.0000000
        k(   77) = (  -0.3750000   1.1250000  -0.3750000), wk =   0.0312500
        k(   78) = (  -0.3750000   1.6250000  -0.3750000), wk =   0.0000000
        k(   79) = (  -0.3750000  -1.1250000  -0.3750000), wk =   0.0312500
        k(   80) = (  -0.3750000  -0.6250000  -0.3750000), wk =   0.0000000

     Dense  grid:     2837 G-vectors     FFT dimensions: (  20,  20,  20)

     Estimated max dynamical RAM per process >       0.33MB

     Estimated total allocated dynamical RAM >       1.32MB

     Check: negative/imaginary core charge=   -0.000006    0.000000

     The potential is recalculated from file :
     ./_ph0/silicon.10.344.save/charge-density.dat

     Starting wfc are    8 atomic wfcs

     Band Structure Calculation
     Davidson diagonalization with overlap

     ethr =  1.25E-10,  avg # of iterations = 11.7

     total cpu time spent up to now is        2.5 secs

     End of band structure calculation

          k =-0.1250 0.1250 0.1250 (   338 PWs)   bands (ev):

    -5.6412   4.3612   5.6699   5.6699

          k =-0.1250 0.6250 0.1250 (   351 PWs)   bands (ev):

    -4.0900   1.0330   3.3487   3.7957

          k =-0.3750 0.3750-0.1250 (   352 PWs)   bands (ev):

    -4.6203   1.3740   3.6944   5.1887

          k =-0.3750 0.8750-0.1250 (   361 PWs)   bands (ev):

    -2.4600  -0.9233   2.0058   3.0736

          k = 0.3750-0.3750 0.6250 (   361 PWs)   bands (ev):

    -3.4892  -0.6919   3.7113   4.4215

          k = 0.3750 0.1250 0.6250 (   357 PWs)   bands (ev):

    -3.6776   0.1677   2.7102   4.0704

          k = 0.1250-0.1250 0.3750 (   353 PWs)   bands (ev):

    -5.1164   2.7442   4.6663   4.7282

          k = 0.1250 0.3750 0.3750 (   352 PWs)   bands (ev):

    -4.6203   1.3740   3.6944   5.1887

          k =-0.1250 0.6250 0.1250 (   351 PWs)   bands (ev):

    -4.0900   1.0330   3.3487   3.7957

          k =-0.1250 1.1250 0.1250 (   358 PWs)   bands (ev):

    -2.6251  -0.8269   2.6098   3.3304

          k = 0.6250-0.1250 0.8750 (   361 PWs)   bands (ev):

    -2.4600  -0.9233   2.0058   3.0736

          k = 0.6250 0.3750 0.8750 (   357 PWs)   bands (ev):

    -3.6776   0.1677   2.7102   4.0704

          k = 0.3750 0.1250 0.6250 (   357 PWs)   bands (ev):

    -3.6776   0.1677   2.7102   4.0704

          k = 0.3750 0.6250 0.6250 (   361 PWs)   bands (ev):

    -3.4892  -0.6919   3.7113   4.4215

          k =-0.1250-0.8750 0.1250 (   358 PWs)   bands (ev):

    -2.6251  -0.8269   2.6098   3.3304

          k =-0.1250-0.3750 0.1250 (   353 PWs)   bands (ev):

    -5.1164   2.7442   4.6663   4.7282

          k =-0.3750 0.3750 0.3750 (   353 PWs)   bands (ev):

    -4.1908   0.0933   4.8835   4.8835

          k =-0.3750 0.8750 0.3750 (   361 PWs)   bands (ev):

    -2.9953  -0.6155   2.0614   4.1068

          k = 0.3750-0.3750 1.1250 (   361 PWs)   bands (ev):

    -2.9953  -0.6155   2.0614   4.1068

          k = 0.3750 0.1250 1.1250 (   361 PWs)   bands (ev):

    -2.4600  -0.9233   2.0058   3.0736

          k =-0.1250-0.1250 0.1250 (   338 PWs)   bands (ev):

    -5.6412   4.3612   5.6699   5.6699

          k =-0.1250 0.3750 0.1250 (   353 PWs)   bands (ev):

    -5.1164   2.7442   4.6663   4.7282

          k = 0.1250-0.3750 0.3750 (   352 PWs)   bands (ev):

    -4.6203   1.3740   3.6944   5.1887

          k = 0.1250 0.1250 0.3750 (   353 PWs)   bands (ev):

    -5.1164   2.7442   4.6663   4.7282

          k = 0.3750-0.1250 0.3750 (   352 PWs)   bands (ev):

    -4.6203   1.3740   3.6944   5.1887

          k = 0.3750 0.3750 0.3750 (   353 PWs)   bands (ev):

    -4.1908   0.0933   4.8835   4.8835

          k = 0.3750 0.1250 0.3750 (   352 PWs)   bands (ev):

    -4.6203   1.3740   3.6944   5.1887

          k = 0.3750 0.6250 0.3750 (   361 PWs)   bands (ev):

    -3.4892  -0.6919   3.7113   4.4215

          k =-0.6250 0.3750-0.3750 (   361 PWs)   bands (ev):

    -3.4892  -0.6919   3.7113   4.4215

          k =-0.6250 0.8750-0.3750 (   357 PWs)   bands (ev):

    -3.6776   0.1677   2.7102   4.0704

          k =-0.3750 0.6250-0.3750 (   361 PWs)   bands (ev):

    -3.4892  -0.6919   3.7113   4.4215

          k =-0.3750 1.1250-0.3750 (   361 PWs)   bands (ev):

    -2.9953  -0.6155   2.0614   4.1068

          k =-0.3750-0.6250-0.3750 (   361 PWs)   bands (ev):

    -3.4892  -0.6919   3.7113   4.4215

          k =-0.3750-0.1250-0.3750 (   352 PWs)   bands (ev):

    -4.6203   1.3740   3.6944   5.1887

          k =-0.3750 0.1250-0.1250 (   353 PWs)   bands (ev):

    -5.1164   2.7442   4.6663   4.7282

          k =-0.3750 0.6250-0.1250 (   357 PWs)   bands (ev):

    -3.6776   0.1677   2.7102   4.0704

          k =-0.1250 0.3750-0.1250 (   353 PWs)   bands (ev):

    -5.1164   2.7442   4.6663   4.7282

          k =-0.1250 0.8750-0.1250 (   358 PWs)   bands (ev):

    -2.6251  -0.8269   2.6098   3.3304

          k =-0.1250-0.3750-0.1250 (   353 PWs)   bands (ev):

    -5.1164   2.7442   4.6663   4.7282

          k =-0.1250 0.1250-0.1250 (   338 PWs)   bands (ev):

    -5.6412   4.3612   5.6699   5.6699

          k =-0.1250-0.6250 0.1250 (   351 PWs)   bands (ev):

    -4.0900   1.0330   3.3487   3.7957

          k =-0.1250-0.1250 0.1250 (   338 PWs)   bands (ev):

    -5.6412   4.3612   5.6699   5.6699

          k = 0.6250-0.1250-0.1250 (   351 PWs)   bands (ev):

    -4.0900   1.0330   3.3487   3.7957

          k = 0.6250 0.3750-0.1250 (   357 PWs)   bands (ev):

    -3.6776   0.1677   2.7102   4.0704

          k = 0.6250 0.1250 0.1250 (   351 PWs)   bands (ev):

    -4.0900   1.0330   3.3487   3.7957

          k = 0.6250 0.6250 0.1250 (   361 PWs)   bands (ev):

    -2.9953  -0.6155   2.0614   4.1068

          k =-0.8750 0.1250-0.6250 (   361 PWs)   bands (ev):

    -2.4600  -0.9233   2.0058   3.0736

          k =-0.8750 0.6250-0.6250 (   352 PWs)   bands (ev):

    -4.6203   1.3740   3.6944   5.1887

          k =-0.1250 0.6250-0.8750 (   361 PWs)   bands (ev):

    -2.4600  -0.9233   2.0058   3.0736

          k =-0.1250 1.1250-0.8750 (   358 PWs)   bands (ev):

    -2.6251  -0.8269   2.6098   3.3304

          k =-0.1250 0.8750-0.6250 (   361 PWs)   bands (ev):

    -2.4600  -0.9233   2.0058   3.0736

          k =-0.1250 1.3750-0.6250 (   361 PWs)   bands (ev):

    -2.9953  -0.6155   2.0614   4.1068

          k =-0.1250-0.8750-0.6250 (   361 PWs)   bands (ev):

    -2.4600  -0.9233   2.0058   3.0736

          k =-0.1250-0.3750-0.6250 (   357 PWs)   bands (ev):

    -3.6776   0.1677   2.7102   4.0704

          k = 0.8750-0.6250 0.1250 (   361 PWs)   bands (ev):

    -2.4600  -0.9233   2.0058   3.0736

          k = 0.8750-0.1250 0.1250 (   358 PWs)   bands (ev):

    -2.6251  -0.8269   2.6098   3.3304

          k =-0.6250-0.1250-0.3750 (   357 PWs)   bands (ev):

    -3.6776   0.1677   2.7102   4.0704

          k =-0.6250 0.3750-0.3750 (   361 PWs)   bands (ev):

    -3.4892  -0.6919   3.7113   4.4215

          k = 0.1250 0.3750-0.6250 (   357 PWs)   bands (ev):

    -3.6776   0.1677   2.7102   4.0704

          k = 0.1250 0.8750-0.6250 (   361 PWs)   bands (ev):

    -2.4600  -0.9233   2.0058   3.0736

          k = 0.1250 0.6250-0.3750 (   357 PWs)   bands (ev):

    -3.6776   0.1677   2.7102   4.0704

          k = 0.1250 1.1250-0.3750 (   361 PWs)   bands (ev):

    -2.4600  -0.9233   2.0058   3.0736

          k = 0.1250-0.6250-0.3750 (   357 PWs)   bands (ev):

    -3.6776   0.1677   2.7102   4.0704

          k = 0.1250-0.1250-0.3750 (   353 PWs)   bands (ev):

    -5.1164   2.7442   4.6663   4.7282

          k = 0.6250-0.3750-0.1250 (   357 PWs)   bands (ev):

    -3.6776   0.1677   2.7102   4.0704

          k = 0.6250 0.1250-0.1250 (   351 PWs)   bands (ev):

    -4.0900   1.0330   3.3487   3.7957

          k =-0.1250 0.8750 0.1250 (   358 PWs)   bands (ev):

    -2.6251  -0.8269   2.6098   3.3304

          k =-0.1250 1.3750 0.1250 (   351 PWs)   bands (ev):

    -4.0900   1.0330   3.3487   3.7957

          k =-0.8750-0.1250-0.1250 (   358 PWs)   bands (ev):

    -2.6251  -0.8269   2.6098   3.3304

          k =-0.8750 0.3750-0.1250 (   361 PWs)   bands (ev):

    -2.4600  -0.9233   2.0058   3.0736

          k =-0.8750 0.1250 0.1250 (   358 PWs)   bands (ev):

    -2.6251  -0.8269   2.6098   3.3304

          k =-0.8750 0.6250 0.1250 (   361 PWs)   bands (ev):

    -2.4600  -0.9233   2.0058   3.0736

          k =-0.3750-0.3750 0.3750 (   353 PWs)   bands (ev):

    -4.1908   0.0933   4.8835   4.8835

          k =-0.3750 0.1250 0.3750 (   352 PWs)   bands (ev):

    -4.6203   1.3740   3.6944   5.1887

          k =-1.1250 0.3750-0.3750 (   361 PWs)   bands (ev):

    -2.9953  -0.6155   2.0614   4.1068

          k =-1.1250 0.8750-0.3750 (   351 PWs)   bands (ev):

    -4.0900   1.0330   3.3487   3.7957

          k =-0.3750 1.1250-0.3750 (   361 PWs)   bands (ev):

    -2.9953  -0.6155   2.0614   4.1068

          k =-0.3750 1.6250-0.3750 (   353 PWs)   bands (ev):

    -4.1908   0.0933   4.8835   4.8835

          k =-0.3750-1.1250-0.3750 (   361 PWs)   bands (ev):

    -2.9953  -0.6155   2.0614   4.1068

          k =-0.3750-0.6250-0.3750 (   361 PWs)   bands (ev):

    -3.4892  -0.6919   3.7113   4.4215

     highest occupied level (ev):     5.6699

     Writing output data file silicon.10.344.save

                                                                                

     bravais-lattice index     =            2
     lattice parameter (alat)  =      10.3440  a.u.
     unit-cell volume          =     276.6977 (a.u.)^3
     number of atoms/cell      =            2
     number of atomic types    =            1
     kinetic-energy cut-off    =      18.0000  Ry
     charge density cut-off    =      72.0000  Ry
     convergence threshold     =      1.0E-12
     beta                      =       0.7000
     number of iterations used =            4
     Exchange-correlation      = SLA  PW   PBE  PBE ( 1  4  3  4 0 0)


     celldm(1)=   10.34400  celldm(2)=    0.00000  celldm(3)=    0.00000
     celldm(4)=    0.00000  celldm(5)=    0.00000  celldm(6)=    0.00000

     crystal axes: (cart. coord. in units of alat)
               a(1) = ( -0.5000  0.0000  0.5000 )  
               a(2) = (  0.0000  0.5000  0.5000 )  
               a(3) = ( -0.5000  0.5000  0.0000 )  

     reciprocal axes: (cart. coord. in units 2 pi/alat)
               b(1) = ( -1.0000 -1.0000  1.0000 )  
               b(2) = (  1.0000  1.0000  1.0000 )  
               b(3) = ( -1.0000  1.0000 -1.0000 )  


     Atoms inside the unit cell: 

     Cartesian axes

     site n.  atom      mass           positions (alat units)
        1     Si  28.0860   tau(    1) = (    0.00000    0.00000    0.00000  )
        2     Si  28.0860   tau(    2) = (    0.25000    0.25000    0.25000  )

     Computing dynamical matrix for 
                    q = (   0.0000000   0.5000000   0.0000000 )

      8 Sym.Ops. (no q -> -q+G )


     G cutoff =  195.1416  (    710 G-vectors)     FFT grid: ( 20, 20, 20)
     number of k points=    80

     PseudoPot. # 1 for Si read from file:
     /home/max/quantum_espresso/qe-6.1/pseudo/si_pbe_v1.uspp.F.UPF.txt
     MD5 check sum: a056efeee980c13900f22a371efd63c1
     Pseudo is Ultrasoft + core correction, Zval =  4.0
     Generated by new atomic code, or converted to UPF format
     Using radial grid of  899 points,  6 beta functions with: 
                l(1) =   0
                l(2) =   0
                l(3) =   1
                l(4) =   1
                l(5) =   2
                l(6) =   2
     Q(r) pseudized with  8 coefficients,  rinner =    0.900   0.900   0.900
                                                       0.900   0.900

     Mode symmetry, C_4v (4mm)  point group:


     Atomic displacements:
     There are   4 irreducible representations

     Representation     1      1 modes -A_1  G_1 D_1  To be done

     Representation     2      1 modes -B_2  G_4 D_2'  To be done

     Representation     3      2 modes -E    G_5 D_5  To be done

     Representation     4      2 modes -E    G_5 D_5  To be done



     Alpha used in Ewald sum =   0.7000
     PHONON       :    23.52s CPU        26.80s WALL



     Representation #  1 mode #   1

     Self-consistent Calculation

      iter #   1 total cpu time :    27.0 secs   av.it.:   5.8
      thresh= 1.000E-02 alpha_mix =  0.700 |ddv_scf|^2 =  2.964E-03

      iter #   2 total cpu time :    27.2 secs   av.it.:   7.7
      thresh= 5.445E-03 alpha_mix =  0.700 |ddv_scf|^2 =  3.905E-02

      iter #   3 total cpu time :    27.4 secs   av.it.:   6.7
      thresh= 1.000E-02 alpha_mix =  0.700 |ddv_scf|^2 =  1.486E-07

      iter #   4 total cpu time :    27.6 secs   av.it.:   8.1
      thresh= 3.855E-05 alpha_mix =  0.700 |ddv_scf|^2 =  1.425E-08

      iter #   5 total cpu time :    27.8 secs   av.it.:   7.7
      thresh= 1.194E-05 alpha_mix =  0.700 |ddv_scf|^2 =  7.180E-10

      iter #   6 total cpu time :    28.0 secs   av.it.:   7.9
      thresh= 2.680E-06 alpha_mix =  0.700 |ddv_scf|^2 =  2.816E-12

      iter #   7 total cpu time :    28.2 secs   av.it.:   7.9
      thresh= 1.678E-07 alpha_mix =  0.700 |ddv_scf|^2 =  5.415E-13

     End of self-consistent calculation

     Convergence has been achieved 


     Representation #  2 mode #   2

     Self-consistent Calculation

      iter #   1 total cpu time :    28.4 secs   av.it.:   4.9
      thresh= 1.000E-02 alpha_mix =  0.700 |ddv_scf|^2 =  5.509E-06

      iter #   2 total cpu time :    28.6 secs   av.it.:   8.7
      thresh= 2.347E-04 alpha_mix =  0.700 |ddv_scf|^2 =  1.341E-06

      iter #   3 total cpu time :    29.0 secs   av.it.:   8.5
      thresh= 1.158E-04 alpha_mix =  0.700 |ddv_scf|^2 =  4.283E-08

      iter #   4 total cpu time :    29.2 secs   av.it.:   8.2
      thresh= 2.070E-05 alpha_mix =  0.700 |ddv_scf|^2 =  7.205E-10

      iter #   5 total cpu time :    29.4 secs   av.it.:   8.5
      thresh= 2.684E-06 alpha_mix =  0.700 |ddv_scf|^2 =  6.865E-12

      iter #   6 total cpu time :    29.6 secs   av.it.:   8.0
      thresh= 2.620E-07 alpha_mix =  0.700 |ddv_scf|^2 =  7.459E-14

     End of self-consistent calculation

     Convergence has been achieved 


     Representation #  3 modes #   3  4

     Self-consistent Calculation

      iter #   1 total cpu time :    29.9 secs   av.it.:   5.0
      thresh= 1.000E-02 alpha_mix =  0.700 |ddv_scf|^2 =  1.023E-06

      iter #   2 total cpu time :    30.4 secs   av.it.:   9.8
      thresh= 1.011E-04 alpha_mix =  0.700 |ddv_scf|^2 =  1.269E-07

      iter #   3 total cpu time :    31.0 secs   av.it.:   9.5
      thresh= 3.562E-05 alpha_mix =  0.700 |ddv_scf|^2 =  6.716E-09

      iter #   4 total cpu time :    31.4 secs   av.it.:   8.8
      thresh= 8.195E-06 alpha_mix =  0.700 |ddv_scf|^2 =  9.541E-12

      iter #   5 total cpu time :    31.9 secs   av.it.:   9.1
      thresh= 3.089E-07 alpha_mix =  0.700 |ddv_scf|^2 =  2.995E-13

     End of self-consistent calculation

     Convergence has been achieved 


     Representation #  4 modes #   5  6

     Self-consistent Calculation

      iter #   1 total cpu time :    32.2 secs   av.it.:   5.0
      thresh= 1.000E-02 alpha_mix =  0.700 |ddv_scf|^2 =  9.386E-07

      iter #   2 total cpu time :    32.9 secs   av.it.:   9.8
      thresh= 9.688E-05 alpha_mix =  0.700 |ddv_scf|^2 =  1.188E-07

      iter #   3 total cpu time :    33.3 secs   av.it.:   9.5
      thresh= 3.447E-05 alpha_mix =  0.700 |ddv_scf|^2 =  7.026E-09

      iter #   4 total cpu time :    33.7 secs   av.it.:   8.9
      thresh= 8.382E-06 alpha_mix =  0.700 |ddv_scf|^2 =  1.484E-11

      iter #   5 total cpu time :    34.2 secs   av.it.:   9.2
      thresh= 3.852E-07 alpha_mix =  0.700 |ddv_scf|^2 =  4.427E-14

     End of self-consistent calculation

     Convergence has been achieved 

     Number of q in the star =    6
     List of q in the star:
          1   0.000000000   0.500000000   0.000000000
          2   0.000000000  -0.500000000   0.000000000
          3   0.500000000   0.000000000   0.000000000
          4   0.000000000   0.000000000   0.500000000
          5   0.000000000   0.000000000  -0.500000000
          6  -0.500000000   0.000000000   0.000000000

     Diagonalizing the dynamical matrix

     q = (    0.000000000   0.500000000   0.000000000 ) 

 **************************************************************************
     freq (    1) =       4.298809 [THz] =     143.392830 [cm-1]
     freq (    2) =       4.298809 [THz] =     143.392830 [cm-1]
     freq (    3) =       7.145130 [THz] =     238.335886 [cm-1]
     freq (    4) =      14.030570 [THz] =     468.009454 [cm-1]
     freq (    5) =      14.030570 [THz] =     468.009454 [cm-1]
     freq (    6) =      14.661848 [THz] =     489.066595 [cm-1]
 **************************************************************************

     Mode symmetry, C_4v (4mm)  point group:

     freq (  1 -  2) =        143.4  [cm-1]   --> E    G_5 D_5       
     freq (  3 -  3) =        238.3  [cm-1]   --> A_1  G_1 D_1       
     freq (  4 -  5) =        468.0  [cm-1]   --> E    G_5 D_5       
     freq (  6 -  6) =        489.1  [cm-1]   --> B_2  G_4 D_2'      

     Calculation of q =    0.7500000  -0.2500000   0.7500000

   Info: using nr1, nr2, nr3 values from input

   Info: using nr1, nr2, nr3 values from input

     Parallelization info
     --------------------
     sticks:   dense  smooth     PW     G-vecs:    dense   smooth      PW
     Min          64      64     30                  709      709     216
     Max          67      67     31                  710      710     218
     Sum         265     265    121                 2837     2837     869



     bravais-lattice index     =            2
     lattice parameter (alat)  =      10.3440  a.u.
     unit-cell volume          =     276.6977 (a.u.)^3
     number of atoms/cell      =            2
     number of atomic types    =            1
     number of electrons       =         8.00
     number of Kohn-Sham states=            4
     kinetic-energy cutoff     =      18.0000  Ry
     charge density cutoff     =      72.0000  Ry
     Exchange-correlation      = SLA  PW   PBE  PBE ( 1  4  3  4 0 0)

     celldm(1)=  10.344000  celldm(2)=   0.000000  celldm(3)=   0.000000
     celldm(4)=   0.000000  celldm(5)=   0.000000  celldm(6)=   0.000000

     crystal axes: (cart. coord. in units of alat)
               a(1) = (  -0.500000   0.000000   0.500000 )  
               a(2) = (   0.000000   0.500000   0.500000 )  
               a(3) = (  -0.500000   0.500000   0.000000 )  

     reciprocal axes: (cart. coord. in units 2 pi/alat)
               b(1) = ( -1.000000 -1.000000  1.000000 )  
               b(2) = (  1.000000  1.000000  1.000000 )  
               b(3) = ( -1.000000  1.000000 -1.000000 )  


     PseudoPot. # 1 for Si read from file:
     /home/max/quantum_espresso/qe-6.1/pseudo/si_pbe_v1.uspp.F.UPF.txt
     MD5 check sum: a056efeee980c13900f22a371efd63c1
     Pseudo is Ultrasoft + core correction, Zval =  4.0
     Generated by new atomic code, or converted to UPF format
     Using radial grid of  899 points,  6 beta functions with: 
                l(1) =   0
                l(2) =   0
                l(3) =   1
                l(4) =   1
                l(5) =   2
                l(6) =   2
     Q(r) pseudized with  8 coefficients,  rinner =    0.900   0.900   0.900
                                                       0.900   0.900

     atomic species   valence    mass     pseudopotential
        Si             4.00    28.08600     Si( 1.00)

     48 Sym. Ops., with inversion, found



   Cartesian axes

     site n.     atom                  positions (alat units)
         1           Si  tau(   1) = (   0.0000000   0.0000000   0.0000000  )
         2           Si  tau(   2) = (   0.2500000   0.2500000   0.2500000  )

     number of k points=   288

     Number of k-points >= 100: set verbosity='high' to print them.

     Dense  grid:     2837 G-vectors     FFT dimensions: (  20,  20,  20)

     Estimated max dynamical RAM per process >       0.33MB

     Estimated total allocated dynamical RAM >       1.32MB

     Check: negative/imaginary core charge=   -0.000006    0.000000

     The potential is recalculated from file :
     ./_ph0/silicon.10.344.save/charge-density.dat

     Starting wfc are    8 atomic wfcs

     Band Structure Calculation
     Davidson diagonalization with overlap

     ethr =  1.25E-10,  avg # of iterations = 11.6

     total cpu time spent up to now is        4.8 secs

     End of band structure calculation

     Number of k-points >= 100: set verbosity='high' to print the bands.

     highest occupied level (ev):     5.6699

     Writing output data file silicon.10.344.save

                                                                                

     bravais-lattice index     =            2
     lattice parameter (alat)  =      10.3440  a.u.
     unit-cell volume          =     276.6977 (a.u.)^3
     number of atoms/cell      =            2
     number of atomic types    =            1
     kinetic-energy cut-off    =      18.0000  Ry
     charge density cut-off    =      72.0000  Ry
     convergence threshold     =      1.0E-12
     beta                      =       0.7000
     number of iterations used =            4
     Exchange-correlation      = SLA  PW   PBE  PBE ( 1  4  3  4 0 0)


     celldm(1)=   10.34400  celldm(2)=    0.00000  celldm(3)=    0.00000
     celldm(4)=    0.00000  celldm(5)=    0.00000  celldm(6)=    0.00000

     crystal axes: (cart. coord. in units of alat)
               a(1) = ( -0.5000  0.0000  0.5000 )  
               a(2) = (  0.0000  0.5000  0.5000 )  
               a(3) = ( -0.5000  0.5000  0.0000 )  

     reciprocal axes: (cart. coord. in units 2 pi/alat)
               b(1) = ( -1.0000 -1.0000  1.0000 )  
               b(2) = (  1.0000  1.0000  1.0000 )  
               b(3) = ( -1.0000  1.0000 -1.0000 )  


     Atoms inside the unit cell: 

     Cartesian axes

     site n.  atom      mass           positions (alat units)
        1     Si  28.0860   tau(    1) = (    0.00000    0.00000    0.00000  )
        2     Si  28.0860   tau(    2) = (    0.25000    0.25000    0.25000  )

     Computing dynamical matrix for 
                    q = (   0.7500000  -0.2500000   0.7500000 )

      2 Sym.Ops. (no q -> -q+G )


     G cutoff =  195.1416  (    710 G-vectors)     FFT grid: ( 20, 20, 20)
     number of k points=   288

     PseudoPot. # 1 for Si read from file:
     /home/max/quantum_espresso/qe-6.1/pseudo/si_pbe_v1.uspp.F.UPF.txt
     MD5 check sum: a056efeee980c13900f22a371efd63c1
     Pseudo is Ultrasoft + core correction, Zval =  4.0
     Generated by new atomic code, or converted to UPF format
     Using radial grid of  899 points,  6 beta functions with: 
                l(1) =   0
                l(2) =   0
                l(3) =   1
                l(4) =   1
                l(5) =   2
                l(6) =   2
     Q(r) pseudized with  8 coefficients,  rinner =    0.900   0.900   0.900
                                                       0.900   0.900

     Mode symmetry, C_s (m)     point group:


     Atomic displacements:
     There are   6 irreducible representations

     Representation     1      1 modes -A'  To be done

     Representation     2      1 modes -A'  To be done

     Representation     3      1 modes -A'  To be done

     Representation     4      1 modes -A'  To be done

     Representation     5      1 modes -A''  To be done

     Representation     6      1 modes -A''  To be done



     Alpha used in Ewald sum =   0.7000
     PHONON       :    32.98s CPU        37.40s WALL



     Representation #  1 mode #   1

     Self-consistent Calculation

      iter #   1 total cpu time :    38.0 secs   av.it.:   5.3
      thresh= 1.000E-02 alpha_mix =  0.700 |ddv_scf|^2 =  6.120E-05

      iter #   2 total cpu time :    39.0 secs   av.it.:   8.9
      thresh= 7.823E-04 alpha_mix =  0.700 |ddv_scf|^2 =  1.604E-04

      iter #   3 total cpu time :    39.7 secs   av.it.:   7.6
      thresh= 1.266E-03 alpha_mix =  0.700 |ddv_scf|^2 =  1.147E-06

      iter #   4 total cpu time :    40.4 secs   av.it.:   8.4
      thresh= 1.071E-04 alpha_mix =  0.700 |ddv_scf|^2 =  6.182E-08

      iter #   5 total cpu time :    41.3 secs   av.it.:   8.3
      thresh= 2.486E-05 alpha_mix =  0.700 |ddv_scf|^2 =  7.550E-09

      iter #   6 total cpu time :    42.1 secs   av.it.:   8.5
      thresh= 8.689E-06 alpha_mix =  0.700 |ddv_scf|^2 =  8.364E-11

      iter #   7 total cpu time :    43.1 secs   av.it.:   8.8
      thresh= 9.146E-07 alpha_mix =  0.700 |ddv_scf|^2 =  2.996E-12

      iter #   8 total cpu time :    43.8 secs   av.it.:   8.6
      thresh= 1.731E-07 alpha_mix =  0.700 |ddv_scf|^2 =  1.816E-13

     End of self-consistent calculation

     Convergence has been achieved 


     Representation #  2 mode #   2

     Self-consistent Calculation

      iter #   1 total cpu time :    44.5 secs   av.it.:   5.4
      thresh= 1.000E-02 alpha_mix =  0.700 |ddv_scf|^2 =  1.089E-04

      iter #   2 total cpu time :    45.5 secs   av.it.:   8.7
      thresh= 1.044E-03 alpha_mix =  0.700 |ddv_scf|^2 =  3.107E-04

      iter #   3 total cpu time :    46.1 secs   av.it.:   7.4
      thresh= 1.763E-03 alpha_mix =  0.700 |ddv_scf|^2 =  7.939E-07

      iter #   4 total cpu time :    47.1 secs   av.it.:   8.6
      thresh= 8.910E-05 alpha_mix =  0.700 |ddv_scf|^2 =  6.027E-08

      iter #   5 total cpu time :    47.8 secs   av.it.:   8.2
      thresh= 2.455E-05 alpha_mix =  0.700 |ddv_scf|^2 =  1.074E-08

      iter #   6 total cpu time :    48.7 secs   av.it.:   8.5
      thresh= 1.036E-05 alpha_mix =  0.700 |ddv_scf|^2 =  8.375E-11

      iter #   7 total cpu time :    49.6 secs   av.it.:   8.7
      thresh= 9.151E-07 alpha_mix =  0.700 |ddv_scf|^2 =  2.776E-12

      iter #   8 total cpu time :    50.3 secs   av.it.:   8.6
      thresh= 1.666E-07 alpha_mix =  0.700 |ddv_scf|^2 =  8.805E-13

     End of self-consistent calculation

     Convergence has been achieved 


     Representation #  3 mode #   3

     Self-consistent Calculation

      iter #   1 total cpu time :    51.2 secs   av.it.:   5.3
      thresh= 1.000E-02 alpha_mix =  0.700 |ddv_scf|^2 =  8.547E-05

      iter #   2 total cpu time :    51.9 secs   av.it.:   8.7
      thresh= 9.245E-04 alpha_mix =  0.700 |ddv_scf|^2 =  2.279E-04

      iter #   3 total cpu time :    52.8 secs   av.it.:   7.4
      thresh= 1.510E-03 alpha_mix =  0.700 |ddv_scf|^2 =  1.353E-06

      iter #   4 total cpu time :    53.5 secs   av.it.:   8.2
      thresh= 1.163E-04 alpha_mix =  0.700 |ddv_scf|^2 =  6.189E-08

      iter #   5 total cpu time :    54.3 secs   av.it.:   8.4
      thresh= 2.488E-05 alpha_mix =  0.700 |ddv_scf|^2 =  1.105E-08

      iter #   6 total cpu time :    55.2 secs   av.it.:   8.4
      thresh= 1.051E-05 alpha_mix =  0.700 |ddv_scf|^2 =  4.804E-11

      iter #   7 total cpu time :    56.0 secs   av.it.:   8.7
      thresh= 6.931E-07 alpha_mix =  0.700 |ddv_scf|^2 =  1.743E-12

      iter #   8 total cpu time :    57.0 secs   av.it.:   8.8
      thresh= 1.320E-07 alpha_mix =  0.700 |ddv_scf|^2 =  3.228E-13

     End of self-consistent calculation

     Convergence has been achieved 


     Representation #  4 mode #   4

     Self-consistent Calculation

      iter #   1 total cpu time :    57.7 secs   av.it.:   5.2
      thresh= 1.000E-02 alpha_mix =  0.700 |ddv_scf|^2 =  3.775E-05

      iter #   2 total cpu time :    58.5 secs   av.it.:   8.9
[...]
        k(   59) = (  -0.8750000   0.1250000  -0.1250000), wk =   0.0625000
        k(   60) = (  -1.3750000  -0.8750000  -0.1250000), wk =   0.0000000
        k(   61) = (  -1.1250000   0.3750000  -0.3750000), wk =   0.0625000
        k(   62) = (  -1.6250000  -0.6250000  -0.3750000), wk =   0.0000000
        k(   63) = (  -0.3750000   0.3750000   1.1250000), wk =   0.0625000
        k(   64) = (  -0.8750000  -0.6250000   1.1250000), wk =   0.0000000

     Dense  grid:     2837 G-vectors     FFT dimensions: (  20,  20,  20)

     Estimated max dynamical RAM per process >       0.33MB

     Estimated total allocated dynamical RAM >       1.32MB

     Check: negative/imaginary core charge=   -0.000006    0.000000

     The potential is recalculated from file :
     ./_ph0/silicon.10.344.save/charge-density.dat

     Starting wfc are    8 atomic wfcs

     Band Structure Calculation
     Davidson diagonalization with overlap

     ethr =  1.25E-10,  avg # of iterations = 11.6

     total cpu time spent up to now is        7.6 secs

     End of band structure calculation

          k =-0.1250 0.1250 0.1250 (   338 PWs)   bands (ev):

    -5.6412   4.3612   5.6699   5.6699

          k =-0.6250-0.8750 0.1250 (   361 PWs)   bands (ev):

    -2.4600  -0.9233   2.0058   3.0736

          k =-0.3750 0.3750-0.1250 (   352 PWs)   bands (ev):

    -4.6203   1.3740   3.6944   5.1887

          k =-0.8750-0.6250-0.1250 (   361 PWs)   bands (ev):

    -2.4600  -0.9233   2.0058   3.0736

          k = 0.3750-0.3750 0.6250 (   361 PWs)   bands (ev):

    -3.4892  -0.6919   3.7113   4.4215

          k =-0.1250-1.3750 0.6250 (   361 PWs)   bands (ev):

    -2.9953  -0.6155   2.0614   4.1068

          k = 0.1250-0.1250 0.3750 (   353 PWs)   bands (ev):

    -5.1164   2.7442   4.6663   4.7282

          k =-0.3750-1.1250 0.3750 (   361 PWs)   bands (ev):

    -2.9953  -0.6155   2.0614   4.1068

          k =-0.1250 0.6250 0.1250 (   351 PWs)   bands (ev):

    -4.0900   1.0330   3.3487   3.7957

          k =-0.6250-0.3750 0.1250 (   357 PWs)   bands (ev):

    -3.6776   0.1677   2.7102   4.0704

          k = 0.6250-0.1250 0.8750 (   361 PWs)   bands (ev):

    -2.4600  -0.9233   2.0058   3.0736

          k = 0.1250-1.1250 0.8750 (   358 PWs)   bands (ev):

    -2.6251  -0.8269   2.6098   3.3304

          k = 0.3750 0.1250 0.6250 (   357 PWs)   bands (ev):

    -3.6776   0.1677   2.7102   4.0704

          k =-0.1250-0.8750 0.6250 (   361 PWs)   bands (ev):

    -2.4600  -0.9233   2.0058   3.0736

          k =-0.1250-0.8750 0.1250 (   358 PWs)   bands (ev):

    -2.6251  -0.8269   2.6098   3.3304

          k =-0.6250-1.8750 0.1250 (   351 PWs)   bands (ev):

    -4.0900   1.0330   3.3487   3.7957

          k =-0.3750 0.3750 0.3750 (   353 PWs)   bands (ev):

    -4.1908   0.0933   4.8835   4.8835

          k =-0.8750-0.6250 0.3750 (   357 PWs)   bands (ev):

    -3.6776   0.1677   2.7102   4.0704

          k = 0.3750-0.3750 1.1250 (   361 PWs)   bands (ev):

    -2.9953  -0.6155   2.0614   4.1068

          k =-0.1250-1.3750 1.1250 (   361 PWs)   bands (ev):

    -2.4600  -0.9233   2.0058   3.0736

          k = 0.1250-0.3750 0.3750 (   352 PWs)   bands (ev):

    -4.6203   1.3740   3.6944   5.1887

          k =-0.3750-1.3750 0.3750 (   361 PWs)   bands (ev):

    -3.4892  -0.6919   3.7113   4.4215

          k = 0.3750-0.3750-0.1250 (   352 PWs)   bands (ev):

    -4.6203   1.3740   3.6944   5.1887

          k =-0.1250-1.3750-0.1250 (   351 PWs)   bands (ev):

    -4.0900   1.0330   3.3487   3.7957

          k =-0.6250 0.3750-0.3750 (   361 PWs)   bands (ev):

    -3.4892  -0.6919   3.7113   4.4215

          k =-1.1250-0.6250-0.3750 (   357 PWs)   bands (ev):

    -3.6776   0.1677   2.7102   4.0704

          k =-0.3750 0.3750 0.6250 (   361 PWs)   bands (ev):

    -3.4892  -0.6919   3.7113   4.4215

          k =-0.8750-0.6250 0.6250 (   352 PWs)   bands (ev):

    -4.6203   1.3740   3.6944   5.1887

          k =-0.3750 0.1250-0.1250 (   353 PWs)   bands (ev):

    -5.1164   2.7442   4.6663   4.7282

          k =-0.8750-0.8750-0.1250 (   358 PWs)   bands (ev):

    -2.6251  -0.8269   2.6098   3.3304

          k =-0.1250 0.1250 0.3750 (   353 PWs)   bands (ev):

    -5.1164   2.7442   4.6663   4.7282

          k =-0.6250-0.8750 0.3750 (   357 PWs)   bands (ev):

    -3.6776   0.1677   2.7102   4.0704

          k = 0.1250 0.6250-0.1250 (   351 PWs)   bands (ev):

    -4.0900   1.0330   3.3487   3.7957

          k =-0.3750-0.3750-0.1250 (   352 PWs)   bands (ev):

    -4.6203   1.3740   3.6944   5.1887

          k = 0.6250 0.1250-0.1250 (   351 PWs)   bands (ev):

    -4.0900   1.0330   3.3487   3.7957

          k = 0.1250-0.8750-0.1250 (   358 PWs)   bands (ev):

    -2.6251  -0.8269   2.6098   3.3304

          k =-0.8750 0.1250-0.6250 (   361 PWs)   bands (ev):

    -2.4600  -0.9233   2.0058   3.0736

          k =-1.3750-0.8750-0.6250 (   352 PWs)   bands (ev):

    -4.6203   1.3740   3.6944   5.1887

          k = 0.8750-0.1250 0.6250 (   361 PWs)   bands (ev):

    -2.4600  -0.9233   2.0058   3.0736

          k = 0.3750-1.1250 0.6250 (   357 PWs)   bands (ev):

    -3.6776   0.1677   2.7102   4.0704

          k =-0.6250 0.1250 0.8750 (   361 PWs)   bands (ev):

    -2.4600  -0.9233   2.0058   3.0736

          k =-1.1250-0.8750 0.8750 (   338 PWs)   bands (ev):

    -5.6412   4.3612   5.6699   5.6699

          k =-0.1250 0.8750 0.6250 (   361 PWs)   bands (ev):

    -2.4600  -0.9233   2.0058   3.0736

          k =-0.6250-0.1250 0.6250 (   361 PWs)   bands (ev):

    -2.9953  -0.6155   2.0614   4.1068

          k = 0.1250 0.8750-0.6250 (   361 PWs)   bands (ev):

    -2.4600  -0.9233   2.0058   3.0736

          k =-0.3750-0.1250-0.6250 (   357 PWs)   bands (ev):

    -3.6776   0.1677   2.7102   4.0704

          k =-0.6250-0.1250-0.3750 (   357 PWs)   bands (ev):

    -3.6776   0.1677   2.7102   4.0704

          k =-1.1250-1.1250-0.3750 (   351 PWs)   bands (ev):

    -4.0900   1.0330   3.3487   3.7957

          k = 0.6250 0.1250 0.3750 (   357 PWs)   bands (ev):

    -3.6776   0.1677   2.7102   4.0704

          k = 0.1250-0.8750 0.3750 (   361 PWs)   bands (ev):

    -2.4600  -0.9233   2.0058   3.0736

          k =-0.3750-0.1250 0.6250 (   357 PWs)   bands (ev):

    -3.6776   0.1677   2.7102   4.0704

          k =-0.8750-1.1250 0.6250 (   353 PWs)   bands (ev):

    -5.1164   2.7442   4.6663   4.7282

          k = 0.1250 0.6250 0.3750 (   357 PWs)   bands (ev):

    -3.6776   0.1677   2.7102   4.0704

          k =-0.3750-0.3750 0.3750 (   353 PWs)   bands (ev):

    -4.1908   0.0933   4.8835   4.8835

          k =-0.1250 0.6250-0.3750 (   357 PWs)   bands (ev):

    -3.6776   0.1677   2.7102   4.0704

          k =-0.6250-0.3750-0.3750 (   361 PWs)   bands (ev):

    -3.4892  -0.6919   3.7113   4.4215

          k = 0.1250-0.8750-0.1250 (   358 PWs)   bands (ev):

    -2.6251  -0.8269   2.6098   3.3304

          k =-0.3750-1.8750-0.1250 (   353 PWs)   bands (ev):

    -5.1164   2.7442   4.6663   4.7282

          k =-0.8750 0.1250-0.1250 (   358 PWs)   bands (ev):

    -2.6251  -0.8269   2.6098   3.3304

          k =-1.3750-0.8750-0.1250 (   361 PWs)   bands (ev):

    -2.4600  -0.9233   2.0058   3.0736

          k =-1.1250 0.3750-0.3750 (   361 PWs)   bands (ev):

    -2.9953  -0.6155   2.0614   4.1068

          k =-1.6250-0.6250-0.3750 (   361 PWs)   bands (ev):

    -3.4892  -0.6919   3.7113   4.4215

          k =-0.3750 0.3750 1.1250 (   361 PWs)   bands (ev):

    -2.9953  -0.6155   2.0614   4.1068

          k =-0.8750-0.6250 1.1250 (   353 PWs)   bands (ev):

    -5.1164   2.7442   4.6663   4.7282

     highest occupied level (ev):     5.6699

     Writing output data file silicon.10.344.save

                                                                                

     bravais-lattice index     =            2
     lattice parameter (alat)  =      10.3440  a.u.
     unit-cell volume          =     276.6977 (a.u.)^3
     number of atoms/cell      =            2
     number of atomic types    =            1
     kinetic-energy cut-off    =      18.0000  Ry
     charge density cut-off    =      72.0000  Ry
     convergence threshold     =      1.0E-12
     beta                      =       0.7000
     number of iterations used =            4
     Exchange-correlation      = SLA  PW   PBE  PBE ( 1  4  3  4 0 0)


     celldm(1)=   10.34400  celldm(2)=    0.00000  celldm(3)=    0.00000
     celldm(4)=    0.00000  celldm(5)=    0.00000  celldm(6)=    0.00000

     crystal axes: (cart. coord. in units of alat)
               a(1) = ( -0.5000  0.0000  0.5000 )  
               a(2) = (  0.0000  0.5000  0.5000 )  
               a(3) = ( -0.5000  0.5000  0.0000 )  

     reciprocal axes: (cart. coord. in units 2 pi/alat)
               b(1) = ( -1.0000 -1.0000  1.0000 )  
               b(2) = (  1.0000  1.0000  1.0000 )  
               b(3) = ( -1.0000  1.0000 -1.0000 )  


     Atoms inside the unit cell: 

     Cartesian axes

     site n.  atom      mass           positions (alat units)
        1     Si  28.0860   tau(    1) = (    0.00000    0.00000    0.00000  )
        2     Si  28.0860   tau(    2) = (    0.25000    0.25000    0.25000  )

     Computing dynamical matrix for 
                    q = (  -0.5000000  -1.0000000   0.0000000 )

      8 Sym.Ops. (no q -> -q+G )


     G cutoff =  195.1416  (    710 G-vectors)     FFT grid: ( 20, 20, 20)
     number of k points=    64

     PseudoPot. # 1 for Si read from file:
     /home/max/quantum_espresso/qe-6.1/pseudo/si_pbe_v1.uspp.F.UPF.txt
     MD5 check sum: a056efeee980c13900f22a371efd63c1
     Pseudo is Ultrasoft + core correction, Zval =  4.0
     Generated by new atomic code, or converted to UPF format
     Using radial grid of  899 points,  6 beta functions with: 
                l(1) =   0
                l(2) =   0
                l(3) =   1
                l(4) =   1
                l(5) =   2
                l(6) =   2
     Q(r) pseudized with  8 coefficients,  rinner =    0.900   0.900   0.900
                                                       0.900   0.900


     Atomic displacements:
     There are   3 irreducible representations

     Representation     1      2 modes -  To be done

     Representation     2      2 modes -  To be done

     Representation     3      2 modes -  To be done



     Alpha used in Ewald sum =   0.7000
     PHONON       :  1m23.93s CPU     1m33.73s WALL



     Representation #  1 modes #   1  2

     Self-consistent Calculation

      iter #   1 total cpu time :    94.0 secs   av.it.:   5.3
      thresh= 1.000E-02 alpha_mix =  0.700 |ddv_scf|^2 =  6.362E-06

      iter #   2 total cpu time :    94.4 secs   av.it.:   9.9
      thresh= 2.522E-04 alpha_mix =  0.700 |ddv_scf|^2 =  3.432E-06

      iter #   3 total cpu time :    94.9 secs   av.it.:   9.2
      thresh= 1.853E-04 alpha_mix =  0.700 |ddv_scf|^2 =  9.076E-09

      iter #   4 total cpu time :    95.3 secs   av.it.:   9.0
      thresh= 9.527E-06 alpha_mix =  0.700 |ddv_scf|^2 =  1.956E-11

      iter #   5 total cpu time :    95.6 secs   av.it.:   9.2
      thresh= 4.422E-07 alpha_mix =  0.700 |ddv_scf|^2 =  5.731E-13

     End of self-consistent calculation

     Convergence has been achieved 


     Representation #  2 modes #   3  4

     Self-consistent Calculation

      iter #   1 total cpu time :    95.9 secs   av.it.:   5.2
      thresh= 1.000E-02 alpha_mix =  0.700 |ddv_scf|^2 =  9.805E-06

      iter #   2 total cpu time :    96.3 secs   av.it.:   9.9
      thresh= 3.131E-04 alpha_mix =  0.700 |ddv_scf|^2 =  1.309E-05

      iter #   3 total cpu time :    96.8 secs   av.it.:   9.1
      thresh= 3.618E-04 alpha_mix =  0.700 |ddv_scf|^2 =  1.057E-08

      iter #   4 total cpu time :    97.2 secs   av.it.:   8.8
      thresh= 1.028E-05 alpha_mix =  0.700 |ddv_scf|^2 =  8.486E-11

      iter #   5 total cpu time :    97.5 secs   av.it.:   9.4
      thresh= 9.212E-07 alpha_mix =  0.700 |ddv_scf|^2 =  1.804E-12

      iter #   6 total cpu time :    97.9 secs   av.it.:   9.1
      thresh= 1.343E-07 alpha_mix =  0.700 |ddv_scf|^2 =  1.476E-14

     End of self-consistent calculation

     Convergence has been achieved 


     Representation #  3 modes #   5  6

     Self-consistent Calculation

      iter #   1 total cpu time :    98.1 secs   av.it.:   5.1
      thresh= 1.000E-02 alpha_mix =  0.700 |ddv_scf|^2 =  2.667E-06

      iter #   2 total cpu time :    98.5 secs   av.it.:   9.7
      thresh= 1.633E-04 alpha_mix =  0.700 |ddv_scf|^2 =  1.450E-06

      iter #   3 total cpu time :    99.1 secs   av.it.:   9.0
      thresh= 1.204E-04 alpha_mix =  0.700 |ddv_scf|^2 =  8.789E-09

      iter #   4 total cpu time :    99.4 secs   av.it.:   8.7
      thresh= 9.375E-06 alpha_mix =  0.700 |ddv_scf|^2 =  4.384E-11

      iter #   5 total cpu time :    99.8 secs   av.it.:   9.1
      thresh= 6.621E-07 alpha_mix =  0.700 |ddv_scf|^2 =  6.904E-13

     End of self-consistent calculation

     Convergence has been achieved 

     Number of q in the star =    6
     List of q in the star:
          1  -0.500000000  -1.000000000   0.000000000
          2   0.000000000   1.000000000   0.500000000
          3   0.000000000  -1.000000000  -0.500000000
          4   0.500000000   1.000000000   0.000000000
          5  -1.000000000  -0.500000000   0.000000000
          6   0.000000000  -0.500000000  -1.000000000

     Diagonalizing the dynamical matrix

     q = (   -0.500000000  -1.000000000   0.000000000 ) 

 **************************************************************************
     freq (    1) =       7.333652 [THz] =     244.624312 [cm-1]
     freq (    2) =       7.333652 [THz] =     244.624312 [cm-1]
     freq (    3) =      10.943590 [THz] =     365.038862 [cm-1]
     freq (    4) =      10.943590 [THz] =     365.038862 [cm-1]
     freq (    5) =      13.862867 [THz] =     462.415462 [cm-1]
     freq (    6) =      13.862867 [THz] =     462.415462 [cm-1]
 **************************************************************************

     init_run     :      0.54s CPU      0.61s WALL (       7 calls)
     electrons    :      5.17s CPU      5.95s WALL (       7 calls)

     Called by init_run:
     wfcinit      :      0.00s CPU      0.00s WALL (       7 calls)
     potinit      :      0.02s CPU      0.02s WALL (       7 calls)

     Called by electrons:
     c_bands      :      5.17s CPU      5.94s WALL (       7 calls)
     v_of_rho     :      0.01s CPU      0.01s WALL (       8 calls)
     newd         :      0.03s CPU      0.04s WALL (       8 calls)

     Called by c_bands:
     init_us_2    :      0.69s CPU      0.76s WALL (   17588 calls)
     cegterg      :      4.38s CPU      5.03s WALL (     796 calls)

     Called by sum_band:

     Called by *egterg:
     h_psi        :     49.28s CPU     54.87s WALL (  152105 calls)
     s_psi        :      5.85s CPU      6.46s WALL (  308930 calls)
     g_psi        :      0.03s CPU      0.03s WALL (    9268 calls)
     cdiaghg      :      0.49s CPU      0.57s WALL (   10064 calls)

     Called by h_psi:
     h_psi:pot    :     49.09s CPU     54.66s WALL (  152105 calls)
     h_psi:calbec :      5.29s CPU      5.97s WALL (  152105 calls)
     vloc_psi     :     40.63s CPU     45.18s WALL (  152105 calls)
     add_vuspsi   :      2.93s CPU      3.27s WALL (  152105 calls)

     General routines
     calbec       :     11.44s CPU     12.77s WALL (  345302 calls)
     fft          :      0.54s CPU      0.60s WALL (    5239 calls)
     ffts         :      0.15s CPU      0.16s WALL (    2748 calls)
     fftw         :     47.55s CPU     52.89s WALL ( 1377198 calls)
     davcio       :      0.31s CPU      0.36s WALL (   79045 calls)

     Parallel routines
     fft_scatter  :     14.98s CPU     17.00s WALL ( 1385185 calls)

     PHONON       :  1m29.33s CPU     1m39.79s WALL

     INITIALIZATION: 
     phq_setup    :      0.06s CPU      0.07s WALL (       8 calls)
     phq_init     :      2.26s CPU      2.41s WALL (       8 calls)

     phq_init     :      2.26s CPU      2.41s WALL (       8 calls)
     set_drhoc    :      0.30s CPU      0.31s WALL (      24 calls)
     init_vloc    :      0.01s CPU      0.01s WALL (       8 calls)
     init_us_1    :      0.50s CPU      0.54s WALL (       8 calls)
     newd         :      0.03s CPU      0.04s WALL (       8 calls)
     dvanqq       :      0.25s CPU      0.27s WALL (       8 calls)
     drho         :      1.13s CPU      1.22s WALL (       8 calls)

     DYNAMICAL MATRIX:
     dynmat0      :      0.61s CPU      0.64s WALL (       8 calls)
     phqscf       :     78.64s CPU     87.59s WALL (       8 calls)
     dynmatrix    :      0.01s CPU      0.02s WALL (       8 calls)

     phqscf       :     78.64s CPU     87.59s WALL (       8 calls)
     solve_linter :     77.89s CPU     86.77s WALL (      32 calls)
     drhodv       :      0.54s CPU      0.59s WALL (      32 calls)

     dynmat0      :      0.61s CPU      0.64s WALL (       8 calls)
     dynmat_us    :      0.37s CPU      0.38s WALL (       8 calls)
     d2ionq       :      0.01s CPU      0.01s WALL (       8 calls)
     dynmatcc     :      0.23s CPU      0.24s WALL (       8 calls)

     dynmat_us    :      0.37s CPU      0.38s WALL (       8 calls)
     addusdynmat  :      0.00s CPU      0.00s WALL (       8 calls)

     phqscf       :     78.64s CPU     87.59s WALL (       8 calls)
     solve_linter :     77.89s CPU     86.77s WALL (      32 calls)

     solve_linter :     77.89s CPU     86.77s WALL (      32 calls)
     dvqpsi_us    :      1.72s CPU      1.86s WALL (    2508 calls)
     ortho        :      1.30s CPU      1.49s WALL (   15550 calls)
     cgsolve      :     61.10s CPU     68.07s WALL (   15550 calls)
     incdrhoscf   :      5.47s CPU      6.10s WALL (   15550 calls)
     addusddens   :      1.23s CPU      1.33s WALL (     228 calls)
     vpsifft      :      4.03s CPU      4.48s WALL (   12922 calls)
     dv_of_drho   :      0.24s CPU      0.27s WALL (     295 calls)
     mix_pot      :      0.05s CPU      0.07s WALL (     201 calls)
     psymdvscf    :      0.82s CPU      0.94s WALL (     196 calls)
     newdq        :      1.31s CPU      1.49s WALL (     201 calls)
     adddvscf     :      0.47s CPU      0.53s WALL (   13042 calls)
     drhodvus     :      0.00s CPU      0.00s WALL (      32 calls)

     dvqpsi_us    :      1.72s CPU      1.86s WALL (    2508 calls)
     dvqpsi_us_on :      0.83s CPU      0.89s WALL (    2508 calls)

     cgsolve      :     61.10s CPU     68.07s WALL (   15550 calls)
     ch_psi       :     58.59s CPU     65.07s WALL (  141245 calls)

     ch_psi       :     58.59s CPU     65.07s WALL (  141245 calls)
     h_psi        :     49.28s CPU     54.87s WALL (  152105 calls)
     last         :      9.80s CPU     10.93s WALL (  141245 calls)

     h_psi        :     49.28s CPU     54.87s WALL (  152105 calls)
     add_vuspsi   :      2.93s CPU      3.27s WALL (  152105 calls)

     incdrhoscf   :      5.47s CPU      6.10s WALL (   15550 calls)
     addusdbec    :      0.84s CPU      0.93s WALL (   17998 calls)

     drhodvus     :      0.00s CPU      0.00s WALL (      32 calls)

      General routines
     calbec       :     11.44s CPU     12.77s WALL (  345302 calls)
     fft          :      0.54s CPU      0.60s WALL (    5239 calls)
     ffts         :      0.15s CPU      0.16s WALL (    2748 calls)
     fftw         :     47.55s CPU     52.89s WALL ( 1377198 calls)
     davcio       :      0.31s CPU      0.36s WALL (   79045 calls)
     write_rec    :      0.21s CPU      0.24s WALL (     233 calls)


     PHONON       :  1m29.33s CPU     1m39.80s WALL


   This run was terminated on:  12:45:36   9Nov2017            

=------------------------------------------------------------------------------=
   JOB DONE.
=------------------------------------------------------------------------------=
