
     Program PWSCF v.6.1 (svn rev. 13369) starts on 10Nov2017 at 13:47:47 

     This program is part of the open-source Quantum ESPRESSO suite
     for quantum simulation of materials; please cite
         "P. Giannozzi et al., J. Phys.:Condens. Matter 21 395502 (2009);
          URL http://www.quantum-espresso.org", 
     in publications or presentations arising from this work. More details at
     http://www.quantum-espresso.org/quote

     Parallel version (MPI), running on     4 processors
     R & G space division:  proc/nbgrp/npool/nimage =       4
     Waiting for input...
     Reading input from standard input
     Message from routine read_cards :
     DEPRECATED: no units specified in ATOMIC_POSITIONS card
     Message from routine read_cards :
     ATOMIC_POSITIONS: units set to alat

     Current dimensions of program PWSCF are:
     Max number of different atomic species (ntypx) = 10
     Max number of k-points (npk) =  40000
     Max angular momentum in pseudopotentials (lmaxx) =  3

     Subspace diagonalization in iterative solution of the eigenvalue problem:
     a serial algorithm will be used


     Parallelization info
     --------------------
     sticks:   dense  smooth     PW     G-vecs:    dense   smooth      PW
     Min         342     168     52                 8233     2893     497
     Max         343     169     54                 8234     2895     498
     Sum        1369     673    211                32935    11575    1989



     bravais-lattice index     =            2
     lattice parameter (alat)  =      10.3330  a.u.
     unit-cell volume          =     275.8159 (a.u.)^3
     number of atoms/cell      =            2
     number of atomic types    =            1
     number of electrons       =         8.00
     number of Kohn-Sham states=            4
     kinetic-energy cutoff     =      46.0000  Ry
     charge density cutoff     =     368.0000  Ry
     convergence threshold     =      1.0E-08
     mixing beta               =       0.7000
     number of iterations used =            8  plain     mixing
     Exchange-correlation      = SLA  PW   PBE  PBE ( 1  4  3  4 0 0)

     celldm(1)=  10.333000  celldm(2)=   0.000000  celldm(3)=   0.000000
     celldm(4)=   0.000000  celldm(5)=   0.000000  celldm(6)=   0.000000

     crystal axes: (cart. coord. in units of alat)
               a(1) = (  -0.500000   0.000000   0.500000 )  
               a(2) = (   0.000000   0.500000   0.500000 )  
               a(3) = (  -0.500000   0.500000   0.000000 )  

     reciprocal axes: (cart. coord. in units 2 pi/alat)
               b(1) = ( -1.000000 -1.000000  1.000000 )  
               b(2) = (  1.000000  1.000000  1.000000 )  
               b(3) = ( -1.000000  1.000000 -1.000000 )  


     PseudoPot. # 1 for Si read from file:
     /home/s1333534/quantum_espresso/qe-6.1/pseudo/si_pbe_v1.uspp.F.UPF.txt
     MD5 check sum: a056efeee980c13900f22a371efd63c1
     Pseudo is Ultrasoft + core correction, Zval =  4.0
     Generated by new atomic code, or converted to UPF format
     Using radial grid of  899 points,  6 beta functions with: 
                l(1) =   0
                l(2) =   0
                l(3) =   1
                l(4) =   1
                l(5) =   2
                l(6) =   2
     Q(r) pseudized with  8 coefficients,  rinner =    0.900   0.900   0.900
                                                       0.900   0.900

     atomic species   valence    mass     pseudopotential
        Si             4.00    28.08600     Si( 1.00)

     24 Sym. Ops. (no inversion) found
          (note: 24 additional sym.ops. were found but ignored
           their fractional translations are incommensurate with FFT grid)


   Cartesian axes

     site n.     atom                  positions (alat units)
         1           Si  tau(   1) = (   0.0000000   0.0000000   0.0000000  )
         2           Si  tau(   2) = (   0.2500000   0.2500000   0.2500000  )

     number of k points=    10
                       cart. coord. in units 2pi/alat
        k(    1) = (  -0.1250000   0.1250000   0.1250000), wk =   0.0625000
        k(    2) = (  -0.3750000   0.3750000  -0.1250000), wk =   0.1875000
        k(    3) = (   0.3750000  -0.3750000   0.6250000), wk =   0.1875000
        k(    4) = (   0.1250000  -0.1250000   0.3750000), wk =   0.1875000
        k(    5) = (  -0.1250000   0.6250000   0.1250000), wk =   0.1875000
        k(    6) = (   0.6250000  -0.1250000   0.8750000), wk =   0.3750000
        k(    7) = (   0.3750000   0.1250000   0.6250000), wk =   0.3750000
        k(    8) = (  -0.1250000  -0.8750000   0.1250000), wk =   0.1875000
        k(    9) = (  -0.3750000   0.3750000   0.3750000), wk =   0.0625000
        k(   10) = (   0.3750000  -0.3750000   1.1250000), wk =   0.1875000

     Dense  grid:    32935 G-vectors     FFT dimensions: (  45,  45,  45)

     Smooth grid:    11575 G-vectors     FFT dimensions: (  32,  32,  32)

     Estimated max dynamical RAM per process >       5.56MB

     Estimated total allocated dynamical RAM >      22.22MB

     Initial potential from superposition of free atoms

     starting charge    7.99866, renormalised to    8.00000
     Starting wfc are    8 randomized atomic wfcs

     total cpu time spent up to now is        0.4 secs

     per-process dynamical memory:    11.6 Mb

     Self-consistent Calculation

     iteration #  1     ecut=    46.00 Ry     beta=0.70
     Davidson diagonalization with overlap
     ethr =  1.00E-02,  avg # of iterations =  2.0

     Threshold (ethr) on eigenvalues was too large:
     Diagonalizing with lowered threshold

     Davidson diagonalization with overlap
     ethr =  6.80E-04,  avg # of iterations =  1.0

     total cpu time spent up to now is        0.6 secs

     total energy              =     -19.19118472 Ry
     Harris-Foulkes estimate   =     -19.20365868 Ry
     estimated scf accuracy    <       0.05372151 Ry

     iteration #  2     ecut=    46.00 Ry     beta=0.70
     Davidson diagonalization with overlap
     ethr =  6.72E-04,  avg # of iterations =  1.0

     total cpu time spent up to now is        0.7 secs

     total energy              =     -19.19291865 Ry
     Harris-Foulkes estimate   =     -19.19309265 Ry
     estimated scf accuracy    <       0.00246646 Ry

     iteration #  3     ecut=    46.00 Ry     beta=0.70
     Davidson diagonalization with overlap
     ethr =  3.08E-05,  avg # of iterations =  2.1

     total cpu time spent up to now is        0.8 secs

     total energy              =     -19.19323658 Ry
     Harris-Foulkes estimate   =     -19.19324850 Ry
     estimated scf accuracy    <       0.00004136 Ry

     iteration #  4     ecut=    46.00 Ry     beta=0.70
     Davidson diagonalization with overlap
     ethr =  5.17E-07,  avg # of iterations =  3.5

     total cpu time spent up to now is        1.0 secs

     total energy              =     -19.19327623 Ry
     Harris-Foulkes estimate   =     -19.19327693 Ry
     estimated scf accuracy    <       0.00000269 Ry

     iteration #  5     ecut=    46.00 Ry     beta=0.70
     Davidson diagonalization with overlap
     ethr =  3.37E-08,  avg # of iterations =  2.1

     total cpu time spent up to now is        1.1 secs

     End of self-consistent calculation

          k =-0.1250 0.1250 0.1250 (  1444 PWs)   bands (ev):

    -5.6376   4.3883   5.6976   5.6976

          k =-0.3750 0.3750-0.1250 (  1446 PWs)   bands (ev):

    -4.6114   1.3964   3.7123   5.2176

          k = 0.3750-0.3750 0.6250 (  1453 PWs)   bands (ev):

    -3.4723  -0.6808   3.7330   4.4465

          k = 0.1250-0.1250 0.3750 (  1445 PWs)   bands (ev):

    -5.1099   2.7725   4.6901   4.7540

          k =-0.1250 0.6250 0.1250 (  1441 PWs)   bands (ev):

    -4.0790   1.0622   3.3639   3.8165

          k = 0.6250-0.1250 0.8750 (  1456 PWs)   bands (ev):

    -2.4400  -0.8989   2.0102   3.0864

          k = 0.3750 0.1250 0.6250 (  1457 PWs)   bands (ev):

    -3.6637   0.1895   2.7223   4.0910

          k =-0.1250-0.8750 0.1250 (  1455 PWs)   bands (ev):

    -2.6076  -0.8017   2.6199   3.3498

          k =-0.3750 0.3750 0.3750 (  1441 PWs)   bands (ev):

    -4.1786   0.1068   4.9108   4.9108

          k = 0.3750-0.3750 1.1250 (  1466 PWs)   bands (ev):

    -2.9768  -0.5963   2.0684   4.1297

     highest occupied level (ev):     5.6976

!    total energy              =     -19.19327659 Ry
     Harris-Foulkes estimate   =     -19.19327658 Ry
     estimated scf accuracy    <          8.0E-09 Ry

     The total energy is the sum of the following terms:

     one-electron contribution =       4.95145829 Ry
     hartree contribution      =       1.13439263 Ry
     xc contribution           =      -8.59689220 Ry
     ewald contribution        =     -16.68223531 Ry

     convergence has been achieved in   5 iterations


     Computing stress (Cartesian axis) and pressure

          total   stress  (Ry/bohr**3)                   (kbar)     P=   -0.19
  -0.00000131  -0.00000000  -0.00000000         -0.19     -0.00     -0.00
  -0.00000000  -0.00000131   0.00000000         -0.00     -0.19      0.00
  -0.00000000   0.00000000  -0.00000131         -0.00      0.00     -0.19


     Writing output data file silicon.46.save

     init_run     :      0.29s CPU      0.30s WALL (       1 calls)
     electrons    :      0.72s CPU      0.77s WALL (       1 calls)
     stress       :      0.30s CPU      0.30s WALL (       1 calls)

     Called by init_run:
     wfcinit      :      0.02s CPU      0.02s WALL (       1 calls)
     potinit      :      0.03s CPU      0.03s WALL (       1 calls)

     Called by electrons:
     c_bands      :      0.17s CPU      0.18s WALL (       6 calls)
     sum_band     :      0.29s CPU      0.30s WALL (       6 calls)
     v_of_rho     :      0.11s CPU      0.11s WALL (       6 calls)
     newd         :      0.17s CPU      0.18s WALL (       6 calls)
     mix_rho      :      0.01s CPU      0.01s WALL (       6 calls)

     Called by c_bands:
     init_us_2    :      0.03s CPU      0.03s WALL (     140 calls)
     cegterg      :      0.13s CPU      0.14s WALL (      60 calls)

     Called by sum_band:
     sum_band:bec :      0.00s CPU      0.00s WALL (      60 calls)
     addusdens    :      0.24s CPU      0.25s WALL (       6 calls)

     Called by *egterg:
     h_psi        :      0.12s CPU      0.12s WALL (     187 calls)
     s_psi        :      0.01s CPU      0.01s WALL (     187 calls)
     g_psi        :      0.00s CPU      0.00s WALL (     117 calls)
     cdiaghg      :      0.01s CPU      0.01s WALL (     167 calls)

     Called by h_psi:
     h_psi:pot    :      0.12s CPU      0.12s WALL (     187 calls)
     h_psi:calbec :      0.01s CPU      0.01s WALL (     187 calls)
     vloc_psi     :      0.10s CPU      0.11s WALL (     187 calls)
     add_vuspsi   :      0.01s CPU      0.01s WALL (     187 calls)

     General routines
     calbec       :      0.01s CPU      0.01s WALL (     257 calls)
     fft          :      0.06s CPU      0.06s WALL (     110 calls)
     ffts         :      0.00s CPU      0.00s WALL (      12 calls)
     fftw         :      0.09s CPU      0.10s WALL (    1656 calls)
     interpolate  :      0.01s CPU      0.01s WALL (      12 calls)
     davcio       :      0.00s CPU      0.00s WALL (      10 calls)

     Parallel routines
     fft_scatter  :      0.04s CPU      0.05s WALL (    1778 calls)

     PWSCF        :     1.39s CPU         1.66s WALL


   This run was terminated on:  13:47:49  10Nov2017            

=------------------------------------------------------------------------------=
   JOB DONE.
=------------------------------------------------------------------------------=
