
     Program PHONON v.6.1 (svn rev. 13369) starts on  9Nov2017 at 17:18:54 

     This program is part of the open-source Quantum ESPRESSO suite
     for quantum simulation of materials; please cite
         "P. Giannozzi et al., J. Phys.:Condens. Matter 21 395502 (2009);
          URL http://www.quantum-espresso.org", 
     in publications or presentations arising from this work. More details at
     http://www.quantum-espresso.org/quote

     Parallel version (MPI), running on     4 processors
     R & G space division:  proc/nbgrp/npool/nimage =       4

     Reading data from directory:
     ./silicon.10.393.save

   Info: using nr1, nr2, nr3 values from input

   Info: using nr1, nr2, nr3 values from input

     IMPORTANT: XC functional enforced from input :
     Exchange-correlation      = SLA  PW   PBE  PBE ( 1  4  3  4 0 0)
     Any further DFT definition will be discarded
     Please, verify this is what you really want


     Parallelization info
     --------------------
     sticks:   dense  smooth     PW     G-vecs:    dense   smooth      PW
     Min          66      66     22                  722      722     152
     Max          67      67     23                  724      724     153
     Sum         265     265     91                 2891     2891     609


     Check: negative/imaginary core charge=   -0.000006    0.000000


     Dynamical matrices for ( 4, 4, 4)  uniform grid of q-points
     (   8q-points):
       N         xq(1)         xq(2)         xq(3) 
       1   0.000000000   0.000000000   0.000000000
       2  -0.250000000   0.250000000  -0.250000000
       3   0.500000000  -0.500000000   0.500000000
       4   0.000000000   0.500000000   0.000000000
       5   0.750000000  -0.250000000   0.750000000
       6   0.500000000   0.000000000   0.500000000
       7   0.000000000  -1.000000000   0.000000000
       8  -0.500000000  -1.000000000   0.000000000

     Calculation of q =    0.0000000   0.0000000   0.0000000

                                                                                

     bravais-lattice index     =            2
     lattice parameter (alat)  =      10.3930  a.u.
     unit-cell volume          =     280.6485 (a.u.)^3
     number of atoms/cell      =            2
     number of atomic types    =            1
     kinetic-energy cut-off    =      18.0000  Ry
     charge density cut-off    =      72.0000  Ry
     convergence threshold     =      1.0E-12
     beta                      =       0.7000
     number of iterations used =            4
     Exchange-correlation      = SLA  PW   PBE  PBE ( 1  4  3  4 0 0)


     celldm(1)=   10.39300  celldm(2)=    0.00000  celldm(3)=    0.00000
     celldm(4)=    0.00000  celldm(5)=    0.00000  celldm(6)=    0.00000

     crystal axes: (cart. coord. in units of alat)
               a(1) = ( -0.5000  0.0000  0.5000 )  
               a(2) = (  0.0000  0.5000  0.5000 )  
               a(3) = ( -0.5000  0.5000  0.0000 )  

     reciprocal axes: (cart. coord. in units 2 pi/alat)
               b(1) = ( -1.0000 -1.0000  1.0000 )  
               b(2) = (  1.0000  1.0000  1.0000 )  
               b(3) = ( -1.0000  1.0000 -1.0000 )  


     Atoms inside the unit cell: 

     Cartesian axes

     site n.  atom      mass           positions (alat units)
        1     Si  28.0860   tau(    1) = (    0.00000    0.00000    0.00000  )
        2     Si  28.0860   tau(    2) = (    0.25000    0.25000    0.25000  )

     Computing dynamical matrix for 
                    q = (   0.0000000   0.0000000   0.0000000 )

     49 Sym.Ops. (with q -> -q+G )


     G cutoff =  196.9947  (    722 G-vectors)     FFT grid: ( 20, 20, 20)
     number of k points=    10

     PseudoPot. # 1 for Si read from file:
     /home/max/quantum_espresso/qe-6.1/pseudo/si_pbe_v1.uspp.F.UPF.txt
     MD5 check sum: a056efeee980c13900f22a371efd63c1
     Pseudo is Ultrasoft + core correction, Zval =  4.0
     Generated by new atomic code, or converted to UPF format
     Using radial grid of  899 points,  6 beta functions with: 
                l(1) =   0
                l(2) =   0
                l(3) =   1
                l(4) =   1
                l(5) =   2
                l(6) =   2
     Q(r) pseudized with  8 coefficients,  rinner =    0.900   0.900   0.900
                                                       0.900   0.900

     Mode symmetry, O_h (m-3m)  point group:


     Electric field:
     Dielectric constant
     Born effective charges in two ways 


     Atomic displacements:
     There are   2 irreducible representations

     Representation     1      3 modes -T_2g G_25' G_5+  To be done

     Representation     2      3 modes -T_1u G_15  G_4-  To be done



     Alpha used in Ewald sum =   0.7000
     PHONON       :     0.40s CPU         0.41s WALL


     Electric Fields Calculation

      iter #   1 total cpu time :     0.8 secs   av.it.:   5.6
      thresh= 1.000E-02 alpha_mix =  0.700 |ddv_scf|^2 =  9.541E-07

      iter #   2 total cpu time :     1.0 secs   av.it.:   9.9
      thresh= 9.768E-05 alpha_mix =  0.700 |ddv_scf|^2 =  6.210E-08

      iter #   3 total cpu time :     1.1 secs   av.it.:   9.8
      thresh= 2.492E-05 alpha_mix =  0.700 |ddv_scf|^2 =  4.929E-09

      iter #   4 total cpu time :     1.3 secs   av.it.:   9.0
      thresh= 7.021E-06 alpha_mix =  0.700 |ddv_scf|^2 =  2.985E-11

      iter #   5 total cpu time :     1.7 secs   av.it.:   9.1
      thresh= 5.464E-07 alpha_mix =  0.700 |ddv_scf|^2 =  1.541E-14

     End of electric fields calculation

          Dielectric constant in cartesian axis 

          (      14.003838740      -0.000000000      -0.000000000 )
          (      -0.000000000      14.003838740       0.000000000 )
          (      -0.000000000       0.000000000      14.003838740 )

          Effective charges (d Force / dE) in cartesian axis

           atom      1   Si 
      Ex  (       -0.03375       -0.00000       -0.00000 )
      Ey  (       -0.00000       -0.03375        0.00000 )
      Ez  (       -0.00000        0.00000       -0.03375 )
           atom      2   Si 
      Ex  (       -0.03375       -0.00000       -0.00000 )
      Ey  (       -0.00000       -0.03375       -0.00000 )
      Ez  (       -0.00000       -0.00000       -0.03375 )


     Representation #  1 modes #   1  2  3

     Self-consistent Calculation

      iter #   1 total cpu time :     2.2 secs   av.it.:   4.9
      thresh= 1.000E-02 alpha_mix =  0.700 |ddv_scf|^2 =  1.849E-07

      iter #   2 total cpu time :     2.4 secs   av.it.:  10.0
      thresh= 4.300E-05 alpha_mix =  0.700 |ddv_scf|^2 =  1.020E-08

      iter #   3 total cpu time :     2.6 secs   av.it.:   9.5
      thresh= 1.010E-05 alpha_mix =  0.700 |ddv_scf|^2 =  7.053E-10

      iter #   4 total cpu time :     2.8 secs   av.it.:   9.1
      thresh= 2.656E-06 alpha_mix =  0.700 |ddv_scf|^2 =  1.814E-12

      iter #   5 total cpu time :     2.9 secs   av.it.:   9.4
      thresh= 1.347E-07 alpha_mix =  0.700 |ddv_scf|^2 =  1.532E-14

     End of self-consistent calculation

     Convergence has been achieved 


     Representation #  2 modes #   4  5  6

     Self-consistent Calculation

      iter #   1 total cpu time :     3.2 secs   av.it.:   5.0
      thresh= 1.000E-02 alpha_mix =  0.700 |ddv_scf|^2 =  1.918E-07

      iter #   2 total cpu time :     3.3 secs   av.it.:   9.6
      thresh= 4.379E-05 alpha_mix =  0.700 |ddv_scf|^2 =  1.581E-08

      iter #   3 total cpu time :     3.8 secs   av.it.:   9.2
      thresh= 1.257E-05 alpha_mix =  0.700 |ddv_scf|^2 =  9.498E-10

      iter #   4 total cpu time :     4.0 secs   av.it.:   9.5
      thresh= 3.082E-06 alpha_mix =  0.700 |ddv_scf|^2 =  5.527E-12

      iter #   5 total cpu time :     4.2 secs   av.it.:   9.1
      thresh= 2.351E-07 alpha_mix =  0.700 |ddv_scf|^2 =  5.052E-15

     End of self-consistent calculation

     Convergence has been achieved 

     Number of q in the star =    1
     List of q in the star:
          1   0.000000000   0.000000000   0.000000000

          Dielectric constant in cartesian axis 

          (      14.003838740      -0.000000000      -0.000000000 )
          (      -0.000000000      14.003838740       0.000000000 )
          (      -0.000000000       0.000000000      14.003838740 )

          Effective charges (d Force / dE) in cartesian axis

           atom      1   Si 
      Ex  (       -0.03375       -0.00000       -0.00000 )
      Ey  (       -0.00000       -0.03375        0.00000 )
      Ez  (       -0.00000        0.00000       -0.03375 )
           atom      2   Si 
      Ex  (       -0.03375       -0.00000       -0.00000 )
      Ey  (       -0.00000       -0.03375       -0.00000 )
      Ez  (       -0.00000       -0.00000       -0.03375 )

          Effective charges (d P / du) in cartesian axis 

           atom      1   Si 
      Px  (       -0.07576       -0.00000       -0.00000 )
      Py  (       -0.00000       -0.07576        0.00000 )
      Pz  (       -0.00000        0.00000       -0.07576 )
           atom      2   Si 
      Px  (       -0.07576        0.00000        0.00000 )
      Py  (        0.00000       -0.07576       -0.00000 )
      Pz  (        0.00000       -0.00000       -0.07576 )

     Diagonalizing the dynamical matrix

     q = (    0.000000000   0.000000000   0.000000000 ) 

 **************************************************************************
     freq (    1) =       1.790714 [THz] =      59.731793 [cm-1]
     freq (    2) =       1.790714 [THz] =      59.731793 [cm-1]
     freq (    3) =       1.790714 [THz] =      59.731793 [cm-1]
     freq (    4) =      15.595162 [THz] =     520.198597 [cm-1]
     freq (    5) =      15.595162 [THz] =     520.198597 [cm-1]
     freq (    6) =      15.595162 [THz] =     520.198597 [cm-1]
 **************************************************************************

     Mode symmetry, O_h (m-3m)  point group:

     freq (  1 -  3) =         59.7  [cm-1]   --> T_1u G_15  G_4- I  
     freq (  4 -  6) =        520.2  [cm-1]   --> T_2g G_25' G_5+ R  

     Calculation of q =   -0.2500000   0.2500000  -0.2500000

   Info: using nr1, nr2, nr3 values from input

   Info: using nr1, nr2, nr3 values from input

     Parallelization info
     --------------------
     sticks:   dense  smooth     PW     G-vecs:    dense   smooth      PW
     Min          66      66     24                  722      722     161
     Max          67      67     25                  724      724     162
     Sum         265     265     97                 2891     2891     645



     bravais-lattice index     =            2
     lattice parameter (alat)  =      10.3930  a.u.
     unit-cell volume          =     280.6485 (a.u.)^3
     number of atoms/cell      =            2
     number of atomic types    =            1
     number of electrons       =         8.00
     number of Kohn-Sham states=            4
     kinetic-energy cutoff     =      18.0000  Ry
     charge density cutoff     =      72.0000  Ry
     Exchange-correlation      = SLA  PW   PBE  PBE ( 1  4  3  4 0 0)

     celldm(1)=  10.393000  celldm(2)=   0.000000  celldm(3)=   0.000000
     celldm(4)=   0.000000  celldm(5)=   0.000000  celldm(6)=   0.000000

     crystal axes: (cart. coord. in units of alat)
               a(1) = (  -0.500000   0.000000   0.500000 )  
               a(2) = (   0.000000   0.500000   0.500000 )  
               a(3) = (  -0.500000   0.500000   0.000000 )  

     reciprocal axes: (cart. coord. in units 2 pi/alat)
               b(1) = ( -1.000000 -1.000000  1.000000 )  
               b(2) = (  1.000000  1.000000  1.000000 )  
               b(3) = ( -1.000000  1.000000 -1.000000 )  


     PseudoPot. # 1 for Si read from file:
     /home/max/quantum_espresso/qe-6.1/pseudo/si_pbe_v1.uspp.F.UPF.txt
     MD5 check sum: a056efeee980c13900f22a371efd63c1
     Pseudo is Ultrasoft + core correction, Zval =  4.0
     Generated by new atomic code, or converted to UPF format
     Using radial grid of  899 points,  6 beta functions with: 
                l(1) =   0
                l(2) =   0
                l(3) =   1
                l(4) =   1
                l(5) =   2
                l(6) =   2
     Q(r) pseudized with  8 coefficients,  rinner =    0.900   0.900   0.900
                                                       0.900   0.900

     atomic species   valence    mass     pseudopotential
        Si             4.00    28.08600     Si( 1.00)

     48 Sym. Ops., with inversion, found



   Cartesian axes

     site n.     atom                  positions (alat units)
         1           Si  tau(   1) = (   0.0000000   0.0000000   0.0000000  )
         2           Si  tau(   2) = (   0.2500000   0.2500000   0.2500000  )

     number of k points=   120

     Number of k-points >= 100: set verbosity='high' to print them.

     Dense  grid:     2891 G-vectors     FFT dimensions: (  20,  20,  20)

     Estimated max dynamical RAM per process >       0.33MB

     Estimated total allocated dynamical RAM >       1.33MB

     Check: negative/imaginary core charge=   -0.000006    0.000000

     The potential is recalculated from file :
     ./_ph0/silicon.10.393.save/charge-density.dat

     Starting wfc are    8 atomic wfcs

     Band Structure Calculation
     Davidson diagonalization with overlap

     ethr =  1.25E-10,  avg # of iterations = 11.7

     total cpu time spent up to now is        0.8 secs

     End of band structure calculation

     Number of k-points >= 100: set verbosity='high' to print the bands.

     highest occupied level (ev):     5.5299

     Writing output data file silicon.10.393.save

                                                                                

     bravais-lattice index     =            2
     lattice parameter (alat)  =      10.3930  a.u.
     unit-cell volume          =     280.6485 (a.u.)^3
     number of atoms/cell      =            2
     number of atomic types    =            1
     kinetic-energy cut-off    =      18.0000  Ry
     charge density cut-off    =      72.0000  Ry
     convergence threshold     =      1.0E-12
     beta                      =       0.7000
     number of iterations used =            4
     Exchange-correlation      = SLA  PW   PBE  PBE ( 1  4  3  4 0 0)


     celldm(1)=   10.39300  celldm(2)=    0.00000  celldm(3)=    0.00000
     celldm(4)=    0.00000  celldm(5)=    0.00000  celldm(6)=    0.00000

     crystal axes: (cart. coord. in units of alat)
               a(1) = ( -0.5000  0.0000  0.5000 )  
               a(2) = (  0.0000  0.5000  0.5000 )  
               a(3) = ( -0.5000  0.5000  0.0000 )  

     reciprocal axes: (cart. coord. in units 2 pi/alat)
               b(1) = ( -1.0000 -1.0000  1.0000 )  
               b(2) = (  1.0000  1.0000  1.0000 )  
               b(3) = ( -1.0000  1.0000 -1.0000 )  


     Atoms inside the unit cell: 

     Cartesian axes

     site n.  atom      mass           positions (alat units)
        1     Si  28.0860   tau(    1) = (    0.00000    0.00000    0.00000  )
        2     Si  28.0860   tau(    2) = (    0.25000    0.25000    0.25000  )

     Computing dynamical matrix for 
                    q = (  -0.2500000   0.2500000  -0.2500000 )

      6 Sym.Ops. (no q -> -q+G )


     G cutoff =  196.9947  (    722 G-vectors)     FFT grid: ( 20, 20, 20)
     number of k points=   120

     PseudoPot. # 1 for Si read from file:
     /home/max/quantum_espresso/qe-6.1/pseudo/si_pbe_v1.uspp.F.UPF.txt
     MD5 check sum: a056efeee980c13900f22a371efd63c1
     Pseudo is Ultrasoft + core correction, Zval =  4.0
     Generated by new atomic code, or converted to UPF format
     Using radial grid of  899 points,  6 beta functions with: 
                l(1) =   0
                l(2) =   0
                l(3) =   1
                l(4) =   1
                l(5) =   2
                l(6) =   2
     Q(r) pseudized with  8 coefficients,  rinner =    0.900   0.900   0.900
                                                       0.900   0.900

     Mode symmetry, C_3v (3m)   point group:


     Atomic displacements:
     There are   4 irreducible representations

     Representation     1      1 modes -A_1  L_1  To be done

     Representation     2      1 modes -A_1  L_1  To be done

     Representation     3      2 modes -E    L_3  To be done

     Representation     4      2 modes -E    L_3  To be done



     Alpha used in Ewald sum =   0.7000
     PHONON       :     5.11s CPU         5.50s WALL



     Representation #  1 mode #   1

     Self-consistent Calculation

      iter #   1 total cpu time :     6.0 secs   av.it.:   5.5
      thresh= 1.000E-02 alpha_mix =  0.700 |ddv_scf|^2 =  2.431E-03

      iter #   2 total cpu time :     6.2 secs   av.it.:   7.5
      thresh= 4.930E-03 alpha_mix =  0.700 |ddv_scf|^2 =  3.694E-02

      iter #   3 total cpu time :     6.4 secs   av.it.:   6.3
      thresh= 1.000E-02 alpha_mix =  0.700 |ddv_scf|^2 =  1.715E-06

      iter #   4 total cpu time :     6.7 secs   av.it.:   8.2
      thresh= 1.310E-04 alpha_mix =  0.700 |ddv_scf|^2 =  1.145E-07

      iter #   5 total cpu time :     7.0 secs   av.it.:   8.1
      thresh= 3.384E-05 alpha_mix =  0.700 |ddv_scf|^2 =  4.365E-09

      iter #   6 total cpu time :     7.2 secs   av.it.:   8.1
      thresh= 6.607E-06 alpha_mix =  0.700 |ddv_scf|^2 =  3.411E-09

      iter #   7 total cpu time :     7.8 secs   av.it.:   6.4
      thresh= 5.841E-06 alpha_mix =  0.700 |ddv_scf|^2 =  6.915E-10

      iter #   8 total cpu time :     8.0 secs   av.it.:   7.2
      thresh= 2.630E-06 alpha_mix =  0.700 |ddv_scf|^2 =  3.948E-12

      iter #   9 total cpu time :     8.2 secs   av.it.:   7.2
      thresh= 1.987E-07 alpha_mix =  0.700 |ddv_scf|^2 =  1.760E-13

     End of self-consistent calculation

     Convergence has been achieved 


     Representation #  2 mode #   2

     Self-consistent Calculation

      iter #   1 total cpu time :     8.5 secs   av.it.:   5.5
      thresh= 1.000E-02 alpha_mix =  0.700 |ddv_scf|^2 =  2.431E-03

      iter #   2 total cpu time :     8.7 secs   av.it.:   7.5
      thresh= 4.930E-03 alpha_mix =  0.700 |ddv_scf|^2 =  3.694E-02

      iter #   3 total cpu time :     8.9 secs   av.it.:   6.3
      thresh= 1.000E-02 alpha_mix =  0.700 |ddv_scf|^2 =  1.715E-06

      iter #   4 total cpu time :     9.2 secs   av.it.:   8.2
      thresh= 1.310E-04 alpha_mix =  0.700 |ddv_scf|^2 =  1.145E-07

      iter #   5 total cpu time :     9.5 secs   av.it.:   8.1
      thresh= 3.384E-05 alpha_mix =  0.700 |ddv_scf|^2 =  4.365E-09

      iter #   6 total cpu time :    10.0 secs   av.it.:   8.1
      thresh= 6.607E-06 alpha_mix =  0.700 |ddv_scf|^2 =  3.411E-09

      iter #   7 total cpu time :    10.3 secs   av.it.:   6.4
      thresh= 5.841E-06 alpha_mix =  0.700 |ddv_scf|^2 =  6.915E-10

      iter #   8 total cpu time :    10.5 secs   av.it.:   7.2
      thresh= 2.630E-06 alpha_mix =  0.700 |ddv_scf|^2 =  3.948E-12

      iter #   9 total cpu time :    10.7 secs   av.it.:   7.2
      thresh= 1.987E-07 alpha_mix =  0.700 |ddv_scf|^2 =  1.760E-13

     End of self-consistent calculation

     Convergence has been achieved 


     Representation #  3 modes #   3  4

     Self-consistent Calculation

      iter #   1 total cpu time :    11.1 secs   av.it.:   5.0
      thresh= 1.000E-02 alpha_mix =  0.700 |ddv_scf|^2 =  5.345E-07

      iter #   2 total cpu time :    12.0 secs   av.it.:   9.6
      thresh= 7.311E-05 alpha_mix =  0.700 |ddv_scf|^2 =  4.002E-08

      iter #   3 total cpu time :    12.6 secs   av.it.:   9.3
      thresh= 2.000E-05 alpha_mix =  0.700 |ddv_scf|^2 =  3.439E-09

      iter #   4 total cpu time :    13.1 secs   av.it.:   9.0
      thresh= 5.864E-06 alpha_mix =  0.700 |ddv_scf|^2 =  1.136E-11

      iter #   5 total cpu time :    14.1 secs   av.it.:   9.2
      thresh= 3.371E-07 alpha_mix =  0.700 |ddv_scf|^2 =  5.086E-13

     End of self-consistent calculation

     Convergence has been achieved 


     Representation #  4 modes #   5  6

     Self-consistent Calculation

      iter #   1 total cpu time :    14.5 secs   av.it.:   5.0
      thresh= 1.000E-02 alpha_mix =  0.700 |ddv_scf|^2 =  5.343E-07

      iter #   2 total cpu time :    15.1 secs   av.it.:   9.7
      thresh= 7.310E-05 alpha_mix =  0.700 |ddv_scf|^2 =  3.996E-08

      iter #   3 total cpu time :    16.0 secs   av.it.:   9.4
      thresh= 1.999E-05 alpha_mix =  0.700 |ddv_scf|^2 =  3.434E-09

      iter #   4 total cpu time :    16.5 secs   av.it.:   9.1
      thresh= 5.860E-06 alpha_mix =  0.700 |ddv_scf|^2 =  1.137E-11

      iter #   5 total cpu time :    17.1 secs   av.it.:   9.3
      thresh= 3.373E-07 alpha_mix =  0.700 |ddv_scf|^2 =  5.092E-13

     End of self-consistent calculation

     Convergence has been achieved 

     Number of q in the star =    8
     List of q in the star:
          1  -0.250000000   0.250000000  -0.250000000
          2   0.250000000  -0.250000000  -0.250000000
          3   0.250000000  -0.250000000   0.250000000
          4   0.250000000   0.250000000   0.250000000
          5  -0.250000000  -0.250000000  -0.250000000
          6  -0.250000000  -0.250000000   0.250000000
          7  -0.250000000   0.250000000   0.250000000
          8   0.250000000   0.250000000  -0.250000000

     Diagonalizing the dynamical matrix

     q = (   -0.250000000   0.250000000  -0.250000000 ) 

 **************************************************************************
     freq (    1) =       3.409598 [THz] =     113.731942 [cm-1]
     freq (    2) =       3.409598 [THz] =     113.731942 [cm-1]
     freq (    3) =       6.825558 [THz] =     227.676100 [cm-1]
     freq (    4) =      14.691063 [THz] =     490.041116 [cm-1]
     freq (    5) =      14.974374 [THz] =     499.491347 [cm-1]
     freq (    6) =      14.974374 [THz] =     499.491347 [cm-1]
 **************************************************************************

     Mode symmetry, C_3v (3m)   point group:

     freq (  1 -  2) =        113.7  [cm-1]   --> E    L_3           
     freq (  3 -  3) =        227.7  [cm-1]   --> A_1  L_1           
     freq (  4 -  4) =        490.0  [cm-1]   --> A_1  L_1           
     freq (  5 -  6) =        499.5  [cm-1]   --> E    L_3           

     Calculation of q =    0.5000000  -0.5000000   0.5000000

   Info: using nr1, nr2, nr3 values from input

   Info: using nr1, nr2, nr3 values from input

     Parallelization info
     --------------------
     sticks:   dense  smooth     PW     G-vecs:    dense   smooth      PW
     Min          66      66     27                  722      722     186
     Max          67      67     28                  724      724     189
     Sum         265     265    109                 2891     2891     749



     bravais-lattice index     =            2
     lattice parameter (alat)  =      10.3930  a.u.
     unit-cell volume          =     280.6485 (a.u.)^3
     number of atoms/cell      =            2
     number of atomic types    =            1
     number of electrons       =         8.00
     number of Kohn-Sham states=            4
     kinetic-energy cutoff     =      18.0000  Ry
     charge density cutoff     =      72.0000  Ry
     Exchange-correlation      = SLA  PW   PBE  PBE ( 1  4  3  4 0 0)

     celldm(1)=  10.393000  celldm(2)=   0.000000  celldm(3)=   0.000000
     celldm(4)=   0.000000  celldm(5)=   0.000000  celldm(6)=   0.000000

     crystal axes: (cart. coord. in units of alat)
               a(1) = (  -0.500000   0.000000   0.500000 )  
               a(2) = (   0.000000   0.500000   0.500000 )  
               a(3) = (  -0.500000   0.500000   0.000000 )  

     reciprocal axes: (cart. coord. in units 2 pi/alat)
               b(1) = ( -1.000000 -1.000000  1.000000 )  
               b(2) = (  1.000000  1.000000  1.000000 )  
               b(3) = ( -1.000000  1.000000 -1.000000 )  


     PseudoPot. # 1 for Si read from file:
     /home/max/quantum_espresso/qe-6.1/pseudo/si_pbe_v1.uspp.F.UPF.txt
     MD5 check sum: a056efeee980c13900f22a371efd63c1
     Pseudo is Ultrasoft + core correction, Zval =  4.0
     Generated by new atomic code, or converted to UPF format
     Using radial grid of  899 points,  6 beta functions with: 
                l(1) =   0
                l(2) =   0
                l(3) =   1
                l(4) =   1
                l(5) =   2
                l(6) =   2
     Q(r) pseudized with  8 coefficients,  rinner =    0.900   0.900   0.900
                                                       0.900   0.900

     atomic species   valence    mass     pseudopotential
        Si             4.00    28.08600     Si( 1.00)

     48 Sym. Ops., with inversion, found



   Cartesian axes

     site n.     atom                  positions (alat units)
         1           Si  tau(   1) = (   0.0000000   0.0000000   0.0000000  )
         2           Si  tau(   2) = (   0.2500000   0.2500000   0.2500000  )

     number of k points=    60
                       cart. coord. in units 2pi/alat
        k(    1) = (  -0.1250000   0.1250000   0.1250000), wk =   0.0468750
        k(    2) = (   0.3750000  -0.3750000   0.6250000), wk =   0.0000000
        k(    3) = (  -0.3750000   0.3750000  -0.1250000), wk =   0.0468750
        k(    4) = (   0.1250000  -0.1250000   0.3750000), wk =   0.0000000
        k(    5) = (   0.3750000  -0.3750000   0.6250000), wk =   0.0468750
        k(    6) = (   0.8750000  -0.8750000   1.1250000), wk =   0.0000000
        k(    7) = (   0.1250000  -0.1250000   0.3750000), wk =   0.0468750
        k(    8) = (   0.6250000  -0.6250000   0.8750000), wk =   0.0000000
        k(    9) = (  -0.1250000   0.6250000   0.1250000), wk =   0.0937500
        k(   10) = (   0.3750000   0.1250000   0.6250000), wk =   0.0000000
        k(   11) = (   0.6250000  -0.1250000   0.8750000), wk =   0.0937500
        k(   12) = (   1.1250000  -0.6250000   1.3750000), wk =   0.0000000
        k(   13) = (   0.3750000   0.1250000   0.6250000), wk =   0.0937500
        k(   14) = (   0.8750000  -0.3750000   1.1250000), wk =   0.0000000
        k(   15) = (  -0.1250000  -0.8750000   0.1250000), wk =   0.0937500
        k(   16) = (   0.3750000  -1.3750000   0.6250000), wk =   0.0000000
        k(   17) = (  -0.3750000   0.3750000   0.3750000), wk =   0.0468750
        k(   18) = (   0.1250000  -0.1250000   0.8750000), wk =   0.0000000
        k(   19) = (   0.3750000  -0.3750000   1.1250000), wk =   0.0468750
        k(   20) = (   0.8750000  -0.8750000   1.6250000), wk =   0.0000000
        k(   21) = (   0.1250000  -0.1250000   0.1250000), wk =   0.0156250
        k(   22) = (   0.6250000  -0.6250000   0.6250000), wk =   0.0000000
        k(   23) = (  -0.3750000  -0.3750000  -0.1250000), wk =   0.0937500
        k(   24) = (   0.1250000  -0.8750000   0.3750000), wk =   0.0000000
        k(   25) = (  -0.1250000  -0.3750000   0.3750000), wk =   0.0468750
        k(   26) = (   0.3750000  -0.8750000   0.8750000), wk =   0.0000000
        k(   27) = (   0.3750000   0.3750000   0.6250000), wk =   0.0937500
        k(   28) = (   0.8750000  -0.1250000   1.1250000), wk =   0.0000000
        k(   29) = (   0.6250000   0.3750000  -0.3750000), wk =   0.0468750
        k(   30) = (   1.1250000  -0.1250000   0.1250000), wk =   0.0000000
        k(   31) = (   0.1250000   0.1250000   0.3750000), wk =   0.0937500
        k(   32) = (   0.6250000  -0.3750000   0.8750000), wk =   0.0000000
        k(   33) = (   0.3750000   0.1250000  -0.1250000), wk =   0.0468750
        k(   34) = (   0.8750000  -0.3750000   0.3750000), wk =   0.0000000
        k(   35) = (  -0.1250000  -0.6250000  -0.1250000), wk =   0.0468750
        k(   36) = (   0.3750000  -1.1250000   0.3750000), wk =   0.0000000
        k(   37) = (   0.1250000  -0.6250000   0.1250000), wk =   0.0468750
        k(   38) = (   0.6250000  -1.1250000   0.6250000), wk =   0.0000000
        k(   39) = (   0.6250000   0.1250000   0.8750000), wk =   0.0937500
        k(   40) = (   1.1250000  -0.3750000   1.3750000), wk =   0.0000000
        k(   41) = (  -0.8750000   0.1250000   0.6250000), wk =   0.0937500
        k(   42) = (  -0.3750000  -0.3750000   1.1250000), wk =   0.0000000
        k(   43) = (   0.8750000   0.1250000  -0.6250000), wk =   0.0937500
        k(   44) = (   1.3750000  -0.3750000  -0.1250000), wk =   0.0000000
        k(   45) = (   0.3750000  -0.1250000   0.6250000), wk =   0.0937500
        k(   46) = (   0.8750000  -0.6250000   1.1250000), wk =   0.0000000
        k(   47) = (  -0.6250000  -0.1250000   0.3750000), wk =   0.0937500
        k(   48) = (  -0.1250000  -0.6250000   0.8750000), wk =   0.0000000
        k(   49) = (   0.6250000  -0.1250000  -0.3750000), wk =   0.0937500
        k(   50) = (   1.1250000  -0.6250000   0.1250000), wk =   0.0000000
        k(   51) = (  -0.1250000   0.8750000  -0.1250000), wk =   0.0468750
        k(   52) = (   0.3750000   0.3750000   0.3750000), wk =   0.0000000
        k(   53) = (   0.1250000   0.8750000   0.1250000), wk =   0.0468750
        k(   54) = (   0.6250000   0.3750000   0.6250000), wk =   0.0000000
        k(   55) = (   0.3750000  -0.3750000   0.3750000), wk =   0.0156250
        k(   56) = (   0.8750000  -0.8750000   0.8750000), wk =   0.0000000
        k(   57) = (   0.3750000   0.3750000   1.1250000), wk =   0.0937500
        k(   58) = (   0.8750000  -0.1250000   1.6250000), wk =   0.0000000
        k(   59) = (   1.1250000   0.3750000  -0.3750000), wk =   0.0468750
        k(   60) = (   1.6250000  -0.1250000   0.1250000), wk =   0.0000000

     Dense  grid:     2891 G-vectors     FFT dimensions: (  20,  20,  20)

     Estimated max dynamical RAM per process >       0.33MB

     Estimated total allocated dynamical RAM >       1.33MB

     Check: negative/imaginary core charge=   -0.000006    0.000000

     The potential is recalculated from file :
     ./_ph0/silicon.10.393.save/charge-density.dat

     Starting wfc are    8 atomic wfcs

     Band Structure Calculation
     Davidson diagonalization with overlap

     ethr =  1.25E-10,  avg # of iterations = 11.7

     total cpu time spent up to now is        1.6 secs

     End of band structure calculation

          k =-0.1250 0.1250 0.1250 (   347 PWs)   bands (ev):

    -5.6931   4.2198   5.5299   5.5299

          k = 0.3750-0.3750 0.6250 (   364 PWs)   bands (ev):

    -3.5730  -0.7791   3.5889   4.2967

          k =-0.3750 0.3750-0.1250 (   356 PWs)   bands (ev):

    -4.6849   1.2560   3.5785   5.0526

          k = 0.1250-0.1250 0.3750 (   358 PWs)   bands (ev):

    -5.1746   2.6087   4.5413   4.5950

          k = 0.3750-0.3750 0.6250 (   364 PWs)   bands (ev):

    -3.5730  -0.7791   3.5889   4.2967

          k = 0.8750-0.8750 1.1250 (   347 PWs)   bands (ev):

    -5.6931   4.2198   5.5299   5.5299

          k = 0.1250-0.1250 0.3750 (   358 PWs)   bands (ev):

    -5.1746   2.6087   4.5413   4.5950

          k = 0.6250-0.6250 0.8750 (   356 PWs)   bands (ev):

    -4.6849   1.2560   3.5785   5.0526

          k =-0.1250 0.6250 0.1250 (   357 PWs)   bands (ev):

    -4.1610   0.9025   3.2403   3.6813

          k = 0.3750 0.1250 0.6250 (   362 PWs)   bands (ev):

    -3.7555   0.0558   2.6078   3.9529

          k = 0.6250-0.1250 0.8750 (   368 PWs)   bands (ev):

    -2.5561  -1.0329   1.9214   2.9732

          k = 1.1250-0.6250 1.3750 (   356 PWs)   bands (ev):

    -4.6849   1.2560   3.5785   5.0526

          k = 0.3750 0.1250 0.6250 (   362 PWs)   bands (ev):

    -3.7555   0.0558   2.6078   3.9529

          k = 0.8750-0.3750 1.1250 (   357 PWs)   bands (ev):

    -4.1610   0.9025   3.2403   3.6813

          k =-0.1250-0.8750 0.1250 (   362 PWs)   bands (ev):

    -2.7153  -0.9395   2.5156   3.2214

          k = 0.3750-1.3750 0.6250 (   364 PWs)   bands (ev):

    -3.5730  -0.7791   3.5889   4.2967

          k =-0.3750 0.3750 0.3750 (   359 PWs)   bands (ev):

    -4.2624  -0.0029   4.7510   4.7510

          k = 0.1250-0.1250 0.8750 (   362 PWs)   bands (ev):

    -2.7153  -0.9395   2.5156   3.2214

          k = 0.3750-0.3750 1.1250 (   365 PWs)   bands (ev):

    -3.0853  -0.7181   1.9712   3.9869

          k = 0.8750-0.8750 1.6250 (   357 PWs)   bands (ev):

    -4.1610   0.9025   3.2403   3.6813

          k = 0.1250-0.1250 0.1250 (   347 PWs)   bands (ev):

    -5.6931   4.2198   5.5299   5.5299

          k = 0.6250-0.6250 0.6250 (   359 PWs)   bands (ev):

    -4.2624  -0.0029   4.7510   4.7510

          k =-0.3750-0.3750-0.1250 (   356 PWs)   bands (ev):

    -4.6849   1.2560   3.5785   5.0526

          k = 0.1250-0.8750 0.3750 (   368 PWs)   bands (ev):

    -2.5561  -1.0329   1.9214   2.9732

          k =-0.1250-0.3750 0.3750 (   356 PWs)   bands (ev):

    -4.6849   1.2560   3.5785   5.0526

          k = 0.3750-0.8750 0.8750 (   357 PWs)   bands (ev):

    -4.1610   0.9025   3.2403   3.6813

          k = 0.3750 0.3750 0.6250 (   364 PWs)   bands (ev):

    -3.5730  -0.7791   3.5889   4.2967

          k = 0.8750-0.1250 1.1250 (   362 PWs)   bands (ev):

    -2.7153  -0.9395   2.5156   3.2214

          k = 0.6250 0.3750-0.3750 (   364 PWs)   bands (ev):

    -3.5730  -0.7791   3.5889   4.2967

          k = 1.1250-0.1250 0.1250 (   362 PWs)   bands (ev):

    -2.7153  -0.9395   2.5156   3.2214

          k = 0.1250 0.1250 0.3750 (   358 PWs)   bands (ev):

    -5.1746   2.6087   4.5413   4.5950

          k = 0.6250-0.3750 0.8750 (   362 PWs)   bands (ev):

    -3.7555   0.0558   2.6078   3.9529

          k = 0.3750 0.1250-0.1250 (   358 PWs)   bands (ev):

    -5.1746   2.6087   4.5413   4.5950

          k = 0.8750-0.3750 0.3750 (   365 PWs)   bands (ev):

    -3.0853  -0.7181   1.9712   3.9869

          k =-0.1250-0.6250-0.1250 (   357 PWs)   bands (ev):

    -4.1610   0.9025   3.2403   3.6813

          k = 0.3750-1.1250 0.3750 (   365 PWs)   bands (ev):

    -3.0853  -0.7181   1.9712   3.9869

          k = 0.1250-0.6250 0.1250 (   357 PWs)   bands (ev):

    -4.1610   0.9025   3.2403   3.6813

          k = 0.6250-1.1250 0.6250 (   356 PWs)   bands (ev):

    -4.6849   1.2560   3.5785   5.0526

          k = 0.6250 0.1250 0.8750 (   368 PWs)   bands (ev):

    -2.5561  -1.0329   1.9214   2.9732

          k = 1.1250-0.3750 1.3750 (   362 PWs)   bands (ev):

    -3.7555   0.0558   2.6078   3.9529

          k =-0.8750 0.1250 0.6250 (   368 PWs)   bands (ev):

    -2.5561  -1.0329   1.9214   2.9732

          k =-0.3750-0.3750 1.1250 (   365 PWs)   bands (ev):

    -3.0853  -0.7181   1.9712   3.9869

          k = 0.8750 0.1250-0.6250 (   368 PWs)   bands (ev):

    -2.5561  -1.0329   1.9214   2.9732

          k = 1.3750-0.3750-0.1250 (   362 PWs)   bands (ev):

    -3.7555   0.0558   2.6078   3.9529

          k = 0.3750-0.1250 0.6250 (   362 PWs)   bands (ev):

    -3.7555   0.0558   2.6078   3.9529

          k = 0.8750-0.6250 1.1250 (   358 PWs)   bands (ev):

    -5.1746   2.6087   4.5413   4.5950

          k =-0.6250-0.1250 0.3750 (   362 PWs)   bands (ev):

    -3.7555   0.0558   2.6078   3.9529

          k =-0.1250-0.6250 0.8750 (   368 PWs)   bands (ev):

    -2.5561  -1.0329   1.9214   2.9732

          k = 0.6250-0.1250-0.3750 (   362 PWs)   bands (ev):

    -3.7555   0.0558   2.6078   3.9529

          k = 1.1250-0.6250 0.1250 (   368 PWs)   bands (ev):

    -2.5561  -1.0329   1.9214   2.9732

          k =-0.1250 0.8750-0.1250 (   362 PWs)   bands (ev):

    -2.7153  -0.9395   2.5156   3.2214

          k = 0.3750 0.3750 0.3750 (   359 PWs)   bands (ev):

    -4.2624  -0.0029   4.7510   4.7510

          k = 0.1250 0.8750 0.1250 (   362 PWs)   bands (ev):

    -2.7153  -0.9395   2.5156   3.2214

          k = 0.6250 0.3750 0.6250 (   364 PWs)   bands (ev):

    -3.5730  -0.7791   3.5889   4.2967

          k = 0.3750-0.3750 0.3750 (   359 PWs)   bands (ev):

    -4.2624  -0.0029   4.7510   4.7510

          k = 0.8750-0.8750 0.8750 (   347 PWs)   bands (ev):

    -5.6931   4.2198   5.5299   5.5299

          k = 0.3750 0.3750 1.1250 (   365 PWs)   bands (ev):

    -3.0853  -0.7181   1.9712   3.9869

          k = 0.8750-0.1250 1.6250 (   368 PWs)   bands (ev):

    -2.5561  -1.0329   1.9214   2.9732

          k = 1.1250 0.3750-0.3750 (   365 PWs)   bands (ev):

    -3.0853  -0.7181   1.9712   3.9869

          k = 1.6250-0.1250 0.1250 (   358 PWs)   bands (ev):

    -5.1746   2.6087   4.5413   4.5950

     highest occupied level (ev):     5.5299

     Writing output data file silicon.10.393.save

                                                                                

     bravais-lattice index     =            2
     lattice parameter (alat)  =      10.3930  a.u.
     unit-cell volume          =     280.6485 (a.u.)^3
     number of atoms/cell      =            2
     number of atomic types    =            1
     kinetic-energy cut-off    =      18.0000  Ry
     charge density cut-off    =      72.0000  Ry
     convergence threshold     =      1.0E-12
     beta                      =       0.7000
     number of iterations used =            4
     Exchange-correlation      = SLA  PW   PBE  PBE ( 1  4  3  4 0 0)


     celldm(1)=   10.39300  celldm(2)=    0.00000  celldm(3)=    0.00000
     celldm(4)=    0.00000  celldm(5)=    0.00000  celldm(6)=    0.00000

     crystal axes: (cart. coord. in units of alat)
               a(1) = ( -0.5000  0.0000  0.5000 )  
               a(2) = (  0.0000  0.5000  0.5000 )  
               a(3) = ( -0.5000  0.5000  0.0000 )  

     reciprocal axes: (cart. coord. in units 2 pi/alat)
               b(1) = ( -1.0000 -1.0000  1.0000 )  
               b(2) = (  1.0000  1.0000  1.0000 )  
               b(3) = ( -1.0000  1.0000 -1.0000 )  


     Atoms inside the unit cell: 

     Cartesian axes

     site n.  atom      mass           positions (alat units)
        1     Si  28.0860   tau(    1) = (    0.00000    0.00000    0.00000  )
        2     Si  28.0860   tau(    2) = (    0.25000    0.25000    0.25000  )

     Computing dynamical matrix for 
                    q = (   0.5000000  -0.5000000   0.5000000 )

     13 Sym.Ops. (with q -> -q+G )


     G cutoff =  196.9947  (    722 G-vectors)     FFT grid: ( 20, 20, 20)
     number of k points=    60

     PseudoPot. # 1 for Si read from file:
     /home/max/quantum_espresso/qe-6.1/pseudo/si_pbe_v1.uspp.F.UPF.txt
     MD5 check sum: a056efeee980c13900f22a371efd63c1
     Pseudo is Ultrasoft + core correction, Zval =  4.0
     Generated by new atomic code, or converted to UPF format
     Using radial grid of  899 points,  6 beta functions with: 
                l(1) =   0
                l(2) =   0
                l(3) =   1
                l(4) =   1
                l(5) =   2
                l(6) =   2
     Q(r) pseudized with  8 coefficients,  rinner =    0.900   0.900   0.900
                                                       0.900   0.900


     Atomic displacements:
     There are   4 irreducible representations

     Representation     1      1 modes -  To be done

     Representation     2      1 modes -  To be done

     Representation     3      2 modes -  To be done

     Representation     4      2 modes -  To be done



     Alpha used in Ewald sum =   0.7000
     PHONON       :    16.34s CPU        18.14s WALL



     Representation #  1 mode #   1

     Self-consistent Calculation

      iter #   1 total cpu time :    18.3 secs   av.it.:   4.8
      thresh= 1.000E-02 alpha_mix =  0.700 |ddv_scf|^2 =  2.434E-05

      iter #   2 total cpu time :    18.4 secs   av.it.:   8.4
      thresh= 4.933E-04 alpha_mix =  0.700 |ddv_scf|^2 =  2.219E-05

      iter #   3 total cpu time :    18.5 secs   av.it.:   7.5
      thresh= 4.711E-04 alpha_mix =  0.700 |ddv_scf|^2 =  3.782E-08

      iter #   4 total cpu time :    18.7 secs   av.it.:   7.6
      thresh= 1.945E-05 alpha_mix =  0.700 |ddv_scf|^2 =  1.340E-10

      iter #   5 total cpu time :    18.8 secs   av.it.:   7.8
      thresh= 1.157E-06 alpha_mix =  0.700 |ddv_scf|^2 =  3.987E-12

      iter #   6 total cpu time :    18.9 secs   av.it.:   7.7
      thresh= 1.997E-07 alpha_mix =  0.700 |ddv_scf|^2 =  7.974E-14

     End of self-consistent calculation

     Convergence has been achieved 


     Representation #  2 mode #   2

     Self-consistent Calculation

      iter #   1 total cpu time :    19.1 secs   av.it.:   5.6
      thresh= 1.000E-02 alpha_mix =  0.700 |ddv_scf|^2 =  3.400E-04

      iter #   2 total cpu time :    19.2 secs   av.it.:   8.3
      thresh= 1.844E-03 alpha_mix =  0.700 |ddv_scf|^2 =  1.051E-03

      iter #   3 total cpu time :    19.3 secs   av.it.:   7.1
      thresh= 3.242E-03 alpha_mix =  0.700 |ddv_scf|^2 =  1.386E-07

      iter #   4 total cpu time :    19.8 secs   av.it.:   8.1
      thresh= 3.722E-05 alpha_mix =  0.700 |ddv_scf|^2 =  9.526E-09

      iter #   5 total cpu time :    20.0 secs   av.it.:   8.4
      thresh= 9.760E-06 alpha_mix =  0.700 |ddv_scf|^2 =  1.531E-10

      iter #   6 total cpu time :    20.1 secs   av.it.:   8.1
      thresh= 1.237E-06 alpha_mix =  0.700 |ddv_scf|^2 =  3.763E-12

      iter #   7 total cpu time :    20.2 secs   av.it.:   7.6
      thresh= 1.940E-07 alpha_mix =  0.700 |ddv_scf|^2 =  6.746E-15

     End of self-consistent calculation

     Convergence has been achieved 


     Representation #  3 modes #   3  4

     Self-consistent Calculation

      iter #   1 total cpu time :    20.5 secs   av.it.:   4.7
      thresh= 1.000E-02 alpha_mix =  0.700 |ddv_scf|^2 =  3.401E-07

      iter #   2 total cpu time :    20.8 secs   av.it.:   9.0
      thresh= 5.832E-05 alpha_mix =  0.700 |ddv_scf|^2 =  2.928E-08

      iter #   3 total cpu time :    21.0 secs   av.it.:   8.3
      thresh= 1.711E-05 alpha_mix =  0.700 |ddv_scf|^2 =  5.110E-10

      iter #   4 total cpu time :    21.3 secs   av.it.:   8.9
      thresh= 2.261E-06 alpha_mix =  0.700 |ddv_scf|^2 =  6.427E-12

      iter #   5 total cpu time :    21.9 secs   av.it.:   8.7
      thresh= 2.535E-07 alpha_mix =  0.700 |ddv_scf|^2 =  3.563E-14

     End of self-consistent calculation

     Convergence has been achieved 


     Representation #  4 modes #   5  6

     Self-consistent Calculation

      iter #   1 total cpu time :    22.2 secs   av.it.:   4.9
      thresh= 1.000E-02 alpha_mix =  0.700 |ddv_scf|^2 =  9.409E-07

      iter #   2 total cpu time :    22.5 secs   av.it.:   9.5
      thresh= 9.700E-05 alpha_mix =  0.700 |ddv_scf|^2 =  7.478E-08

      iter #   3 total cpu time :    22.8 secs   av.it.:   9.3
      thresh= 2.735E-05 alpha_mix =  0.700 |ddv_scf|^2 =  4.447E-09

      iter #   4 total cpu time :    23.1 secs   av.it.:   8.5
      thresh= 6.669E-06 alpha_mix =  0.700 |ddv_scf|^2 =  6.484E-12

      iter #   5 total cpu time :    23.3 secs   av.it.:   8.9
      thresh= 2.546E-07 alpha_mix =  0.700 |ddv_scf|^2 =  2.530E-14

     End of self-consistent calculation

     Convergence has been achieved 

     Number of q in the star =    4
     List of q in the star:
          1   0.500000000  -0.500000000   0.500000000
          2   0.500000000   0.500000000   0.500000000
          3  -0.500000000   0.500000000   0.500000000
          4   0.500000000   0.500000000  -0.500000000

     Diagonalizing the dynamical matrix

     q = (    0.500000000  -0.500000000   0.500000000 ) 

 **************************************************************************
     freq (    1) =       5.083316 [THz] =     169.561173 [cm-1]
     freq (    2) =       5.083316 [THz] =     169.561173 [cm-1]
     freq (    3) =      11.918360 [THz] =     397.553702 [cm-1]
     freq (    4) =      12.177219 [THz] =     406.188308 [cm-1]
     freq (    5) =      14.743115 [THz] =     491.777392 [cm-1]
     freq (    6) =      14.743115 [THz] =     491.777392 [cm-1]
 **************************************************************************

     Calculation of q =    0.0000000   0.5000000   0.0000000

   Info: using nr1, nr2, nr3 values from input

   Info: using nr1, nr2, nr3 values from input

     Parallelization info
     --------------------
     sticks:   dense  smooth     PW     G-vecs:    dense   smooth      PW
     Min          66      66     27                  722      722     181
     Max          67      67     28                  724      724     182
     Sum         265     265    109                 2891     2891     725



     bravais-lattice index     =            2
     lattice parameter (alat)  =      10.3930  a.u.
     unit-cell volume          =     280.6485 (a.u.)^3
     number of atoms/cell      =            2
     number of atomic types    =            1
     number of electrons       =         8.00
     number of Kohn-Sham states=            4
     kinetic-energy cutoff     =      18.0000  Ry
     charge density cutoff     =      72.0000  Ry
     Exchange-correlation      = SLA  PW   PBE  PBE ( 1  4  3  4 0 0)

     celldm(1)=  10.393000  celldm(2)=   0.000000  celldm(3)=   0.000000
     celldm(4)=   0.000000  celldm(5)=   0.000000  celldm(6)=   0.000000

     crystal axes: (cart. coord. in units of alat)
               a(1) = (  -0.500000   0.000000   0.500000 )  
               a(2) = (   0.000000   0.500000   0.500000 )  
               a(3) = (  -0.500000   0.500000   0.000000 )  

     reciprocal axes: (cart. coord. in units 2 pi/alat)
               b(1) = ( -1.000000 -1.000000  1.000000 )  
               b(2) = (  1.000000  1.000000  1.000000 )  
               b(3) = ( -1.000000  1.000000 -1.000000 )  


     PseudoPot. # 1 for Si read from file:
     /home/max/quantum_espresso/qe-6.1/pseudo/si_pbe_v1.uspp.F.UPF.txt
     MD5 check sum: a056efeee980c13900f22a371efd63c1
     Pseudo is Ultrasoft + core correction, Zval =  4.0
     Generated by new atomic code, or converted to UPF format
     Using radial grid of  899 points,  6 beta functions with: 
                l(1) =   0
                l(2) =   0
                l(3) =   1
                l(4) =   1
                l(5) =   2
                l(6) =   2
     Q(r) pseudized with  8 coefficients,  rinner =    0.900   0.900   0.900
                                                       0.900   0.900

     atomic species   valence    mass     pseudopotential
        Si             4.00    28.08600     Si( 1.00)

     48 Sym. Ops., with inversion, found



   Cartesian axes

     site n.     atom                  positions (alat units)
         1           Si  tau(   1) = (   0.0000000   0.0000000   0.0000000  )
         2           Si  tau(   2) = (   0.2500000   0.2500000   0.2500000  )

     number of k points=    80
                       cart. coord. in units 2pi/alat
        k(    1) = (  -0.1250000   0.1250000   0.1250000), wk =   0.0312500
        k(    2) = (  -0.1250000   0.6250000   0.1250000), wk =   0.0000000
        k(    3) = (  -0.3750000   0.3750000  -0.1250000), wk =   0.0625000
        k(    4) = (  -0.3750000   0.8750000  -0.1250000), wk =   0.0000000
        k(    5) = (   0.3750000  -0.3750000   0.6250000), wk =   0.0625000
        k(    6) = (   0.3750000   0.1250000   0.6250000), wk =   0.0000000
        k(    7) = (   0.1250000  -0.1250000   0.3750000), wk =   0.0625000
        k(    8) = (   0.1250000   0.3750000   0.3750000), wk =   0.0000000
        k(    9) = (  -0.1250000   0.6250000   0.1250000), wk =   0.0312500
        k(   10) = (  -0.1250000   1.1250000   0.1250000), wk =   0.0000000
        k(   11) = (   0.6250000  -0.1250000   0.8750000), wk =   0.0625000
        k(   12) = (   0.6250000   0.3750000   0.8750000), wk =   0.0000000
        k(   13) = (   0.3750000   0.1250000   0.6250000), wk =   0.0625000
        k(   14) = (   0.3750000   0.6250000   0.6250000), wk =   0.0000000
        k(   15) = (  -0.1250000  -0.8750000   0.1250000), wk =   0.0312500
        k(   16) = (  -0.1250000  -0.3750000   0.1250000), wk =   0.0000000
        k(   17) = (  -0.3750000   0.3750000   0.3750000), wk =   0.0312500
        k(   18) = (  -0.3750000   0.8750000   0.3750000), wk =   0.0000000
        k(   19) = (   0.3750000  -0.3750000   1.1250000), wk =   0.0625000
        k(   20) = (   0.3750000   0.1250000   1.1250000), wk =   0.0000000
        k(   21) = (  -0.1250000  -0.1250000   0.1250000), wk =   0.0312500
        k(   22) = (  -0.1250000   0.3750000   0.1250000), wk =   0.0000000
        k(   23) = (   0.1250000  -0.3750000   0.3750000), wk =   0.0625000
        k(   24) = (   0.1250000   0.1250000   0.3750000), wk =   0.0000000
        k(   25) = (   0.3750000  -0.1250000   0.3750000), wk =   0.0312500
        k(   26) = (   0.3750000   0.3750000   0.3750000), wk =   0.0000000
        k(   27) = (   0.3750000   0.1250000   0.3750000), wk =   0.0312500
        k(   28) = (   0.3750000   0.6250000   0.3750000), wk =   0.0000000
        k(   29) = (  -0.6250000   0.3750000  -0.3750000), wk =   0.0625000
        k(   30) = (  -0.6250000   0.8750000  -0.3750000), wk =   0.0000000
        k(   31) = (  -0.3750000   0.6250000  -0.3750000), wk =   0.0312500
        k(   32) = (  -0.3750000   1.1250000  -0.3750000), wk =   0.0000000
        k(   33) = (  -0.3750000  -0.6250000  -0.3750000), wk =   0.0312500
        k(   34) = (  -0.3750000  -0.1250000  -0.3750000), wk =   0.0000000
        k(   35) = (  -0.3750000   0.1250000  -0.1250000), wk =   0.0625000
        k(   36) = (  -0.3750000   0.6250000  -0.1250000), wk =   0.0000000
        k(   37) = (  -0.1250000   0.3750000  -0.1250000), wk =   0.0312500
        k(   38) = (  -0.1250000   0.8750000  -0.1250000), wk =   0.0000000
        k(   39) = (  -0.1250000  -0.3750000  -0.1250000), wk =   0.0312500
        k(   40) = (  -0.1250000   0.1250000  -0.1250000), wk =   0.0000000
        k(   41) = (  -0.1250000  -0.6250000   0.1250000), wk =   0.0312500
        k(   42) = (  -0.1250000  -0.1250000   0.1250000), wk =   0.0000000
        k(   43) = (   0.6250000  -0.1250000  -0.1250000), wk =   0.0625000
        k(   44) = (   0.6250000   0.3750000  -0.1250000), wk =   0.0000000
        k(   45) = (   0.6250000   0.1250000   0.1250000), wk =   0.0625000
        k(   46) = (   0.6250000   0.6250000   0.1250000), wk =   0.0000000
        k(   47) = (  -0.8750000   0.1250000  -0.6250000), wk =   0.0625000
        k(   48) = (  -0.8750000   0.6250000  -0.6250000), wk =   0.0000000
        k(   49) = (  -0.1250000   0.6250000  -0.8750000), wk =   0.0625000
        k(   50) = (  -0.1250000   1.1250000  -0.8750000), wk =   0.0000000
        k(   51) = (  -0.1250000   0.8750000  -0.6250000), wk =   0.0625000
        k(   52) = (  -0.1250000   1.3750000  -0.6250000), wk =   0.0000000
        k(   53) = (  -0.1250000  -0.8750000  -0.6250000), wk =   0.0625000
        k(   54) = (  -0.1250000  -0.3750000  -0.6250000), wk =   0.0000000
        k(   55) = (   0.8750000  -0.6250000   0.1250000), wk =   0.0625000
        k(   56) = (   0.8750000  -0.1250000   0.1250000), wk =   0.0000000
        k(   57) = (  -0.6250000  -0.1250000  -0.3750000), wk =   0.0625000
        k(   58) = (  -0.6250000   0.3750000  -0.3750000), wk =   0.0000000
        k(   59) = (   0.1250000   0.3750000  -0.6250000), wk =   0.0625000
        k(   60) = (   0.1250000   0.8750000  -0.6250000), wk =   0.0000000
        k(   61) = (   0.1250000   0.6250000  -0.3750000), wk =   0.0625000
        k(   62) = (   0.1250000   1.1250000  -0.3750000), wk =   0.0000000
        k(   63) = (   0.1250000  -0.6250000  -0.3750000), wk =   0.0625000
        k(   64) = (   0.1250000  -0.1250000  -0.3750000), wk =   0.0000000
        k(   65) = (   0.6250000  -0.3750000  -0.1250000), wk =   0.0625000
        k(   66) = (   0.6250000   0.1250000  -0.1250000), wk =   0.0000000
        k(   67) = (  -0.1250000   0.8750000   0.1250000), wk =   0.0312500
        k(   68) = (  -0.1250000   1.3750000   0.1250000), wk =   0.0000000
        k(   69) = (  -0.8750000  -0.1250000  -0.1250000), wk =   0.0625000
        k(   70) = (  -0.8750000   0.3750000  -0.1250000), wk =   0.0000000
        k(   71) = (  -0.8750000   0.1250000   0.1250000), wk =   0.0625000
        k(   72) = (  -0.8750000   0.6250000   0.1250000), wk =   0.0000000
        k(   73) = (  -0.3750000  -0.3750000   0.3750000), wk =   0.0312500
        k(   74) = (  -0.3750000   0.1250000   0.3750000), wk =   0.0000000
        k(   75) = (  -1.1250000   0.3750000  -0.3750000), wk =   0.0625000
        k(   76) = (  -1.1250000   0.8750000  -0.3750000), wk =   0.0000000
        k(   77) = (  -0.3750000   1.1250000  -0.3750000), wk =   0.0312500
        k(   78) = (  -0.3750000   1.6250000  -0.3750000), wk =   0.0000000
        k(   79) = (  -0.3750000  -1.1250000  -0.3750000), wk =   0.0312500
        k(   80) = (  -0.3750000  -0.6250000  -0.3750000), wk =   0.0000000

     Dense  grid:     2891 G-vectors     FFT dimensions: (  20,  20,  20)

     Estimated max dynamical RAM per process >       0.33MB

     Estimated total allocated dynamical RAM >       1.33MB

     Check: negative/imaginary core charge=   -0.000006    0.000000

     The potential is recalculated from file :
     ./_ph0/silicon.10.393.save/charge-density.dat

     Starting wfc are    8 atomic wfcs

     Band Structure Calculation
     Davidson diagonalization with overlap

     ethr =  1.25E-10,  avg # of iterations = 11.7

     total cpu time spent up to now is        2.5 secs

     End of band structure calculation

          k =-0.1250 0.1250 0.1250 (   347 PWs)   bands (ev):

    -5.6931   4.2198   5.5299   5.5299

          k =-0.1250 0.6250 0.1250 (   357 PWs)   bands (ev):

    -4.1610   0.9025   3.2403   3.6813

          k =-0.3750 0.3750-0.1250 (   356 PWs)   bands (ev):

    -4.6849   1.2560   3.5785   5.0526

          k =-0.3750 0.8750-0.1250 (   368 PWs)   bands (ev):

    -2.5561  -1.0329   1.9214   2.9732

          k = 0.3750-0.3750 0.6250 (   364 PWs)   bands (ev):

    -3.5730  -0.7791   3.5889   4.2967

          k = 0.3750 0.1250 0.6250 (   362 PWs)   bands (ev):

    -3.7555   0.0558   2.6078   3.9529

          k = 0.1250-0.1250 0.3750 (   358 PWs)   bands (ev):

    -5.1746   2.6087   4.5413   4.5950

          k = 0.1250 0.3750 0.3750 (   356 PWs)   bands (ev):

    -4.6849   1.2560   3.5785   5.0526

          k =-0.1250 0.6250 0.1250 (   357 PWs)   bands (ev):

    -4.1610   0.9025   3.2403   3.6813

          k =-0.1250 1.1250 0.1250 (   362 PWs)   bands (ev):

    -2.7153  -0.9395   2.5156   3.2214

          k = 0.6250-0.1250 0.8750 (   368 PWs)   bands (ev):

    -2.5561  -1.0329   1.9214   2.9732

          k = 0.6250 0.3750 0.8750 (   362 PWs)   bands (ev):

    -3.7555   0.0558   2.6078   3.9529

          k = 0.3750 0.1250 0.6250 (   362 PWs)   bands (ev):

    -3.7555   0.0558   2.6078   3.9529

          k = 0.3750 0.6250 0.6250 (   364 PWs)   bands (ev):

    -3.5730  -0.7791   3.5889   4.2967

          k =-0.1250-0.8750 0.1250 (   362 PWs)   bands (ev):

    -2.7153  -0.9395   2.5156   3.2214

          k =-0.1250-0.3750 0.1250 (   358 PWs)   bands (ev):

    -5.1746   2.6087   4.5413   4.5950

          k =-0.3750 0.3750 0.3750 (   359 PWs)   bands (ev):

    -4.2624  -0.0029   4.7510   4.7510

          k =-0.3750 0.8750 0.3750 (   365 PWs)   bands (ev):

    -3.0853  -0.7181   1.9712   3.9869

          k = 0.3750-0.3750 1.1250 (   365 PWs)   bands (ev):

    -3.0853  -0.7181   1.9712   3.9869

          k = 0.3750 0.1250 1.1250 (   368 PWs)   bands (ev):

    -2.5561  -1.0329   1.9214   2.9732

          k =-0.1250-0.1250 0.1250 (   347 PWs)   bands (ev):

    -5.6931   4.2198   5.5299   5.5299

          k =-0.1250 0.3750 0.1250 (   358 PWs)   bands (ev):

    -5.1746   2.6087   4.5413   4.5950

          k = 0.1250-0.3750 0.3750 (   356 PWs)   bands (ev):

    -4.6849   1.2560   3.5785   5.0526

          k = 0.1250 0.1250 0.3750 (   358 PWs)   bands (ev):

    -5.1746   2.6087   4.5413   4.5950

          k = 0.3750-0.1250 0.3750 (   356 PWs)   bands (ev):

    -4.6849   1.2560   3.5785   5.0526

          k = 0.3750 0.3750 0.3750 (   359 PWs)   bands (ev):

    -4.2624  -0.0029   4.7510   4.7510

          k = 0.3750 0.1250 0.3750 (   356 PWs)   bands (ev):

    -4.6849   1.2560   3.5785   5.0526

          k = 0.3750 0.6250 0.3750 (   364 PWs)   bands (ev):

    -3.5730  -0.7791   3.5889   4.2967

          k =-0.6250 0.3750-0.3750 (   364 PWs)   bands (ev):

    -3.5730  -0.7791   3.5889   4.2967

          k =-0.6250 0.8750-0.3750 (   362 PWs)   bands (ev):

    -3.7555   0.0558   2.6078   3.9529

          k =-0.3750 0.6250-0.3750 (   364 PWs)   bands (ev):

    -3.5730  -0.7791   3.5889   4.2967

          k =-0.3750 1.1250-0.3750 (   365 PWs)   bands (ev):

    -3.0853  -0.7181   1.9712   3.9869

          k =-0.3750-0.6250-0.3750 (   364 PWs)   bands (ev):

    -3.5730  -0.7791   3.5889   4.2967

          k =-0.3750-0.1250-0.3750 (   356 PWs)   bands (ev):

    -4.6849   1.2560   3.5785   5.0526

          k =-0.3750 0.1250-0.1250 (   358 PWs)   bands (ev):

    -5.1746   2.6087   4.5413   4.5950

          k =-0.3750 0.6250-0.1250 (   362 PWs)   bands (ev):

    -3.7555   0.0558   2.6078   3.9529

          k =-0.1250 0.3750-0.1250 (   358 PWs)   bands (ev):

    -5.1746   2.6087   4.5413   4.5950

          k =-0.1250 0.8750-0.1250 (   362 PWs)   bands (ev):

    -2.7153  -0.9395   2.5156   3.2214

          k =-0.1250-0.3750-0.1250 (   358 PWs)   bands (ev):

    -5.1746   2.6087   4.5413   4.5950

          k =-0.1250 0.1250-0.1250 (   347 PWs)   bands (ev):

    -5.6931   4.2198   5.5299   5.5299

          k =-0.1250-0.6250 0.1250 (   357 PWs)   bands (ev):

    -4.1610   0.9025   3.2403   3.6813

          k =-0.1250-0.1250 0.1250 (   347 PWs)   bands (ev):

    -5.6931   4.2198   5.5299   5.5299

          k = 0.6250-0.1250-0.1250 (   357 PWs)   bands (ev):

    -4.1610   0.9025   3.2403   3.6813

          k = 0.6250 0.3750-0.1250 (   362 PWs)   bands (ev):

    -3.7555   0.0558   2.6078   3.9529

          k = 0.6250 0.1250 0.1250 (   357 PWs)   bands (ev):

    -4.1610   0.9025   3.2403   3.6813

          k = 0.6250 0.6250 0.1250 (   365 PWs)   bands (ev):

    -3.0853  -0.7181   1.9712   3.9869

          k =-0.8750 0.1250-0.6250 (   368 PWs)   bands (ev):

    -2.5561  -1.0329   1.9214   2.9732

          k =-0.8750 0.6250-0.6250 (   356 PWs)   bands (ev):

    -4.6849   1.2560   3.5785   5.0526

          k =-0.1250 0.6250-0.8750 (   368 PWs)   bands (ev):

    -2.5561  -1.0329   1.9214   2.9732

          k =-0.1250 1.1250-0.8750 (   362 PWs)   bands (ev):

    -2.7153  -0.9395   2.5156   3.2214

          k =-0.1250 0.8750-0.6250 (   368 PWs)   bands (ev):

    -2.5561  -1.0329   1.9214   2.9732

          k =-0.1250 1.3750-0.6250 (   365 PWs)   bands (ev):

    -3.0853  -0.7181   1.9712   3.9869

          k =-0.1250-0.8750-0.6250 (   368 PWs)   bands (ev):

    -2.5561  -1.0329   1.9214   2.9732

          k =-0.1250-0.3750-0.6250 (   362 PWs)   bands (ev):

    -3.7555   0.0558   2.6078   3.9529

          k = 0.8750-0.6250 0.1250 (   368 PWs)   bands (ev):

    -2.5561  -1.0329   1.9214   2.9732

          k = 0.8750-0.1250 0.1250 (   362 PWs)   bands (ev):

    -2.7153  -0.9395   2.5156   3.2214

          k =-0.6250-0.1250-0.3750 (   362 PWs)   bands (ev):

    -3.7555   0.0558   2.6078   3.9529

          k =-0.6250 0.3750-0.3750 (   364 PWs)   bands (ev):

    -3.5730  -0.7791   3.5889   4.2967

          k = 0.1250 0.3750-0.6250 (   362 PWs)   bands (ev):

    -3.7555   0.0558   2.6078   3.9529

          k = 0.1250 0.8750-0.6250 (   368 PWs)   bands (ev):

    -2.5561  -1.0329   1.9214   2.9732

          k = 0.1250 0.6250-0.3750 (   362 PWs)   bands (ev):

    -3.7555   0.0558   2.6078   3.9529

          k = 0.1250 1.1250-0.3750 (   368 PWs)   bands (ev):

    -2.5561  -1.0329   1.9214   2.9732

          k = 0.1250-0.6250-0.3750 (   362 PWs)   bands (ev):

    -3.7555   0.0558   2.6078   3.9529

          k = 0.1250-0.1250-0.3750 (   358 PWs)   bands (ev):

    -5.1746   2.6087   4.5413   4.5950

          k = 0.6250-0.3750-0.1250 (   362 PWs)   bands (ev):

    -3.7555   0.0558   2.6078   3.9529

          k = 0.6250 0.1250-0.1250 (   357 PWs)   bands (ev):

    -4.1610   0.9025   3.2403   3.6813

          k =-0.1250 0.8750 0.1250 (   362 PWs)   bands (ev):

    -2.7153  -0.9395   2.5156   3.2214

          k =-0.1250 1.3750 0.1250 (   357 PWs)   bands (ev):

    -4.1610   0.9025   3.2403   3.6813

          k =-0.8750-0.1250-0.1250 (   362 PWs)   bands (ev):

    -2.7153  -0.9395   2.5156   3.2214

          k =-0.8750 0.3750-0.1250 (   368 PWs)   bands (ev):

    -2.5561  -1.0329   1.9214   2.9732

          k =-0.8750 0.1250 0.1250 (   362 PWs)   bands (ev):

    -2.7153  -0.9395   2.5156   3.2214

          k =-0.8750 0.6250 0.1250 (   368 PWs)   bands (ev):

    -2.5561  -1.0329   1.9214   2.9732

          k =-0.3750-0.3750 0.3750 (   359 PWs)   bands (ev):

    -4.2624  -0.0029   4.7510   4.7510

          k =-0.3750 0.1250 0.3750 (   356 PWs)   bands (ev):

    -4.6849   1.2560   3.5785   5.0526

          k =-1.1250 0.3750-0.3750 (   365 PWs)   bands (ev):

    -3.0853  -0.7181   1.9712   3.9869

          k =-1.1250 0.8750-0.3750 (   357 PWs)   bands (ev):

    -4.1610   0.9025   3.2403   3.6813

          k =-0.3750 1.1250-0.3750 (   365 PWs)   bands (ev):

    -3.0853  -0.7181   1.9712   3.9869

          k =-0.3750 1.6250-0.3750 (   359 PWs)   bands (ev):

    -4.2624  -0.0029   4.7510   4.7510

          k =-0.3750-1.1250-0.3750 (   365 PWs)   bands (ev):

    -3.0853  -0.7181   1.9712   3.9869

          k =-0.3750-0.6250-0.3750 (   364 PWs)   bands (ev):

    -3.5730  -0.7791   3.5889   4.2967

     highest occupied level (ev):     5.5299

     Writing output data file silicon.10.393.save

                                                                                

     bravais-lattice index     =            2
     lattice parameter (alat)  =      10.3930  a.u.
     unit-cell volume          =     280.6485 (a.u.)^3
     number of atoms/cell      =            2
     number of atomic types    =            1
     kinetic-energy cut-off    =      18.0000  Ry
     charge density cut-off    =      72.0000  Ry
     convergence threshold     =      1.0E-12
     beta                      =       0.7000
     number of iterations used =            4
     Exchange-correlation      = SLA  PW   PBE  PBE ( 1  4  3  4 0 0)


     celldm(1)=   10.39300  celldm(2)=    0.00000  celldm(3)=    0.00000
     celldm(4)=    0.00000  celldm(5)=    0.00000  celldm(6)=    0.00000

     crystal axes: (cart. coord. in units of alat)
               a(1) = ( -0.5000  0.0000  0.5000 )  
               a(2) = (  0.0000  0.5000  0.5000 )  
               a(3) = ( -0.5000  0.5000  0.0000 )  

     reciprocal axes: (cart. coord. in units 2 pi/alat)
               b(1) = ( -1.0000 -1.0000  1.0000 )  
               b(2) = (  1.0000  1.0000  1.0000 )  
               b(3) = ( -1.0000  1.0000 -1.0000 )  


     Atoms inside the unit cell: 

     Cartesian axes

     site n.  atom      mass           positions (alat units)
        1     Si  28.0860   tau(    1) = (    0.00000    0.00000    0.00000  )
        2     Si  28.0860   tau(    2) = (    0.25000    0.25000    0.25000  )

     Computing dynamical matrix for 
                    q = (   0.0000000   0.5000000   0.0000000 )

      8 Sym.Ops. (no q -> -q+G )


     G cutoff =  196.9947  (    722 G-vectors)     FFT grid: ( 20, 20, 20)
     number of k points=    80

     PseudoPot. # 1 for Si read from file:
     /home/max/quantum_espresso/qe-6.1/pseudo/si_pbe_v1.uspp.F.UPF.txt
     MD5 check sum: a056efeee980c13900f22a371efd63c1
     Pseudo is Ultrasoft + core correction, Zval =  4.0
     Generated by new atomic code, or converted to UPF format
     Using radial grid of  899 points,  6 beta functions with: 
                l(1) =   0
                l(2) =   0
                l(3) =   1
                l(4) =   1
                l(5) =   2
                l(6) =   2
     Q(r) pseudized with  8 coefficients,  rinner =    0.900   0.900   0.900
                                                       0.900   0.900

     Mode symmetry, C_4v (4mm)  point group:


     Atomic displacements:
     There are   4 irreducible representations

     Representation     1      1 modes -A_1  G_1 D_1  To be done

     Representation     2      1 modes -B_2  G_4 D_2'  To be done

     Representation     3      2 modes -E    G_5 D_5  To be done

     Representation     4      2 modes -E    G_5 D_5  To be done



     Alpha used in Ewald sum =   0.7000
     PHONON       :    22.07s CPU        24.50s WALL



     Representation #  1 mode #   1

     Self-consistent Calculation

      iter #   1 total cpu time :    24.7 secs   av.it.:   5.8
      thresh= 1.000E-02 alpha_mix =  0.700 |ddv_scf|^2 =  2.927E-03

      iter #   2 total cpu time :    24.8 secs   av.it.:   7.7
      thresh= 5.411E-03 alpha_mix =  0.700 |ddv_scf|^2 =  3.885E-02

      iter #   3 total cpu time :    25.0 secs   av.it.:   6.7
      thresh= 1.000E-02 alpha_mix =  0.700 |ddv_scf|^2 =  1.544E-07

      iter #   4 total cpu time :    25.2 secs   av.it.:   8.2
      thresh= 3.930E-05 alpha_mix =  0.700 |ddv_scf|^2 =  1.527E-08

      iter #   5 total cpu time :    25.4 secs   av.it.:   7.8
      thresh= 1.236E-05 alpha_mix =  0.700 |ddv_scf|^2 =  7.154E-10

      iter #   6 total cpu time :    25.9 secs   av.it.:   7.9
      thresh= 2.675E-06 alpha_mix =  0.700 |ddv_scf|^2 =  2.873E-12

      iter #   7 total cpu time :    26.0 secs   av.it.:   8.0
      thresh= 1.695E-07 alpha_mix =  0.700 |ddv_scf|^2 =  5.027E-13

     End of self-consistent calculation

     Convergence has been achieved 


     Representation #  2 mode #   2

     Self-consistent Calculation

      iter #   1 total cpu time :    26.2 secs   av.it.:   4.9
      thresh= 1.000E-02 alpha_mix =  0.700 |ddv_scf|^2 =  5.127E-06

      iter #   2 total cpu time :    26.4 secs   av.it.:   8.7
      thresh= 2.264E-04 alpha_mix =  0.700 |ddv_scf|^2 =  1.338E-06

      iter #   3 total cpu time :    26.6 secs   av.it.:   8.6
      thresh= 1.157E-04 alpha_mix =  0.700 |ddv_scf|^2 =  3.122E-08

      iter #   4 total cpu time :    26.7 secs   av.it.:   8.3
      thresh= 1.767E-05 alpha_mix =  0.700 |ddv_scf|^2 =  7.491E-10

      iter #   5 total cpu time :    26.9 secs   av.it.:   8.6
      thresh= 2.737E-06 alpha_mix =  0.700 |ddv_scf|^2 =  7.985E-12

      iter #   6 total cpu time :    27.1 secs   av.it.:   7.9
      thresh= 2.826E-07 alpha_mix =  0.700 |ddv_scf|^2 =  1.076E-13

     End of self-consistent calculation

     Convergence has been achieved 


     Representation #  3 modes #   3  4

     Self-consistent Calculation

      iter #   1 total cpu time :    27.4 secs   av.it.:   5.0
      thresh= 1.000E-02 alpha_mix =  0.700 |ddv_scf|^2 =  9.391E-07

      iter #   2 total cpu time :    28.1 secs   av.it.:   9.8
      thresh= 9.691E-05 alpha_mix =  0.700 |ddv_scf|^2 =  1.193E-07

      iter #   3 total cpu time :    28.5 secs   av.it.:   9.5
      thresh= 3.453E-05 alpha_mix =  0.700 |ddv_scf|^2 =  4.907E-09

      iter #   4 total cpu time :    28.9 secs   av.it.:   8.9
      thresh= 7.005E-06 alpha_mix =  0.700 |ddv_scf|^2 =  8.784E-12

      iter #   5 total cpu time :    29.3 secs   av.it.:   9.1
      thresh= 2.964E-07 alpha_mix =  0.700 |ddv_scf|^2 =  3.000E-13

     End of self-consistent calculation

     Convergence has been achieved 


     Representation #  4 modes #   5  6

     Self-consistent Calculation

      iter #   1 total cpu time :    29.9 secs   av.it.:   5.0
      thresh= 1.000E-02 alpha_mix =  0.700 |ddv_scf|^2 =  9.418E-07

      iter #   2 total cpu time :    30.3 secs   av.it.:   9.8
      thresh= 9.705E-05 alpha_mix =  0.700 |ddv_scf|^2 =  1.196E-07

      iter #   3 total cpu time :    30.7 secs   av.it.:   9.5
      thresh= 3.458E-05 alpha_mix =  0.700 |ddv_scf|^2 =  7.306E-09

      iter #   4 total cpu time :    31.1 secs   av.it.:   8.9
      thresh= 8.547E-06 alpha_mix =  0.700 |ddv_scf|^2 =  1.541E-11

      iter #   5 total cpu time :    31.7 secs   av.it.:   9.2
      thresh= 3.926E-07 alpha_mix =  0.700 |ddv_scf|^2 =  4.561E-14

     End of self-consistent calculation

     Convergence has been achieved 

     Number of q in the star =    6
     List of q in the star:
          1   0.000000000   0.500000000   0.000000000
          2   0.000000000  -0.500000000   0.000000000
          3   0.500000000   0.000000000   0.000000000
          4   0.000000000   0.000000000   0.500000000
          5   0.000000000   0.000000000  -0.500000000
          6  -0.500000000   0.000000000   0.000000000

     Diagonalizing the dynamical matrix

     q = (    0.000000000   0.500000000   0.000000000 ) 

 **************************************************************************
     freq (    1) =       4.408446 [THz] =     147.049918 [cm-1]
     freq (    2) =       4.408446 [THz] =     147.049918 [cm-1]
     freq (    3) =       7.005934 [THz] =     233.692818 [cm-1]
     freq (    4) =      14.251628 [THz] =     475.383155 [cm-1]
     freq (    5) =      14.251628 [THz] =     475.383155 [cm-1]
     freq (    6) =      14.948688 [THz] =     498.634562 [cm-1]
 **************************************************************************

     Mode symmetry, C_4v (4mm)  point group:

     freq (  1 -  2) =        147.0  [cm-1]   --> E    G_5 D_5       
     freq (  3 -  3) =        233.7  [cm-1]   --> A_1  G_1 D_1       
     freq (  4 -  5) =        475.4  [cm-1]   --> E    G_5 D_5       
     freq (  6 -  6) =        498.6  [cm-1]   --> B_2  G_4 D_2'      

     Calculation of q =    0.7500000  -0.2500000   0.7500000

   Info: using nr1, nr2, nr3 values from input

   Info: using nr1, nr2, nr3 values from input

     Parallelization info
     --------------------
     sticks:   dense  smooth     PW     G-vecs:    dense   smooth      PW
     Min          65      65     30                  722      722     216
     Max          67      67     31                  723      723     218
     Sum         265     265    121                 2891     2891     869



     bravais-lattice index     =            2
     lattice parameter (alat)  =      10.3930  a.u.
     unit-cell volume          =     280.6485 (a.u.)^3
     number of atoms/cell      =            2
     number of atomic types    =            1
     number of electrons       =         8.00
     number of Kohn-Sham states=            4
     kinetic-energy cutoff     =      18.0000  Ry
     charge density cutoff     =      72.0000  Ry
     Exchange-correlation      = SLA  PW   PBE  PBE ( 1  4  3  4 0 0)

     celldm(1)=  10.393000  celldm(2)=   0.000000  celldm(3)=   0.000000
     celldm(4)=   0.000000  celldm(5)=   0.000000  celldm(6)=   0.000000

     crystal axes: (cart. coord. in units of alat)
               a(1) = (  -0.500000   0.000000   0.500000 )  
               a(2) = (   0.000000   0.500000   0.500000 )  
               a(3) = (  -0.500000   0.500000   0.000000 )  

     reciprocal axes: (cart. coord. in units 2 pi/alat)
               b(1) = ( -1.000000 -1.000000  1.000000 )  
               b(2) = (  1.000000  1.000000  1.000000 )  
               b(3) = ( -1.000000  1.000000 -1.000000 )  


     PseudoPot. # 1 for Si read from file:
     /home/max/quantum_espresso/qe-6.1/pseudo/si_pbe_v1.uspp.F.UPF.txt
     MD5 check sum: a056efeee980c13900f22a371efd63c1
     Pseudo is Ultrasoft + core correction, Zval =  4.0
     Generated by new atomic code, or converted to UPF format
     Using radial grid of  899 points,  6 beta functions with: 
                l(1) =   0
                l(2) =   0
                l(3) =   1
                l(4) =   1
                l(5) =   2
                l(6) =   2
     Q(r) pseudized with  8 coefficients,  rinner =    0.900   0.900   0.900
                                                       0.900   0.900

     atomic species   valence    mass     pseudopotential
        Si             4.00    28.08600     Si( 1.00)

     48 Sym. Ops., with inversion, found



   Cartesian axes

     site n.     atom                  positions (alat units)
         1           Si  tau(   1) = (   0.0000000   0.0000000   0.0000000  )
         2           Si  tau(   2) = (   0.2500000   0.2500000   0.2500000  )

     number of k points=   288

     Number of k-points >= 100: set verbosity='high' to print them.

     Dense  grid:     2891 G-vectors     FFT dimensions: (  20,  20,  20)

     Estimated max dynamical RAM per process >       0.33MB

     Estimated total allocated dynamical RAM >       1.33MB

     Check: negative/imaginary core charge=   -0.000006    0.000000

     The potential is recalculated from file :
     ./_ph0/silicon.10.393.save/charge-density.dat

     Starting wfc are    8 atomic wfcs

     Band Structure Calculation
     Davidson diagonalization with overlap

     ethr =  1.25E-10,  avg # of iterations = 11.6

     total cpu time spent up to now is        4.8 secs

     End of band structure calculation

     Number of k-points >= 100: set verbosity='high' to print the bands.

     highest occupied level (ev):     5.5299

     Writing output data file silicon.10.393.save

                                                                                

     bravais-lattice index     =            2
     lattice parameter (alat)  =      10.3930  a.u.
     unit-cell volume          =     280.6485 (a.u.)^3
     number of atoms/cell      =            2
     number of atomic types    =            1
     kinetic-energy cut-off    =      18.0000  Ry
     charge density cut-off    =      72.0000  Ry
     convergence threshold     =      1.0E-12
     beta                      =       0.7000
     number of iterations used =            4
     Exchange-correlation      = SLA  PW   PBE  PBE ( 1  4  3  4 0 0)


     celldm(1)=   10.39300  celldm(2)=    0.00000  celldm(3)=    0.00000
     celldm(4)=    0.00000  celldm(5)=    0.00000  celldm(6)=    0.00000

     crystal axes: (cart. coord. in units of alat)
               a(1) = ( -0.5000  0.0000  0.5000 )  
               a(2) = (  0.0000  0.5000  0.5000 )  
               a(3) = ( -0.5000  0.5000  0.0000 )  

     reciprocal axes: (cart. coord. in units 2 pi/alat)
               b(1) = ( -1.0000 -1.0000  1.0000 )  
               b(2) = (  1.0000  1.0000  1.0000 )  
               b(3) = ( -1.0000  1.0000 -1.0000 )  


     Atoms inside the unit cell: 

     Cartesian axes

     site n.  atom      mass           positions (alat units)
        1     Si  28.0860   tau(    1) = (    0.00000    0.00000    0.00000  )
        2     Si  28.0860   tau(    2) = (    0.25000    0.25000    0.25000  )

     Computing dynamical matrix for 
                    q = (   0.7500000  -0.2500000   0.7500000 )

      2 Sym.Ops. (no q -> -q+G )


     G cutoff =  196.9947  (    723 G-vectors)     FFT grid: ( 20, 20, 20)
     number of k points=   288

     PseudoPot. # 1 for Si read from file:
     /home/max/quantum_espresso/qe-6.1/pseudo/si_pbe_v1.uspp.F.UPF.txt
     MD5 check sum: a056efeee980c13900f22a371efd63c1
     Pseudo is Ultrasoft + core correction, Zval =  4.0
     Generated by new atomic code, or converted to UPF format
     Using radial grid of  899 points,  6 beta functions with: 
                l(1) =   0
                l(2) =   0
                l(3) =   1
                l(4) =   1
                l(5) =   2
                l(6) =   2
     Q(r) pseudized with  8 coefficients,  rinner =    0.900   0.900   0.900
                                                       0.900   0.900

     Mode symmetry, C_s (m)     point group:


     Atomic displacements:
     There are   6 irreducible representations

     Representation     1      1 modes -A'  To be done

     Representation     2      1 modes -A'  To be done

     Representation     3      1 modes -A'  To be done

     Representation     4      1 modes -A'  To be done

     Representation     5      1 modes -A''  To be done

     Representation     6      1 modes -A''  To be done



     Alpha used in Ewald sum =   0.7000
     PHONON       :    31.55s CPU        34.76s WALL



     Representation #  1 mode #   1

     Self-consistent Calculation

      iter #   1 total cpu time :    35.3 secs   av.it.:   5.3
      thresh= 1.000E-02 alpha_mix =  0.700 |ddv_scf|^2 =  6.039E-05

      iter #   2 total cpu time :    36.3 secs   av.it.:   8.9
      thresh= 7.771E-04 alpha_mix =  0.700 |ddv_scf|^2 =  1.599E-04

      iter #   3 total cpu time :    36.9 secs   av.it.:   7.6
      thresh= 1.265E-03 alpha_mix =  0.700 |ddv_scf|^2 =  1.127E-06

      iter #   4 total cpu time :    37.6 secs   av.it.:   8.4
      thresh= 1.062E-04 alpha_mix =  0.700 |ddv_scf|^2 =  5.697E-08

      iter #   5 total cpu time :    38.5 secs   av.it.:   8.3
      thresh= 2.387E-05 alpha_mix =  0.700 |ddv_scf|^2 =  7.260E-09

      iter #   6 total cpu time :    39.1 secs   av.it.:   8.5
      thresh= 8.520E-06 alpha_mix =  0.700 |ddv_scf|^2 =  9.348E-11

      iter #   7 total cpu time :    40.1 secs   av.it.:   8.7
      thresh= 9.669E-07 alpha_mix =  0.700 |ddv_scf|^2 =  3.184E-12

      iter #   8 total cpu time :    40.7 secs   av.it.:   8.6
      thresh= 1.784E-07 alpha_mix =  0.700 |ddv_scf|^2 =  1.994E-13

     End of self-consistent calculation

     Convergence has been achieved 


     Representation #  2 mode #   2

     Self-consistent Calculation

      iter #   1 total cpu time :    41.3 secs   av.it.:   5.4
      thresh= 1.000E-02 alpha_mix =  0.700 |ddv_scf|^2 =  1.074E-04

      iter #   2 total cpu time :    42.3 secs   av.it.:   8.7
      thresh= 1.037E-03 alpha_mix =  0.700 |ddv_scf|^2 =  3.082E-04

      iter #   3 total cpu time :    42.9 secs   av.it.:   7.4
      thresh= 1.755E-03 alpha_mix =  0.700 |ddv_scf|^2 =  7.990E-07

      iter #   4 total cpu time :    43.9 secs   av.it.:   8.5
      thresh= 8.939E-05 alpha_mix =  0.700 |ddv_scf|^2 =  5.542E-08

      iter #   5 total cpu time :    44.5 secs   av.it.:   8.2
      thresh= 2.354E-05 alpha_mix =  0.700 |ddv_scf|^2 =  1.050E-08

      iter #   6 total cpu time :    45.1 secs   av.it.:   8.5
      thresh= 1.024E-05 alpha_mix =  0.700 |ddv_scf|^2 =  9.111E-11

      iter #   7 total cpu time :    46.1 secs   av.it.:   8.7
      thresh= 9.545E-07 alpha_mix =  0.700 |ddv_scf|^2 =  2.826E-12

      iter #   8 total cpu time :    46.7 secs   av.it.:   8.6
      thresh= 1.681E-07 alpha_mix =  0.700 |ddv_scf|^2 =  5.297E-13

     End of self-consistent calculation

     Convergence has been achieved 


     Representation #  3 mode #   3

     Self-consistent Calculation

      iter #   1 total cpu time :    47.3 secs   av.it.:   5.3
      thresh= 1.000E-02 alpha_mix =  0.700 |ddv_scf|^2 =  8.424E-05

      iter #   2 total cpu time :    48.2 secs   av.it.:   8.7
      thresh= 9.178E-04 alpha_mix =  0.700 |ddv_scf|^2 =  2.256E-04

      iter #   3 total cpu time :    48.8 secs   av.it.:   7.4
      thresh= 1.502E-03 alpha_mix =  0.700 |ddv_scf|^2 =  1.361E-06

      iter #   4 total cpu time :    49.5 secs   av.it.:   8.2
      thresh= 1.167E-04 alpha_mix =  0.700 |ddv_scf|^2 =  5.703E-08

      iter #   5 total cpu time :    50.4 secs   av.it.:   8.4
      thresh= 2.388E-05 alpha_mix =  0.700 |ddv_scf|^2 =  1.085E-08

      iter #   6 total cpu time :    51.1 secs   av.it.:   8.5
      thresh= 1.041E-05 alpha_mix =  0.700 |ddv_scf|^2 =  5.149E-11

      iter #   7 total cpu time :    52.1 secs   av.it.:   8.7
      thresh= 7.176E-07 alpha_mix =  0.700 |ddv_scf|^2 =  2.047E-12

      iter #   8 total cpu time :    52.7 secs   av.it.:   8.8
      thresh= 1.431E-07 alpha_mix =  0.700 |ddv_scf|^2 =  4.676E-13

     End of self-consistent calculation

     Convergence has been achieved 


     Representation #  4 mode #   4

     Self-consistent Calculation

      iter #   1 total cpu time :    53.2 secs   av.it.:   5.2
      thresh= 1.000E-02 alpha_mix =  0.700 |ddv_scf|^2 =  3.721E-05

      iter #   2 total cpu time :    54.3 secs   av.it.:   8.9
[...]
        k(   59) = (  -0.8750000   0.1250000  -0.1250000), wk =   0.0625000
        k(   60) = (  -1.3750000  -0.8750000  -0.1250000), wk =   0.0000000
        k(   61) = (  -1.1250000   0.3750000  -0.3750000), wk =   0.0625000
        k(   62) = (  -1.6250000  -0.6250000  -0.3750000), wk =   0.0000000
        k(   63) = (  -0.3750000   0.3750000   1.1250000), wk =   0.0625000
        k(   64) = (  -0.8750000  -0.6250000   1.1250000), wk =   0.0000000

     Dense  grid:     2891 G-vectors     FFT dimensions: (  20,  20,  20)

     Estimated max dynamical RAM per process >       0.33MB

     Estimated total allocated dynamical RAM >       1.33MB

     Check: negative/imaginary core charge=   -0.000006    0.000000

     The potential is recalculated from file :
     ./_ph0/silicon.10.393.save/charge-density.dat

     Starting wfc are    8 atomic wfcs

     Band Structure Calculation
     Davidson diagonalization with overlap

     ethr =  1.25E-10,  avg # of iterations = 11.6

     total cpu time spent up to now is        7.1 secs

     End of band structure calculation

          k =-0.1250 0.1250 0.1250 (   347 PWs)   bands (ev):

    -5.6931   4.2198   5.5299   5.5299

          k =-0.6250-0.8750 0.1250 (   368 PWs)   bands (ev):

    -2.5561  -1.0329   1.9214   2.9732

          k =-0.3750 0.3750-0.1250 (   356 PWs)   bands (ev):

    -4.6849   1.2560   3.5785   5.0526

          k =-0.8750-0.6250-0.1250 (   368 PWs)   bands (ev):

    -2.5561  -1.0329   1.9214   2.9732

          k = 0.3750-0.3750 0.6250 (   364 PWs)   bands (ev):

    -3.5730  -0.7791   3.5889   4.2967

          k =-0.1250-1.3750 0.6250 (   365 PWs)   bands (ev):

    -3.0853  -0.7181   1.9712   3.9869

          k = 0.1250-0.1250 0.3750 (   358 PWs)   bands (ev):

    -5.1746   2.6087   4.5413   4.5950

          k =-0.3750-1.1250 0.3750 (   365 PWs)   bands (ev):

    -3.0853  -0.7181   1.9712   3.9869

          k =-0.1250 0.6250 0.1250 (   357 PWs)   bands (ev):

    -4.1610   0.9025   3.2403   3.6813

          k =-0.6250-0.3750 0.1250 (   362 PWs)   bands (ev):

    -3.7555   0.0558   2.6078   3.9529

          k = 0.6250-0.1250 0.8750 (   368 PWs)   bands (ev):

    -2.5561  -1.0329   1.9214   2.9732

          k = 0.1250-1.1250 0.8750 (   362 PWs)   bands (ev):

    -2.7153  -0.9395   2.5156   3.2214

          k = 0.3750 0.1250 0.6250 (   362 PWs)   bands (ev):

    -3.7555   0.0558   2.6078   3.9529

          k =-0.1250-0.8750 0.6250 (   368 PWs)   bands (ev):

    -2.5561  -1.0329   1.9214   2.9732

          k =-0.1250-0.8750 0.1250 (   362 PWs)   bands (ev):

    -2.7153  -0.9395   2.5156   3.2214

          k =-0.6250-1.8750 0.1250 (   357 PWs)   bands (ev):

    -4.1610   0.9025   3.2403   3.6813

          k =-0.3750 0.3750 0.3750 (   359 PWs)   bands (ev):

    -4.2624  -0.0029   4.7510   4.7510

          k =-0.8750-0.6250 0.3750 (   362 PWs)   bands (ev):

    -3.7555   0.0558   2.6078   3.9529

          k = 0.3750-0.3750 1.1250 (   365 PWs)   bands (ev):

    -3.0853  -0.7181   1.9712   3.9869

          k =-0.1250-1.3750 1.1250 (   368 PWs)   bands (ev):

    -2.5561  -1.0329   1.9214   2.9732

          k = 0.1250-0.3750 0.3750 (   356 PWs)   bands (ev):

    -4.6849   1.2560   3.5785   5.0526

          k =-0.3750-1.3750 0.3750 (   364 PWs)   bands (ev):

    -3.5730  -0.7791   3.5889   4.2967

          k = 0.3750-0.3750-0.1250 (   356 PWs)   bands (ev):

    -4.6849   1.2560   3.5785   5.0526

          k =-0.1250-1.3750-0.1250 (   357 PWs)   bands (ev):

    -4.1610   0.9025   3.2403   3.6813

          k =-0.6250 0.3750-0.3750 (   364 PWs)   bands (ev):

    -3.5730  -0.7791   3.5889   4.2967

          k =-1.1250-0.6250-0.3750 (   362 PWs)   bands (ev):

    -3.7555   0.0558   2.6078   3.9529

          k =-0.3750 0.3750 0.6250 (   364 PWs)   bands (ev):

    -3.5730  -0.7791   3.5889   4.2967

          k =-0.8750-0.6250 0.6250 (   356 PWs)   bands (ev):

    -4.6849   1.2560   3.5785   5.0526

          k =-0.3750 0.1250-0.1250 (   358 PWs)   bands (ev):

    -5.1746   2.6087   4.5413   4.5950

          k =-0.8750-0.8750-0.1250 (   362 PWs)   bands (ev):

    -2.7153  -0.9395   2.5156   3.2214

          k =-0.1250 0.1250 0.3750 (   358 PWs)   bands (ev):

    -5.1746   2.6087   4.5413   4.5950

          k =-0.6250-0.8750 0.3750 (   362 PWs)   bands (ev):

    -3.7555   0.0558   2.6078   3.9529

          k = 0.1250 0.6250-0.1250 (   357 PWs)   bands (ev):

    -4.1610   0.9025   3.2403   3.6813

          k =-0.3750-0.3750-0.1250 (   356 PWs)   bands (ev):

    -4.6849   1.2560   3.5785   5.0526

          k = 0.6250 0.1250-0.1250 (   357 PWs)   bands (ev):

    -4.1610   0.9025   3.2403   3.6813

          k = 0.1250-0.8750-0.1250 (   362 PWs)   bands (ev):

    -2.7153  -0.9395   2.5156   3.2214

          k =-0.8750 0.1250-0.6250 (   368 PWs)   bands (ev):

    -2.5561  -1.0329   1.9214   2.9732

          k =-1.3750-0.8750-0.6250 (   356 PWs)   bands (ev):

    -4.6849   1.2560   3.5785   5.0526

          k = 0.8750-0.1250 0.6250 (   368 PWs)   bands (ev):

    -2.5561  -1.0329   1.9214   2.9732

          k = 0.3750-1.1250 0.6250 (   362 PWs)   bands (ev):

    -3.7555   0.0558   2.6078   3.9529

          k =-0.6250 0.1250 0.8750 (   368 PWs)   bands (ev):

    -2.5561  -1.0329   1.9214   2.9732

          k =-1.1250-0.8750 0.8750 (   347 PWs)   bands (ev):

    -5.6931   4.2198   5.5299   5.5299

          k =-0.1250 0.8750 0.6250 (   368 PWs)   bands (ev):

    -2.5561  -1.0329   1.9214   2.9732

          k =-0.6250-0.1250 0.6250 (   365 PWs)   bands (ev):

    -3.0853  -0.7181   1.9712   3.9869

          k = 0.1250 0.8750-0.6250 (   368 PWs)   bands (ev):

    -2.5561  -1.0329   1.9214   2.9732

          k =-0.3750-0.1250-0.6250 (   362 PWs)   bands (ev):

    -3.7555   0.0558   2.6078   3.9529

          k =-0.6250-0.1250-0.3750 (   362 PWs)   bands (ev):

    -3.7555   0.0558   2.6078   3.9529

          k =-1.1250-1.1250-0.3750 (   357 PWs)   bands (ev):

    -4.1610   0.9025   3.2403   3.6813

          k = 0.6250 0.1250 0.3750 (   362 PWs)   bands (ev):

    -3.7555   0.0558   2.6078   3.9529

          k = 0.1250-0.8750 0.3750 (   368 PWs)   bands (ev):

    -2.5561  -1.0329   1.9214   2.9732

          k =-0.3750-0.1250 0.6250 (   362 PWs)   bands (ev):

    -3.7555   0.0558   2.6078   3.9529

          k =-0.8750-1.1250 0.6250 (   358 PWs)   bands (ev):

    -5.1746   2.6087   4.5413   4.5950

          k = 0.1250 0.6250 0.3750 (   362 PWs)   bands (ev):

    -3.7555   0.0558   2.6078   3.9529

          k =-0.3750-0.3750 0.3750 (   359 PWs)   bands (ev):

    -4.2624  -0.0029   4.7510   4.7510

          k =-0.1250 0.6250-0.3750 (   362 PWs)   bands (ev):

    -3.7555   0.0558   2.6078   3.9529

          k =-0.6250-0.3750-0.3750 (   364 PWs)   bands (ev):

    -3.5730  -0.7791   3.5889   4.2967

          k = 0.1250-0.8750-0.1250 (   362 PWs)   bands (ev):

    -2.7153  -0.9395   2.5156   3.2214

          k =-0.3750-1.8750-0.1250 (   358 PWs)   bands (ev):

    -5.1746   2.6087   4.5413   4.5950

          k =-0.8750 0.1250-0.1250 (   362 PWs)   bands (ev):

    -2.7153  -0.9395   2.5156   3.2214

          k =-1.3750-0.8750-0.1250 (   368 PWs)   bands (ev):

    -2.5561  -1.0329   1.9214   2.9732

          k =-1.1250 0.3750-0.3750 (   365 PWs)   bands (ev):

    -3.0853  -0.7181   1.9712   3.9869

          k =-1.6250-0.6250-0.3750 (   364 PWs)   bands (ev):

    -3.5730  -0.7791   3.5889   4.2967

          k =-0.3750 0.3750 1.1250 (   365 PWs)   bands (ev):

    -3.0853  -0.7181   1.9712   3.9869

          k =-0.8750-0.6250 1.1250 (   358 PWs)   bands (ev):

    -5.1746   2.6087   4.5413   4.5950

     highest occupied level (ev):     5.5299

     Writing output data file silicon.10.393.save

                                                                                

     bravais-lattice index     =            2
     lattice parameter (alat)  =      10.3930  a.u.
     unit-cell volume          =     280.6485 (a.u.)^3
     number of atoms/cell      =            2
     number of atomic types    =            1
     kinetic-energy cut-off    =      18.0000  Ry
     charge density cut-off    =      72.0000  Ry
     convergence threshold     =      1.0E-12
     beta                      =       0.7000
     number of iterations used =            4
     Exchange-correlation      = SLA  PW   PBE  PBE ( 1  4  3  4 0 0)


     celldm(1)=   10.39300  celldm(2)=    0.00000  celldm(3)=    0.00000
     celldm(4)=    0.00000  celldm(5)=    0.00000  celldm(6)=    0.00000

     crystal axes: (cart. coord. in units of alat)
               a(1) = ( -0.5000  0.0000  0.5000 )  
               a(2) = (  0.0000  0.5000  0.5000 )  
               a(3) = ( -0.5000  0.5000  0.0000 )  

     reciprocal axes: (cart. coord. in units 2 pi/alat)
               b(1) = ( -1.0000 -1.0000  1.0000 )  
               b(2) = (  1.0000  1.0000  1.0000 )  
               b(3) = ( -1.0000  1.0000 -1.0000 )  


     Atoms inside the unit cell: 

     Cartesian axes

     site n.  atom      mass           positions (alat units)
        1     Si  28.0860   tau(    1) = (    0.00000    0.00000    0.00000  )
        2     Si  28.0860   tau(    2) = (    0.25000    0.25000    0.25000  )

     Computing dynamical matrix for 
                    q = (  -0.5000000  -1.0000000   0.0000000 )

      8 Sym.Ops. (no q -> -q+G )


     G cutoff =  196.9947  (    722 G-vectors)     FFT grid: ( 20, 20, 20)
     number of k points=    64

     PseudoPot. # 1 for Si read from file:
     /home/max/quantum_espresso/qe-6.1/pseudo/si_pbe_v1.uspp.F.UPF.txt
     MD5 check sum: a056efeee980c13900f22a371efd63c1
     Pseudo is Ultrasoft + core correction, Zval =  4.0
     Generated by new atomic code, or converted to UPF format
     Using radial grid of  899 points,  6 beta functions with: 
                l(1) =   0
                l(2) =   0
                l(3) =   1
                l(4) =   1
                l(5) =   2
                l(6) =   2
     Q(r) pseudized with  8 coefficients,  rinner =    0.900   0.900   0.900
                                                       0.900   0.900


     Atomic displacements:
     There are   3 irreducible representations

     Representation     1      2 modes -  To be done

     Representation     2      2 modes -  To be done

     Representation     3      2 modes -  To be done



     Alpha used in Ewald sum =   0.7000
     PHONON       :  1m17.70s CPU     1m25.79s WALL



     Representation #  1 modes #   1  2

     Self-consistent Calculation

      iter #   1 total cpu time :    86.0 secs   av.it.:   5.3
      thresh= 1.000E-02 alpha_mix =  0.700 |ddv_scf|^2 =  6.281E-06

      iter #   2 total cpu time :    86.4 secs   av.it.:   9.8
      thresh= 2.506E-04 alpha_mix =  0.700 |ddv_scf|^2 =  3.381E-06

      iter #   3 total cpu time :    86.7 secs   av.it.:   9.3
      thresh= 1.839E-04 alpha_mix =  0.700 |ddv_scf|^2 =  8.463E-09

      iter #   4 total cpu time :    87.0 secs   av.it.:   9.1
      thresh= 9.199E-06 alpha_mix =  0.700 |ddv_scf|^2 =  2.517E-11

      iter #   5 total cpu time :    87.3 secs   av.it.:   9.0
      thresh= 5.017E-07 alpha_mix =  0.700 |ddv_scf|^2 =  7.722E-13

     End of self-consistent calculation

     Convergence has been achieved 


     Representation #  2 modes #   3  4

     Self-consistent Calculation

      iter #   1 total cpu time :    87.7 secs   av.it.:   5.3
      thresh= 1.000E-02 alpha_mix =  0.700 |ddv_scf|^2 =  9.713E-06

      iter #   2 total cpu time :    88.1 secs   av.it.:   9.9
      thresh= 3.117E-04 alpha_mix =  0.700 |ddv_scf|^2 =  1.318E-05

      iter #   3 total cpu time :    88.4 secs   av.it.:   9.1
      thresh= 3.630E-04 alpha_mix =  0.700 |ddv_scf|^2 =  1.014E-08

      iter #   4 total cpu time :    88.7 secs   av.it.:   8.9
      thresh= 1.007E-05 alpha_mix =  0.700 |ddv_scf|^2 =  9.506E-11

      iter #   5 total cpu time :    89.0 secs   av.it.:   9.4
      thresh= 9.750E-07 alpha_mix =  0.700 |ddv_scf|^2 =  1.842E-12

      iter #   6 total cpu time :    89.3 secs   av.it.:   9.1
      thresh= 1.357E-07 alpha_mix =  0.700 |ddv_scf|^2 =  1.637E-14

     End of self-consistent calculation

     Convergence has been achieved 


     Representation #  3 modes #   5  6

     Self-consistent Calculation

      iter #   1 total cpu time :    89.7 secs   av.it.:   5.1
      thresh= 1.000E-02 alpha_mix =  0.700 |ddv_scf|^2 =  2.620E-06

      iter #   2 total cpu time :    90.0 secs   av.it.:   9.7
      thresh= 1.618E-04 alpha_mix =  0.700 |ddv_scf|^2 =  1.426E-06

      iter #   3 total cpu time :    90.4 secs   av.it.:   9.1
      thresh= 1.194E-04 alpha_mix =  0.700 |ddv_scf|^2 =  8.124E-09

      iter #   4 total cpu time :    90.6 secs   av.it.:   8.7
      thresh= 9.013E-06 alpha_mix =  0.700 |ddv_scf|^2 =  4.522E-11

      iter #   5 total cpu time :    91.0 secs   av.it.:   9.1
      thresh= 6.725E-07 alpha_mix =  0.700 |ddv_scf|^2 =  7.204E-13

     End of self-consistent calculation

     Convergence has been achieved 

     Number of q in the star =    6
     List of q in the star:
          1  -0.500000000  -1.000000000   0.000000000
          2   0.000000000   1.000000000   0.500000000
          3   0.000000000  -1.000000000  -0.500000000
          4   0.500000000   1.000000000   0.000000000
          5  -1.000000000  -0.500000000   0.000000000
          6   0.000000000  -0.500000000  -1.000000000

     Diagonalizing the dynamical matrix

     q = (   -0.500000000  -1.000000000   0.000000000 ) 

 **************************************************************************
     freq (    1) =       7.783186 [THz] =     259.619144 [cm-1]
     freq (    2) =       7.783186 [THz] =     259.619144 [cm-1]
     freq (    3) =      11.042015 [THz] =     368.321976 [cm-1]
     freq (    4) =      11.042015 [THz] =     368.321976 [cm-1]
     freq (    5) =      13.776353 [THz] =     459.529675 [cm-1]
     freq (    6) =      13.776353 [THz] =     459.529675 [cm-1]
 **************************************************************************

     init_run     :      0.72s CPU      0.88s WALL (       7 calls)
     electrons    :      4.86s CPU      5.34s WALL (       7 calls)

     Called by init_run:
     wfcinit      :      0.00s CPU      0.00s WALL (       7 calls)
     potinit      :      0.03s CPU      0.03s WALL (       7 calls)

     Called by electrons:
     c_bands      :      4.86s CPU      5.32s WALL (       7 calls)
     v_of_rho     :      0.02s CPU      0.02s WALL (       8 calls)
     newd         :      0.03s CPU      0.03s WALL (       8 calls)

     Called by c_bands:
     init_us_2    :      0.68s CPU      0.74s WALL (   17588 calls)
     cegterg      :      4.09s CPU      4.44s WALL (     796 calls)

     Called by sum_band:

     Called by *egterg:
     h_psi        :     45.00s CPU     49.43s WALL (  152235 calls)
     s_psi        :      5.78s CPU      6.22s WALL (  309190 calls)
     g_psi        :      0.03s CPU      0.04s WALL (    9268 calls)
     cdiaghg      :      0.45s CPU      0.50s WALL (   10064 calls)

     Called by h_psi:
     h_psi:pot    :     44.81s CPU     49.21s WALL (  152235 calls)
     h_psi:calbec :      4.75s CPU      5.27s WALL (  152235 calls)
     vloc_psi     :     36.94s CPU     40.58s WALL (  152235 calls)
     add_vuspsi   :      2.90s CPU      3.15s WALL (  152235 calls)

     General routines
     calbec       :     10.45s CPU     11.58s WALL (  345562 calls)
     fft          :      0.40s CPU      0.42s WALL (    5239 calls)
     ffts         :      0.16s CPU      0.19s WALL (    2748 calls)
     fftw         :     43.03s CPU     47.40s WALL ( 1378260 calls)
     davcio       :      0.32s CPU      0.35s WALL (   79045 calls)

     Parallel routines
     fft_scatter  :     11.38s CPU     13.43s WALL ( 1386247 calls)

     PHONON       :  1m22.58s CPU     1m30.98s WALL

     INITIALIZATION: 
     phq_setup    :      0.07s CPU      0.12s WALL (       8 calls)
     phq_init     :      2.14s CPU      2.19s WALL (       8 calls)

     phq_init     :      2.14s CPU      2.19s WALL (       8 calls)
     set_drhoc    :      0.30s CPU      0.30s WALL (      24 calls)
     init_vloc    :      0.01s CPU      0.01s WALL (       8 calls)
     init_us_1    :      0.65s CPU      0.80s WALL (       8 calls)
     newd         :      0.03s CPU      0.03s WALL (       8 calls)
     dvanqq       :      0.26s CPU      0.26s WALL (       8 calls)
     drho         :      0.98s CPU      1.01s WALL (       8 calls)

     DYNAMICAL MATRIX:
     dynmat0      :      0.62s CPU      0.63s WALL (       8 calls)
     phqscf       :     72.07s CPU     79.46s WALL (       8 calls)
     dynmatrix    :      0.02s CPU      0.02s WALL (       8 calls)

     phqscf       :     72.07s CPU     79.46s WALL (       8 calls)
     solve_linter :     71.36s CPU     78.73s WALL (      32 calls)
     drhodv       :      0.50s CPU      0.51s WALL (      32 calls)

     dynmat0      :      0.62s CPU      0.63s WALL (       8 calls)
     dynmat_us    :      0.33s CPU      0.35s WALL (       8 calls)
     d2ionq       :      0.01s CPU      0.01s WALL (       8 calls)
     dynmatcc     :      0.24s CPU      0.24s WALL (       8 calls)

     dynmat_us    :      0.33s CPU      0.35s WALL (       8 calls)
     addusdynmat  :      0.00s CPU      0.00s WALL (       8 calls)

     phqscf       :     72.07s CPU     79.46s WALL (       8 calls)
     solve_linter :     71.36s CPU     78.73s WALL (      32 calls)

     solve_linter :     71.36s CPU     78.73s WALL (      32 calls)
     dvqpsi_us    :      1.67s CPU      1.86s WALL (    2508 calls)
     ortho        :      1.47s CPU      1.68s WALL (   15550 calls)
     cgsolve      :     55.83s CPU     61.64s WALL (   15550 calls)
     incdrhoscf   :      4.87s CPU      5.40s WALL (   15550 calls)
     addusddens   :      1.11s CPU      1.17s WALL (     228 calls)
     vpsifft      :      3.58s CPU      3.95s WALL (   12922 calls)
     dv_of_drho   :      0.22s CPU      0.22s WALL (     295 calls)
     mix_pot      :      0.06s CPU      0.07s WALL (     201 calls)
     psymdvscf    :      0.81s CPU      0.83s WALL (     196 calls)
     newdq        :      1.27s CPU      1.35s WALL (     201 calls)
     adddvscf     :      0.46s CPU      0.52s WALL (   13042 calls)
     drhodvus     :      0.00s CPU      0.00s WALL (      32 calls)

     dvqpsi_us    :      1.67s CPU      1.86s WALL (    2508 calls)
     dvqpsi_us_on :      0.82s CPU      0.88s WALL (    2508 calls)

     cgsolve      :     55.83s CPU     61.64s WALL (   15550 calls)
     ch_psi       :     53.67s CPU     59.03s WALL (  141375 calls)

     ch_psi       :     53.67s CPU     59.03s WALL (  141375 calls)
     h_psi        :     45.00s CPU     49.43s WALL (  152235 calls)
     last         :      8.96s CPU     10.02s WALL (  141375 calls)

     h_psi        :     45.00s CPU     49.43s WALL (  152235 calls)
     add_vuspsi   :      2.90s CPU      3.15s WALL (  152235 calls)

     incdrhoscf   :      4.87s CPU      5.40s WALL (   15550 calls)
     addusdbec    :      0.63s CPU      0.67s WALL (   17998 calls)

     drhodvus     :      0.00s CPU      0.00s WALL (      32 calls)

      General routines
     calbec       :     10.45s CPU     11.58s WALL (  345562 calls)
     fft          :      0.40s CPU      0.42s WALL (    5239 calls)
     ffts         :      0.16s CPU      0.19s WALL (    2748 calls)
     fftw         :     43.03s CPU     47.40s WALL ( 1378260 calls)
     davcio       :      0.32s CPU      0.35s WALL (   79045 calls)
     write_rec    :      0.22s CPU      0.24s WALL (     233 calls)


     PHONON       :  1m22.58s CPU     1m30.98s WALL


   This run was terminated on:  17:20:25   9Nov2017            

=------------------------------------------------------------------------------=
   JOB DONE.
=------------------------------------------------------------------------------=
