
     Program PHONON v.6.1 (svn rev. 13369) starts on  9Nov2017 at 17:14:30 

     This program is part of the open-source Quantum ESPRESSO suite
     for quantum simulation of materials; please cite
         "P. Giannozzi et al., J. Phys.:Condens. Matter 21 395502 (2009);
          URL http://www.quantum-espresso.org", 
     in publications or presentations arising from this work. More details at
     http://www.quantum-espresso.org/quote

     Parallel version (MPI), running on     4 processors
     R & G space division:  proc/nbgrp/npool/nimage =       4

     Reading data from directory:
     ./silicon.10.391.save

   Info: using nr1, nr2, nr3 values from input

   Info: using nr1, nr2, nr3 values from input

     IMPORTANT: XC functional enforced from input :
     Exchange-correlation      = SLA  PW   PBE  PBE ( 1  4  3  4 0 0)
     Any further DFT definition will be discarded
     Please, verify this is what you really want


     Parallelization info
     --------------------
     sticks:   dense  smooth     PW     G-vecs:    dense   smooth      PW
     Min          66      66     22                  722      722     152
     Max          67      67     23                  724      724     153
     Sum         265     265     91                 2891     2891     609


     Check: negative/imaginary core charge=   -0.000006    0.000000


     Dynamical matrices for ( 4, 4, 4)  uniform grid of q-points
     (   8q-points):
       N         xq(1)         xq(2)         xq(3) 
       1   0.000000000   0.000000000   0.000000000
       2  -0.250000000   0.250000000  -0.250000000
       3   0.500000000  -0.500000000   0.500000000
       4   0.000000000   0.500000000   0.000000000
       5   0.750000000  -0.250000000   0.750000000
       6   0.500000000   0.000000000   0.500000000
       7   0.000000000  -1.000000000   0.000000000
       8  -0.500000000  -1.000000000   0.000000000

     Calculation of q =    0.0000000   0.0000000   0.0000000

                                                                                

     bravais-lattice index     =            2
     lattice parameter (alat)  =      10.3910  a.u.
     unit-cell volume          =     280.4866 (a.u.)^3
     number of atoms/cell      =            2
     number of atomic types    =            1
     kinetic-energy cut-off    =      18.0000  Ry
     charge density cut-off    =      72.0000  Ry
     convergence threshold     =      1.0E-12
     beta                      =       0.7000
     number of iterations used =            4
     Exchange-correlation      = SLA  PW   PBE  PBE ( 1  4  3  4 0 0)


     celldm(1)=   10.39100  celldm(2)=    0.00000  celldm(3)=    0.00000
     celldm(4)=    0.00000  celldm(5)=    0.00000  celldm(6)=    0.00000

     crystal axes: (cart. coord. in units of alat)
               a(1) = ( -0.5000  0.0000  0.5000 )  
               a(2) = (  0.0000  0.5000  0.5000 )  
               a(3) = ( -0.5000  0.5000  0.0000 )  

     reciprocal axes: (cart. coord. in units 2 pi/alat)
               b(1) = ( -1.0000 -1.0000  1.0000 )  
               b(2) = (  1.0000  1.0000  1.0000 )  
               b(3) = ( -1.0000  1.0000 -1.0000 )  


     Atoms inside the unit cell: 

     Cartesian axes

     site n.  atom      mass           positions (alat units)
        1     Si  28.0860   tau(    1) = (    0.00000    0.00000    0.00000  )
        2     Si  28.0860   tau(    2) = (    0.25000    0.25000    0.25000  )

     Computing dynamical matrix for 
                    q = (   0.0000000   0.0000000   0.0000000 )

     49 Sym.Ops. (with q -> -q+G )


     G cutoff =  196.9189  (    722 G-vectors)     FFT grid: ( 20, 20, 20)
     number of k points=    10

     PseudoPot. # 1 for Si read from file:
     /home/max/quantum_espresso/qe-6.1/pseudo/si_pbe_v1.uspp.F.UPF.txt
     MD5 check sum: a056efeee980c13900f22a371efd63c1
     Pseudo is Ultrasoft + core correction, Zval =  4.0
     Generated by new atomic code, or converted to UPF format
     Using radial grid of  899 points,  6 beta functions with: 
                l(1) =   0
                l(2) =   0
                l(3) =   1
                l(4) =   1
                l(5) =   2
                l(6) =   2
     Q(r) pseudized with  8 coefficients,  rinner =    0.900   0.900   0.900
                                                       0.900   0.900

     Mode symmetry, O_h (m-3m)  point group:


     Electric field:
     Dielectric constant
     Born effective charges in two ways 


     Atomic displacements:
     There are   2 irreducible representations

     Representation     1      3 modes -T_2g G_25' G_5+  To be done

     Representation     2      3 modes -T_1u G_15  G_4-  To be done



     Alpha used in Ewald sum =   0.7000
     PHONON       :     0.39s CPU         0.41s WALL


     Electric Fields Calculation

      iter #   1 total cpu time :     0.8 secs   av.it.:   5.6
      thresh= 1.000E-02 alpha_mix =  0.700 |ddv_scf|^2 =  9.533E-07

      iter #   2 total cpu time :     1.3 secs   av.it.:   9.9
      thresh= 9.764E-05 alpha_mix =  0.700 |ddv_scf|^2 =  6.199E-08

      iter #   3 total cpu time :     1.5 secs   av.it.:   9.8
      thresh= 2.490E-05 alpha_mix =  0.700 |ddv_scf|^2 =  4.920E-09

      iter #   4 total cpu time :     1.6 secs   av.it.:   9.0
      thresh= 7.014E-06 alpha_mix =  0.700 |ddv_scf|^2 =  2.980E-11

      iter #   5 total cpu time :     1.8 secs   av.it.:   9.1
      thresh= 5.459E-07 alpha_mix =  0.700 |ddv_scf|^2 =  1.546E-14

     End of electric fields calculation

          Dielectric constant in cartesian axis 

          (      13.999151270      -0.000000000      -0.000000000 )
          (      -0.000000000      13.999151270      -0.000000000 )
          (      -0.000000000      -0.000000000      13.999151270 )

          Effective charges (d Force / dE) in cartesian axis

           atom      1   Si 
      Ex  (       -0.03381       -0.00000       -0.00000 )
      Ey  (       -0.00000       -0.03381       -0.00000 )
      Ez  (       -0.00000        0.00000       -0.03381 )
           atom      2   Si 
      Ex  (       -0.03381        0.00000       -0.00000 )
      Ey  (        0.00000       -0.03381        0.00000 )
      Ez  (        0.00000        0.00000       -0.03381 )


     Representation #  1 modes #   1  2  3

     Self-consistent Calculation

      iter #   1 total cpu time :     2.2 secs   av.it.:   4.9
      thresh= 1.000E-02 alpha_mix =  0.700 |ddv_scf|^2 =  1.848E-07

      iter #   2 total cpu time :     2.4 secs   av.it.:  10.0
      thresh= 4.298E-05 alpha_mix =  0.700 |ddv_scf|^2 =  1.019E-08

      iter #   3 total cpu time :     2.5 secs   av.it.:   9.5
      thresh= 1.009E-05 alpha_mix =  0.700 |ddv_scf|^2 =  7.046E-10

      iter #   4 total cpu time :     2.7 secs   av.it.:   9.1
      thresh= 2.654E-06 alpha_mix =  0.700 |ddv_scf|^2 =  1.811E-12

      iter #   5 total cpu time :     3.2 secs   av.it.:   9.4
      thresh= 1.346E-07 alpha_mix =  0.700 |ddv_scf|^2 =  1.529E-14

     End of self-consistent calculation

     Convergence has been achieved 


     Representation #  2 modes #   4  5  6

     Self-consistent Calculation

      iter #   1 total cpu time :     3.5 secs   av.it.:   5.0
      thresh= 1.000E-02 alpha_mix =  0.700 |ddv_scf|^2 =  1.916E-07

      iter #   2 total cpu time :     3.6 secs   av.it.:   9.6
      thresh= 4.377E-05 alpha_mix =  0.700 |ddv_scf|^2 =  1.578E-08

      iter #   3 total cpu time :     3.8 secs   av.it.:   9.2
      thresh= 1.256E-05 alpha_mix =  0.700 |ddv_scf|^2 =  9.486E-10

      iter #   4 total cpu time :     4.0 secs   av.it.:   9.5
      thresh= 3.080E-06 alpha_mix =  0.700 |ddv_scf|^2 =  5.519E-12

      iter #   5 total cpu time :     4.2 secs   av.it.:   9.1
      thresh= 2.349E-07 alpha_mix =  0.700 |ddv_scf|^2 =  5.042E-15

     End of self-consistent calculation

     Convergence has been achieved 

     Number of q in the star =    1
     List of q in the star:
          1   0.000000000   0.000000000   0.000000000

          Dielectric constant in cartesian axis 

          (      13.999151270      -0.000000000      -0.000000000 )
          (      -0.000000000      13.999151270      -0.000000000 )
          (      -0.000000000      -0.000000000      13.999151270 )

          Effective charges (d Force / dE) in cartesian axis

           atom      1   Si 
      Ex  (       -0.03381       -0.00000       -0.00000 )
      Ey  (       -0.00000       -0.03381       -0.00000 )
      Ez  (       -0.00000        0.00000       -0.03381 )
           atom      2   Si 
      Ex  (       -0.03381        0.00000       -0.00000 )
      Ey  (        0.00000       -0.03381        0.00000 )
      Ez  (        0.00000        0.00000       -0.03381 )

          Effective charges (d P / du) in cartesian axis 

           atom      1   Si 
      Px  (       -0.07572       -0.00000        0.00000 )
      Py  (       -0.00000       -0.07572        0.00000 )
      Pz  (        0.00000        0.00000       -0.07572 )
           atom      2   Si 
      Px  (       -0.07572        0.00000        0.00000 )
      Py  (        0.00000       -0.07572       -0.00000 )
      Pz  (        0.00000       -0.00000       -0.07572 )

     Diagonalizing the dynamical matrix

     q = (    0.000000000   0.000000000   0.000000000 ) 

 **************************************************************************
     freq (    1) =       1.790991 [THz] =      59.741040 [cm-1]
     freq (    2) =       1.790991 [THz] =      59.741040 [cm-1]
     freq (    3) =       1.790991 [THz] =      59.741040 [cm-1]
     freq (    4) =      15.601844 [THz] =     520.421512 [cm-1]
     freq (    5) =      15.601844 [THz] =     520.421512 [cm-1]
     freq (    6) =      15.601844 [THz] =     520.421512 [cm-1]
 **************************************************************************

     Mode symmetry, O_h (m-3m)  point group:

     freq (  1 -  3) =         59.7  [cm-1]   --> T_1u G_15  G_4- I  
     freq (  4 -  6) =        520.4  [cm-1]   --> T_2g G_25' G_5+ R  

     Calculation of q =   -0.2500000   0.2500000  -0.2500000

   Info: using nr1, nr2, nr3 values from input

   Info: using nr1, nr2, nr3 values from input

     Parallelization info
     --------------------
     sticks:   dense  smooth     PW     G-vecs:    dense   smooth      PW
     Min          66      66     24                  722      722     161
     Max          67      67     25                  724      724     162
     Sum         265     265     97                 2891     2891     645



     bravais-lattice index     =            2
     lattice parameter (alat)  =      10.3910  a.u.
     unit-cell volume          =     280.4866 (a.u.)^3
     number of atoms/cell      =            2
     number of atomic types    =            1
     number of electrons       =         8.00
     number of Kohn-Sham states=            4
     kinetic-energy cutoff     =      18.0000  Ry
     charge density cutoff     =      72.0000  Ry
     Exchange-correlation      = SLA  PW   PBE  PBE ( 1  4  3  4 0 0)

     celldm(1)=  10.391000  celldm(2)=   0.000000  celldm(3)=   0.000000
     celldm(4)=   0.000000  celldm(5)=   0.000000  celldm(6)=   0.000000

     crystal axes: (cart. coord. in units of alat)
               a(1) = (  -0.500000   0.000000   0.500000 )  
               a(2) = (   0.000000   0.500000   0.500000 )  
               a(3) = (  -0.500000   0.500000   0.000000 )  

     reciprocal axes: (cart. coord. in units 2 pi/alat)
               b(1) = ( -1.000000 -1.000000  1.000000 )  
               b(2) = (  1.000000  1.000000  1.000000 )  
               b(3) = ( -1.000000  1.000000 -1.000000 )  


     PseudoPot. # 1 for Si read from file:
     /home/max/quantum_espresso/qe-6.1/pseudo/si_pbe_v1.uspp.F.UPF.txt
     MD5 check sum: a056efeee980c13900f22a371efd63c1
     Pseudo is Ultrasoft + core correction, Zval =  4.0
     Generated by new atomic code, or converted to UPF format
     Using radial grid of  899 points,  6 beta functions with: 
                l(1) =   0
                l(2) =   0
                l(3) =   1
                l(4) =   1
                l(5) =   2
                l(6) =   2
     Q(r) pseudized with  8 coefficients,  rinner =    0.900   0.900   0.900
                                                       0.900   0.900

     atomic species   valence    mass     pseudopotential
        Si             4.00    28.08600     Si( 1.00)

     48 Sym. Ops., with inversion, found



   Cartesian axes

     site n.     atom                  positions (alat units)
         1           Si  tau(   1) = (   0.0000000   0.0000000   0.0000000  )
         2           Si  tau(   2) = (   0.2500000   0.2500000   0.2500000  )

     number of k points=   120

     Number of k-points >= 100: set verbosity='high' to print them.

     Dense  grid:     2891 G-vectors     FFT dimensions: (  20,  20,  20)

     Estimated max dynamical RAM per process >       0.33MB

     Estimated total allocated dynamical RAM >       1.33MB

     Check: negative/imaginary core charge=   -0.000006    0.000000

     The potential is recalculated from file :
     ./_ph0/silicon.10.391.save/charge-density.dat

     Starting wfc are    8 atomic wfcs

     Band Structure Calculation
     Davidson diagonalization with overlap

     ethr =  1.25E-10,  avg # of iterations = 11.7

     total cpu time spent up to now is        1.1 secs

     End of band structure calculation

     Number of k-points >= 100: set verbosity='high' to print the bands.

     highest occupied level (ev):     5.5355

     Writing output data file silicon.10.391.save

                                                                                

     bravais-lattice index     =            2
     lattice parameter (alat)  =      10.3910  a.u.
     unit-cell volume          =     280.4866 (a.u.)^3
     number of atoms/cell      =            2
     number of atomic types    =            1
     kinetic-energy cut-off    =      18.0000  Ry
     charge density cut-off    =      72.0000  Ry
     convergence threshold     =      1.0E-12
     beta                      =       0.7000
     number of iterations used =            4
     Exchange-correlation      = SLA  PW   PBE  PBE ( 1  4  3  4 0 0)


     celldm(1)=   10.39100  celldm(2)=    0.00000  celldm(3)=    0.00000
     celldm(4)=    0.00000  celldm(5)=    0.00000  celldm(6)=    0.00000

     crystal axes: (cart. coord. in units of alat)
               a(1) = ( -0.5000  0.0000  0.5000 )  
               a(2) = (  0.0000  0.5000  0.5000 )  
               a(3) = ( -0.5000  0.5000  0.0000 )  

     reciprocal axes: (cart. coord. in units 2 pi/alat)
               b(1) = ( -1.0000 -1.0000  1.0000 )  
               b(2) = (  1.0000  1.0000  1.0000 )  
               b(3) = ( -1.0000  1.0000 -1.0000 )  


     Atoms inside the unit cell: 

     Cartesian axes

     site n.  atom      mass           positions (alat units)
        1     Si  28.0860   tau(    1) = (    0.00000    0.00000    0.00000  )
        2     Si  28.0860   tau(    2) = (    0.25000    0.25000    0.25000  )

     Computing dynamical matrix for 
                    q = (  -0.2500000   0.2500000  -0.2500000 )

      6 Sym.Ops. (no q -> -q+G )


     G cutoff =  196.9189  (    722 G-vectors)     FFT grid: ( 20, 20, 20)
     number of k points=   120

     PseudoPot. # 1 for Si read from file:
     /home/max/quantum_espresso/qe-6.1/pseudo/si_pbe_v1.uspp.F.UPF.txt
     MD5 check sum: a056efeee980c13900f22a371efd63c1
     Pseudo is Ultrasoft + core correction, Zval =  4.0
     Generated by new atomic code, or converted to UPF format
     Using radial grid of  899 points,  6 beta functions with: 
                l(1) =   0
                l(2) =   0
                l(3) =   1
                l(4) =   1
                l(5) =   2
                l(6) =   2
     Q(r) pseudized with  8 coefficients,  rinner =    0.900   0.900   0.900
                                                       0.900   0.900

     Mode symmetry, C_3v (3m)   point group:


     Atomic displacements:
     There are   4 irreducible representations

     Representation     1      1 modes -A_1  L_1  To be done

     Representation     2      1 modes -A_1  L_1  To be done

     Representation     3      2 modes -E    L_3  To be done

     Representation     4      2 modes -E    L_3  To be done



     Alpha used in Ewald sum =   0.7000
     PHONON       :     5.14s CPU         5.74s WALL



     Representation #  1 mode #   1

     Self-consistent Calculation

      iter #   1 total cpu time :     6.0 secs   av.it.:   5.5
      thresh= 1.000E-02 alpha_mix =  0.700 |ddv_scf|^2 =  2.432E-03

      iter #   2 total cpu time :     6.2 secs   av.it.:   7.5
      thresh= 4.932E-03 alpha_mix =  0.700 |ddv_scf|^2 =  3.695E-02

      iter #   3 total cpu time :     6.4 secs   av.it.:   6.3
      thresh= 1.000E-02 alpha_mix =  0.700 |ddv_scf|^2 =  1.711E-06

      iter #   4 total cpu time :     6.7 secs   av.it.:   8.2
      thresh= 1.308E-04 alpha_mix =  0.700 |ddv_scf|^2 =  1.143E-07

      iter #   5 total cpu time :     7.2 secs   av.it.:   8.1
      thresh= 3.381E-05 alpha_mix =  0.700 |ddv_scf|^2 =  4.382E-09

      iter #   6 total cpu time :     7.5 secs   av.it.:   8.0
      thresh= 6.620E-06 alpha_mix =  0.700 |ddv_scf|^2 =  3.491E-09

      iter #   7 total cpu time :     7.7 secs   av.it.:   6.3
      thresh= 5.909E-06 alpha_mix =  0.700 |ddv_scf|^2 =  6.708E-10

      iter #   8 total cpu time :     7.9 secs   av.it.:   7.2
      thresh= 2.590E-06 alpha_mix =  0.700 |ddv_scf|^2 =  4.099E-12

      iter #   9 total cpu time :     8.2 secs   av.it.:   7.2
      thresh= 2.025E-07 alpha_mix =  0.700 |ddv_scf|^2 =  1.764E-13

     End of self-consistent calculation

     Convergence has been achieved 


     Representation #  2 mode #   2

     Self-consistent Calculation

      iter #   1 total cpu time :     8.4 secs   av.it.:   5.5
      thresh= 1.000E-02 alpha_mix =  0.700 |ddv_scf|^2 =  2.432E-03

      iter #   2 total cpu time :     8.7 secs   av.it.:   7.5
      thresh= 4.932E-03 alpha_mix =  0.700 |ddv_scf|^2 =  3.695E-02

      iter #   3 total cpu time :     9.0 secs   av.it.:   6.3
      thresh= 1.000E-02 alpha_mix =  0.700 |ddv_scf|^2 =  1.711E-06

      iter #   4 total cpu time :     9.5 secs   av.it.:   8.2
      thresh= 1.308E-04 alpha_mix =  0.700 |ddv_scf|^2 =  1.143E-07

      iter #   5 total cpu time :     9.7 secs   av.it.:   8.1
      thresh= 3.381E-05 alpha_mix =  0.700 |ddv_scf|^2 =  4.382E-09

      iter #   6 total cpu time :    10.0 secs   av.it.:   8.0
      thresh= 6.620E-06 alpha_mix =  0.700 |ddv_scf|^2 =  3.491E-09

      iter #   7 total cpu time :    10.2 secs   av.it.:   6.3
      thresh= 5.909E-06 alpha_mix =  0.700 |ddv_scf|^2 =  6.708E-10

      iter #   8 total cpu time :    10.5 secs   av.it.:   7.2
      thresh= 2.590E-06 alpha_mix =  0.700 |ddv_scf|^2 =  4.099E-12

      iter #   9 total cpu time :    10.7 secs   av.it.:   7.2
      thresh= 2.025E-07 alpha_mix =  0.700 |ddv_scf|^2 =  1.764E-13

     End of self-consistent calculation

     Convergence has been achieved 


     Representation #  3 modes #   3  4

     Self-consistent Calculation

      iter #   1 total cpu time :    11.4 secs   av.it.:   4.9
      thresh= 1.000E-02 alpha_mix =  0.700 |ddv_scf|^2 =  5.342E-07

      iter #   2 total cpu time :    12.0 secs   av.it.:   9.6
      thresh= 7.309E-05 alpha_mix =  0.700 |ddv_scf|^2 =  3.998E-08

      iter #   3 total cpu time :    12.6 secs   av.it.:   9.3
      thresh= 2.000E-05 alpha_mix =  0.700 |ddv_scf|^2 =  3.434E-09

      iter #   4 total cpu time :    13.3 secs   av.it.:   9.0
      thresh= 5.860E-06 alpha_mix =  0.700 |ddv_scf|^2 =  1.135E-11

      iter #   5 total cpu time :    13.8 secs   av.it.:   9.2
      thresh= 3.369E-07 alpha_mix =  0.700 |ddv_scf|^2 =  5.083E-13

     End of self-consistent calculation

     Convergence has been achieved 


     Representation #  4 modes #   5  6

     Self-consistent Calculation

      iter #   1 total cpu time :    14.2 secs   av.it.:   5.0
      thresh= 1.000E-02 alpha_mix =  0.700 |ddv_scf|^2 =  5.341E-07

      iter #   2 total cpu time :    14.8 secs   av.it.:   9.7
      thresh= 7.308E-05 alpha_mix =  0.700 |ddv_scf|^2 =  3.994E-08

      iter #   3 total cpu time :    15.7 secs   av.it.:   9.4
      thresh= 1.998E-05 alpha_mix =  0.700 |ddv_scf|^2 =  3.431E-09

      iter #   4 total cpu time :    16.3 secs   av.it.:   9.1
      thresh= 5.857E-06 alpha_mix =  0.700 |ddv_scf|^2 =  1.136E-11

      iter #   5 total cpu time :    16.9 secs   av.it.:   9.3
      thresh= 3.371E-07 alpha_mix =  0.700 |ddv_scf|^2 =  5.091E-13

     End of self-consistent calculation

     Convergence has been achieved 

     Number of q in the star =    8
     List of q in the star:
          1  -0.250000000   0.250000000  -0.250000000
          2   0.250000000  -0.250000000  -0.250000000
          3   0.250000000  -0.250000000   0.250000000
          4   0.250000000   0.250000000   0.250000000
          5  -0.250000000  -0.250000000  -0.250000000
          6  -0.250000000  -0.250000000   0.250000000
          7  -0.250000000   0.250000000   0.250000000
          8   0.250000000   0.250000000  -0.250000000

     Diagonalizing the dynamical matrix

     q = (   -0.250000000   0.250000000  -0.250000000 ) 

 **************************************************************************
     freq (    1) =       3.408852 [THz] =     113.707054 [cm-1]
     freq (    2) =       3.408852 [THz] =     113.707054 [cm-1]
     freq (    3) =       6.832255 [THz] =     227.899507 [cm-1]
     freq (    4) =      14.697526 [THz] =     490.256697 [cm-1]
     freq (    5) =      14.981797 [THz] =     499.738959 [cm-1]
     freq (    6) =      14.981797 [THz] =     499.738959 [cm-1]
 **************************************************************************

     Mode symmetry, C_3v (3m)   point group:

     freq (  1 -  2) =        113.7  [cm-1]   --> E    L_3           
     freq (  3 -  3) =        227.9  [cm-1]   --> A_1  L_1           
     freq (  4 -  4) =        490.3  [cm-1]   --> A_1  L_1           
     freq (  5 -  6) =        499.7  [cm-1]   --> E    L_3           

     Calculation of q =    0.5000000  -0.5000000   0.5000000

   Info: using nr1, nr2, nr3 values from input

   Info: using nr1, nr2, nr3 values from input

     Parallelization info
     --------------------
     sticks:   dense  smooth     PW     G-vecs:    dense   smooth      PW
     Min          66      66     27                  722      722     186
     Max          67      67     28                  724      724     189
     Sum         265     265    109                 2891     2891     749



     bravais-lattice index     =            2
     lattice parameter (alat)  =      10.3910  a.u.
     unit-cell volume          =     280.4866 (a.u.)^3
     number of atoms/cell      =            2
     number of atomic types    =            1
     number of electrons       =         8.00
     number of Kohn-Sham states=            4
     kinetic-energy cutoff     =      18.0000  Ry
     charge density cutoff     =      72.0000  Ry
     Exchange-correlation      = SLA  PW   PBE  PBE ( 1  4  3  4 0 0)

     celldm(1)=  10.391000  celldm(2)=   0.000000  celldm(3)=   0.000000
     celldm(4)=   0.000000  celldm(5)=   0.000000  celldm(6)=   0.000000

     crystal axes: (cart. coord. in units of alat)
               a(1) = (  -0.500000   0.000000   0.500000 )  
               a(2) = (   0.000000   0.500000   0.500000 )  
               a(3) = (  -0.500000   0.500000   0.000000 )  

     reciprocal axes: (cart. coord. in units 2 pi/alat)
               b(1) = ( -1.000000 -1.000000  1.000000 )  
               b(2) = (  1.000000  1.000000  1.000000 )  
               b(3) = ( -1.000000  1.000000 -1.000000 )  


     PseudoPot. # 1 for Si read from file:
     /home/max/quantum_espresso/qe-6.1/pseudo/si_pbe_v1.uspp.F.UPF.txt
     MD5 check sum: a056efeee980c13900f22a371efd63c1
     Pseudo is Ultrasoft + core correction, Zval =  4.0
     Generated by new atomic code, or converted to UPF format
     Using radial grid of  899 points,  6 beta functions with: 
                l(1) =   0
                l(2) =   0
                l(3) =   1
                l(4) =   1
                l(5) =   2
                l(6) =   2
     Q(r) pseudized with  8 coefficients,  rinner =    0.900   0.900   0.900
                                                       0.900   0.900

     atomic species   valence    mass     pseudopotential
        Si             4.00    28.08600     Si( 1.00)

     48 Sym. Ops., with inversion, found



   Cartesian axes

     site n.     atom                  positions (alat units)
         1           Si  tau(   1) = (   0.0000000   0.0000000   0.0000000  )
         2           Si  tau(   2) = (   0.2500000   0.2500000   0.2500000  )

     number of k points=    60
                       cart. coord. in units 2pi/alat
        k(    1) = (  -0.1250000   0.1250000   0.1250000), wk =   0.0468750
        k(    2) = (   0.3750000  -0.3750000   0.6250000), wk =   0.0000000
        k(    3) = (  -0.3750000   0.3750000  -0.1250000), wk =   0.0468750
        k(    4) = (   0.1250000  -0.1250000   0.3750000), wk =   0.0000000
        k(    5) = (   0.3750000  -0.3750000   0.6250000), wk =   0.0468750
        k(    6) = (   0.8750000  -0.8750000   1.1250000), wk =   0.0000000
        k(    7) = (   0.1250000  -0.1250000   0.3750000), wk =   0.0468750
        k(    8) = (   0.6250000  -0.6250000   0.8750000), wk =   0.0000000
        k(    9) = (  -0.1250000   0.6250000   0.1250000), wk =   0.0937500
        k(   10) = (   0.3750000   0.1250000   0.6250000), wk =   0.0000000
        k(   11) = (   0.6250000  -0.1250000   0.8750000), wk =   0.0937500
        k(   12) = (   1.1250000  -0.6250000   1.3750000), wk =   0.0000000
        k(   13) = (   0.3750000   0.1250000   0.6250000), wk =   0.0937500
        k(   14) = (   0.8750000  -0.3750000   1.1250000), wk =   0.0000000
        k(   15) = (  -0.1250000  -0.8750000   0.1250000), wk =   0.0937500
        k(   16) = (   0.3750000  -1.3750000   0.6250000), wk =   0.0000000
        k(   17) = (  -0.3750000   0.3750000   0.3750000), wk =   0.0468750
        k(   18) = (   0.1250000  -0.1250000   0.8750000), wk =   0.0000000
        k(   19) = (   0.3750000  -0.3750000   1.1250000), wk =   0.0468750
        k(   20) = (   0.8750000  -0.8750000   1.6250000), wk =   0.0000000
        k(   21) = (   0.1250000  -0.1250000   0.1250000), wk =   0.0156250
        k(   22) = (   0.6250000  -0.6250000   0.6250000), wk =   0.0000000
        k(   23) = (  -0.3750000  -0.3750000  -0.1250000), wk =   0.0937500
        k(   24) = (   0.1250000  -0.8750000   0.3750000), wk =   0.0000000
        k(   25) = (  -0.1250000  -0.3750000   0.3750000), wk =   0.0468750
        k(   26) = (   0.3750000  -0.8750000   0.8750000), wk =   0.0000000
        k(   27) = (   0.3750000   0.3750000   0.6250000), wk =   0.0937500
        k(   28) = (   0.8750000  -0.1250000   1.1250000), wk =   0.0000000
        k(   29) = (   0.6250000   0.3750000  -0.3750000), wk =   0.0468750
        k(   30) = (   1.1250000  -0.1250000   0.1250000), wk =   0.0000000
        k(   31) = (   0.1250000   0.1250000   0.3750000), wk =   0.0937500
        k(   32) = (   0.6250000  -0.3750000   0.8750000), wk =   0.0000000
        k(   33) = (   0.3750000   0.1250000  -0.1250000), wk =   0.0468750
        k(   34) = (   0.8750000  -0.3750000   0.3750000), wk =   0.0000000
        k(   35) = (  -0.1250000  -0.6250000  -0.1250000), wk =   0.0468750
        k(   36) = (   0.3750000  -1.1250000   0.3750000), wk =   0.0000000
        k(   37) = (   0.1250000  -0.6250000   0.1250000), wk =   0.0468750
        k(   38) = (   0.6250000  -1.1250000   0.6250000), wk =   0.0000000
        k(   39) = (   0.6250000   0.1250000   0.8750000), wk =   0.0937500
        k(   40) = (   1.1250000  -0.3750000   1.3750000), wk =   0.0000000
        k(   41) = (  -0.8750000   0.1250000   0.6250000), wk =   0.0937500
        k(   42) = (  -0.3750000  -0.3750000   1.1250000), wk =   0.0000000
        k(   43) = (   0.8750000   0.1250000  -0.6250000), wk =   0.0937500
        k(   44) = (   1.3750000  -0.3750000  -0.1250000), wk =   0.0000000
        k(   45) = (   0.3750000  -0.1250000   0.6250000), wk =   0.0937500
        k(   46) = (   0.8750000  -0.6250000   1.1250000), wk =   0.0000000
        k(   47) = (  -0.6250000  -0.1250000   0.3750000), wk =   0.0937500
        k(   48) = (  -0.1250000  -0.6250000   0.8750000), wk =   0.0000000
        k(   49) = (   0.6250000  -0.1250000  -0.3750000), wk =   0.0937500
        k(   50) = (   1.1250000  -0.6250000   0.1250000), wk =   0.0000000
        k(   51) = (  -0.1250000   0.8750000  -0.1250000), wk =   0.0468750
        k(   52) = (   0.3750000   0.3750000   0.3750000), wk =   0.0000000
        k(   53) = (   0.1250000   0.8750000   0.1250000), wk =   0.0468750
        k(   54) = (   0.6250000   0.3750000   0.6250000), wk =   0.0000000
        k(   55) = (   0.3750000  -0.3750000   0.3750000), wk =   0.0156250
        k(   56) = (   0.8750000  -0.8750000   0.8750000), wk =   0.0000000
        k(   57) = (   0.3750000   0.3750000   1.1250000), wk =   0.0937500
        k(   58) = (   0.8750000  -0.1250000   1.6250000), wk =   0.0000000
        k(   59) = (   1.1250000   0.3750000  -0.3750000), wk =   0.0468750
        k(   60) = (   1.6250000  -0.1250000   0.1250000), wk =   0.0000000

     Dense  grid:     2891 G-vectors     FFT dimensions: (  20,  20,  20)

     Estimated max dynamical RAM per process >       0.33MB

     Estimated total allocated dynamical RAM >       1.33MB

     Check: negative/imaginary core charge=   -0.000006    0.000000

     The potential is recalculated from file :
     ./_ph0/silicon.10.391.save/charge-density.dat

     Starting wfc are    8 atomic wfcs

     Band Structure Calculation
     Davidson diagonalization with overlap

     ethr =  1.25E-10,  avg # of iterations = 11.7

     total cpu time spent up to now is        1.9 secs

     End of band structure calculation

          k =-0.1250 0.1250 0.1250 (   347 PWs)   bands (ev):

    -5.6910   4.2255   5.5355   5.5355

          k = 0.3750-0.3750 0.6250 (   364 PWs)   bands (ev):

    -3.5696  -0.7756   3.5938   4.3018

          k =-0.3750 0.3750-0.1250 (   356 PWs)   bands (ev):

    -4.6823   1.2608   3.5831   5.0581

          k = 0.1250-0.1250 0.3750 (   358 PWs)   bands (ev):

    -5.1722   2.6142   4.5464   4.6004

          k = 0.3750-0.3750 0.6250 (   364 PWs)   bands (ev):

    -3.5696  -0.7756   3.5938   4.3018

          k = 0.8750-0.8750 1.1250 (   347 PWs)   bands (ev):

    -5.6910   4.2255   5.5355   5.5355

          k = 0.1250-0.1250 0.3750 (   358 PWs)   bands (ev):

    -5.1722   2.6142   4.5464   4.6004

          k = 0.6250-0.6250 0.8750 (   356 PWs)   bands (ev):

    -4.6823   1.2608   3.5831   5.0581

          k =-0.1250 0.6250 0.1250 (   357 PWs)   bands (ev):

    -4.1582   0.9078   3.2447   3.6859

          k = 0.3750 0.1250 0.6250 (   362 PWs)   bands (ev):

    -3.7523   0.0603   2.6119   3.9576

          k = 0.6250-0.1250 0.8750 (   368 PWs)   bands (ev):

    -2.5523  -1.0285   1.9248   2.9773

          k = 1.1250-0.6250 1.3750 (   356 PWs)   bands (ev):

    -4.6823   1.2608   3.5831   5.0581

          k = 0.3750 0.1250 0.6250 (   362 PWs)   bands (ev):

    -3.7523   0.0603   2.6119   3.9576

          k = 0.8750-0.3750 1.1250 (   357 PWs)   bands (ev):

    -4.1582   0.9078   3.2447   3.6859

          k =-0.1250-0.8750 0.1250 (   362 PWs)   bands (ev):

    -2.7116  -0.9349   2.5194   3.2258

          k = 0.3750-1.3750 0.6250 (   364 PWs)   bands (ev):

    -3.5696  -0.7756   3.5938   4.3018

          k =-0.3750 0.3750 0.3750 (   359 PWs)   bands (ev):

    -4.2595   0.0010   4.7564   4.7564

          k = 0.1250-0.1250 0.8750 (   362 PWs)   bands (ev):

    -2.7116  -0.9349   2.5194   3.2258

          k = 0.3750-0.3750 1.1250 (   365 PWs)   bands (ev):

    -3.0817  -0.7139   1.9748   3.9918

          k = 0.8750-0.8750 1.6250 (   357 PWs)   bands (ev):

    -4.1582   0.9078   3.2447   3.6859

          k = 0.1250-0.1250 0.1250 (   347 PWs)   bands (ev):

    -5.6910   4.2255   5.5355   5.5355

          k = 0.6250-0.6250 0.6250 (   359 PWs)   bands (ev):

    -4.2595   0.0010   4.7564   4.7564

          k =-0.3750-0.3750-0.1250 (   356 PWs)   bands (ev):

    -4.6823   1.2608   3.5831   5.0581

          k = 0.1250-0.8750 0.3750 (   368 PWs)   bands (ev):

    -2.5523  -1.0285   1.9248   2.9773

          k =-0.1250-0.3750 0.3750 (   356 PWs)   bands (ev):

    -4.6823   1.2608   3.5831   5.0581

          k = 0.3750-0.8750 0.8750 (   357 PWs)   bands (ev):

    -4.1582   0.9078   3.2447   3.6859

          k = 0.3750 0.3750 0.6250 (   364 PWs)   bands (ev):

    -3.5696  -0.7756   3.5938   4.3018

          k = 0.8750-0.1250 1.1250 (   362 PWs)   bands (ev):

    -2.7116  -0.9349   2.5194   3.2258

          k = 0.6250 0.3750-0.3750 (   364 PWs)   bands (ev):

    -3.5696  -0.7756   3.5938   4.3018

          k = 1.1250-0.1250 0.1250 (   362 PWs)   bands (ev):

    -2.7116  -0.9349   2.5194   3.2258

          k = 0.1250 0.1250 0.3750 (   358 PWs)   bands (ev):

    -5.1722   2.6142   4.5464   4.6004

          k = 0.6250-0.3750 0.8750 (   362 PWs)   bands (ev):

    -3.7523   0.0603   2.6119   3.9576

          k = 0.3750 0.1250-0.1250 (   358 PWs)   bands (ev):

    -5.1722   2.6142   4.5464   4.6004

          k = 0.8750-0.3750 0.3750 (   365 PWs)   bands (ev):

    -3.0817  -0.7139   1.9748   3.9918

          k =-0.1250-0.6250-0.1250 (   357 PWs)   bands (ev):

    -4.1582   0.9078   3.2447   3.6859

          k = 0.3750-1.1250 0.3750 (   365 PWs)   bands (ev):

    -3.0817  -0.7139   1.9748   3.9918

          k = 0.1250-0.6250 0.1250 (   357 PWs)   bands (ev):

    -4.1582   0.9078   3.2447   3.6859

          k = 0.6250-1.1250 0.6250 (   356 PWs)   bands (ev):

    -4.6823   1.2608   3.5831   5.0581

          k = 0.6250 0.1250 0.8750 (   368 PWs)   bands (ev):

    -2.5523  -1.0285   1.9248   2.9773

          k = 1.1250-0.3750 1.3750 (   362 PWs)   bands (ev):

    -3.7523   0.0603   2.6119   3.9576

          k =-0.8750 0.1250 0.6250 (   368 PWs)   bands (ev):

    -2.5523  -1.0285   1.9248   2.9773

          k =-0.3750-0.3750 1.1250 (   365 PWs)   bands (ev):

    -3.0817  -0.7139   1.9748   3.9918

          k = 0.8750 0.1250-0.6250 (   368 PWs)   bands (ev):

    -2.5523  -1.0285   1.9248   2.9773

          k = 1.3750-0.3750-0.1250 (   362 PWs)   bands (ev):

    -3.7523   0.0603   2.6119   3.9576

          k = 0.3750-0.1250 0.6250 (   362 PWs)   bands (ev):

    -3.7523   0.0603   2.6119   3.9576

          k = 0.8750-0.6250 1.1250 (   358 PWs)   bands (ev):

    -5.1722   2.6142   4.5464   4.6004

          k =-0.6250-0.1250 0.3750 (   362 PWs)   bands (ev):

    -3.7523   0.0603   2.6119   3.9576

          k =-0.1250-0.6250 0.8750 (   368 PWs)   bands (ev):

    -2.5523  -1.0285   1.9248   2.9773

          k = 0.6250-0.1250-0.3750 (   362 PWs)   bands (ev):

    -3.7523   0.0603   2.6119   3.9576

          k = 1.1250-0.6250 0.1250 (   368 PWs)   bands (ev):

    -2.5523  -1.0285   1.9248   2.9773

          k =-0.1250 0.8750-0.1250 (   362 PWs)   bands (ev):

    -2.7116  -0.9349   2.5194   3.2258

          k = 0.3750 0.3750 0.3750 (   359 PWs)   bands (ev):

    -4.2595   0.0010   4.7564   4.7564

          k = 0.1250 0.8750 0.1250 (   362 PWs)   bands (ev):

    -2.7116  -0.9349   2.5194   3.2258

          k = 0.6250 0.3750 0.6250 (   364 PWs)   bands (ev):

    -3.5696  -0.7756   3.5938   4.3018

          k = 0.3750-0.3750 0.3750 (   359 PWs)   bands (ev):

    -4.2595   0.0010   4.7564   4.7564

          k = 0.8750-0.8750 0.8750 (   347 PWs)   bands (ev):

    -5.6910   4.2255   5.5355   5.5355

          k = 0.3750 0.3750 1.1250 (   365 PWs)   bands (ev):

    -3.0817  -0.7139   1.9748   3.9918

          k = 0.8750-0.1250 1.6250 (   368 PWs)   bands (ev):

    -2.5523  -1.0285   1.9248   2.9773

          k = 1.1250 0.3750-0.3750 (   365 PWs)   bands (ev):

    -3.0817  -0.7139   1.9748   3.9918

          k = 1.6250-0.1250 0.1250 (   358 PWs)   bands (ev):

    -5.1722   2.6142   4.5464   4.6004

     highest occupied level (ev):     5.5355

     Writing output data file silicon.10.391.save

                                                                                

     bravais-lattice index     =            2
     lattice parameter (alat)  =      10.3910  a.u.
     unit-cell volume          =     280.4866 (a.u.)^3
     number of atoms/cell      =            2
     number of atomic types    =            1
     kinetic-energy cut-off    =      18.0000  Ry
     charge density cut-off    =      72.0000  Ry
     convergence threshold     =      1.0E-12
     beta                      =       0.7000
     number of iterations used =            4
     Exchange-correlation      = SLA  PW   PBE  PBE ( 1  4  3  4 0 0)


     celldm(1)=   10.39100  celldm(2)=    0.00000  celldm(3)=    0.00000
     celldm(4)=    0.00000  celldm(5)=    0.00000  celldm(6)=    0.00000

     crystal axes: (cart. coord. in units of alat)
               a(1) = ( -0.5000  0.0000  0.5000 )  
               a(2) = (  0.0000  0.5000  0.5000 )  
               a(3) = ( -0.5000  0.5000  0.0000 )  

     reciprocal axes: (cart. coord. in units 2 pi/alat)
               b(1) = ( -1.0000 -1.0000  1.0000 )  
               b(2) = (  1.0000  1.0000  1.0000 )  
               b(3) = ( -1.0000  1.0000 -1.0000 )  


     Atoms inside the unit cell: 

     Cartesian axes

     site n.  atom      mass           positions (alat units)
        1     Si  28.0860   tau(    1) = (    0.00000    0.00000    0.00000  )
        2     Si  28.0860   tau(    2) = (    0.25000    0.25000    0.25000  )

     Computing dynamical matrix for 
                    q = (   0.5000000  -0.5000000   0.5000000 )

     13 Sym.Ops. (with q -> -q+G )


     G cutoff =  196.9189  (    722 G-vectors)     FFT grid: ( 20, 20, 20)
     number of k points=    60

     PseudoPot. # 1 for Si read from file:
     /home/max/quantum_espresso/qe-6.1/pseudo/si_pbe_v1.uspp.F.UPF.txt
     MD5 check sum: a056efeee980c13900f22a371efd63c1
     Pseudo is Ultrasoft + core correction, Zval =  4.0
     Generated by new atomic code, or converted to UPF format
     Using radial grid of  899 points,  6 beta functions with: 
                l(1) =   0
                l(2) =   0
                l(3) =   1
                l(4) =   1
                l(5) =   2
                l(6) =   2
     Q(r) pseudized with  8 coefficients,  rinner =    0.900   0.900   0.900
                                                       0.900   0.900


     Atomic displacements:
     There are   4 irreducible representations

     Representation     1      1 modes -  To be done

     Representation     2      1 modes -  To be done

     Representation     3      2 modes -  To be done

     Representation     4      2 modes -  To be done



     Alpha used in Ewald sum =   0.7000
     PHONON       :    16.36s CPU        17.88s WALL



     Representation #  1 mode #   1

     Self-consistent Calculation

      iter #   1 total cpu time :    18.0 secs   av.it.:   4.8
      thresh= 1.000E-02 alpha_mix =  0.700 |ddv_scf|^2 =  2.435E-05

      iter #   2 total cpu time :    18.1 secs   av.it.:   8.4
      thresh= 4.934E-04 alpha_mix =  0.700 |ddv_scf|^2 =  2.219E-05

      iter #   3 total cpu time :    18.3 secs   av.it.:   7.5
      thresh= 4.711E-04 alpha_mix =  0.700 |ddv_scf|^2 =  3.777E-08

      iter #   4 total cpu time :    18.4 secs   av.it.:   7.6
      thresh= 1.943E-05 alpha_mix =  0.700 |ddv_scf|^2 =  1.329E-10

      iter #   5 total cpu time :    18.5 secs   av.it.:   7.9
      thresh= 1.153E-06 alpha_mix =  0.700 |ddv_scf|^2 =  3.788E-12

      iter #   6 total cpu time :    18.7 secs   av.it.:   7.8
      thresh= 1.946E-07 alpha_mix =  0.700 |ddv_scf|^2 =  7.411E-14

     End of self-consistent calculation

     Convergence has been achieved 


     Representation #  2 mode #   2

     Self-consistent Calculation

      iter #   1 total cpu time :    18.8 secs   av.it.:   5.7
      thresh= 1.000E-02 alpha_mix =  0.700 |ddv_scf|^2 =  3.400E-04

      iter #   2 total cpu time :    19.2 secs   av.it.:   8.3
      thresh= 1.844E-03 alpha_mix =  0.700 |ddv_scf|^2 =  1.051E-03

      iter #   3 total cpu time :    19.4 secs   av.it.:   7.1
      thresh= 3.242E-03 alpha_mix =  0.700 |ddv_scf|^2 =  1.369E-07

      iter #   4 total cpu time :    19.6 secs   av.it.:   8.2
      thresh= 3.700E-05 alpha_mix =  0.700 |ddv_scf|^2 =  9.473E-09

      iter #   5 total cpu time :    19.7 secs   av.it.:   8.4
      thresh= 9.733E-06 alpha_mix =  0.700 |ddv_scf|^2 =  1.427E-10

      iter #   6 total cpu time :    19.9 secs   av.it.:   8.2
      thresh= 1.194E-06 alpha_mix =  0.700 |ddv_scf|^2 =  3.208E-12

      iter #   7 total cpu time :    20.0 secs   av.it.:   7.7
      thresh= 1.791E-07 alpha_mix =  0.700 |ddv_scf|^2 =  6.635E-15

     End of self-consistent calculation

     Convergence has been achieved 


     Representation #  3 modes #   3  4

     Self-consistent Calculation

      iter #   1 total cpu time :    20.2 secs   av.it.:   4.7
      thresh= 1.000E-02 alpha_mix =  0.700 |ddv_scf|^2 =  3.397E-07

      iter #   2 total cpu time :    20.5 secs   av.it.:   9.0
      thresh= 5.829E-05 alpha_mix =  0.700 |ddv_scf|^2 =  2.924E-08

      iter #   3 total cpu time :    20.8 secs   av.it.:   8.3
      thresh= 1.710E-05 alpha_mix =  0.700 |ddv_scf|^2 =  5.106E-10

      iter #   4 total cpu time :    21.4 secs   av.it.:   8.9
      thresh= 2.260E-06 alpha_mix =  0.700 |ddv_scf|^2 =  6.421E-12

      iter #   5 total cpu time :    21.7 secs   av.it.:   8.7
      thresh= 2.534E-07 alpha_mix =  0.700 |ddv_scf|^2 =  3.559E-14

     End of self-consistent calculation

     Convergence has been achieved 


     Representation #  4 modes #   5  6

     Self-consistent Calculation

      iter #   1 total cpu time :    21.9 secs   av.it.:   4.9
      thresh= 1.000E-02 alpha_mix =  0.700 |ddv_scf|^2 =  9.407E-07

      iter #   2 total cpu time :    22.2 secs   av.it.:   9.5
      thresh= 9.699E-05 alpha_mix =  0.700 |ddv_scf|^2 =  7.475E-08

      iter #   3 total cpu time :    22.5 secs   av.it.:   9.3
      thresh= 2.734E-05 alpha_mix =  0.700 |ddv_scf|^2 =  4.441E-09

      iter #   4 total cpu time :    22.8 secs   av.it.:   8.5
      thresh= 6.664E-06 alpha_mix =  0.700 |ddv_scf|^2 =  6.472E-12

      iter #   5 total cpu time :    23.5 secs   av.it.:   8.8
      thresh= 2.544E-07 alpha_mix =  0.700 |ddv_scf|^2 =  2.527E-14

     End of self-consistent calculation

     Convergence has been achieved 

     Number of q in the star =    4
     List of q in the star:
          1   0.500000000  -0.500000000   0.500000000
          2   0.500000000   0.500000000   0.500000000
          3  -0.500000000   0.500000000   0.500000000
          4   0.500000000   0.500000000  -0.500000000

     Diagonalizing the dynamical matrix

     q = (    0.500000000  -0.500000000   0.500000000 ) 

 **************************************************************************
     freq (    1) =       5.078091 [THz] =     169.386896 [cm-1]
     freq (    2) =       5.078091 [THz] =     169.386896 [cm-1]
     freq (    3) =      11.932153 [THz] =     398.013796 [cm-1]
     freq (    4) =      12.176734 [THz] =     406.172111 [cm-1]
     freq (    5) =      14.750995 [THz] =     492.040232 [cm-1]
     freq (    6) =      14.750995 [THz] =     492.040232 [cm-1]
 **************************************************************************

     Calculation of q =    0.0000000   0.5000000   0.0000000

   Info: using nr1, nr2, nr3 values from input

   Info: using nr1, nr2, nr3 values from input

     Parallelization info
     --------------------
     sticks:   dense  smooth     PW     G-vecs:    dense   smooth      PW
     Min          66      66     27                  722      722     181
     Max          67      67     28                  724      724     182
     Sum         265     265    109                 2891     2891     725



     bravais-lattice index     =            2
     lattice parameter (alat)  =      10.3910  a.u.
     unit-cell volume          =     280.4866 (a.u.)^3
     number of atoms/cell      =            2
     number of atomic types    =            1
     number of electrons       =         8.00
     number of Kohn-Sham states=            4
     kinetic-energy cutoff     =      18.0000  Ry
     charge density cutoff     =      72.0000  Ry
     Exchange-correlation      = SLA  PW   PBE  PBE ( 1  4  3  4 0 0)

     celldm(1)=  10.391000  celldm(2)=   0.000000  celldm(3)=   0.000000
     celldm(4)=   0.000000  celldm(5)=   0.000000  celldm(6)=   0.000000

     crystal axes: (cart. coord. in units of alat)
               a(1) = (  -0.500000   0.000000   0.500000 )  
               a(2) = (   0.000000   0.500000   0.500000 )  
               a(3) = (  -0.500000   0.500000   0.000000 )  

     reciprocal axes: (cart. coord. in units 2 pi/alat)
               b(1) = ( -1.000000 -1.000000  1.000000 )  
               b(2) = (  1.000000  1.000000  1.000000 )  
               b(3) = ( -1.000000  1.000000 -1.000000 )  


     PseudoPot. # 1 for Si read from file:
     /home/max/quantum_espresso/qe-6.1/pseudo/si_pbe_v1.uspp.F.UPF.txt
     MD5 check sum: a056efeee980c13900f22a371efd63c1
     Pseudo is Ultrasoft + core correction, Zval =  4.0
     Generated by new atomic code, or converted to UPF format
     Using radial grid of  899 points,  6 beta functions with: 
                l(1) =   0
                l(2) =   0
                l(3) =   1
                l(4) =   1
                l(5) =   2
                l(6) =   2
     Q(r) pseudized with  8 coefficients,  rinner =    0.900   0.900   0.900
                                                       0.900   0.900

     atomic species   valence    mass     pseudopotential
        Si             4.00    28.08600     Si( 1.00)

     48 Sym. Ops., with inversion, found



   Cartesian axes

     site n.     atom                  positions (alat units)
         1           Si  tau(   1) = (   0.0000000   0.0000000   0.0000000  )
         2           Si  tau(   2) = (   0.2500000   0.2500000   0.2500000  )

     number of k points=    80
                       cart. coord. in units 2pi/alat
        k(    1) = (  -0.1250000   0.1250000   0.1250000), wk =   0.0312500
        k(    2) = (  -0.1250000   0.6250000   0.1250000), wk =   0.0000000
        k(    3) = (  -0.3750000   0.3750000  -0.1250000), wk =   0.0625000
        k(    4) = (  -0.3750000   0.8750000  -0.1250000), wk =   0.0000000
        k(    5) = (   0.3750000  -0.3750000   0.6250000), wk =   0.0625000
        k(    6) = (   0.3750000   0.1250000   0.6250000), wk =   0.0000000
        k(    7) = (   0.1250000  -0.1250000   0.3750000), wk =   0.0625000
        k(    8) = (   0.1250000   0.3750000   0.3750000), wk =   0.0000000
        k(    9) = (  -0.1250000   0.6250000   0.1250000), wk =   0.0312500
        k(   10) = (  -0.1250000   1.1250000   0.1250000), wk =   0.0000000
        k(   11) = (   0.6250000  -0.1250000   0.8750000), wk =   0.0625000
        k(   12) = (   0.6250000   0.3750000   0.8750000), wk =   0.0000000
        k(   13) = (   0.3750000   0.1250000   0.6250000), wk =   0.0625000
        k(   14) = (   0.3750000   0.6250000   0.6250000), wk =   0.0000000
        k(   15) = (  -0.1250000  -0.8750000   0.1250000), wk =   0.0312500
        k(   16) = (  -0.1250000  -0.3750000   0.1250000), wk =   0.0000000
        k(   17) = (  -0.3750000   0.3750000   0.3750000), wk =   0.0312500
        k(   18) = (  -0.3750000   0.8750000   0.3750000), wk =   0.0000000
        k(   19) = (   0.3750000  -0.3750000   1.1250000), wk =   0.0625000
        k(   20) = (   0.3750000   0.1250000   1.1250000), wk =   0.0000000
        k(   21) = (  -0.1250000  -0.1250000   0.1250000), wk =   0.0312500
        k(   22) = (  -0.1250000   0.3750000   0.1250000), wk =   0.0000000
        k(   23) = (   0.1250000  -0.3750000   0.3750000), wk =   0.0625000
        k(   24) = (   0.1250000   0.1250000   0.3750000), wk =   0.0000000
        k(   25) = (   0.3750000  -0.1250000   0.3750000), wk =   0.0312500
        k(   26) = (   0.3750000   0.3750000   0.3750000), wk =   0.0000000
        k(   27) = (   0.3750000   0.1250000   0.3750000), wk =   0.0312500
        k(   28) = (   0.3750000   0.6250000   0.3750000), wk =   0.0000000
        k(   29) = (  -0.6250000   0.3750000  -0.3750000), wk =   0.0625000
        k(   30) = (  -0.6250000   0.8750000  -0.3750000), wk =   0.0000000
        k(   31) = (  -0.3750000   0.6250000  -0.3750000), wk =   0.0312500
        k(   32) = (  -0.3750000   1.1250000  -0.3750000), wk =   0.0000000
        k(   33) = (  -0.3750000  -0.6250000  -0.3750000), wk =   0.0312500
        k(   34) = (  -0.3750000  -0.1250000  -0.3750000), wk =   0.0000000
        k(   35) = (  -0.3750000   0.1250000  -0.1250000), wk =   0.0625000
        k(   36) = (  -0.3750000   0.6250000  -0.1250000), wk =   0.0000000
        k(   37) = (  -0.1250000   0.3750000  -0.1250000), wk =   0.0312500
        k(   38) = (  -0.1250000   0.8750000  -0.1250000), wk =   0.0000000
        k(   39) = (  -0.1250000  -0.3750000  -0.1250000), wk =   0.0312500
        k(   40) = (  -0.1250000   0.1250000  -0.1250000), wk =   0.0000000
        k(   41) = (  -0.1250000  -0.6250000   0.1250000), wk =   0.0312500
        k(   42) = (  -0.1250000  -0.1250000   0.1250000), wk =   0.0000000
        k(   43) = (   0.6250000  -0.1250000  -0.1250000), wk =   0.0625000
        k(   44) = (   0.6250000   0.3750000  -0.1250000), wk =   0.0000000
        k(   45) = (   0.6250000   0.1250000   0.1250000), wk =   0.0625000
        k(   46) = (   0.6250000   0.6250000   0.1250000), wk =   0.0000000
        k(   47) = (  -0.8750000   0.1250000  -0.6250000), wk =   0.0625000
        k(   48) = (  -0.8750000   0.6250000  -0.6250000), wk =   0.0000000
        k(   49) = (  -0.1250000   0.6250000  -0.8750000), wk =   0.0625000
        k(   50) = (  -0.1250000   1.1250000  -0.8750000), wk =   0.0000000
        k(   51) = (  -0.1250000   0.8750000  -0.6250000), wk =   0.0625000
        k(   52) = (  -0.1250000   1.3750000  -0.6250000), wk =   0.0000000
        k(   53) = (  -0.1250000  -0.8750000  -0.6250000), wk =   0.0625000
        k(   54) = (  -0.1250000  -0.3750000  -0.6250000), wk =   0.0000000
        k(   55) = (   0.8750000  -0.6250000   0.1250000), wk =   0.0625000
        k(   56) = (   0.8750000  -0.1250000   0.1250000), wk =   0.0000000
        k(   57) = (  -0.6250000  -0.1250000  -0.3750000), wk =   0.0625000
        k(   58) = (  -0.6250000   0.3750000  -0.3750000), wk =   0.0000000
        k(   59) = (   0.1250000   0.3750000  -0.6250000), wk =   0.0625000
        k(   60) = (   0.1250000   0.8750000  -0.6250000), wk =   0.0000000
        k(   61) = (   0.1250000   0.6250000  -0.3750000), wk =   0.0625000
        k(   62) = (   0.1250000   1.1250000  -0.3750000), wk =   0.0000000
        k(   63) = (   0.1250000  -0.6250000  -0.3750000), wk =   0.0625000
        k(   64) = (   0.1250000  -0.1250000  -0.3750000), wk =   0.0000000
        k(   65) = (   0.6250000  -0.3750000  -0.1250000), wk =   0.0625000
        k(   66) = (   0.6250000   0.1250000  -0.1250000), wk =   0.0000000
        k(   67) = (  -0.1250000   0.8750000   0.1250000), wk =   0.0312500
        k(   68) = (  -0.1250000   1.3750000   0.1250000), wk =   0.0000000
        k(   69) = (  -0.8750000  -0.1250000  -0.1250000), wk =   0.0625000
        k(   70) = (  -0.8750000   0.3750000  -0.1250000), wk =   0.0000000
        k(   71) = (  -0.8750000   0.1250000   0.1250000), wk =   0.0625000
        k(   72) = (  -0.8750000   0.6250000   0.1250000), wk =   0.0000000
        k(   73) = (  -0.3750000  -0.3750000   0.3750000), wk =   0.0312500
        k(   74) = (  -0.3750000   0.1250000   0.3750000), wk =   0.0000000
        k(   75) = (  -1.1250000   0.3750000  -0.3750000), wk =   0.0625000
        k(   76) = (  -1.1250000   0.8750000  -0.3750000), wk =   0.0000000
        k(   77) = (  -0.3750000   1.1250000  -0.3750000), wk =   0.0312500
        k(   78) = (  -0.3750000   1.6250000  -0.3750000), wk =   0.0000000
        k(   79) = (  -0.3750000  -1.1250000  -0.3750000), wk =   0.0312500
        k(   80) = (  -0.3750000  -0.6250000  -0.3750000), wk =   0.0000000

     Dense  grid:     2891 G-vectors     FFT dimensions: (  20,  20,  20)

     Estimated max dynamical RAM per process >       0.33MB

     Estimated total allocated dynamical RAM >       1.33MB

     Check: negative/imaginary core charge=   -0.000006    0.000000

     The potential is recalculated from file :
     ./_ph0/silicon.10.391.save/charge-density.dat

     Starting wfc are    8 atomic wfcs

     Band Structure Calculation
     Davidson diagonalization with overlap

     ethr =  1.25E-10,  avg # of iterations = 11.7

     total cpu time spent up to now is        2.5 secs

     End of band structure calculation

          k =-0.1250 0.1250 0.1250 (   347 PWs)   bands (ev):

    -5.6910   4.2255   5.5355   5.5355

          k =-0.1250 0.6250 0.1250 (   357 PWs)   bands (ev):

    -4.1582   0.9078   3.2447   3.6859

          k =-0.3750 0.3750-0.1250 (   356 PWs)   bands (ev):

    -4.6823   1.2608   3.5831   5.0581

          k =-0.3750 0.8750-0.1250 (   368 PWs)   bands (ev):

    -2.5523  -1.0285   1.9248   2.9773

          k = 0.3750-0.3750 0.6250 (   364 PWs)   bands (ev):

    -3.5696  -0.7756   3.5938   4.3018

          k = 0.3750 0.1250 0.6250 (   362 PWs)   bands (ev):

    -3.7523   0.0603   2.6119   3.9576

          k = 0.1250-0.1250 0.3750 (   358 PWs)   bands (ev):

    -5.1722   2.6142   4.5464   4.6004

          k = 0.1250 0.3750 0.3750 (   356 PWs)   bands (ev):

    -4.6823   1.2608   3.5831   5.0581

          k =-0.1250 0.6250 0.1250 (   357 PWs)   bands (ev):

    -4.1582   0.9078   3.2447   3.6859

          k =-0.1250 1.1250 0.1250 (   362 PWs)   bands (ev):

    -2.7116  -0.9349   2.5194   3.2258

          k = 0.6250-0.1250 0.8750 (   368 PWs)   bands (ev):

    -2.5523  -1.0285   1.9248   2.9773

          k = 0.6250 0.3750 0.8750 (   362 PWs)   bands (ev):

    -3.7523   0.0603   2.6119   3.9576

          k = 0.3750 0.1250 0.6250 (   362 PWs)   bands (ev):

    -3.7523   0.0603   2.6119   3.9576

          k = 0.3750 0.6250 0.6250 (   364 PWs)   bands (ev):

    -3.5696  -0.7756   3.5938   4.3018

          k =-0.1250-0.8750 0.1250 (   362 PWs)   bands (ev):

    -2.7116  -0.9349   2.5194   3.2258

          k =-0.1250-0.3750 0.1250 (   358 PWs)   bands (ev):

    -5.1722   2.6142   4.5464   4.6004

          k =-0.3750 0.3750 0.3750 (   359 PWs)   bands (ev):

    -4.2595   0.0010   4.7564   4.7564

          k =-0.3750 0.8750 0.3750 (   365 PWs)   bands (ev):

    -3.0817  -0.7139   1.9748   3.9918

          k = 0.3750-0.3750 1.1250 (   365 PWs)   bands (ev):

    -3.0817  -0.7139   1.9748   3.9918

          k = 0.3750 0.1250 1.1250 (   368 PWs)   bands (ev):

    -2.5523  -1.0285   1.9248   2.9773

          k =-0.1250-0.1250 0.1250 (   347 PWs)   bands (ev):

    -5.6910   4.2255   5.5355   5.5355

          k =-0.1250 0.3750 0.1250 (   358 PWs)   bands (ev):

    -5.1722   2.6142   4.5464   4.6004

          k = 0.1250-0.3750 0.3750 (   356 PWs)   bands (ev):

    -4.6823   1.2608   3.5831   5.0581

          k = 0.1250 0.1250 0.3750 (   358 PWs)   bands (ev):

    -5.1722   2.6142   4.5464   4.6004

          k = 0.3750-0.1250 0.3750 (   356 PWs)   bands (ev):

    -4.6823   1.2608   3.5831   5.0581

          k = 0.3750 0.3750 0.3750 (   359 PWs)   bands (ev):

    -4.2595   0.0010   4.7564   4.7564

          k = 0.3750 0.1250 0.3750 (   356 PWs)   bands (ev):

    -4.6823   1.2608   3.5831   5.0581

          k = 0.3750 0.6250 0.3750 (   364 PWs)   bands (ev):

    -3.5696  -0.7756   3.5938   4.3018

          k =-0.6250 0.3750-0.3750 (   364 PWs)   bands (ev):

    -3.5696  -0.7756   3.5938   4.3018

          k =-0.6250 0.8750-0.3750 (   362 PWs)   bands (ev):

    -3.7523   0.0603   2.6119   3.9576

          k =-0.3750 0.6250-0.3750 (   364 PWs)   bands (ev):

    -3.5696  -0.7756   3.5938   4.3018

          k =-0.3750 1.1250-0.3750 (   365 PWs)   bands (ev):

    -3.0817  -0.7139   1.9748   3.9918

          k =-0.3750-0.6250-0.3750 (   364 PWs)   bands (ev):

    -3.5696  -0.7756   3.5938   4.3018

          k =-0.3750-0.1250-0.3750 (   356 PWs)   bands (ev):

    -4.6823   1.2608   3.5831   5.0581

          k =-0.3750 0.1250-0.1250 (   358 PWs)   bands (ev):

    -5.1722   2.6142   4.5464   4.6004

          k =-0.3750 0.6250-0.1250 (   362 PWs)   bands (ev):

    -3.7523   0.0603   2.6119   3.9576

          k =-0.1250 0.3750-0.1250 (   358 PWs)   bands (ev):

    -5.1722   2.6142   4.5464   4.6004

          k =-0.1250 0.8750-0.1250 (   362 PWs)   bands (ev):

    -2.7116  -0.9349   2.5194   3.2258

          k =-0.1250-0.3750-0.1250 (   358 PWs)   bands (ev):

    -5.1722   2.6142   4.5464   4.6004

          k =-0.1250 0.1250-0.1250 (   347 PWs)   bands (ev):

    -5.6910   4.2255   5.5355   5.5355

          k =-0.1250-0.6250 0.1250 (   357 PWs)   bands (ev):

    -4.1582   0.9078   3.2447   3.6859

          k =-0.1250-0.1250 0.1250 (   347 PWs)   bands (ev):

    -5.6910   4.2255   5.5355   5.5355

          k = 0.6250-0.1250-0.1250 (   357 PWs)   bands (ev):

    -4.1582   0.9078   3.2447   3.6859

          k = 0.6250 0.3750-0.1250 (   362 PWs)   bands (ev):

    -3.7523   0.0603   2.6119   3.9576

          k = 0.6250 0.1250 0.1250 (   357 PWs)   bands (ev):

    -4.1582   0.9078   3.2447   3.6859

          k = 0.6250 0.6250 0.1250 (   365 PWs)   bands (ev):

    -3.0817  -0.7139   1.9748   3.9918

          k =-0.8750 0.1250-0.6250 (   368 PWs)   bands (ev):

    -2.5523  -1.0285   1.9248   2.9773

          k =-0.8750 0.6250-0.6250 (   356 PWs)   bands (ev):

    -4.6823   1.2608   3.5831   5.0581

          k =-0.1250 0.6250-0.8750 (   368 PWs)   bands (ev):

    -2.5523  -1.0285   1.9248   2.9773

          k =-0.1250 1.1250-0.8750 (   362 PWs)   bands (ev):

    -2.7116  -0.9349   2.5194   3.2258

          k =-0.1250 0.8750-0.6250 (   368 PWs)   bands (ev):

    -2.5523  -1.0285   1.9248   2.9773

          k =-0.1250 1.3750-0.6250 (   365 PWs)   bands (ev):

    -3.0817  -0.7139   1.9748   3.9918

          k =-0.1250-0.8750-0.6250 (   368 PWs)   bands (ev):

    -2.5523  -1.0285   1.9248   2.9773

          k =-0.1250-0.3750-0.6250 (   362 PWs)   bands (ev):

    -3.7523   0.0603   2.6119   3.9576

          k = 0.8750-0.6250 0.1250 (   368 PWs)   bands (ev):

    -2.5523  -1.0285   1.9248   2.9773

          k = 0.8750-0.1250 0.1250 (   362 PWs)   bands (ev):

    -2.7116  -0.9349   2.5194   3.2258

          k =-0.6250-0.1250-0.3750 (   362 PWs)   bands (ev):

    -3.7523   0.0603   2.6119   3.9576

          k =-0.6250 0.3750-0.3750 (   364 PWs)   bands (ev):

    -3.5696  -0.7756   3.5938   4.3018

          k = 0.1250 0.3750-0.6250 (   362 PWs)   bands (ev):

    -3.7523   0.0603   2.6119   3.9576

          k = 0.1250 0.8750-0.6250 (   368 PWs)   bands (ev):

    -2.5523  -1.0285   1.9248   2.9773

          k = 0.1250 0.6250-0.3750 (   362 PWs)   bands (ev):

    -3.7523   0.0603   2.6119   3.9576

          k = 0.1250 1.1250-0.3750 (   368 PWs)   bands (ev):

    -2.5523  -1.0285   1.9248   2.9773

          k = 0.1250-0.6250-0.3750 (   362 PWs)   bands (ev):

    -3.7523   0.0603   2.6119   3.9576

          k = 0.1250-0.1250-0.3750 (   358 PWs)   bands (ev):

    -5.1722   2.6142   4.5464   4.6004

          k = 0.6250-0.3750-0.1250 (   362 PWs)   bands (ev):

    -3.7523   0.0603   2.6119   3.9576

          k = 0.6250 0.1250-0.1250 (   357 PWs)   bands (ev):

    -4.1582   0.9078   3.2447   3.6859

          k =-0.1250 0.8750 0.1250 (   362 PWs)   bands (ev):

    -2.7116  -0.9349   2.5194   3.2258

          k =-0.1250 1.3750 0.1250 (   357 PWs)   bands (ev):

    -4.1582   0.9078   3.2447   3.6859

          k =-0.8750-0.1250-0.1250 (   362 PWs)   bands (ev):

    -2.7116  -0.9349   2.5194   3.2258

          k =-0.8750 0.3750-0.1250 (   368 PWs)   bands (ev):

    -2.5523  -1.0285   1.9248   2.9773

          k =-0.8750 0.1250 0.1250 (   362 PWs)   bands (ev):

    -2.7116  -0.9349   2.5194   3.2258

          k =-0.8750 0.6250 0.1250 (   368 PWs)   bands (ev):

    -2.5523  -1.0285   1.9248   2.9773

          k =-0.3750-0.3750 0.3750 (   359 PWs)   bands (ev):

    -4.2595   0.0010   4.7564   4.7564

          k =-0.3750 0.1250 0.3750 (   356 PWs)   bands (ev):

    -4.6823   1.2608   3.5831   5.0581

          k =-1.1250 0.3750-0.3750 (   365 PWs)   bands (ev):

    -3.0817  -0.7139   1.9748   3.9918

          k =-1.1250 0.8750-0.3750 (   357 PWs)   bands (ev):

    -4.1582   0.9078   3.2447   3.6859

          k =-0.3750 1.1250-0.3750 (   365 PWs)   bands (ev):

    -3.0817  -0.7139   1.9748   3.9918

          k =-0.3750 1.6250-0.3750 (   359 PWs)   bands (ev):

    -4.2595   0.0010   4.7564   4.7564

          k =-0.3750-1.1250-0.3750 (   365 PWs)   bands (ev):

    -3.0817  -0.7139   1.9748   3.9918

          k =-0.3750-0.6250-0.3750 (   364 PWs)   bands (ev):

    -3.5696  -0.7756   3.5938   4.3018

     highest occupied level (ev):     5.5355

     Writing output data file silicon.10.391.save

                                                                                

     bravais-lattice index     =            2
     lattice parameter (alat)  =      10.3910  a.u.
     unit-cell volume          =     280.4866 (a.u.)^3
     number of atoms/cell      =            2
     number of atomic types    =            1
     kinetic-energy cut-off    =      18.0000  Ry
     charge density cut-off    =      72.0000  Ry
     convergence threshold     =      1.0E-12
     beta                      =       0.7000
     number of iterations used =            4
     Exchange-correlation      = SLA  PW   PBE  PBE ( 1  4  3  4 0 0)


     celldm(1)=   10.39100  celldm(2)=    0.00000  celldm(3)=    0.00000
     celldm(4)=    0.00000  celldm(5)=    0.00000  celldm(6)=    0.00000

     crystal axes: (cart. coord. in units of alat)
               a(1) = ( -0.5000  0.0000  0.5000 )  
               a(2) = (  0.0000  0.5000  0.5000 )  
               a(3) = ( -0.5000  0.5000  0.0000 )  

     reciprocal axes: (cart. coord. in units 2 pi/alat)
               b(1) = ( -1.0000 -1.0000  1.0000 )  
               b(2) = (  1.0000  1.0000  1.0000 )  
               b(3) = ( -1.0000  1.0000 -1.0000 )  


     Atoms inside the unit cell: 

     Cartesian axes

     site n.  atom      mass           positions (alat units)
        1     Si  28.0860   tau(    1) = (    0.00000    0.00000    0.00000  )
        2     Si  28.0860   tau(    2) = (    0.25000    0.25000    0.25000  )

     Computing dynamical matrix for 
                    q = (   0.0000000   0.5000000   0.0000000 )

      8 Sym.Ops. (no q -> -q+G )


     G cutoff =  196.9189  (    722 G-vectors)     FFT grid: ( 20, 20, 20)
     number of k points=    80

     PseudoPot. # 1 for Si read from file:
     /home/max/quantum_espresso/qe-6.1/pseudo/si_pbe_v1.uspp.F.UPF.txt
     MD5 check sum: a056efeee980c13900f22a371efd63c1
     Pseudo is Ultrasoft + core correction, Zval =  4.0
     Generated by new atomic code, or converted to UPF format
     Using radial grid of  899 points,  6 beta functions with: 
                l(1) =   0
                l(2) =   0
                l(3) =   1
                l(4) =   1
                l(5) =   2
                l(6) =   2
     Q(r) pseudized with  8 coefficients,  rinner =    0.900   0.900   0.900
                                                       0.900   0.900

     Mode symmetry, C_4v (4mm)  point group:


     Atomic displacements:
     There are   4 irreducible representations

     Representation     1      1 modes -A_1  G_1 D_1  To be done

     Representation     2      1 modes -B_2  G_4 D_2'  To be done

     Representation     3      2 modes -E    G_5 D_5  To be done

     Representation     4      2 modes -E    G_5 D_5  To be done



     Alpha used in Ewald sum =   0.7000
     PHONON       :    22.32s CPU        24.37s WALL



     Representation #  1 mode #   1

     Self-consistent Calculation

      iter #   1 total cpu time :    24.5 secs   av.it.:   5.8
      thresh= 1.000E-02 alpha_mix =  0.700 |ddv_scf|^2 =  2.929E-03

      iter #   2 total cpu time :    24.7 secs   av.it.:   7.7
      thresh= 5.412E-03 alpha_mix =  0.700 |ddv_scf|^2 =  3.885E-02

      iter #   3 total cpu time :    25.0 secs   av.it.:   6.8
      thresh= 1.000E-02 alpha_mix =  0.700 |ddv_scf|^2 =  1.534E-07

      iter #   4 total cpu time :    25.2 secs   av.it.:   8.2
      thresh= 3.917E-05 alpha_mix =  0.700 |ddv_scf|^2 =  1.521E-08

      iter #   5 total cpu time :    25.4 secs   av.it.:   7.8
      thresh= 1.233E-05 alpha_mix =  0.700 |ddv_scf|^2 =  7.100E-10

      iter #   6 total cpu time :    25.6 secs   av.it.:   7.9
      thresh= 2.665E-06 alpha_mix =  0.700 |ddv_scf|^2 =  2.838E-12

      iter #   7 total cpu time :    25.7 secs   av.it.:   8.0
      thresh= 1.685E-07 alpha_mix =  0.700 |ddv_scf|^2 =  5.209E-13

     End of self-consistent calculation

     Convergence has been achieved 


     Representation #  2 mode #   2

     Self-consistent Calculation

      iter #   1 total cpu time :    25.9 secs   av.it.:   4.9
      thresh= 1.000E-02 alpha_mix =  0.700 |ddv_scf|^2 =  5.125E-06

      iter #   2 total cpu time :    26.1 secs   av.it.:   8.7
      thresh= 2.264E-04 alpha_mix =  0.700 |ddv_scf|^2 =  1.338E-06

      iter #   3 total cpu time :    26.3 secs   av.it.:   8.6
      thresh= 1.157E-04 alpha_mix =  0.700 |ddv_scf|^2 =  3.112E-08

      iter #   4 total cpu time :    26.4 secs   av.it.:   8.2
      thresh= 1.764E-05 alpha_mix =  0.700 |ddv_scf|^2 =  7.438E-10

      iter #   5 total cpu time :    26.6 secs   av.it.:   8.6
      thresh= 2.727E-06 alpha_mix =  0.700 |ddv_scf|^2 =  7.665E-12

      iter #   6 total cpu time :    26.8 secs   av.it.:   7.9
      thresh= 2.769E-07 alpha_mix =  0.700 |ddv_scf|^2 =  9.873E-14

     End of self-consistent calculation

     Convergence has been achieved 


     Representation #  3 modes #   3  4

     Self-consistent Calculation

      iter #   1 total cpu time :    27.5 secs   av.it.:   5.0
      thresh= 1.000E-02 alpha_mix =  0.700 |ddv_scf|^2 =  9.390E-07

      iter #   2 total cpu time :    27.9 secs   av.it.:   9.8
      thresh= 9.690E-05 alpha_mix =  0.700 |ddv_scf|^2 =  1.192E-07

      iter #   3 total cpu time :    28.3 secs   av.it.:   9.5
      thresh= 3.453E-05 alpha_mix =  0.700 |ddv_scf|^2 =  4.900E-09

      iter #   4 total cpu time :    28.6 secs   av.it.:   8.8
      thresh= 7.000E-06 alpha_mix =  0.700 |ddv_scf|^2 =  8.770E-12

      iter #   5 total cpu time :    29.4 secs   av.it.:   9.1
      thresh= 2.961E-07 alpha_mix =  0.700 |ddv_scf|^2 =  2.999E-13

     End of self-consistent calculation

     Convergence has been achieved 


     Representation #  4 modes #   5  6

     Self-consistent Calculation

      iter #   1 total cpu time :    29.7 secs   av.it.:   5.0
      thresh= 1.000E-02 alpha_mix =  0.700 |ddv_scf|^2 =  9.416E-07

      iter #   2 total cpu time :    30.1 secs   av.it.:   9.8
      thresh= 9.704E-05 alpha_mix =  0.700 |ddv_scf|^2 =  1.195E-07

      iter #   3 total cpu time :    30.5 secs   av.it.:   9.5
      thresh= 3.457E-05 alpha_mix =  0.700 |ddv_scf|^2 =  7.292E-09

      iter #   4 total cpu time :    30.9 secs   av.it.:   8.9
      thresh= 8.539E-06 alpha_mix =  0.700 |ddv_scf|^2 =  1.540E-11

      iter #   5 total cpu time :    31.6 secs   av.it.:   9.2
      thresh= 3.924E-07 alpha_mix =  0.700 |ddv_scf|^2 =  4.552E-14

     End of self-consistent calculation

     Convergence has been achieved 

     Number of q in the star =    6
     List of q in the star:
          1   0.000000000   0.500000000   0.000000000
          2   0.000000000  -0.500000000   0.000000000
          3   0.500000000   0.000000000   0.000000000
          4   0.000000000   0.000000000   0.500000000
          5   0.000000000   0.000000000  -0.500000000
          6  -0.500000000   0.000000000   0.000000000

     Diagonalizing the dynamical matrix

     q = (    0.000000000   0.500000000   0.000000000 ) 

 **************************************************************************
     freq (    1) =       4.407676 [THz] =     147.024241 [cm-1]
     freq (    2) =       4.407676 [THz] =     147.024241 [cm-1]
     freq (    3) =       7.013335 [THz] =     233.939663 [cm-1]
     freq (    4) =      14.259652 [THz] =     475.650800 [cm-1]
     freq (    5) =      14.259652 [THz] =     475.650800 [cm-1]
     freq (    6) =      14.955119 [THz] =     498.849066 [cm-1]
 **************************************************************************

     Mode symmetry, C_4v (4mm)  point group:

     freq (  1 -  2) =        147.0  [cm-1]   --> E    G_5 D_5       
     freq (  3 -  3) =        233.9  [cm-1]   --> A_1  G_1 D_1       
     freq (  4 -  5) =        475.7  [cm-1]   --> E    G_5 D_5       
     freq (  6 -  6) =        498.8  [cm-1]   --> B_2  G_4 D_2'      

     Calculation of q =    0.7500000  -0.2500000   0.7500000

   Info: using nr1, nr2, nr3 values from input

   Info: using nr1, nr2, nr3 values from input

     Parallelization info
     --------------------
     sticks:   dense  smooth     PW     G-vecs:    dense   smooth      PW
     Min          65      65     30                  722      722     216
     Max          67      67     31                  723      723     218
     Sum         265     265    121                 2891     2891     869



     bravais-lattice index     =            2
     lattice parameter (alat)  =      10.3910  a.u.
     unit-cell volume          =     280.4866 (a.u.)^3
     number of atoms/cell      =            2
     number of atomic types    =            1
     number of electrons       =         8.00
     number of Kohn-Sham states=            4
     kinetic-energy cutoff     =      18.0000  Ry
     charge density cutoff     =      72.0000  Ry
     Exchange-correlation      = SLA  PW   PBE  PBE ( 1  4  3  4 0 0)

     celldm(1)=  10.391000  celldm(2)=   0.000000  celldm(3)=   0.000000
     celldm(4)=   0.000000  celldm(5)=   0.000000  celldm(6)=   0.000000

     crystal axes: (cart. coord. in units of alat)
               a(1) = (  -0.500000   0.000000   0.500000 )  
               a(2) = (   0.000000   0.500000   0.500000 )  
               a(3) = (  -0.500000   0.500000   0.000000 )  

     reciprocal axes: (cart. coord. in units 2 pi/alat)
               b(1) = ( -1.000000 -1.000000  1.000000 )  
               b(2) = (  1.000000  1.000000  1.000000 )  
               b(3) = ( -1.000000  1.000000 -1.000000 )  


     PseudoPot. # 1 for Si read from file:
     /home/max/quantum_espresso/qe-6.1/pseudo/si_pbe_v1.uspp.F.UPF.txt
     MD5 check sum: a056efeee980c13900f22a371efd63c1
     Pseudo is Ultrasoft + core correction, Zval =  4.0
     Generated by new atomic code, or converted to UPF format
     Using radial grid of  899 points,  6 beta functions with: 
                l(1) =   0
                l(2) =   0
                l(3) =   1
                l(4) =   1
                l(5) =   2
                l(6) =   2
     Q(r) pseudized with  8 coefficients,  rinner =    0.900   0.900   0.900
                                                       0.900   0.900

     atomic species   valence    mass     pseudopotential
        Si             4.00    28.08600     Si( 1.00)

     48 Sym. Ops., with inversion, found



   Cartesian axes

     site n.     atom                  positions (alat units)
         1           Si  tau(   1) = (   0.0000000   0.0000000   0.0000000  )
         2           Si  tau(   2) = (   0.2500000   0.2500000   0.2500000  )

     number of k points=   288

     Number of k-points >= 100: set verbosity='high' to print them.

     Dense  grid:     2891 G-vectors     FFT dimensions: (  20,  20,  20)

     Estimated max dynamical RAM per process >       0.33MB

     Estimated total allocated dynamical RAM >       1.33MB

     Check: negative/imaginary core charge=   -0.000006    0.000000

     The potential is recalculated from file :
     ./_ph0/silicon.10.391.save/charge-density.dat

     Starting wfc are    8 atomic wfcs

     Band Structure Calculation
     Davidson diagonalization with overlap

     ethr =  1.25E-10,  avg # of iterations = 11.6

     total cpu time spent up to now is        4.6 secs

     End of band structure calculation

     Number of k-points >= 100: set verbosity='high' to print the bands.

     highest occupied level (ev):     5.5355

     Writing output data file silicon.10.391.save

                                                                                

     bravais-lattice index     =            2
     lattice parameter (alat)  =      10.3910  a.u.
     unit-cell volume          =     280.4866 (a.u.)^3
     number of atoms/cell      =            2
     number of atomic types    =            1
     kinetic-energy cut-off    =      18.0000  Ry
     charge density cut-off    =      72.0000  Ry
     convergence threshold     =      1.0E-12
     beta                      =       0.7000
     number of iterations used =            4
     Exchange-correlation      = SLA  PW   PBE  PBE ( 1  4  3  4 0 0)


     celldm(1)=   10.39100  celldm(2)=    0.00000  celldm(3)=    0.00000
     celldm(4)=    0.00000  celldm(5)=    0.00000  celldm(6)=    0.00000

     crystal axes: (cart. coord. in units of alat)
               a(1) = ( -0.5000  0.0000  0.5000 )  
               a(2) = (  0.0000  0.5000  0.5000 )  
               a(3) = ( -0.5000  0.5000  0.0000 )  

     reciprocal axes: (cart. coord. in units 2 pi/alat)
               b(1) = ( -1.0000 -1.0000  1.0000 )  
               b(2) = (  1.0000  1.0000  1.0000 )  
               b(3) = ( -1.0000  1.0000 -1.0000 )  


     Atoms inside the unit cell: 

     Cartesian axes

     site n.  atom      mass           positions (alat units)
        1     Si  28.0860   tau(    1) = (    0.00000    0.00000    0.00000  )
        2     Si  28.0860   tau(    2) = (    0.25000    0.25000    0.25000  )

     Computing dynamical matrix for 
                    q = (   0.7500000  -0.2500000   0.7500000 )

      2 Sym.Ops. (no q -> -q+G )


     G cutoff =  196.9189  (    723 G-vectors)     FFT grid: ( 20, 20, 20)
     number of k points=   288

     PseudoPot. # 1 for Si read from file:
     /home/max/quantum_espresso/qe-6.1/pseudo/si_pbe_v1.uspp.F.UPF.txt
     MD5 check sum: a056efeee980c13900f22a371efd63c1
     Pseudo is Ultrasoft + core correction, Zval =  4.0
     Generated by new atomic code, or converted to UPF format
     Using radial grid of  899 points,  6 beta functions with: 
                l(1) =   0
                l(2) =   0
                l(3) =   1
                l(4) =   1
                l(5) =   2
                l(6) =   2
     Q(r) pseudized with  8 coefficients,  rinner =    0.900   0.900   0.900
                                                       0.900   0.900

     Mode symmetry, C_s (m)     point group:


     Atomic displacements:
     There are   6 irreducible representations

     Representation     1      1 modes -A'  To be done

     Representation     2      1 modes -A'  To be done

     Representation     3      1 modes -A'  To be done

     Representation     4      1 modes -A'  To be done

     Representation     5      1 modes -A''  To be done

     Representation     6      1 modes -A''  To be done



     Alpha used in Ewald sum =   0.7000
     PHONON       :    31.29s CPU        34.38s WALL



     Representation #  1 mode #   1

     Self-consistent Calculation

      iter #   1 total cpu time :    35.0 secs   av.it.:   5.3
      thresh= 1.000E-02 alpha_mix =  0.700 |ddv_scf|^2 =  6.041E-05

      iter #   2 total cpu time :    35.7 secs   av.it.:   8.9
      thresh= 7.773E-04 alpha_mix =  0.700 |ddv_scf|^2 =  1.599E-04

      iter #   3 total cpu time :    36.2 secs   av.it.:   7.5
      thresh= 1.265E-03 alpha_mix =  0.700 |ddv_scf|^2 =  1.127E-06

      iter #   4 total cpu time :    36.9 secs   av.it.:   8.4
      thresh= 1.062E-04 alpha_mix =  0.700 |ddv_scf|^2 =  5.661E-08

      iter #   5 total cpu time :    37.9 secs   av.it.:   8.3
      thresh= 2.379E-05 alpha_mix =  0.700 |ddv_scf|^2 =  7.227E-09

      iter #   6 total cpu time :    38.5 secs   av.it.:   8.5
      thresh= 8.501E-06 alpha_mix =  0.700 |ddv_scf|^2 =  9.131E-11

      iter #   7 total cpu time :    39.5 secs   av.it.:   8.7
      thresh= 9.555E-07 alpha_mix =  0.700 |ddv_scf|^2 =  3.133E-12

      iter #   8 total cpu time :    40.1 secs   av.it.:   8.6
      thresh= 1.770E-07 alpha_mix =  0.700 |ddv_scf|^2 =  1.848E-13

     End of self-consistent calculation

     Convergence has been achieved 


     Representation #  2 mode #   2

     Self-consistent Calculation

      iter #   1 total cpu time :    40.6 secs   av.it.:   5.4
      thresh= 1.000E-02 alpha_mix =  0.700 |ddv_scf|^2 =  1.074E-04

      iter #   2 total cpu time :    41.6 secs   av.it.:   8.7
      thresh= 1.036E-03 alpha_mix =  0.700 |ddv_scf|^2 =  3.082E-04

      iter #   3 total cpu time :    42.2 secs   av.it.:   7.4
      thresh= 1.756E-03 alpha_mix =  0.700 |ddv_scf|^2 =  7.958E-07

      iter #   4 total cpu time :    43.0 secs   av.it.:   8.6
      thresh= 8.921E-05 alpha_mix =  0.700 |ddv_scf|^2 =  5.526E-08

      iter #   5 total cpu time :    43.8 secs   av.it.:   8.2
      thresh= 2.351E-05 alpha_mix =  0.700 |ddv_scf|^2 =  1.046E-08

      iter #   6 total cpu time :    44.4 secs   av.it.:   8.5
      thresh= 1.023E-05 alpha_mix =  0.700 |ddv_scf|^2 =  8.859E-11

      iter #   7 total cpu time :    45.4 secs   av.it.:   8.7
      thresh= 9.412E-07 alpha_mix =  0.700 |ddv_scf|^2 =  2.723E-12

      iter #   8 total cpu time :    46.1 secs   av.it.:   8.6
      thresh= 1.650E-07 alpha_mix =  0.700 |ddv_scf|^2 =  4.742E-13

     End of self-consistent calculation

     Convergence has been achieved 


     Representation #  3 mode #   3

     Self-consistent Calculation

      iter #   1 total cpu time :    46.6 secs   av.it.:   5.3
      thresh= 1.000E-02 alpha_mix =  0.700 |ddv_scf|^2 =  8.420E-05

      iter #   2 total cpu time :    47.6 secs   av.it.:   8.8
      thresh= 9.176E-04 alpha_mix =  0.700 |ddv_scf|^2 =  2.257E-04

      iter #   3 total cpu time :    48.2 secs   av.it.:   7.4
      thresh= 1.502E-03 alpha_mix =  0.700 |ddv_scf|^2 =  1.356E-06

      iter #   4 total cpu time :    48.8 secs   av.it.:   8.2
      thresh= 1.165E-04 alpha_mix =  0.700 |ddv_scf|^2 =  5.661E-08

      iter #   5 total cpu time :    49.8 secs   av.it.:   8.4
      thresh= 2.379E-05 alpha_mix =  0.700 |ddv_scf|^2 =  1.080E-08

      iter #   6 total cpu time :    50.4 secs   av.it.:   8.5
      thresh= 1.039E-05 alpha_mix =  0.700 |ddv_scf|^2 =  5.045E-11

      iter #   7 total cpu time :    51.4 secs   av.it.:   8.7
      thresh= 7.103E-07 alpha_mix =  0.700 |ddv_scf|^2 =  1.964E-12

      iter #   8 total cpu time :    52.1 secs   av.it.:   8.8
      thresh= 1.401E-07 alpha_mix =  0.700 |ddv_scf|^2 =  4.282E-13

     End of self-consistent calculation

     Convergence has been achieved 


     Representation #  4 mode #   4

     Self-consistent Calculation

      iter #   1 total cpu time :    52.6 secs   av.it.:   5.2
      thresh= 1.000E-02 alpha_mix =  0.700 |ddv_scf|^2 =  3.722E-05

      iter #   2 total cpu time :    53.6 secs   av.it.:   8.9
[...]
        k(   59) = (  -0.8750000   0.1250000  -0.1250000), wk =   0.0625000
        k(   60) = (  -1.3750000  -0.8750000  -0.1250000), wk =   0.0000000
        k(   61) = (  -1.1250000   0.3750000  -0.3750000), wk =   0.0625000
        k(   62) = (  -1.6250000  -0.6250000  -0.3750000), wk =   0.0000000
        k(   63) = (  -0.3750000   0.3750000   1.1250000), wk =   0.0625000
        k(   64) = (  -0.8750000  -0.6250000   1.1250000), wk =   0.0000000

     Dense  grid:     2891 G-vectors     FFT dimensions: (  20,  20,  20)

     Estimated max dynamical RAM per process >       0.33MB

     Estimated total allocated dynamical RAM >       1.33MB

     Check: negative/imaginary core charge=   -0.000006    0.000000

     The potential is recalculated from file :
     ./_ph0/silicon.10.391.save/charge-density.dat

     Starting wfc are    8 atomic wfcs

     Band Structure Calculation
     Davidson diagonalization with overlap

     ethr =  1.25E-10,  avg # of iterations = 11.6

     total cpu time spent up to now is        6.7 secs

     End of band structure calculation

          k =-0.1250 0.1250 0.1250 (   347 PWs)   bands (ev):

    -5.6910   4.2255   5.5355   5.5355

          k =-0.6250-0.8750 0.1250 (   368 PWs)   bands (ev):

    -2.5523  -1.0285   1.9248   2.9773

          k =-0.3750 0.3750-0.1250 (   356 PWs)   bands (ev):

    -4.6823   1.2608   3.5831   5.0581

          k =-0.8750-0.6250-0.1250 (   368 PWs)   bands (ev):

    -2.5523  -1.0285   1.9248   2.9773

          k = 0.3750-0.3750 0.6250 (   364 PWs)   bands (ev):

    -3.5696  -0.7756   3.5938   4.3018

          k =-0.1250-1.3750 0.6250 (   365 PWs)   bands (ev):

    -3.0817  -0.7139   1.9748   3.9918

          k = 0.1250-0.1250 0.3750 (   358 PWs)   bands (ev):

    -5.1722   2.6142   4.5464   4.6004

          k =-0.3750-1.1250 0.3750 (   365 PWs)   bands (ev):

    -3.0817  -0.7139   1.9748   3.9918

          k =-0.1250 0.6250 0.1250 (   357 PWs)   bands (ev):

    -4.1582   0.9078   3.2447   3.6859

          k =-0.6250-0.3750 0.1250 (   362 PWs)   bands (ev):

    -3.7523   0.0603   2.6119   3.9576

          k = 0.6250-0.1250 0.8750 (   368 PWs)   bands (ev):

    -2.5523  -1.0285   1.9248   2.9773

          k = 0.1250-1.1250 0.8750 (   362 PWs)   bands (ev):

    -2.7116  -0.9349   2.5194   3.2258

          k = 0.3750 0.1250 0.6250 (   362 PWs)   bands (ev):

    -3.7523   0.0603   2.6119   3.9576

          k =-0.1250-0.8750 0.6250 (   368 PWs)   bands (ev):

    -2.5523  -1.0285   1.9248   2.9773

          k =-0.1250-0.8750 0.1250 (   362 PWs)   bands (ev):

    -2.7116  -0.9349   2.5194   3.2258

          k =-0.6250-1.8750 0.1250 (   357 PWs)   bands (ev):

    -4.1582   0.9078   3.2447   3.6859

          k =-0.3750 0.3750 0.3750 (   359 PWs)   bands (ev):

    -4.2595   0.0010   4.7564   4.7564

          k =-0.8750-0.6250 0.3750 (   362 PWs)   bands (ev):

    -3.7523   0.0603   2.6119   3.9576

          k = 0.3750-0.3750 1.1250 (   365 PWs)   bands (ev):

    -3.0817  -0.7139   1.9748   3.9918

          k =-0.1250-1.3750 1.1250 (   368 PWs)   bands (ev):

    -2.5523  -1.0285   1.9248   2.9773

          k = 0.1250-0.3750 0.3750 (   356 PWs)   bands (ev):

    -4.6823   1.2608   3.5831   5.0581

          k =-0.3750-1.3750 0.3750 (   364 PWs)   bands (ev):

    -3.5696  -0.7756   3.5938   4.3018

          k = 0.3750-0.3750-0.1250 (   356 PWs)   bands (ev):

    -4.6823   1.2608   3.5831   5.0581

          k =-0.1250-1.3750-0.1250 (   357 PWs)   bands (ev):

    -4.1582   0.9078   3.2447   3.6859

          k =-0.6250 0.3750-0.3750 (   364 PWs)   bands (ev):

    -3.5696  -0.7756   3.5938   4.3018

          k =-1.1250-0.6250-0.3750 (   362 PWs)   bands (ev):

    -3.7523   0.0603   2.6119   3.9576

          k =-0.3750 0.3750 0.6250 (   364 PWs)   bands (ev):

    -3.5696  -0.7756   3.5938   4.3018

          k =-0.8750-0.6250 0.6250 (   356 PWs)   bands (ev):

    -4.6823   1.2608   3.5831   5.0581

          k =-0.3750 0.1250-0.1250 (   358 PWs)   bands (ev):

    -5.1722   2.6142   4.5464   4.6004

          k =-0.8750-0.8750-0.1250 (   362 PWs)   bands (ev):

    -2.7116  -0.9349   2.5194   3.2258

          k =-0.1250 0.1250 0.3750 (   358 PWs)   bands (ev):

    -5.1722   2.6142   4.5464   4.6004

          k =-0.6250-0.8750 0.3750 (   362 PWs)   bands (ev):

    -3.7523   0.0603   2.6119   3.9576

          k = 0.1250 0.6250-0.1250 (   357 PWs)   bands (ev):

    -4.1582   0.9078   3.2447   3.6859

          k =-0.3750-0.3750-0.1250 (   356 PWs)   bands (ev):

    -4.6823   1.2608   3.5831   5.0581

          k = 0.6250 0.1250-0.1250 (   357 PWs)   bands (ev):

    -4.1582   0.9078   3.2447   3.6859

          k = 0.1250-0.8750-0.1250 (   362 PWs)   bands (ev):

    -2.7116  -0.9349   2.5194   3.2258

          k =-0.8750 0.1250-0.6250 (   368 PWs)   bands (ev):

    -2.5523  -1.0285   1.9248   2.9773

          k =-1.3750-0.8750-0.6250 (   356 PWs)   bands (ev):

    -4.6823   1.2608   3.5831   5.0581

          k = 0.8750-0.1250 0.6250 (   368 PWs)   bands (ev):

    -2.5523  -1.0285   1.9248   2.9773

          k = 0.3750-1.1250 0.6250 (   362 PWs)   bands (ev):

    -3.7523   0.0603   2.6119   3.9576

          k =-0.6250 0.1250 0.8750 (   368 PWs)   bands (ev):

    -2.5523  -1.0285   1.9248   2.9773

          k =-1.1250-0.8750 0.8750 (   347 PWs)   bands (ev):

    -5.6910   4.2255   5.5355   5.5355

          k =-0.1250 0.8750 0.6250 (   368 PWs)   bands (ev):

    -2.5523  -1.0285   1.9248   2.9773

          k =-0.6250-0.1250 0.6250 (   365 PWs)   bands (ev):

    -3.0817  -0.7139   1.9748   3.9918

          k = 0.1250 0.8750-0.6250 (   368 PWs)   bands (ev):

    -2.5523  -1.0285   1.9248   2.9773

          k =-0.3750-0.1250-0.6250 (   362 PWs)   bands (ev):

    -3.7523   0.0603   2.6119   3.9576

          k =-0.6250-0.1250-0.3750 (   362 PWs)   bands (ev):

    -3.7523   0.0603   2.6119   3.9576

          k =-1.1250-1.1250-0.3750 (   357 PWs)   bands (ev):

    -4.1582   0.9078   3.2447   3.6859

          k = 0.6250 0.1250 0.3750 (   362 PWs)   bands (ev):

    -3.7523   0.0603   2.6119   3.9576

          k = 0.1250-0.8750 0.3750 (   368 PWs)   bands (ev):

    -2.5523  -1.0285   1.9248   2.9773

          k =-0.3750-0.1250 0.6250 (   362 PWs)   bands (ev):

    -3.7523   0.0603   2.6119   3.9576

          k =-0.8750-1.1250 0.6250 (   358 PWs)   bands (ev):

    -5.1722   2.6142   4.5464   4.6004

          k = 0.1250 0.6250 0.3750 (   362 PWs)   bands (ev):

    -3.7523   0.0603   2.6119   3.9576

          k =-0.3750-0.3750 0.3750 (   359 PWs)   bands (ev):

    -4.2595   0.0010   4.7564   4.7564

          k =-0.1250 0.6250-0.3750 (   362 PWs)   bands (ev):

    -3.7523   0.0603   2.6119   3.9576

          k =-0.6250-0.3750-0.3750 (   364 PWs)   bands (ev):

    -3.5696  -0.7756   3.5938   4.3018

          k = 0.1250-0.8750-0.1250 (   362 PWs)   bands (ev):

    -2.7116  -0.9349   2.5194   3.2258

          k =-0.3750-1.8750-0.1250 (   358 PWs)   bands (ev):

    -5.1722   2.6142   4.5464   4.6004

          k =-0.8750 0.1250-0.1250 (   362 PWs)   bands (ev):

    -2.7116  -0.9349   2.5194   3.2258

          k =-1.3750-0.8750-0.1250 (   368 PWs)   bands (ev):

    -2.5523  -1.0285   1.9248   2.9773

          k =-1.1250 0.3750-0.3750 (   365 PWs)   bands (ev):

    -3.0817  -0.7139   1.9748   3.9918

          k =-1.6250-0.6250-0.3750 (   364 PWs)   bands (ev):

    -3.5696  -0.7756   3.5938   4.3018

          k =-0.3750 0.3750 1.1250 (   365 PWs)   bands (ev):

    -3.0817  -0.7139   1.9748   3.9918

          k =-0.8750-0.6250 1.1250 (   358 PWs)   bands (ev):

    -5.1722   2.6142   4.5464   4.6004

     highest occupied level (ev):     5.5355

     Writing output data file silicon.10.391.save

                                                                                

     bravais-lattice index     =            2
     lattice parameter (alat)  =      10.3910  a.u.
     unit-cell volume          =     280.4866 (a.u.)^3
     number of atoms/cell      =            2
     number of atomic types    =            1
     kinetic-energy cut-off    =      18.0000  Ry
     charge density cut-off    =      72.0000  Ry
     convergence threshold     =      1.0E-12
     beta                      =       0.7000
     number of iterations used =            4
     Exchange-correlation      = SLA  PW   PBE  PBE ( 1  4  3  4 0 0)


     celldm(1)=   10.39100  celldm(2)=    0.00000  celldm(3)=    0.00000
     celldm(4)=    0.00000  celldm(5)=    0.00000  celldm(6)=    0.00000

     crystal axes: (cart. coord. in units of alat)
               a(1) = ( -0.5000  0.0000  0.5000 )  
               a(2) = (  0.0000  0.5000  0.5000 )  
               a(3) = ( -0.5000  0.5000  0.0000 )  

     reciprocal axes: (cart. coord. in units 2 pi/alat)
               b(1) = ( -1.0000 -1.0000  1.0000 )  
               b(2) = (  1.0000  1.0000  1.0000 )  
               b(3) = ( -1.0000  1.0000 -1.0000 )  


     Atoms inside the unit cell: 

     Cartesian axes

     site n.  atom      mass           positions (alat units)
        1     Si  28.0860   tau(    1) = (    0.00000    0.00000    0.00000  )
        2     Si  28.0860   tau(    2) = (    0.25000    0.25000    0.25000  )

     Computing dynamical matrix for 
                    q = (  -0.5000000  -1.0000000   0.0000000 )

      8 Sym.Ops. (no q -> -q+G )


     G cutoff =  196.9189  (    722 G-vectors)     FFT grid: ( 20, 20, 20)
     number of k points=    64

     PseudoPot. # 1 for Si read from file:
     /home/max/quantum_espresso/qe-6.1/pseudo/si_pbe_v1.uspp.F.UPF.txt
     MD5 check sum: a056efeee980c13900f22a371efd63c1
     Pseudo is Ultrasoft + core correction, Zval =  4.0
     Generated by new atomic code, or converted to UPF format
     Using radial grid of  899 points,  6 beta functions with: 
                l(1) =   0
                l(2) =   0
                l(3) =   1
                l(4) =   1
                l(5) =   2
                l(6) =   2
     Q(r) pseudized with  8 coefficients,  rinner =    0.900   0.900   0.900
                                                       0.900   0.900


     Atomic displacements:
     There are   3 irreducible representations

     Representation     1      2 modes -  To be done

     Representation     2      2 modes -  To be done

     Representation     3      2 modes -  To be done



     Alpha used in Ewald sum =   0.7000
     PHONON       :  1m18.45s CPU     1m26.37s WALL



     Representation #  1 modes #   1  2

     Self-consistent Calculation

      iter #   1 total cpu time :    86.6 secs   av.it.:   5.3
      thresh= 1.000E-02 alpha_mix =  0.700 |ddv_scf|^2 =  6.271E-06

      iter #   2 total cpu time :    87.2 secs   av.it.:   9.9
      thresh= 2.504E-04 alpha_mix =  0.700 |ddv_scf|^2 =  3.379E-06

      iter #   3 total cpu time :    87.6 secs   av.it.:   9.3
      thresh= 1.838E-04 alpha_mix =  0.700 |ddv_scf|^2 =  8.436E-09

      iter #   4 total cpu time :    87.9 secs   av.it.:   9.1
      thresh= 9.185E-06 alpha_mix =  0.700 |ddv_scf|^2 =  2.300E-11

      iter #   5 total cpu time :    88.2 secs   av.it.:   9.0
      thresh= 4.795E-07 alpha_mix =  0.700 |ddv_scf|^2 =  6.885E-13

     End of self-consistent calculation

     Convergence has been achieved 


     Representation #  2 modes #   3  4

     Self-consistent Calculation

      iter #   1 total cpu time :    88.5 secs   av.it.:   5.2
      thresh= 1.000E-02 alpha_mix =  0.700 |ddv_scf|^2 =  9.717E-06

      iter #   2 total cpu time :    88.8 secs   av.it.:   9.9
      thresh= 3.117E-04 alpha_mix =  0.700 |ddv_scf|^2 =  1.318E-05

      iter #   3 total cpu time :    89.5 secs   av.it.:   9.1
      thresh= 3.630E-04 alpha_mix =  0.700 |ddv_scf|^2 =  1.012E-08

      iter #   4 total cpu time :    89.8 secs   av.it.:   8.9
      thresh= 1.006E-05 alpha_mix =  0.700 |ddv_scf|^2 =  9.445E-11

      iter #   5 total cpu time :    90.1 secs   av.it.:   9.4
      thresh= 9.719E-07 alpha_mix =  0.700 |ddv_scf|^2 =  1.839E-12

      iter #   6 total cpu time :    90.4 secs   av.it.:   9.1
      thresh= 1.356E-07 alpha_mix =  0.700 |ddv_scf|^2 =  1.638E-14

     End of self-consistent calculation

     Convergence has been achieved 


     Representation #  3 modes #   5  6

     Self-consistent Calculation

      iter #   1 total cpu time :    90.6 secs   av.it.:   5.1
      thresh= 1.000E-02 alpha_mix =  0.700 |ddv_scf|^2 =  2.618E-06

      iter #   2 total cpu time :    91.2 secs   av.it.:   9.7
      thresh= 1.618E-04 alpha_mix =  0.700 |ddv_scf|^2 =  1.426E-06

      iter #   3 total cpu time :    91.6 secs   av.it.:   9.1
      thresh= 1.194E-04 alpha_mix =  0.700 |ddv_scf|^2 =  8.117E-09

      iter #   4 total cpu time :    91.9 secs   av.it.:   8.7
      thresh= 9.009E-06 alpha_mix =  0.700 |ddv_scf|^2 =  4.458E-11

      iter #   5 total cpu time :    92.2 secs   av.it.:   9.1
      thresh= 6.677E-07 alpha_mix =  0.700 |ddv_scf|^2 =  7.092E-13

     End of self-consistent calculation

     Convergence has been achieved 

     Number of q in the star =    6
     List of q in the star:
          1  -0.500000000  -1.000000000   0.000000000
          2   0.000000000   1.000000000   0.500000000
          3   0.000000000  -1.000000000  -0.500000000
          4   0.500000000   1.000000000   0.000000000
          5  -1.000000000  -0.500000000   0.000000000
          6   0.000000000  -0.500000000  -1.000000000

     Diagonalizing the dynamical matrix

     q = (   -0.500000000  -1.000000000   0.000000000 ) 

 **************************************************************************
     freq (    1) =       7.778313 [THz] =     259.456607 [cm-1]
     freq (    2) =       7.778313 [THz] =     259.456607 [cm-1]
     freq (    3) =      11.045572 [THz] =     368.440607 [cm-1]
     freq (    4) =      11.045572 [THz] =     368.440607 [cm-1]
     freq (    5) =      13.786454 [THz] =     459.866619 [cm-1]
     freq (    6) =      13.786454 [THz] =     459.866619 [cm-1]
 **************************************************************************

     init_run     :      0.61s CPU      0.65s WALL (       7 calls)
     electrons    :      4.78s CPU      5.33s WALL (       7 calls)

     Called by init_run:
     wfcinit      :      0.00s CPU      0.00s WALL (       7 calls)
     potinit      :      0.03s CPU      0.03s WALL (       7 calls)

     Called by electrons:
     c_bands      :      4.78s CPU      5.31s WALL (       7 calls)
     v_of_rho     :      0.02s CPU      0.02s WALL (       8 calls)
     newd         :      0.03s CPU      0.04s WALL (       8 calls)

     Called by c_bands:
     init_us_2    :      0.68s CPU      0.76s WALL (   17588 calls)
     cegterg      :      4.06s CPU      4.52s WALL (     796 calls)

     Called by sum_band:

     Called by *egterg:
     h_psi        :     45.57s CPU     49.80s WALL (  152273 calls)
     s_psi        :      5.81s CPU      6.31s WALL (  309266 calls)
     g_psi        :      0.03s CPU      0.03s WALL (    9268 calls)
     cdiaghg      :      0.47s CPU      0.54s WALL (   10064 calls)

     Called by h_psi:
     h_psi:pot    :     45.38s CPU     49.60s WALL (  152273 calls)
     h_psi:calbec :      4.96s CPU      5.43s WALL (  152273 calls)
     vloc_psi     :     37.30s CPU     40.80s WALL (  152273 calls)
     add_vuspsi   :      2.90s CPU      3.15s WALL (  152273 calls)

     General routines
     calbec       :     10.73s CPU     11.81s WALL (  345638 calls)
     fft          :      0.72s CPU      0.87s WALL (    5239 calls)
     ffts         :      0.14s CPU      0.15s WALL (    2748 calls)
     fftw         :     43.38s CPU     47.48s WALL ( 1378780 calls)
     davcio       :      0.33s CPU      0.37s WALL (   79045 calls)

     Parallel routines
     fft_scatter  :     11.87s CPU     13.73s WALL ( 1386767 calls)

     PHONON       :  1m23.88s CPU     1m32.23s WALL

     INITIALIZATION: 
     phq_setup    :      0.05s CPU      0.05s WALL (       8 calls)
     phq_init     :      1.95s CPU      1.98s WALL (       8 calls)

     phq_init     :      1.95s CPU      1.98s WALL (       8 calls)
     set_drhoc    :      0.29s CPU      0.29s WALL (      24 calls)
     init_vloc    :      0.01s CPU      0.01s WALL (       8 calls)
     init_us_1    :      0.55s CPU      0.57s WALL (       8 calls)
     newd         :      0.03s CPU      0.04s WALL (       8 calls)
     dvanqq       :      0.24s CPU      0.24s WALL (       8 calls)
     drho         :      0.99s CPU      1.01s WALL (       8 calls)

     DYNAMICAL MATRIX:
     dynmat0      :      0.49s CPU      0.49s WALL (       8 calls)
     phqscf       :     73.97s CPU     81.40s WALL (       8 calls)
     dynmatrix    :      0.03s CPU      0.03s WALL (       8 calls)

     phqscf       :     73.97s CPU     81.40s WALL (       8 calls)
     solve_linter :     73.26s CPU     80.64s WALL (      32 calls)
     drhodv       :      0.51s CPU      0.55s WALL (      32 calls)

     dynmat0      :      0.49s CPU      0.49s WALL (       8 calls)
     dynmat_us    :      0.27s CPU      0.27s WALL (       8 calls)
     d2ionq       :      0.01s CPU      0.01s WALL (       8 calls)
     dynmatcc     :      0.21s CPU      0.21s WALL (       8 calls)

     dynmat_us    :      0.27s CPU      0.27s WALL (       8 calls)
     addusdynmat  :      0.00s CPU      0.00s WALL (       8 calls)

     phqscf       :     73.97s CPU     81.40s WALL (       8 calls)
     solve_linter :     73.26s CPU     80.64s WALL (      32 calls)

     solve_linter :     73.26s CPU     80.64s WALL (      32 calls)
     dvqpsi_us    :      1.77s CPU      1.90s WALL (    2508 calls)
     ortho        :      1.17s CPU      1.32s WALL (   15550 calls)
     cgsolve      :     57.35s CPU     63.21s WALL (   15550 calls)
     incdrhoscf   :      4.95s CPU      5.51s WALL (   15550 calls)
     addusddens   :      1.19s CPU      1.25s WALL (     228 calls)
     vpsifft      :      3.49s CPU      3.74s WALL (   12922 calls)
     dv_of_drho   :      0.36s CPU      0.39s WALL (     295 calls)
     mix_pot      :      0.06s CPU      0.07s WALL (     201 calls)
     psymdvscf    :      0.82s CPU      0.86s WALL (     196 calls)
     newdq        :      1.40s CPU      1.60s WALL (     201 calls)
     adddvscf     :      0.46s CPU      0.50s WALL (   13042 calls)
     drhodvus     :      0.00s CPU      0.00s WALL (      32 calls)

     dvqpsi_us    :      1.77s CPU      1.90s WALL (    2508 calls)
     dvqpsi_us_on :      0.82s CPU      0.89s WALL (    2508 calls)

     cgsolve      :     57.35s CPU     63.21s WALL (   15550 calls)
     ch_psi       :     54.66s CPU     59.90s WALL (  141413 calls)

     ch_psi       :     54.66s CPU     59.90s WALL (  141413 calls)
     h_psi        :     45.57s CPU     49.80s WALL (  152273 calls)
     last         :      9.38s CPU     10.45s WALL (  141413 calls)

     h_psi        :     45.57s CPU     49.80s WALL (  152273 calls)
     add_vuspsi   :      2.90s CPU      3.15s WALL (  152273 calls)

     incdrhoscf   :      4.95s CPU      5.51s WALL (   15550 calls)
     addusdbec    :      0.71s CPU      0.75s WALL (   17998 calls)

     drhodvus     :      0.00s CPU      0.00s WALL (      32 calls)

      General routines
     calbec       :     10.73s CPU     11.81s WALL (  345638 calls)
     fft          :      0.72s CPU      0.87s WALL (    5239 calls)
     ffts         :      0.14s CPU      0.15s WALL (    2748 calls)
     fftw         :     43.38s CPU     47.48s WALL ( 1378780 calls)
     davcio       :      0.33s CPU      0.37s WALL (   79045 calls)
     write_rec    :      0.21s CPU      0.22s WALL (     233 calls)


     PHONON       :  1m23.88s CPU     1m32.23s WALL


   This run was terminated on:  17:16: 3   9Nov2017            

=------------------------------------------------------------------------------=
   JOB DONE.
=------------------------------------------------------------------------------=
