
     Program PWSCF v.6.1 (svn rev. 13369) starts on 10Nov2017 at 10:15:11 

     This program is part of the open-source Quantum ESPRESSO suite
     for quantum simulation of materials; please cite
         "P. Giannozzi et al., J. Phys.:Condens. Matter 21 395502 (2009);
          URL http://www.quantum-espresso.org", 
     in publications or presentations arising from this work. More details at
     http://www.quantum-espresso.org/quote

     Parallel version (MPI), running on     4 processors
     R & G space division:  proc/nbgrp/npool/nimage =       4
     Waiting for input...
     Reading input from standard input
     Message from routine read_cards :
     DEPRECATED: no units specified in ATOMIC_POSITIONS card
     Message from routine read_cards :
     ATOMIC_POSITIONS: units set to alat

     Current dimensions of program PWSCF are:
     Max number of different atomic species (ntypx) = 10
     Max number of k-points (npk) =  40000
     Max angular momentum in pseudopotentials (lmaxx) =  3

     Subspace diagonalization in iterative solution of the eigenvalue problem:
     a serial algorithm will be used


     Parallelization info
     --------------------
     sticks:   dense  smooth     PW     G-vecs:    dense   smooth      PW
     Min         228     109     37                 4482     1557     309
     Max         229     110     38                 4484     1558     312
     Sum         913     439    151                17933     6231    1243



     bravais-lattice index     =            2
     lattice parameter (alat)  =      10.4300  a.u.
     unit-cell volume          =     283.6566 (a.u.)^3
     number of atoms/cell      =            2
     number of atomic types    =            1
     number of electrons       =         8.00
     number of Kohn-Sham states=            4
     kinetic-energy cutoff     =      30.0000  Ry
     charge density cutoff     =     240.0000  Ry
     convergence threshold     =      1.0E-08
     mixing beta               =       0.7000
     number of iterations used =            8  plain     mixing
     Exchange-correlation      = SLA  PW   PBE  PBE ( 1  4  3  4 0 0)

     celldm(1)=  10.430000  celldm(2)=   0.000000  celldm(3)=   0.000000
     celldm(4)=   0.000000  celldm(5)=   0.000000  celldm(6)=   0.000000

     crystal axes: (cart. coord. in units of alat)
               a(1) = (  -0.500000   0.000000   0.500000 )  
               a(2) = (   0.000000   0.500000   0.500000 )  
               a(3) = (  -0.500000   0.500000   0.000000 )  

     reciprocal axes: (cart. coord. in units 2 pi/alat)
               b(1) = ( -1.000000 -1.000000  1.000000 )  
               b(2) = (  1.000000  1.000000  1.000000 )  
               b(3) = ( -1.000000  1.000000 -1.000000 )  


     PseudoPot. # 1 for Si read from file:
     /home/max/quantum_espresso/qe-6.1/pseudo/si_pbe_v1.uspp.F.UPF.txt
     MD5 check sum: a056efeee980c13900f22a371efd63c1
     Pseudo is Ultrasoft + core correction, Zval =  4.0
     Generated by new atomic code, or converted to UPF format
     Using radial grid of  899 points,  6 beta functions with: 
                l(1) =   0
                l(2) =   0
                l(3) =   1
                l(4) =   1
                l(5) =   2
                l(6) =   2
     Q(r) pseudized with  8 coefficients,  rinner =    0.900   0.900   0.900
                                                       0.900   0.900

     atomic species   valence    mass     pseudopotential
        Si             4.00    28.08600     Si( 1.00)

     48 Sym. Ops., with inversion, found (24 have fractional translation)



   Cartesian axes

     site n.     atom                  positions (alat units)
         1           Si  tau(   1) = (   0.0000000   0.0000000   0.0000000  )
         2           Si  tau(   2) = (   0.2500000   0.2500000   0.2500000  )

     number of k points=    28
                       cart. coord. in units 2pi/alat
        k(    1) = (  -0.0833333   0.0833333   0.0833333), wk =   0.0185185
        k(    2) = (  -0.2500000   0.2500000  -0.0833333), wk =   0.0555556
        k(    3) = (  -0.4166667   0.4166667  -0.2500000), wk =   0.0555556
        k(    4) = (   0.4166667  -0.4166667   0.5833333), wk =   0.0555556
        k(    5) = (   0.2500000  -0.2500000   0.4166667), wk =   0.0555556
        k(    6) = (   0.0833333  -0.0833333   0.2500000), wk =   0.0555556
        k(    7) = (  -0.0833333   0.4166667   0.0833333), wk =   0.0555556
        k(    8) = (  -0.2500000   0.5833333  -0.0833333), wk =   0.1111111
        k(    9) = (   0.5833333  -0.2500000   0.7500000), wk =   0.1111111
        k(   10) = (   0.4166667  -0.0833333   0.5833333), wk =   0.1111111
        k(   11) = (   0.2500000   0.0833333   0.4166667), wk =   0.1111111
        k(   12) = (  -0.0833333   0.7500000   0.0833333), wk =   0.0555556
        k(   13) = (   0.7500000  -0.0833333   0.9166667), wk =   0.1111111
        k(   14) = (   0.5833333   0.0833333   0.7500000), wk =   0.1111111
        k(   15) = (   0.4166667   0.2500000   0.5833333), wk =   0.1111111
        k(   16) = (  -0.0833333  -0.9166667   0.0833333), wk =   0.0555556
        k(   17) = (  -0.2500000  -0.7500000  -0.0833333), wk =   0.1111111
        k(   18) = (  -0.0833333  -0.5833333   0.0833333), wk =   0.0555556
        k(   19) = (  -0.2500000   0.2500000   0.2500000), wk =   0.0185185
        k(   20) = (  -0.4166667   0.4166667   0.0833333), wk =   0.0555556
        k(   21) = (   0.4166667  -0.4166667   0.9166667), wk =   0.0555556
        k(   22) = (   0.2500000  -0.2500000   0.7500000), wk =   0.0555556
        k(   23) = (  -0.2500000   0.5833333   0.2500000), wk =   0.0555556
        k(   24) = (   0.5833333  -0.2500000   1.0833333), wk =   0.1111111
        k(   25) = (   0.4166667  -0.0833333   0.9166667), wk =   0.1111111
        k(   26) = (  -0.2500000  -1.0833333   0.2500000), wk =   0.0555556
        k(   27) = (  -0.4166667   0.4166667   0.4166667), wk =   0.0185185
        k(   28) = (   0.4166667  -0.4166667   1.2500000), wk =   0.0555556

     Dense  grid:    17933 G-vectors     FFT dimensions: (  40,  40,  40)

     Smooth grid:     6231 G-vectors     FFT dimensions: (  25,  25,  25)

     Estimated max dynamical RAM per process >       3.43MB

     Estimated total allocated dynamical RAM >      13.73MB

     Initial potential from superposition of free atoms

     starting charge    7.99866, renormalised to    8.00000
     Starting wfc are    8 randomized atomic wfcs

     total cpu time spent up to now is        1.2 secs

     per-process dynamical memory:     9.9 Mb

     Self-consistent Calculation

     iteration #  1     ecut=    30.00 Ry     beta=0.70
     Davidson diagonalization with overlap
     ethr =  1.00E-02,  avg # of iterations =  2.0

     Threshold (ethr) on eigenvalues was too large:
     Diagonalizing with lowered threshold

     Davidson diagonalization with overlap
     ethr =  6.46E-04,  avg # of iterations =  1.0

     total cpu time spent up to now is        1.9 secs

     total energy              =     -19.19079043 Ry
     Harris-Foulkes estimate   =     -19.20213032 Ry
     estimated scf accuracy    <       0.05123456 Ry

     iteration #  2     ecut=    30.00 Ry     beta=0.70
     Davidson diagonalization with overlap
     ethr =  6.40E-04,  avg # of iterations =  1.0

     total cpu time spent up to now is        2.1 secs

     total energy              =     -19.19237307 Ry
     Harris-Foulkes estimate   =     -19.19254171 Ry
     estimated scf accuracy    <       0.00245495 Ry

     iteration #  3     ecut=    30.00 Ry     beta=0.70
     Davidson diagonalization with overlap
     ethr =  3.07E-05,  avg # of iterations =  2.0

     total cpu time spent up to now is        2.4 secs

     total energy              =     -19.19269288 Ry
     Harris-Foulkes estimate   =     -19.19270283 Ry
     estimated scf accuracy    <       0.00003614 Ry

     iteration #  4     ecut=    30.00 Ry     beta=0.70
     Davidson diagonalization with overlap
     ethr =  4.52E-07,  avg # of iterations =  3.3

     total cpu time spent up to now is        2.6 secs

     total energy              =     -19.19272824 Ry
     Harris-Foulkes estimate   =     -19.19272859 Ry
     estimated scf accuracy    <       0.00000160 Ry

     iteration #  5     ecut=    30.00 Ry     beta=0.70
     Davidson diagonalization with overlap
     ethr =  2.01E-08,  avg # of iterations =  2.2

     total cpu time spent up to now is        2.9 secs

     End of self-consistent calculation

          k =-0.0833 0.0833 0.0833 (   791 PWs)   bands (ev):

    -5.8476   4.8352   5.5602   5.5602

          k =-0.2500 0.2500-0.0833 (   800 PWs)   bands (ev):

    -5.3895   2.7916   4.3756   5.3521

          k =-0.4167 0.4167-0.2500 (   788 PWs)   bands (ev):

    -4.3448   0.1316   3.9145   4.7386

          k = 0.4167-0.4167 0.5833 (   786 PWs)   bands (ev):

    -3.6868  -0.9575   3.9705   4.3751

          k = 0.2500-0.2500 0.4167 (   792 PWs)   bands (ev):

    -4.7374   0.9448   4.4385   4.4510

          k = 0.0833-0.0833 0.2500 (   795 PWs)   bands (ev):

    -5.6162   3.7718   4.9449   5.1072

          k =-0.0833 0.4167 0.0833 (   797 PWs)   bands (ev):

    -5.1575   2.5767   4.2177   4.2442

          k =-0.2500 0.5833-0.0833 (   790 PWs)   bands (ev):

    -4.2843   0.7921   2.9613   3.8694

          k = 0.5833-0.2500 0.7500 (   790 PWs)   bands (ev):

    -3.2263  -0.8691   2.3700   3.6555

          k = 0.4167-0.0833 0.5833 (   786 PWs)   bands (ev):

    -3.9089   0.1322   2.3455   4.1168

          k = 0.2500 0.0833 0.4167 (   792 PWs)   bands (ev):

    -4.9415   1.7843   3.6287   4.7498

          k =-0.0833 0.7500 0.0833 (   787 PWs)   bands (ev):

    -3.5992  -0.0302   2.9333   3.2525

          k = 0.7500-0.0833 0.9167 (   780 PWs)   bands (ev):

    -2.4559  -1.3234   2.1375   2.8702

          k = 0.5833 0.0833 0.7500 (   786 PWs)   bands (ev):

    -2.8222  -0.9807   1.6717   3.3915

          k = 0.4167 0.2500 0.5833 (   791 PWs)   bands (ev):

    -3.8065  -0.4928   3.2250   4.2081

          k =-0.0833-0.9167 0.0833 (   777 PWs)   bands (ev):

    -2.5389  -1.3289   2.6754   3.0446

          k =-0.2500-0.7500-0.0833 (   783 PWs)   bands (ev):

    -3.4404  -0.2413   2.4371   3.1972

          k =-0.0833-0.5833 0.0833 (   795 PWs)   bands (ev):

    -4.4802   1.2955   3.4517   3.6600

          k =-0.2500 0.2500 0.2500 (   790 PWs)   bands (ev):

    -5.1695   1.8554   4.9681   4.9681

          k =-0.4167 0.4167 0.0833 (   794 PWs)   bands (ev):

    -4.5184   0.9244   2.9255   4.8017

          k = 0.4167-0.4167 0.9167 (   787 PWs)   bands (ev):

    -3.3940  -0.4814   1.8717   4.0509

          k = 0.2500-0.2500 0.7500 (   781 PWs)   bands (ev):

    -3.3416  -0.5588   2.3226   3.5906

          k =-0.2500 0.5833 0.2500 (   793 PWs)   bands (ev):

    -4.1132   0.1527   3.3501   3.9491

          k = 0.5833-0.2500 1.0833 (   781 PWs)   bands (ev):

    -3.1553  -0.6073   1.9703   3.1996

          k = 0.4167-0.0833 0.9167 (   772 PWs)   bands (ev):

    -2.3607  -1.3310   1.8255   2.5656

          k =-0.2500-1.0833 0.2500 (   784 PWs)   bands (ev):

    -2.5641  -1.2287   1.7043   3.4035

          k =-0.4167 0.4167 0.4167 (   784 PWs)   bands (ev):

    -4.0345  -0.5743   4.5894   4.5894

          k = 0.4167-0.4167 1.2500 (   786 PWs)   bands (ev):

    -3.4595  -0.8789   2.8190   4.1713

     highest occupied level (ev):     5.5602

!    total energy              =     -19.19272852 Ry
     Harris-Foulkes estimate   =     -19.19272852 Ry
     estimated scf accuracy    <          5.1E-09 Ry

     The total energy is the sum of the following terms:

     one-electron contribution =       4.73998809 Ry
     hartree contribution      =       1.15859730 Ry
     xc contribution           =      -8.56422499 Ry
     ewald contribution        =     -16.52708892 Ry

     convergence has been achieved in   5 iterations

     Writing output data file silicon.10.43.save

     init_run     :      0.62s CPU      1.02s WALL (       1 calls)
     electrons    :      1.34s CPU      1.78s WALL (       1 calls)

     Called by init_run:
     wfcinit      :      0.20s CPU      0.42s WALL (       1 calls)
     potinit      :      0.05s CPU      0.09s WALL (       1 calls)

     Called by electrons:
     c_bands      :      0.79s CPU      1.14s WALL (       6 calls)
     sum_band     :      0.32s CPU      0.37s WALL (       6 calls)
     v_of_rho     :      0.14s CPU      0.19s WALL (       6 calls)
     newd         :      0.16s CPU      0.21s WALL (       6 calls)
     mix_rho      :      0.01s CPU      0.01s WALL (       6 calls)

     Called by c_bands:
     init_us_2    :      0.05s CPU      0.06s WALL (     364 calls)
     cegterg      :      0.67s CPU      0.99s WALL (     168 calls)

     Called by sum_band:
     sum_band:bec :      0.00s CPU      0.00s WALL (     168 calls)
     addusdens    :      0.15s CPU      0.17s WALL (       6 calls)

     Called by *egterg:
     h_psi        :      0.65s CPU      1.05s WALL (     522 calls)
     s_psi        :      0.04s CPU      0.05s WALL (     522 calls)
     g_psi        :      0.00s CPU      0.00s WALL (     326 calls)
     cdiaghg      :      0.04s CPU      0.07s WALL (     466 calls)

     Called by h_psi:
     h_psi:pot    :      0.64s CPU      1.05s WALL (     522 calls)
     h_psi:calbec :      0.08s CPU      0.12s WALL (     522 calls)
     vloc_psi     :      0.52s CPU      0.88s WALL (     522 calls)
     add_vuspsi   :      0.04s CPU      0.05s WALL (     522 calls)

     General routines
     calbec       :      0.09s CPU      0.14s WALL (     690 calls)
     fft          :      0.13s CPU      0.20s WALL (      96 calls)
     ffts         :      0.00s CPU      0.01s WALL (      12 calls)
     fftw         :      0.53s CPU      0.88s WALL (    4642 calls)
     interpolate  :      0.01s CPU      0.02s WALL (      12 calls)
     davcio       :      0.00s CPU      0.00s WALL (      28 calls)

     Parallel routines
     fft_scatter  :      0.37s CPU      0.77s WALL (    4750 calls)

     PWSCF        :     2.18s CPU         3.14s WALL


   This run was terminated on:  10:15:14  10Nov2017            

=------------------------------------------------------------------------------=
   JOB DONE.
=------------------------------------------------------------------------------=
