
     Program PHONON v.6.1 (svn rev. 13369) starts on 10Nov2017 at 15:41:51 

     This program is part of the open-source Quantum ESPRESSO suite
     for quantum simulation of materials; please cite
         "P. Giannozzi et al., J. Phys.:Condens. Matter 21 395502 (2009);
          URL http://www.quantum-espresso.org", 
     in publications or presentations arising from this work. More details at
     http://www.quantum-espresso.org/quote

     Parallel version (MPI), running on     4 processors
     R & G space division:  proc/nbgrp/npool/nimage =       4

     Reading data from directory:
     ./silicon.10.366.save

   Info: using nr1, nr2, nr3 values from input

   Info: using nr1, nr2, nr3 values from input

     IMPORTANT: XC functional enforced from input :
     Exchange-correlation      = SLA  PW   PBE  PBE ( 1  4  3  4 0 0)
     Any further DFT definition will be discarded
     Please, verify this is what you really want


     Parallelization info
     --------------------
     sticks:   dense  smooth     PW     G-vecs:    dense   smooth      PW
     Min         222     109     37                 4369     1545     284
     Max         223     110     38                 4370     1546     285
     Sum         889     439    151                17477     6183    1139



     Dynamical matrices for ( 4, 4, 4)  uniform grid of q-points
     (   8q-points):
       N         xq(1)         xq(2)         xq(3) 
       1   0.000000000   0.000000000   0.000000000
       2  -0.250000000   0.250000000  -0.250000000
       3   0.500000000  -0.500000000   0.500000000
       4   0.000000000   0.500000000   0.000000000
       5   0.750000000  -0.250000000   0.750000000
       6   0.500000000   0.000000000   0.500000000
       7   0.000000000  -1.000000000   0.000000000
       8  -0.500000000  -1.000000000   0.000000000

     Calculation of q =    0.0000000   0.0000000   0.0000000

                                                                                

     bravais-lattice index     =            2
     lattice parameter (alat)  =      10.3660  a.u.
     unit-cell volume          =     278.4669 (a.u.)^3
     number of atoms/cell      =            2
     number of atomic types    =            1
     kinetic-energy cut-off    =      30.0000  Ry
     charge density cut-off    =     240.0000  Ry
     convergence threshold     =      1.0E-12
     beta                      =       0.7000
     number of iterations used =            4
     Exchange-correlation      = SLA  PW   PBE  PBE ( 1  4  3  4 0 0)


     celldm(1)=   10.36600  celldm(2)=    0.00000  celldm(3)=    0.00000
     celldm(4)=    0.00000  celldm(5)=    0.00000  celldm(6)=    0.00000

     crystal axes: (cart. coord. in units of alat)
               a(1) = ( -0.5000  0.0000  0.5000 )  
               a(2) = (  0.0000  0.5000  0.5000 )  
               a(3) = ( -0.5000  0.5000  0.0000 )  

     reciprocal axes: (cart. coord. in units 2 pi/alat)
               b(1) = ( -1.0000 -1.0000  1.0000 )  
               b(2) = (  1.0000  1.0000  1.0000 )  
               b(3) = ( -1.0000  1.0000 -1.0000 )  


     Atoms inside the unit cell: 

     Cartesian axes

     site n.  atom      mass           positions (alat units)
        1     Si  28.0860   tau(    1) = (    0.00000    0.00000    0.00000  )
        2     Si  28.0860   tau(    2) = (    0.25000    0.25000    0.25000  )

     Computing dynamical matrix for 
                    q = (   0.0000000   0.0000000   0.0000000 )

     49 Sym.Ops. (with q -> -q+G )


     G cutoff =  653.2417  (   4369 G-vectors)     FFT grid: ( 40, 40, 40)
     G cutoff =  326.6209  (   1546 G-vectors)  smooth grid: ( 25, 25, 25)
     number of k points=    10

     PseudoPot. # 1 for Si read from file:
     /home/s1333534/quantum_espresso/qe-6.1/pseudo/si_pbe_v1.uspp.F.UPF.txt
     MD5 check sum: a056efeee980c13900f22a371efd63c1
     Pseudo is Ultrasoft + core correction, Zval =  4.0
     Generated by new atomic code, or converted to UPF format
     Using radial grid of  899 points,  6 beta functions with: 
                l(1) =   0
                l(2) =   0
                l(3) =   1
                l(4) =   1
                l(5) =   2
                l(6) =   2
     Q(r) pseudized with  8 coefficients,  rinner =    0.900   0.900   0.900
                                                       0.900   0.900

     Mode symmetry, O_h (m-3m)  point group:


     Electric field:
     Dielectric constant
     Born effective charges in two ways 


     Atomic displacements:
     There are   2 irreducible representations

     Representation     1      3 modes -T_2g G_25' G_5+  To be done

     Representation     2      3 modes -T_1u G_15  G_4-  To be done



     Alpha used in Ewald sum =   2.5000
     PHONON       :     0.97s CPU         1.30s WALL


     Electric Fields Calculation

      iter #   1 total cpu time :     2.9 secs   av.it.:   5.7
      thresh= 1.000E-02 alpha_mix =  0.700 |ddv_scf|^2 =  9.662E-08

      iter #   2 total cpu time :     3.6 secs   av.it.:  11.9
      thresh= 3.108E-05 alpha_mix =  0.700 |ddv_scf|^2 =  5.773E-09

      iter #   3 total cpu time :     4.6 secs   av.it.:  11.7
      thresh= 7.598E-06 alpha_mix =  0.700 |ddv_scf|^2 =  3.904E-10

      iter #   4 total cpu time :     5.4 secs   av.it.:  10.6
      thresh= 1.976E-06 alpha_mix =  0.700 |ddv_scf|^2 =  2.625E-12

      iter #   5 total cpu time :     6.0 secs   av.it.:  11.2
      thresh= 1.620E-07 alpha_mix =  0.700 |ddv_scf|^2 =  2.624E-15

     End of electric fields calculation

          Dielectric constant in cartesian axis 

          (      14.031293475      -0.000000000       0.000000000 )
          (      -0.000000000      14.031293475       0.000000000 )
          (       0.000000000       0.000000000      14.031293475 )

          Effective charges (d Force / dE) in cartesian axis

           atom      1   Si 
      Ex  (       -0.03745       -0.00000        0.00000 )
      Ey  (       -0.00000       -0.03745        0.00000 )
      Ez  (       -0.00000        0.00000       -0.03745 )
           atom      2   Si 
      Ex  (       -0.03745       -0.00000        0.00000 )
      Ey  (       -0.00000       -0.03745        0.00000 )
      Ez  (        0.00000        0.00000       -0.03745 )


     Representation #  1 modes #   1  2  3

     Self-consistent Calculation

      iter #   1 total cpu time :     7.5 secs   av.it.:   5.1
      thresh= 1.000E-02 alpha_mix =  0.700 |ddv_scf|^2 =  1.711E-08

      iter #   2 total cpu time :     8.3 secs   av.it.:  11.8
      thresh= 1.308E-05 alpha_mix =  0.700 |ddv_scf|^2 =  6.988E-10

      iter #   3 total cpu time :     9.1 secs   av.it.:  11.3
      thresh= 2.644E-06 alpha_mix =  0.700 |ddv_scf|^2 =  4.751E-11

      iter #   4 total cpu time :     9.9 secs   av.it.:  10.4
      thresh= 6.893E-07 alpha_mix =  0.700 |ddv_scf|^2 =  1.180E-13

     End of self-consistent calculation

     Convergence has been achieved 


     Representation #  2 modes #   4  5  6

     Self-consistent Calculation

      iter #   1 total cpu time :    10.9 secs   av.it.:   5.2
      thresh= 1.000E-02 alpha_mix =  0.700 |ddv_scf|^2 =  1.349E-08

      iter #   2 total cpu time :    11.9 secs   av.it.:  11.8
      thresh= 1.161E-05 alpha_mix =  0.700 |ddv_scf|^2 =  7.916E-10

      iter #   3 total cpu time :    13.0 secs   av.it.:  11.4
      thresh= 2.814E-06 alpha_mix =  0.700 |ddv_scf|^2 =  4.920E-11

      iter #   4 total cpu time :    13.7 secs   av.it.:  11.5
      thresh= 7.014E-07 alpha_mix =  0.700 |ddv_scf|^2 =  1.929E-13

     End of self-consistent calculation

     Convergence has been achieved 

     Number of q in the star =    1
     List of q in the star:
          1   0.000000000   0.000000000   0.000000000

          Dielectric constant in cartesian axis 

          (      14.031293475      -0.000000000       0.000000000 )
          (      -0.000000000      14.031293475       0.000000000 )
          (       0.000000000       0.000000000      14.031293475 )

          Effective charges (d Force / dE) in cartesian axis

           atom      1   Si 
      Ex  (       -0.03745       -0.00000        0.00000 )
      Ey  (       -0.00000       -0.03745        0.00000 )
      Ez  (       -0.00000        0.00000       -0.03745 )
           atom      2   Si 
      Ex  (       -0.03745       -0.00000        0.00000 )
      Ey  (       -0.00000       -0.03745        0.00000 )
      Ez  (        0.00000        0.00000       -0.03745 )

          Effective charges (d P / du) in cartesian axis 

           atom      1   Si 
      Px  (       -0.07244       -0.00000       -0.00000 )
      Py  (       -0.00000       -0.07244       -0.00000 )
      Pz  (       -0.00000       -0.00000       -0.07244 )
           atom      2   Si 
      Px  (       -0.07244        0.00000        0.00000 )
      Py  (        0.00000       -0.07244       -0.00000 )
      Pz  (        0.00000       -0.00000       -0.07244 )

     Diagonalizing the dynamical matrix

     q = (    0.000000000   0.000000000   0.000000000 ) 

 **************************************************************************
     freq (    1) =      -0.434420 [THz] =     -14.490678 [cm-1]
     freq (    2) =      -0.434420 [THz] =     -14.490678 [cm-1]
     freq (    3) =      -0.434420 [THz] =     -14.490678 [cm-1]
     freq (    4) =      14.929763 [THz] =     498.003275 [cm-1]
     freq (    5) =      14.929763 [THz] =     498.003275 [cm-1]
     freq (    6) =      14.929763 [THz] =     498.003275 [cm-1]
 **************************************************************************

     Mode symmetry, O_h (m-3m)  point group:

     freq (  1 -  3) =        -14.5  [cm-1]   --> T_1u G_15  G_4- I  
     freq (  4 -  6) =        498.0  [cm-1]   --> T_2g G_25' G_5+ R  

     Calculation of q =   -0.2500000   0.2500000  -0.2500000

   Info: using nr1, nr2, nr3 values from input

   Info: using nr1, nr2, nr3 values from input

     Parallelization info
     --------------------
     sticks:   dense  smooth     PW     G-vecs:    dense   smooth      PW
     Min         222     109     37                 4369     1545     309
     Max         223     110     38                 4370     1546     312
     Sum         889     439    151                17477     6183    1243



     bravais-lattice index     =            2
     lattice parameter (alat)  =      10.3660  a.u.
     unit-cell volume          =     278.4669 (a.u.)^3
     number of atoms/cell      =            2
     number of atomic types    =            1
     number of electrons       =         8.00
     number of Kohn-Sham states=            4
     kinetic-energy cutoff     =      30.0000  Ry
     charge density cutoff     =     240.0000  Ry
     Exchange-correlation      = SLA  PW   PBE  PBE ( 1  4  3  4 0 0)

     celldm(1)=  10.366000  celldm(2)=   0.000000  celldm(3)=   0.000000
     celldm(4)=   0.000000  celldm(5)=   0.000000  celldm(6)=   0.000000

     crystal axes: (cart. coord. in units of alat)
               a(1) = (  -0.500000   0.000000   0.500000 )  
               a(2) = (   0.000000   0.500000   0.500000 )  
               a(3) = (  -0.500000   0.500000   0.000000 )  

     reciprocal axes: (cart. coord. in units 2 pi/alat)
               b(1) = ( -1.000000 -1.000000  1.000000 )  
               b(2) = (  1.000000  1.000000  1.000000 )  
               b(3) = ( -1.000000  1.000000 -1.000000 )  


     PseudoPot. # 1 for Si read from file:
     /home/s1333534/quantum_espresso/qe-6.1/pseudo/si_pbe_v1.uspp.F.UPF.txt
     MD5 check sum: a056efeee980c13900f22a371efd63c1
     Pseudo is Ultrasoft + core correction, Zval =  4.0
     Generated by new atomic code, or converted to UPF format
     Using radial grid of  899 points,  6 beta functions with: 
                l(1) =   0
                l(2) =   0
                l(3) =   1
                l(4) =   1
                l(5) =   2
                l(6) =   2
     Q(r) pseudized with  8 coefficients,  rinner =    0.900   0.900   0.900
                                                       0.900   0.900

     atomic species   valence    mass     pseudopotential
        Si             4.00    28.08600     Si( 1.00)

     48 Sym. Ops., with inversion, found



   Cartesian axes

     site n.     atom                  positions (alat units)
         1           Si  tau(   1) = (   0.0000000   0.0000000   0.0000000  )
         2           Si  tau(   2) = (   0.2500000   0.2500000   0.2500000  )

     number of k points=   120

     Number of k-points >= 100: set verbosity='high' to print them.

     Dense  grid:    17477 G-vectors     FFT dimensions: (  40,  40,  40)

     Smooth grid:     6183 G-vectors     FFT dimensions: (  25,  25,  25)

     Estimated max dynamical RAM per process >       1.79MB

     Estimated total allocated dynamical RAM >       7.17MB

     The potential is recalculated from file :
     ./_ph0/silicon.10.366.save/charge-density.dat

     Starting wfc are    8 atomic wfcs

     Band Structure Calculation
     Davidson diagonalization with overlap

     ethr =  1.25E-10,  avg # of iterations = 12.2

     total cpu time spent up to now is        1.6 secs

     End of band structure calculation

     Number of k-points >= 100: set verbosity='high' to print the bands.

     highest occupied level (ev):     5.6032

     Writing output data file silicon.10.366.save

                                                                                

     bravais-lattice index     =            2
     lattice parameter (alat)  =      10.3660  a.u.
     unit-cell volume          =     278.4669 (a.u.)^3
     number of atoms/cell      =            2
     number of atomic types    =            1
     kinetic-energy cut-off    =      30.0000  Ry
     charge density cut-off    =     240.0000  Ry
     convergence threshold     =      1.0E-12
     beta                      =       0.7000
     number of iterations used =            4
     Exchange-correlation      = SLA  PW   PBE  PBE ( 1  4  3  4 0 0)


     celldm(1)=   10.36600  celldm(2)=    0.00000  celldm(3)=    0.00000
     celldm(4)=    0.00000  celldm(5)=    0.00000  celldm(6)=    0.00000

     crystal axes: (cart. coord. in units of alat)
               a(1) = ( -0.5000  0.0000  0.5000 )  
               a(2) = (  0.0000  0.5000  0.5000 )  
               a(3) = ( -0.5000  0.5000  0.0000 )  

     reciprocal axes: (cart. coord. in units 2 pi/alat)
               b(1) = ( -1.0000 -1.0000  1.0000 )  
               b(2) = (  1.0000  1.0000  1.0000 )  
               b(3) = ( -1.0000  1.0000 -1.0000 )  


     Atoms inside the unit cell: 

     Cartesian axes

     site n.  atom      mass           positions (alat units)
        1     Si  28.0860   tau(    1) = (    0.00000    0.00000    0.00000  )
        2     Si  28.0860   tau(    2) = (    0.25000    0.25000    0.25000  )

     Computing dynamical matrix for 
                    q = (  -0.2500000   0.2500000  -0.2500000 )

      6 Sym.Ops. (no q -> -q+G )


     G cutoff =  653.2417  (   4369 G-vectors)     FFT grid: ( 40, 40, 40)
     G cutoff =  326.6209  (   1546 G-vectors)  smooth grid: ( 25, 25, 25)
     number of k points=   120

     PseudoPot. # 1 for Si read from file:
     /home/s1333534/quantum_espresso/qe-6.1/pseudo/si_pbe_v1.uspp.F.UPF.txt
     MD5 check sum: a056efeee980c13900f22a371efd63c1
     Pseudo is Ultrasoft + core correction, Zval =  4.0
     Generated by new atomic code, or converted to UPF format
     Using radial grid of  899 points,  6 beta functions with: 
                l(1) =   0
                l(2) =   0
                l(3) =   1
                l(4) =   1
                l(5) =   2
                l(6) =   2
     Q(r) pseudized with  8 coefficients,  rinner =    0.900   0.900   0.900
                                                       0.900   0.900

     Mode symmetry, C_3v (3m)   point group:


     Atomic displacements:
     There are   4 irreducible representations

     Representation     1      1 modes -A_1  L_1  To be done

     Representation     2      1 modes -A_1  L_1  To be done

     Representation     3      2 modes -E    L_3  To be done

     Representation     4      2 modes -E    L_3  To be done



     Alpha used in Ewald sum =   2.5000
     PHONON       :    12.23s CPU        17.24s WALL



     Representation #  1 mode #   1

     Self-consistent Calculation

      iter #   1 total cpu time :    17.7 secs   av.it.:   5.9
      thresh= 1.000E-02 alpha_mix =  0.700 |ddv_scf|^2 =  3.079E-04

      iter #   2 total cpu time :    18.3 secs   av.it.:   9.2
      thresh= 1.755E-03 alpha_mix =  0.700 |ddv_scf|^2 =  4.710E-03

      iter #   3 total cpu time :    18.9 secs   av.it.:   7.1
      thresh= 6.863E-03 alpha_mix =  0.700 |ddv_scf|^2 =  1.954E-07

      iter #   4 total cpu time :    19.5 secs   av.it.:   9.7
      thresh= 4.420E-05 alpha_mix =  0.700 |ddv_scf|^2 =  1.308E-08

      iter #   5 total cpu time :    20.2 secs   av.it.:   9.8
      thresh= 1.144E-05 alpha_mix =  0.700 |ddv_scf|^2 =  2.262E-10

      iter #   6 total cpu time :    20.8 secs   av.it.:   9.9
      thresh= 1.504E-06 alpha_mix =  0.700 |ddv_scf|^2 =  3.929E-10

      iter #   7 total cpu time :    21.4 secs   av.it.:   8.0
      thresh= 1.982E-06 alpha_mix =  0.700 |ddv_scf|^2 =  5.458E-11

      iter #   8 total cpu time :    22.0 secs   av.it.:   9.2
      thresh= 7.388E-07 alpha_mix =  0.700 |ddv_scf|^2 =  4.010E-13

     End of self-consistent calculation

     Convergence has been achieved 


     Representation #  2 mode #   2

     Self-consistent Calculation

      iter #   1 total cpu time :    22.6 secs   av.it.:   5.9
      thresh= 1.000E-02 alpha_mix =  0.700 |ddv_scf|^2 =  3.079E-04

      iter #   2 total cpu time :    23.3 secs   av.it.:   9.2
      thresh= 1.755E-03 alpha_mix =  0.700 |ddv_scf|^2 =  4.710E-03

      iter #   3 total cpu time :    23.8 secs   av.it.:   7.1
      thresh= 6.863E-03 alpha_mix =  0.700 |ddv_scf|^2 =  1.954E-07

      iter #   4 total cpu time :    24.4 secs   av.it.:   9.7
      thresh= 4.420E-05 alpha_mix =  0.700 |ddv_scf|^2 =  1.308E-08

      iter #   5 total cpu time :    25.1 secs   av.it.:   9.8
      thresh= 1.144E-05 alpha_mix =  0.700 |ddv_scf|^2 =  2.262E-10

      iter #   6 total cpu time :    25.8 secs   av.it.:   9.9
      thresh= 1.504E-06 alpha_mix =  0.700 |ddv_scf|^2 =  3.929E-10

      iter #   7 total cpu time :    26.4 secs   av.it.:   8.0
      thresh= 1.982E-06 alpha_mix =  0.700 |ddv_scf|^2 =  5.458E-11

      iter #   8 total cpu time :    27.1 secs   av.it.:   9.2
      thresh= 7.388E-07 alpha_mix =  0.700 |ddv_scf|^2 =  4.010E-13

     End of self-consistent calculation

     Convergence has been achieved 


     Representation #  3 modes #   3  4

     Self-consistent Calculation

      iter #   1 total cpu time :    28.0 secs   av.it.:   5.2
      thresh= 1.000E-02 alpha_mix =  0.700 |ddv_scf|^2 =  4.809E-08

      iter #   2 total cpu time :    29.4 secs   av.it.:  11.7
      thresh= 2.193E-05 alpha_mix =  0.700 |ddv_scf|^2 =  3.091E-09

      iter #   3 total cpu time :    30.7 secs   av.it.:  11.2
      thresh= 5.560E-06 alpha_mix =  0.700 |ddv_scf|^2 =  1.631E-10

      iter #   4 total cpu time :    31.9 secs   av.it.:  11.1
      thresh= 1.277E-06 alpha_mix =  0.700 |ddv_scf|^2 =  6.308E-13

     End of self-consistent calculation

     Convergence has been achieved 


     Representation #  4 modes #   5  6

     Self-consistent Calculation

      iter #   1 total cpu time :    33.0 secs   av.it.:   5.2
      thresh= 1.000E-02 alpha_mix =  0.700 |ddv_scf|^2 =  4.809E-08

      iter #   2 total cpu time :    34.3 secs   av.it.:  11.7
      thresh= 2.193E-05 alpha_mix =  0.700 |ddv_scf|^2 =  3.089E-09

      iter #   3 total cpu time :    35.7 secs   av.it.:  11.4
      thresh= 5.558E-06 alpha_mix =  0.700 |ddv_scf|^2 =  1.630E-10

      iter #   4 total cpu time :    36.9 secs   av.it.:  11.2
      thresh= 1.277E-06 alpha_mix =  0.700 |ddv_scf|^2 =  6.338E-13

     End of self-consistent calculation

     Convergence has been achieved 

     Number of q in the star =    8
     List of q in the star:
          1  -0.250000000   0.250000000  -0.250000000
          2   0.250000000  -0.250000000  -0.250000000
          3   0.250000000  -0.250000000   0.250000000
          4   0.250000000   0.250000000   0.250000000
          5  -0.250000000  -0.250000000  -0.250000000
          6  -0.250000000  -0.250000000   0.250000000
          7  -0.250000000   0.250000000   0.250000000
          8   0.250000000   0.250000000  -0.250000000

     Diagonalizing the dynamical matrix

     q = (   -0.250000000   0.250000000  -0.250000000 ) 

 **************************************************************************
     freq (    1) =       2.806173 [THz] =      93.603843 [cm-1]
     freq (    2) =       2.806173 [THz] =      93.603843 [cm-1]
     freq (    3) =       6.666372 [THz] =     222.366222 [cm-1]
     freq (    4) =      14.085044 [THz] =     469.826506 [cm-1]
     freq (    5) =      14.340103 [THz] =     478.334352 [cm-1]
     freq (    6) =      14.340103 [THz] =     478.334352 [cm-1]
 **************************************************************************

     Mode symmetry, C_3v (3m)   point group:

     freq (  1 -  2) =         93.6  [cm-1]   --> E    L_3           
     freq (  3 -  3) =        222.4  [cm-1]   --> A_1  L_1           
     freq (  4 -  4) =        469.8  [cm-1]   --> A_1  L_1           
     freq (  5 -  6) =        478.3  [cm-1]   --> E    L_3           

     Calculation of q =    0.5000000  -0.5000000   0.5000000

   Info: using nr1, nr2, nr3 values from input

   Info: using nr1, nr2, nr3 values from input

     Parallelization info
     --------------------
     sticks:   dense  smooth     PW     G-vecs:    dense   smooth      PW
     Min         222     109     40                 4369     1545     351
     Max         223     110     41                 4370     1546     354
     Sum         889     439    163                17477     6183    1411



     bravais-lattice index     =            2
     lattice parameter (alat)  =      10.3660  a.u.
     unit-cell volume          =     278.4669 (a.u.)^3
     number of atoms/cell      =            2
     number of atomic types    =            1
     number of electrons       =         8.00
     number of Kohn-Sham states=            4
     kinetic-energy cutoff     =      30.0000  Ry
     charge density cutoff     =     240.0000  Ry
     Exchange-correlation      = SLA  PW   PBE  PBE ( 1  4  3  4 0 0)

     celldm(1)=  10.366000  celldm(2)=   0.000000  celldm(3)=   0.000000
     celldm(4)=   0.000000  celldm(5)=   0.000000  celldm(6)=   0.000000

     crystal axes: (cart. coord. in units of alat)
               a(1) = (  -0.500000   0.000000   0.500000 )  
               a(2) = (   0.000000   0.500000   0.500000 )  
               a(3) = (  -0.500000   0.500000   0.000000 )  

     reciprocal axes: (cart. coord. in units 2 pi/alat)
               b(1) = ( -1.000000 -1.000000  1.000000 )  
               b(2) = (  1.000000  1.000000  1.000000 )  
               b(3) = ( -1.000000  1.000000 -1.000000 )  


     PseudoPot. # 1 for Si read from file:
     /home/s1333534/quantum_espresso/qe-6.1/pseudo/si_pbe_v1.uspp.F.UPF.txt
     MD5 check sum: a056efeee980c13900f22a371efd63c1
     Pseudo is Ultrasoft + core correction, Zval =  4.0
     Generated by new atomic code, or converted to UPF format
     Using radial grid of  899 points,  6 beta functions with: 
                l(1) =   0
                l(2) =   0
                l(3) =   1
                l(4) =   1
                l(5) =   2
                l(6) =   2
     Q(r) pseudized with  8 coefficients,  rinner =    0.900   0.900   0.900
                                                       0.900   0.900

     atomic species   valence    mass     pseudopotential
        Si             4.00    28.08600     Si( 1.00)

     48 Sym. Ops., with inversion, found



   Cartesian axes

     site n.     atom                  positions (alat units)
         1           Si  tau(   1) = (   0.0000000   0.0000000   0.0000000  )
         2           Si  tau(   2) = (   0.2500000   0.2500000   0.2500000  )

     number of k points=    60
                       cart. coord. in units 2pi/alat
        k(    1) = (  -0.1250000   0.1250000   0.1250000), wk =   0.0468750
        k(    2) = (   0.3750000  -0.3750000   0.6250000), wk =   0.0000000
        k(    3) = (  -0.3750000   0.3750000  -0.1250000), wk =   0.0468750
        k(    4) = (   0.1250000  -0.1250000   0.3750000), wk =   0.0000000
        k(    5) = (   0.3750000  -0.3750000   0.6250000), wk =   0.0468750
        k(    6) = (   0.8750000  -0.8750000   1.1250000), wk =   0.0000000
        k(    7) = (   0.1250000  -0.1250000   0.3750000), wk =   0.0468750
        k(    8) = (   0.6250000  -0.6250000   0.8750000), wk =   0.0000000
        k(    9) = (  -0.1250000   0.6250000   0.1250000), wk =   0.0937500
        k(   10) = (   0.3750000   0.1250000   0.6250000), wk =   0.0000000
        k(   11) = (   0.6250000  -0.1250000   0.8750000), wk =   0.0937500
        k(   12) = (   1.1250000  -0.6250000   1.3750000), wk =   0.0000000
        k(   13) = (   0.3750000   0.1250000   0.6250000), wk =   0.0937500
        k(   14) = (   0.8750000  -0.3750000   1.1250000), wk =   0.0000000
        k(   15) = (  -0.1250000  -0.8750000   0.1250000), wk =   0.0937500
        k(   16) = (   0.3750000  -1.3750000   0.6250000), wk =   0.0000000
        k(   17) = (  -0.3750000   0.3750000   0.3750000), wk =   0.0468750
        k(   18) = (   0.1250000  -0.1250000   0.8750000), wk =   0.0000000
        k(   19) = (   0.3750000  -0.3750000   1.1250000), wk =   0.0468750
        k(   20) = (   0.8750000  -0.8750000   1.6250000), wk =   0.0000000
        k(   21) = (   0.1250000  -0.1250000   0.1250000), wk =   0.0156250
        k(   22) = (   0.6250000  -0.6250000   0.6250000), wk =   0.0000000
        k(   23) = (  -0.3750000  -0.3750000  -0.1250000), wk =   0.0937500
        k(   24) = (   0.1250000  -0.8750000   0.3750000), wk =   0.0000000
        k(   25) = (  -0.1250000  -0.3750000   0.3750000), wk =   0.0468750
        k(   26) = (   0.3750000  -0.8750000   0.8750000), wk =   0.0000000
        k(   27) = (   0.3750000   0.3750000   0.6250000), wk =   0.0937500
        k(   28) = (   0.8750000  -0.1250000   1.1250000), wk =   0.0000000
        k(   29) = (   0.6250000   0.3750000  -0.3750000), wk =   0.0468750
        k(   30) = (   1.1250000  -0.1250000   0.1250000), wk =   0.0000000
        k(   31) = (   0.1250000   0.1250000   0.3750000), wk =   0.0937500
        k(   32) = (   0.6250000  -0.3750000   0.8750000), wk =   0.0000000
        k(   33) = (   0.3750000   0.1250000  -0.1250000), wk =   0.0468750
        k(   34) = (   0.8750000  -0.3750000   0.3750000), wk =   0.0000000
        k(   35) = (  -0.1250000  -0.6250000  -0.1250000), wk =   0.0468750
        k(   36) = (   0.3750000  -1.1250000   0.3750000), wk =   0.0000000
        k(   37) = (   0.1250000  -0.6250000   0.1250000), wk =   0.0468750
        k(   38) = (   0.6250000  -1.1250000   0.6250000), wk =   0.0000000
        k(   39) = (   0.6250000   0.1250000   0.8750000), wk =   0.0937500
        k(   40) = (   1.1250000  -0.3750000   1.3750000), wk =   0.0000000
        k(   41) = (  -0.8750000   0.1250000   0.6250000), wk =   0.0937500
        k(   42) = (  -0.3750000  -0.3750000   1.1250000), wk =   0.0000000
        k(   43) = (   0.8750000   0.1250000  -0.6250000), wk =   0.0937500
        k(   44) = (   1.3750000  -0.3750000  -0.1250000), wk =   0.0000000
        k(   45) = (   0.3750000  -0.1250000   0.6250000), wk =   0.0937500
        k(   46) = (   0.8750000  -0.6250000   1.1250000), wk =   0.0000000
        k(   47) = (  -0.6250000  -0.1250000   0.3750000), wk =   0.0937500
        k(   48) = (  -0.1250000  -0.6250000   0.8750000), wk =   0.0000000
        k(   49) = (   0.6250000  -0.1250000  -0.3750000), wk =   0.0937500
        k(   50) = (   1.1250000  -0.6250000   0.1250000), wk =   0.0000000
        k(   51) = (  -0.1250000   0.8750000  -0.1250000), wk =   0.0468750
        k(   52) = (   0.3750000   0.3750000   0.3750000), wk =   0.0000000
        k(   53) = (   0.1250000   0.8750000   0.1250000), wk =   0.0468750
        k(   54) = (   0.6250000   0.3750000   0.6250000), wk =   0.0000000
        k(   55) = (   0.3750000  -0.3750000   0.3750000), wk =   0.0156250
        k(   56) = (   0.8750000  -0.8750000   0.8750000), wk =   0.0000000
        k(   57) = (   0.3750000   0.3750000   1.1250000), wk =   0.0937500
        k(   58) = (   0.8750000  -0.1250000   1.6250000), wk =   0.0000000
        k(   59) = (   1.1250000   0.3750000  -0.3750000), wk =   0.0468750
        k(   60) = (   1.6250000  -0.1250000   0.1250000), wk =   0.0000000

     Dense  grid:    17477 G-vectors     FFT dimensions: (  40,  40,  40)

     Smooth grid:     6183 G-vectors     FFT dimensions: (  25,  25,  25)

     Estimated max dynamical RAM per process >       1.79MB

     Estimated total allocated dynamical RAM >       7.17MB

     The potential is recalculated from file :
     ./_ph0/silicon.10.366.save/charge-density.dat

     Starting wfc are    8 atomic wfcs

     Band Structure Calculation
     Davidson diagonalization with overlap

     ethr =  1.25E-10,  avg # of iterations = 12.2

     total cpu time spent up to now is        2.6 secs

     End of band structure calculation

          k =-0.1250 0.1250 0.1250 (   779 PWs)   bands (ev):

    -5.6721   4.2934   5.6032   5.6032

          k = 0.3750-0.3750 0.6250 (   773 PWs)   bands (ev):

    -3.5286  -0.7394   3.6503   4.3621

          k =-0.3750 0.3750-0.1250 (   781 PWs)   bands (ev):

    -4.6548   1.3173   3.6340   5.1256

          k = 0.1250-0.1250 0.3750 (   781 PWs)   bands (ev):

    -5.1488   2.6818   4.6055   4.6640

          k = 0.3750-0.3750 0.6250 (   773 PWs)   bands (ev):

    -3.5286  -0.7394   3.6503   4.3621

          k = 0.8750-0.8750 1.1250 (   779 PWs)   bands (ev):

    -5.6721   4.2934   5.6032   5.6032

          k = 0.1250-0.1250 0.3750 (   781 PWs)   bands (ev):

    -5.1488   2.6818   4.6055   4.6640

          k = 0.6250-0.6250 0.8750 (   781 PWs)   bands (ev):

    -4.6548   1.3173   3.6340   5.1256

          k =-0.1250 0.6250 0.1250 (   775 PWs)   bands (ev):

    -4.1267   0.9749   3.2909   3.7391

          k = 0.3750 0.1250 0.6250 (   775 PWs)   bands (ev):

    -3.7160   0.1147   2.6532   4.0116

          k = 0.6250-0.1250 0.8750 (   762 PWs)   bands (ev):

    -2.5042  -0.9724   1.9531   3.0185

          k = 1.1250-0.6250 1.3750 (   781 PWs)   bands (ev):

    -4.6548   1.3173   3.6340   5.1256

          k = 0.3750 0.1250 0.6250 (   775 PWs)   bands (ev):

    -3.7160   0.1147   2.6532   4.0116

          k = 0.8750-0.3750 1.1250 (   775 PWs)   bands (ev):

    -4.1267   0.9749   3.2909   3.7391

          k =-0.1250-0.8750 0.1250 (   766 PWs)   bands (ev):

    -2.6681  -0.8772   2.5562   3.2760

          k = 0.3750-1.3750 0.6250 (   773 PWs)   bands (ev):

    -3.5286  -0.7394   3.6503   4.3621

          k =-0.3750 0.3750 0.3750 (   769 PWs)   bands (ev):

    -4.2268   0.0423   4.8215   4.8215

          k = 0.1250-0.1250 0.8750 (   766 PWs)   bands (ev):

    -2.6681  -0.8772   2.5562   3.2760

          k = 0.3750-0.3750 1.1250 (   773 PWs)   bands (ev):

    -3.0370  -0.6649   2.0072   4.0486

          k = 0.8750-0.8750 1.6250 (   775 PWs)   bands (ev):

    -4.1267   0.9749   3.2909   3.7391

          k = 0.1250-0.1250 0.1250 (   779 PWs)   bands (ev):

    -5.6721   4.2934   5.6032   5.6032

          k = 0.6250-0.6250 0.6250 (   769 PWs)   bands (ev):

    -4.2268   0.0423   4.8215   4.8215

          k =-0.3750-0.3750-0.1250 (   781 PWs)   bands (ev):

    -4.6548   1.3173   3.6340   5.1256

          k = 0.1250-0.8750 0.3750 (   762 PWs)   bands (ev):

    -2.5042  -0.9724   1.9531   3.0185

          k =-0.1250-0.3750 0.3750 (   781 PWs)   bands (ev):

    -4.6548   1.3173   3.6340   5.1256

          k = 0.3750-0.8750 0.8750 (   775 PWs)   bands (ev):

    -4.1267   0.9749   3.2909   3.7391

          k = 0.3750 0.3750 0.6250 (   773 PWs)   bands (ev):

    -3.5286  -0.7394   3.6503   4.3621

          k = 0.8750-0.1250 1.1250 (   766 PWs)   bands (ev):

    -2.6681  -0.8772   2.5562   3.2760

          k = 0.6250 0.3750-0.3750 (   773 PWs)   bands (ev):

    -3.5286  -0.7394   3.6503   4.3621

          k = 1.1250-0.1250 0.1250 (   766 PWs)   bands (ev):

    -2.6681  -0.8772   2.5562   3.2760

          k = 0.1250 0.1250 0.3750 (   781 PWs)   bands (ev):

    -5.1488   2.6818   4.6055   4.6640

          k = 0.6250-0.3750 0.8750 (   775 PWs)   bands (ev):

    -3.7160   0.1147   2.6532   4.0116

          k = 0.3750 0.1250-0.1250 (   781 PWs)   bands (ev):

    -5.1488   2.6818   4.6055   4.6640

          k = 0.8750-0.3750 0.3750 (   773 PWs)   bands (ev):

    -3.0370  -0.6649   2.0072   4.0486

          k =-0.1250-0.6250-0.1250 (   775 PWs)   bands (ev):

    -4.1267   0.9749   3.2909   3.7391

          k = 0.3750-1.1250 0.3750 (   773 PWs)   bands (ev):

    -3.0370  -0.6649   2.0072   4.0486

          k = 0.1250-0.6250 0.1250 (   775 PWs)   bands (ev):

    -4.1267   0.9749   3.2909   3.7391

          k = 0.6250-1.1250 0.6250 (   781 PWs)   bands (ev):

    -4.6548   1.3173   3.6340   5.1256

          k = 0.6250 0.1250 0.8750 (   762 PWs)   bands (ev):

    -2.5042  -0.9724   1.9531   3.0185

          k = 1.1250-0.3750 1.3750 (   775 PWs)   bands (ev):

    -3.7160   0.1147   2.6532   4.0116

          k =-0.8750 0.1250 0.6250 (   762 PWs)   bands (ev):

    -2.5042  -0.9724   1.9531   3.0185

          k =-0.3750-0.3750 1.1250 (   773 PWs)   bands (ev):

    -3.0370  -0.6649   2.0072   4.0486

          k = 0.8750 0.1250-0.6250 (   762 PWs)   bands (ev):

    -2.5042  -0.9724   1.9531   3.0185

          k = 1.3750-0.3750-0.1250 (   775 PWs)   bands (ev):

    -3.7160   0.1147   2.6532   4.0116

          k = 0.3750-0.1250 0.6250 (   775 PWs)   bands (ev):

    -3.7160   0.1147   2.6532   4.0116

          k = 0.8750-0.6250 1.1250 (   781 PWs)   bands (ev):

    -5.1488   2.6818   4.6055   4.6640

          k =-0.6250-0.1250 0.3750 (   775 PWs)   bands (ev):

    -3.7160   0.1147   2.6532   4.0116

          k =-0.1250-0.6250 0.8750 (   762 PWs)   bands (ev):

    -2.5042  -0.9724   1.9531   3.0185

          k = 0.6250-0.1250-0.3750 (   775 PWs)   bands (ev):

    -3.7160   0.1147   2.6532   4.0116

          k = 1.1250-0.6250 0.1250 (   762 PWs)   bands (ev):

    -2.5042  -0.9724   1.9531   3.0185

          k =-0.1250 0.8750-0.1250 (   766 PWs)   bands (ev):

    -2.6681  -0.8772   2.5562   3.2760

          k = 0.3750 0.3750 0.3750 (   769 PWs)   bands (ev):

    -4.2268   0.0423   4.8215   4.8215

          k = 0.1250 0.8750 0.1250 (   766 PWs)   bands (ev):

    -2.6681  -0.8772   2.5562   3.2760

          k = 0.6250 0.3750 0.6250 (   773 PWs)   bands (ev):

    -3.5286  -0.7394   3.6503   4.3621

          k = 0.3750-0.3750 0.3750 (   769 PWs)   bands (ev):

    -4.2268   0.0423   4.8215   4.8215

          k = 0.8750-0.8750 0.8750 (   779 PWs)   bands (ev):

    -5.6721   4.2934   5.6032   5.6032

          k = 0.3750 0.3750 1.1250 (   773 PWs)   bands (ev):

    -3.0370  -0.6649   2.0072   4.0486

          k = 0.8750-0.1250 1.6250 (   762 PWs)   bands (ev):

    -2.5042  -0.9724   1.9531   3.0185

          k = 1.1250 0.3750-0.3750 (   773 PWs)   bands (ev):

    -3.0370  -0.6649   2.0072   4.0486

          k = 1.6250-0.1250 0.1250 (   781 PWs)   bands (ev):

    -5.1488   2.6818   4.6055   4.6640

     highest occupied level (ev):     5.6032

     Writing output data file silicon.10.366.save

                                                                                

     bravais-lattice index     =            2
     lattice parameter (alat)  =      10.3660  a.u.
     unit-cell volume          =     278.4669 (a.u.)^3
     number of atoms/cell      =            2
     number of atomic types    =            1
     kinetic-energy cut-off    =      30.0000  Ry
     charge density cut-off    =     240.0000  Ry
     convergence threshold     =      1.0E-12
     beta                      =       0.7000
     number of iterations used =            4
     Exchange-correlation      = SLA  PW   PBE  PBE ( 1  4  3  4 0 0)


     celldm(1)=   10.36600  celldm(2)=    0.00000  celldm(3)=    0.00000
     celldm(4)=    0.00000  celldm(5)=    0.00000  celldm(6)=    0.00000

     crystal axes: (cart. coord. in units of alat)
               a(1) = ( -0.5000  0.0000  0.5000 )  
               a(2) = (  0.0000  0.5000  0.5000 )  
               a(3) = ( -0.5000  0.5000  0.0000 )  

     reciprocal axes: (cart. coord. in units 2 pi/alat)
               b(1) = ( -1.0000 -1.0000  1.0000 )  
               b(2) = (  1.0000  1.0000  1.0000 )  
               b(3) = ( -1.0000  1.0000 -1.0000 )  


     Atoms inside the unit cell: 

     Cartesian axes

     site n.  atom      mass           positions (alat units)
        1     Si  28.0860   tau(    1) = (    0.00000    0.00000    0.00000  )
        2     Si  28.0860   tau(    2) = (    0.25000    0.25000    0.25000  )

     Computing dynamical matrix for 
                    q = (   0.5000000  -0.5000000   0.5000000 )

     13 Sym.Ops. (with q -> -q+G )


     G cutoff =  653.2417  (   4369 G-vectors)     FFT grid: ( 40, 40, 40)
     G cutoff =  326.6209  (   1546 G-vectors)  smooth grid: ( 25, 25, 25)
     number of k points=    60

     PseudoPot. # 1 for Si read from file:
     /home/s1333534/quantum_espresso/qe-6.1/pseudo/si_pbe_v1.uspp.F.UPF.txt
     MD5 check sum: a056efeee980c13900f22a371efd63c1
     Pseudo is Ultrasoft + core correction, Zval =  4.0
     Generated by new atomic code, or converted to UPF format
     Using radial grid of  899 points,  6 beta functions with: 
                l(1) =   0
                l(2) =   0
                l(3) =   1
                l(4) =   1
                l(5) =   2
                l(6) =   2
     Q(r) pseudized with  8 coefficients,  rinner =    0.900   0.900   0.900
                                                       0.900   0.900


     Atomic displacements:
     There are   4 irreducible representations

     Representation     1      1 modes -  To be done

     Representation     2      1 modes -  To be done

     Representation     3      2 modes -  To be done

     Representation     4      2 modes -  To be done



     Alpha used in Ewald sum =   2.5000
     PHONON       :    29.91s CPU        39.15s WALL



     Representation #  1 mode #   1

     Self-consistent Calculation

      iter #   1 total cpu time :    39.5 secs   av.it.:   5.0
      thresh= 1.000E-02 alpha_mix =  0.700 |ddv_scf|^2 =  3.019E-06

      iter #   2 total cpu time :    39.9 secs   av.it.:  10.1
      thresh= 1.738E-04 alpha_mix =  0.700 |ddv_scf|^2 =  2.795E-06

      iter #   3 total cpu time :    40.3 secs   av.it.:   9.4
      thresh= 1.672E-04 alpha_mix =  0.700 |ddv_scf|^2 =  1.649E-09

      iter #   4 total cpu time :    40.8 secs   av.it.:   9.6
      thresh= 4.061E-06 alpha_mix =  0.700 |ddv_scf|^2 =  1.557E-11

      iter #   5 total cpu time :    41.2 secs   av.it.:   9.5
      thresh= 3.945E-07 alpha_mix =  0.700 |ddv_scf|^2 =  2.283E-13

     End of self-consistent calculation

     Convergence has been achieved 


     Representation #  2 mode #   2

     Self-consistent Calculation

      iter #   1 total cpu time :    41.6 secs   av.it.:   6.0
      thresh= 1.000E-02 alpha_mix =  0.700 |ddv_scf|^2 =  4.291E-05

      iter #   2 total cpu time :    42.0 secs   av.it.:  10.0
      thresh= 6.551E-04 alpha_mix =  0.700 |ddv_scf|^2 =  1.339E-04

      iter #   3 total cpu time :    42.7 secs   av.it.:   8.9
      thresh= 1.157E-03 alpha_mix =  0.700 |ddv_scf|^2 =  1.025E-08

      iter #   4 total cpu time :    43.1 secs   av.it.:  10.1
      thresh= 1.012E-05 alpha_mix =  0.700 |ddv_scf|^2 =  5.179E-10

      iter #   5 total cpu time :    43.5 secs   av.it.:  10.4
      thresh= 2.276E-06 alpha_mix =  0.700 |ddv_scf|^2 =  1.519E-11

      iter #   6 total cpu time :    43.9 secs   av.it.:  10.0
      thresh= 3.898E-07 alpha_mix =  0.700 |ddv_scf|^2 =  1.125E-13

     End of self-consistent calculation

     Convergence has been achieved 


     Representation #  3 modes #   3  4

     Self-consistent Calculation

      iter #   1 total cpu time :    44.6 secs   av.it.:   5.1
      thresh= 1.000E-02 alpha_mix =  0.700 |ddv_scf|^2 =  1.950E-08

      iter #   2 total cpu time :    45.4 secs   av.it.:  11.1
      thresh= 1.396E-05 alpha_mix =  0.700 |ddv_scf|^2 =  1.146E-09

      iter #   3 total cpu time :    46.2 secs   av.it.:  10.9
      thresh= 3.385E-06 alpha_mix =  0.700 |ddv_scf|^2 =  3.884E-11

      iter #   4 total cpu time :    46.9 secs   av.it.:  10.8
      thresh= 6.232E-07 alpha_mix =  0.700 |ddv_scf|^2 =  3.175E-13

     End of self-consistent calculation

     Convergence has been achieved 


     Representation #  4 modes #   5  6

     Self-consistent Calculation

      iter #   1 total cpu time :    47.6 secs   av.it.:   5.2
      thresh= 1.000E-02 alpha_mix =  0.700 |ddv_scf|^2 =  1.001E-07

      iter #   2 total cpu time :    48.5 secs   av.it.:  11.2
      thresh= 3.165E-05 alpha_mix =  0.700 |ddv_scf|^2 =  8.049E-09

      iter #   3 total cpu time :    49.3 secs   av.it.:  11.2
      thresh= 8.971E-06 alpha_mix =  0.700 |ddv_scf|^2 =  2.108E-10

      iter #   4 total cpu time :    50.0 secs   av.it.:  10.1
      thresh= 1.452E-06 alpha_mix =  0.700 |ddv_scf|^2 =  3.873E-13

     End of self-consistent calculation

     Convergence has been achieved 

     Number of q in the star =    4
     List of q in the star:
          1   0.500000000  -0.500000000   0.500000000
          2   0.500000000   0.500000000   0.500000000
          3  -0.500000000   0.500000000   0.500000000
          4   0.500000000   0.500000000  -0.500000000

     Diagonalizing the dynamical matrix

     q = (    0.500000000  -0.500000000   0.500000000 ) 

 **************************************************************************
     freq (    1) =       3.351965 [THz] =     111.809533 [cm-1]
     freq (    2) =       3.351965 [THz] =     111.809533 [cm-1]
     freq (    3) =      11.059498 [THz] =     368.905159 [cm-1]
     freq (    4) =      11.784340 [THz] =     393.083281 [cm-1]
     freq (    5) =      14.117157 [THz] =     470.897654 [cm-1]
     freq (    6) =      14.117157 [THz] =     470.897654 [cm-1]
 **************************************************************************

     Calculation of q =    0.0000000   0.5000000   0.0000000

   Info: using nr1, nr2, nr3 values from input

   Info: using nr1, nr2, nr3 values from input

     Parallelization info
     --------------------
     sticks:   dense  smooth     PW     G-vecs:    dense   smooth      PW
     Min         222     109     40                 4369     1545     322
     Max         223     110     42                 4370     1547     323
     Sum         889     439    163                17477     6183    1291



     bravais-lattice index     =            2
     lattice parameter (alat)  =      10.3660  a.u.
     unit-cell volume          =     278.4669 (a.u.)^3
     number of atoms/cell      =            2
     number of atomic types    =            1
     number of electrons       =         8.00
     number of Kohn-Sham states=            4
     kinetic-energy cutoff     =      30.0000  Ry
     charge density cutoff     =     240.0000  Ry
     Exchange-correlation      = SLA  PW   PBE  PBE ( 1  4  3  4 0 0)

     celldm(1)=  10.366000  celldm(2)=   0.000000  celldm(3)=   0.000000
     celldm(4)=   0.000000  celldm(5)=   0.000000  celldm(6)=   0.000000

     crystal axes: (cart. coord. in units of alat)
               a(1) = (  -0.500000   0.000000   0.500000 )  
               a(2) = (   0.000000   0.500000   0.500000 )  
               a(3) = (  -0.500000   0.500000   0.000000 )  

     reciprocal axes: (cart. coord. in units 2 pi/alat)
               b(1) = ( -1.000000 -1.000000  1.000000 )  
               b(2) = (  1.000000  1.000000  1.000000 )  
               b(3) = ( -1.000000  1.000000 -1.000000 )  


     PseudoPot. # 1 for Si read from file:
     /home/s1333534/quantum_espresso/qe-6.1/pseudo/si_pbe_v1.uspp.F.UPF.txt
     MD5 check sum: a056efeee980c13900f22a371efd63c1
     Pseudo is Ultrasoft + core correction, Zval =  4.0
     Generated by new atomic code, or converted to UPF format
     Using radial grid of  899 points,  6 beta functions with: 
                l(1) =   0
                l(2) =   0
                l(3) =   1
                l(4) =   1
                l(5) =   2
                l(6) =   2
     Q(r) pseudized with  8 coefficients,  rinner =    0.900   0.900   0.900
                                                       0.900   0.900

     atomic species   valence    mass     pseudopotential
        Si             4.00    28.08600     Si( 1.00)

     48 Sym. Ops., with inversion, found



   Cartesian axes

     site n.     atom                  positions (alat units)
         1           Si  tau(   1) = (   0.0000000   0.0000000   0.0000000  )
         2           Si  tau(   2) = (   0.2500000   0.2500000   0.2500000  )

     number of k points=    80
                       cart. coord. in units 2pi/alat
        k(    1) = (  -0.1250000   0.1250000   0.1250000), wk =   0.0312500
        k(    2) = (  -0.1250000   0.6250000   0.1250000), wk =   0.0000000
        k(    3) = (  -0.3750000   0.3750000  -0.1250000), wk =   0.0625000
        k(    4) = (  -0.3750000   0.8750000  -0.1250000), wk =   0.0000000
        k(    5) = (   0.3750000  -0.3750000   0.6250000), wk =   0.0625000
        k(    6) = (   0.3750000   0.1250000   0.6250000), wk =   0.0000000
        k(    7) = (   0.1250000  -0.1250000   0.3750000), wk =   0.0625000
        k(    8) = (   0.1250000   0.3750000   0.3750000), wk =   0.0000000
        k(    9) = (  -0.1250000   0.6250000   0.1250000), wk =   0.0312500
        k(   10) = (  -0.1250000   1.1250000   0.1250000), wk =   0.0000000
        k(   11) = (   0.6250000  -0.1250000   0.8750000), wk =   0.0625000
        k(   12) = (   0.6250000   0.3750000   0.8750000), wk =   0.0000000
        k(   13) = (   0.3750000   0.1250000   0.6250000), wk =   0.0625000
        k(   14) = (   0.3750000   0.6250000   0.6250000), wk =   0.0000000
        k(   15) = (  -0.1250000  -0.8750000   0.1250000), wk =   0.0312500
        k(   16) = (  -0.1250000  -0.3750000   0.1250000), wk =   0.0000000
        k(   17) = (  -0.3750000   0.3750000   0.3750000), wk =   0.0312500
        k(   18) = (  -0.3750000   0.8750000   0.3750000), wk =   0.0000000
        k(   19) = (   0.3750000  -0.3750000   1.1250000), wk =   0.0625000
        k(   20) = (   0.3750000   0.1250000   1.1250000), wk =   0.0000000
        k(   21) = (  -0.1250000  -0.1250000   0.1250000), wk =   0.0312500
        k(   22) = (  -0.1250000   0.3750000   0.1250000), wk =   0.0000000
        k(   23) = (   0.1250000  -0.3750000   0.3750000), wk =   0.0625000
        k(   24) = (   0.1250000   0.1250000   0.3750000), wk =   0.0000000
        k(   25) = (   0.3750000  -0.1250000   0.3750000), wk =   0.0312500
        k(   26) = (   0.3750000   0.3750000   0.3750000), wk =   0.0000000
        k(   27) = (   0.3750000   0.1250000   0.3750000), wk =   0.0312500
        k(   28) = (   0.3750000   0.6250000   0.3750000), wk =   0.0000000
        k(   29) = (  -0.6250000   0.3750000  -0.3750000), wk =   0.0625000
        k(   30) = (  -0.6250000   0.8750000  -0.3750000), wk =   0.0000000
        k(   31) = (  -0.3750000   0.6250000  -0.3750000), wk =   0.0312500
        k(   32) = (  -0.3750000   1.1250000  -0.3750000), wk =   0.0000000
        k(   33) = (  -0.3750000  -0.6250000  -0.3750000), wk =   0.0312500
        k(   34) = (  -0.3750000  -0.1250000  -0.3750000), wk =   0.0000000
        k(   35) = (  -0.3750000   0.1250000  -0.1250000), wk =   0.0625000
        k(   36) = (  -0.3750000   0.6250000  -0.1250000), wk =   0.0000000
        k(   37) = (  -0.1250000   0.3750000  -0.1250000), wk =   0.0312500
        k(   38) = (  -0.1250000   0.8750000  -0.1250000), wk =   0.0000000
        k(   39) = (  -0.1250000  -0.3750000  -0.1250000), wk =   0.0312500
        k(   40) = (  -0.1250000   0.1250000  -0.1250000), wk =   0.0000000
        k(   41) = (  -0.1250000  -0.6250000   0.1250000), wk =   0.0312500
        k(   42) = (  -0.1250000  -0.1250000   0.1250000), wk =   0.0000000
        k(   43) = (   0.6250000  -0.1250000  -0.1250000), wk =   0.0625000
        k(   44) = (   0.6250000   0.3750000  -0.1250000), wk =   0.0000000
        k(   45) = (   0.6250000   0.1250000   0.1250000), wk =   0.0625000
        k(   46) = (   0.6250000   0.6250000   0.1250000), wk =   0.0000000
        k(   47) = (  -0.8750000   0.1250000  -0.6250000), wk =   0.0625000
        k(   48) = (  -0.8750000   0.6250000  -0.6250000), wk =   0.0000000
        k(   49) = (  -0.1250000   0.6250000  -0.8750000), wk =   0.0625000
        k(   50) = (  -0.1250000   1.1250000  -0.8750000), wk =   0.0000000
        k(   51) = (  -0.1250000   0.8750000  -0.6250000), wk =   0.0625000
        k(   52) = (  -0.1250000   1.3750000  -0.6250000), wk =   0.0000000
        k(   53) = (  -0.1250000  -0.8750000  -0.6250000), wk =   0.0625000
        k(   54) = (  -0.1250000  -0.3750000  -0.6250000), wk =   0.0000000
        k(   55) = (   0.8750000  -0.6250000   0.1250000), wk =   0.0625000
        k(   56) = (   0.8750000  -0.1250000   0.1250000), wk =   0.0000000
        k(   57) = (  -0.6250000  -0.1250000  -0.3750000), wk =   0.0625000
        k(   58) = (  -0.6250000   0.3750000  -0.3750000), wk =   0.0000000
        k(   59) = (   0.1250000   0.3750000  -0.6250000), wk =   0.0625000
        k(   60) = (   0.1250000   0.8750000  -0.6250000), wk =   0.0000000
        k(   61) = (   0.1250000   0.6250000  -0.3750000), wk =   0.0625000
        k(   62) = (   0.1250000   1.1250000  -0.3750000), wk =   0.0000000
        k(   63) = (   0.1250000  -0.6250000  -0.3750000), wk =   0.0625000
        k(   64) = (   0.1250000  -0.1250000  -0.3750000), wk =   0.0000000
        k(   65) = (   0.6250000  -0.3750000  -0.1250000), wk =   0.0625000
        k(   66) = (   0.6250000   0.1250000  -0.1250000), wk =   0.0000000
        k(   67) = (  -0.1250000   0.8750000   0.1250000), wk =   0.0312500
        k(   68) = (  -0.1250000   1.3750000   0.1250000), wk =   0.0000000
        k(   69) = (  -0.8750000  -0.1250000  -0.1250000), wk =   0.0625000
        k(   70) = (  -0.8750000   0.3750000  -0.1250000), wk =   0.0000000
        k(   71) = (  -0.8750000   0.1250000   0.1250000), wk =   0.0625000
        k(   72) = (  -0.8750000   0.6250000   0.1250000), wk =   0.0000000
        k(   73) = (  -0.3750000  -0.3750000   0.3750000), wk =   0.0312500
        k(   74) = (  -0.3750000   0.1250000   0.3750000), wk =   0.0000000
        k(   75) = (  -1.1250000   0.3750000  -0.3750000), wk =   0.0625000
        k(   76) = (  -1.1250000   0.8750000  -0.3750000), wk =   0.0000000
        k(   77) = (  -0.3750000   1.1250000  -0.3750000), wk =   0.0312500
        k(   78) = (  -0.3750000   1.6250000  -0.3750000), wk =   0.0000000
        k(   79) = (  -0.3750000  -1.1250000  -0.3750000), wk =   0.0312500
        k(   80) = (  -0.3750000  -0.6250000  -0.3750000), wk =   0.0000000

     Dense  grid:    17477 G-vectors     FFT dimensions: (  40,  40,  40)

     Smooth grid:     6183 G-vectors     FFT dimensions: (  25,  25,  25)

     Estimated max dynamical RAM per process >       1.79MB

     Estimated total allocated dynamical RAM >       7.17MB

     The potential is recalculated from file :
     ./_ph0/silicon.10.366.save/charge-density.dat

     Starting wfc are    8 atomic wfcs

     Band Structure Calculation
     Davidson diagonalization with overlap

     ethr =  1.25E-10,  avg # of iterations = 12.2

     total cpu time spent up to now is        3.8 secs

     End of band structure calculation

          k =-0.1250 0.1250 0.1250 (   779 PWs)   bands (ev):

    -5.6721   4.2934   5.6032   5.6032

          k =-0.1250 0.6250 0.1250 (   775 PWs)   bands (ev):

    -4.1267   0.9749   3.2909   3.7391

          k =-0.3750 0.3750-0.1250 (   781 PWs)   bands (ev):

    -4.6548   1.3173   3.6340   5.1256

          k =-0.3750 0.8750-0.1250 (   762 PWs)   bands (ev):

    -2.5042  -0.9724   1.9531   3.0185

          k = 0.3750-0.3750 0.6250 (   773 PWs)   bands (ev):

    -3.5286  -0.7394   3.6503   4.3621

          k = 0.3750 0.1250 0.6250 (   775 PWs)   bands (ev):

    -3.7160   0.1147   2.6532   4.0116

          k = 0.1250-0.1250 0.3750 (   781 PWs)   bands (ev):

    -5.1488   2.6818   4.6055   4.6640

          k = 0.1250 0.3750 0.3750 (   781 PWs)   bands (ev):

    -4.6548   1.3173   3.6340   5.1256

          k =-0.1250 0.6250 0.1250 (   775 PWs)   bands (ev):

    -4.1267   0.9749   3.2909   3.7391

          k =-0.1250 1.1250 0.1250 (   766 PWs)   bands (ev):

    -2.6681  -0.8772   2.5562   3.2760

          k = 0.6250-0.1250 0.8750 (   762 PWs)   bands (ev):

    -2.5042  -0.9724   1.9531   3.0185

          k = 0.6250 0.3750 0.8750 (   775 PWs)   bands (ev):

    -3.7160   0.1147   2.6532   4.0116

          k = 0.3750 0.1250 0.6250 (   775 PWs)   bands (ev):

    -3.7160   0.1147   2.6532   4.0116

          k = 0.3750 0.6250 0.6250 (   773 PWs)   bands (ev):

    -3.5286  -0.7394   3.6503   4.3621

          k =-0.1250-0.8750 0.1250 (   766 PWs)   bands (ev):

    -2.6681  -0.8772   2.5562   3.2760

          k =-0.1250-0.3750 0.1250 (   781 PWs)   bands (ev):

    -5.1488   2.6818   4.6055   4.6640

          k =-0.3750 0.3750 0.3750 (   769 PWs)   bands (ev):

    -4.2268   0.0423   4.8215   4.8215

          k =-0.3750 0.8750 0.3750 (   773 PWs)   bands (ev):

    -3.0370  -0.6649   2.0072   4.0486

          k = 0.3750-0.3750 1.1250 (   773 PWs)   bands (ev):

    -3.0370  -0.6649   2.0072   4.0486

          k = 0.3750 0.1250 1.1250 (   762 PWs)   bands (ev):

    -2.5042  -0.9724   1.9531   3.0185

          k =-0.1250-0.1250 0.1250 (   779 PWs)   bands (ev):

    -5.6721   4.2934   5.6032   5.6032

          k =-0.1250 0.3750 0.1250 (   781 PWs)   bands (ev):

    -5.1488   2.6818   4.6055   4.6640

          k = 0.1250-0.3750 0.3750 (   781 PWs)   bands (ev):

    -4.6548   1.3173   3.6340   5.1256

          k = 0.1250 0.1250 0.3750 (   781 PWs)   bands (ev):

    -5.1488   2.6818   4.6055   4.6640

          k = 0.3750-0.1250 0.3750 (   781 PWs)   bands (ev):

    -4.6548   1.3173   3.6340   5.1256

          k = 0.3750 0.3750 0.3750 (   769 PWs)   bands (ev):

    -4.2268   0.0423   4.8215   4.8215

          k = 0.3750 0.1250 0.3750 (   781 PWs)   bands (ev):

    -4.6548   1.3173   3.6340   5.1256

          k = 0.3750 0.6250 0.3750 (   773 PWs)   bands (ev):

    -3.5286  -0.7394   3.6503   4.3621

          k =-0.6250 0.3750-0.3750 (   773 PWs)   bands (ev):

    -3.5286  -0.7394   3.6503   4.3621

          k =-0.6250 0.8750-0.3750 (   775 PWs)   bands (ev):

    -3.7160   0.1147   2.6532   4.0116

          k =-0.3750 0.6250-0.3750 (   773 PWs)   bands (ev):

    -3.5286  -0.7394   3.6503   4.3621

          k =-0.3750 1.1250-0.3750 (   773 PWs)   bands (ev):

    -3.0370  -0.6649   2.0072   4.0486

          k =-0.3750-0.6250-0.3750 (   773 PWs)   bands (ev):

    -3.5286  -0.7394   3.6503   4.3621

          k =-0.3750-0.1250-0.3750 (   781 PWs)   bands (ev):

    -4.6548   1.3173   3.6340   5.1256

          k =-0.3750 0.1250-0.1250 (   781 PWs)   bands (ev):

    -5.1488   2.6818   4.6055   4.6640

          k =-0.3750 0.6250-0.1250 (   775 PWs)   bands (ev):

    -3.7160   0.1147   2.6532   4.0116

          k =-0.1250 0.3750-0.1250 (   781 PWs)   bands (ev):

    -5.1488   2.6818   4.6055   4.6640

          k =-0.1250 0.8750-0.1250 (   766 PWs)   bands (ev):

    -2.6681  -0.8772   2.5562   3.2760

          k =-0.1250-0.3750-0.1250 (   781 PWs)   bands (ev):

    -5.1488   2.6818   4.6055   4.6640

          k =-0.1250 0.1250-0.1250 (   779 PWs)   bands (ev):

    -5.6721   4.2934   5.6032   5.6032

          k =-0.1250-0.6250 0.1250 (   775 PWs)   bands (ev):

    -4.1267   0.9749   3.2909   3.7391

          k =-0.1250-0.1250 0.1250 (   779 PWs)   bands (ev):

    -5.6721   4.2934   5.6032   5.6032

          k = 0.6250-0.1250-0.1250 (   775 PWs)   bands (ev):

    -4.1267   0.9749   3.2909   3.7391

          k = 0.6250 0.3750-0.1250 (   775 PWs)   bands (ev):

    -3.7160   0.1147   2.6532   4.0116

          k = 0.6250 0.1250 0.1250 (   775 PWs)   bands (ev):

    -4.1267   0.9749   3.2909   3.7391

          k = 0.6250 0.6250 0.1250 (   773 PWs)   bands (ev):

    -3.0370  -0.6649   2.0072   4.0486

          k =-0.8750 0.1250-0.6250 (   762 PWs)   bands (ev):

    -2.5042  -0.9724   1.9531   3.0185

          k =-0.8750 0.6250-0.6250 (   781 PWs)   bands (ev):

    -4.6548   1.3173   3.6340   5.1256

          k =-0.1250 0.6250-0.8750 (   762 PWs)   bands (ev):

    -2.5042  -0.9724   1.9531   3.0185

          k =-0.1250 1.1250-0.8750 (   766 PWs)   bands (ev):

    -2.6681  -0.8772   2.5562   3.2760

          k =-0.1250 0.8750-0.6250 (   762 PWs)   bands (ev):

    -2.5042  -0.9724   1.9531   3.0185

          k =-0.1250 1.3750-0.6250 (   773 PWs)   bands (ev):

    -3.0370  -0.6649   2.0072   4.0486

          k =-0.1250-0.8750-0.6250 (   762 PWs)   bands (ev):

    -2.5042  -0.9724   1.9531   3.0185

          k =-0.1250-0.3750-0.6250 (   775 PWs)   bands (ev):

    -3.7160   0.1147   2.6532   4.0116

          k = 0.8750-0.6250 0.1250 (   762 PWs)   bands (ev):

    -2.5042  -0.9724   1.9531   3.0185

          k = 0.8750-0.1250 0.1250 (   766 PWs)   bands (ev):

    -2.6681  -0.8772   2.5562   3.2760

          k =-0.6250-0.1250-0.3750 (   775 PWs)   bands (ev):

    -3.7160   0.1147   2.6532   4.0116

          k =-0.6250 0.3750-0.3750 (   773 PWs)   bands (ev):

    -3.5286  -0.7394   3.6503   4.3621

          k = 0.1250 0.3750-0.6250 (   775 PWs)   bands (ev):

    -3.7160   0.1147   2.6532   4.0116

          k = 0.1250 0.8750-0.6250 (   762 PWs)   bands (ev):

    -2.5042  -0.9724   1.9531   3.0185

          k = 0.1250 0.6250-0.3750 (   775 PWs)   bands (ev):

    -3.7160   0.1147   2.6532   4.0116

          k = 0.1250 1.1250-0.3750 (   762 PWs)   bands (ev):

    -2.5042  -0.9724   1.9531   3.0185

          k = 0.1250-0.6250-0.3750 (   775 PWs)   bands (ev):

    -3.7160   0.1147   2.6532   4.0116

          k = 0.1250-0.1250-0.3750 (   781 PWs)   bands (ev):

    -5.1488   2.6818   4.6055   4.6640

          k = 0.6250-0.3750-0.1250 (   775 PWs)   bands (ev):

    -3.7160   0.1147   2.6532   4.0116

          k = 0.6250 0.1250-0.1250 (   775 PWs)   bands (ev):

    -4.1267   0.9749   3.2909   3.7391

          k =-0.1250 0.8750 0.1250 (   766 PWs)   bands (ev):

    -2.6681  -0.8772   2.5562   3.2760

          k =-0.1250 1.3750 0.1250 (   775 PWs)   bands (ev):

    -4.1267   0.9749   3.2909   3.7391

          k =-0.8750-0.1250-0.1250 (   766 PWs)   bands (ev):

    -2.6681  -0.8772   2.5562   3.2760

          k =-0.8750 0.3750-0.1250 (   762 PWs)   bands (ev):

    -2.5042  -0.9724   1.9531   3.0185

          k =-0.8750 0.1250 0.1250 (   766 PWs)   bands (ev):

    -2.6681  -0.8772   2.5562   3.2760

          k =-0.8750 0.6250 0.1250 (   762 PWs)   bands (ev):

    -2.5042  -0.9724   1.9531   3.0185

          k =-0.3750-0.3750 0.3750 (   769 PWs)   bands (ev):

    -4.2268   0.0423   4.8215   4.8215

          k =-0.3750 0.1250 0.3750 (   781 PWs)   bands (ev):

    -4.6548   1.3173   3.6340   5.1256

          k =-1.1250 0.3750-0.3750 (   773 PWs)   bands (ev):

    -3.0370  -0.6649   2.0072   4.0486

          k =-1.1250 0.8750-0.3750 (   775 PWs)   bands (ev):

    -4.1267   0.9749   3.2909   3.7391

          k =-0.3750 1.1250-0.3750 (   773 PWs)   bands (ev):

    -3.0370  -0.6649   2.0072   4.0486

          k =-0.3750 1.6250-0.3750 (   769 PWs)   bands (ev):

    -4.2268   0.0423   4.8215   4.8215

          k =-0.3750-1.1250-0.3750 (   773 PWs)   bands (ev):

    -3.0370  -0.6649   2.0072   4.0486

          k =-0.3750-0.6250-0.3750 (   773 PWs)   bands (ev):

    -3.5286  -0.7394   3.6503   4.3621

     highest occupied level (ev):     5.6032

     Writing output data file silicon.10.366.save

                                                                                

     bravais-lattice index     =            2
     lattice parameter (alat)  =      10.3660  a.u.
     unit-cell volume          =     278.4669 (a.u.)^3
     number of atoms/cell      =            2
     number of atomic types    =            1
     kinetic-energy cut-off    =      30.0000  Ry
     charge density cut-off    =     240.0000  Ry
     convergence threshold     =      1.0E-12
     beta                      =       0.7000
     number of iterations used =            4
     Exchange-correlation      = SLA  PW   PBE  PBE ( 1  4  3  4 0 0)


     celldm(1)=   10.36600  celldm(2)=    0.00000  celldm(3)=    0.00000
     celldm(4)=    0.00000  celldm(5)=    0.00000  celldm(6)=    0.00000

     crystal axes: (cart. coord. in units of alat)
               a(1) = ( -0.5000  0.0000  0.5000 )  
               a(2) = (  0.0000  0.5000  0.5000 )  
               a(3) = ( -0.5000  0.5000  0.0000 )  

     reciprocal axes: (cart. coord. in units 2 pi/alat)
               b(1) = ( -1.0000 -1.0000  1.0000 )  
               b(2) = (  1.0000  1.0000  1.0000 )  
               b(3) = ( -1.0000  1.0000 -1.0000 )  


     Atoms inside the unit cell: 

     Cartesian axes

     site n.  atom      mass           positions (alat units)
        1     Si  28.0860   tau(    1) = (    0.00000    0.00000    0.00000  )
        2     Si  28.0860   tau(    2) = (    0.25000    0.25000    0.25000  )

     Computing dynamical matrix for 
                    q = (   0.0000000   0.5000000   0.0000000 )

      8 Sym.Ops. (no q -> -q+G )


     G cutoff =  653.2417  (   4369 G-vectors)     FFT grid: ( 40, 40, 40)
     G cutoff =  326.6209  (   1545 G-vectors)  smooth grid: ( 25, 25, 25)
     number of k points=    80

     PseudoPot. # 1 for Si read from file:
     /home/s1333534/quantum_espresso/qe-6.1/pseudo/si_pbe_v1.uspp.F.UPF.txt
     MD5 check sum: a056efeee980c13900f22a371efd63c1
     Pseudo is Ultrasoft + core correction, Zval =  4.0
     Generated by new atomic code, or converted to UPF format
     Using radial grid of  899 points,  6 beta functions with: 
                l(1) =   0
                l(2) =   0
                l(3) =   1
                l(4) =   1
                l(5) =   2
                l(6) =   2
     Q(r) pseudized with  8 coefficients,  rinner =    0.900   0.900   0.900
                                                       0.900   0.900

     Mode symmetry, C_4v (4mm)  point group:


     Atomic displacements:
     There are   4 irreducible representations

     Representation     1      1 modes -A_1  G_1 D_1  To be done

     Representation     2      1 modes -B_2  G_4 D_2'  To be done

     Representation     3      2 modes -E    G_5 D_5  To be done

     Representation     4      2 modes -E    G_5 D_5  To be done



     Alpha used in Ewald sum =   2.5000
     PHONON       :    40.17s CPU        52.62s WALL



     Representation #  1 mode #   1

     Self-consistent Calculation

      iter #   1 total cpu time :    53.0 secs   av.it.:   6.2
      thresh= 1.000E-02 alpha_mix =  0.700 |ddv_scf|^2 =  3.706E-04

      iter #   2 total cpu time :    53.5 secs   av.it.:   9.5
      thresh= 1.925E-03 alpha_mix =  0.700 |ddv_scf|^2 =  4.943E-03

      iter #   3 total cpu time :    54.0 secs   av.it.:   7.5
      thresh= 7.031E-03 alpha_mix =  0.700 |ddv_scf|^2 =  7.239E-09

      iter #   4 total cpu time :    54.5 secs   av.it.:  10.3
      thresh= 8.508E-06 alpha_mix =  0.700 |ddv_scf|^2 =  7.493E-10

      iter #   5 total cpu time :    55.0 secs   av.it.:   9.8
      thresh= 2.737E-06 alpha_mix =  0.700 |ddv_scf|^2 =  7.975E-11

      iter #   6 total cpu time :    55.5 secs   av.it.:   9.6
      thresh= 8.930E-07 alpha_mix =  0.700 |ddv_scf|^2 =  2.217E-13

     End of self-consistent calculation

     Convergence has been achieved 


     Representation #  2 mode #   2

     Self-consistent Calculation

      iter #   1 total cpu time :    55.9 secs   av.it.:   5.1
      thresh= 1.000E-02 alpha_mix =  0.700 |ddv_scf|^2 =  5.887E-07

      iter #   2 total cpu time :    56.4 secs   av.it.:  10.6
      thresh= 7.673E-05 alpha_mix =  0.700 |ddv_scf|^2 =  1.641E-07

      iter #   3 total cpu time :    57.0 secs   av.it.:  10.2
      thresh= 4.050E-05 alpha_mix =  0.700 |ddv_scf|^2 =  1.684E-09

      iter #   4 total cpu time :    57.5 secs   av.it.:  10.2
      thresh= 4.103E-06 alpha_mix =  0.700 |ddv_scf|^2 =  6.755E-11

      iter #   5 total cpu time :    58.0 secs   av.it.:  10.5
      thresh= 8.219E-07 alpha_mix =  0.700 |ddv_scf|^2 =  3.882E-13

     End of self-consistent calculation

     Convergence has been achieved 


     Representation #  3 modes #   3  4

     Self-consistent Calculation

      iter #   1 total cpu time :    58.8 secs   av.it.:   5.2
      thresh= 1.000E-02 alpha_mix =  0.700 |ddv_scf|^2 =  1.042E-07

      iter #   2 total cpu time :    59.8 secs   av.it.:  11.7
      thresh= 3.228E-05 alpha_mix =  0.700 |ddv_scf|^2 =  1.437E-08

      iter #   3 total cpu time :    60.9 secs   av.it.:  11.3
      thresh= 1.199E-05 alpha_mix =  0.700 |ddv_scf|^2 =  2.421E-10

      iter #   4 total cpu time :    61.8 secs   av.it.:  10.8
      thresh= 1.556E-06 alpha_mix =  0.700 |ddv_scf|^2 =  5.751E-13

     End of self-consistent calculation

     Convergence has been achieved 


     Representation #  4 modes #   5  6

     Self-consistent Calculation

      iter #   1 total cpu time :    62.6 secs   av.it.:   5.2
      thresh= 1.000E-02 alpha_mix =  0.700 |ddv_scf|^2 =  9.548E-08

      iter #   2 total cpu time :    63.7 secs   av.it.:  11.6
      thresh= 3.090E-05 alpha_mix =  0.700 |ddv_scf|^2 =  1.284E-08

      iter #   3 total cpu time :    64.9 secs   av.it.:  11.4
      thresh= 1.133E-05 alpha_mix =  0.700 |ddv_scf|^2 =  2.473E-10

      iter #   4 total cpu time :    65.8 secs   av.it.:  11.1
      thresh= 1.573E-06 alpha_mix =  0.700 |ddv_scf|^2 =  6.145E-13

     End of self-consistent calculation

     Convergence has been achieved 

     Number of q in the star =    6
     List of q in the star:
          1   0.000000000   0.500000000   0.000000000
          2   0.000000000  -0.500000000   0.000000000
          3   0.500000000   0.000000000   0.000000000
          4   0.000000000   0.000000000   0.500000000
          5   0.000000000   0.000000000  -0.500000000
          6  -0.500000000   0.000000000   0.000000000

     Diagonalizing the dynamical matrix

     q = (    0.000000000   0.500000000   0.000000000 ) 

 **************************************************************************
     freq (    1) =       3.790922 [THz] =     126.451553 [cm-1]
     freq (    2) =       3.790922 [THz] =     126.451553 [cm-1]
     freq (    3) =       6.989097 [THz] =     233.131190 [cm-1]
     freq (    4) =      13.656545 [THz] =     455.533322 [cm-1]
     freq (    5) =      13.656545 [THz] =     455.533322 [cm-1]
     freq (    6) =      14.323461 [THz] =     477.779237 [cm-1]
 **************************************************************************

     Mode symmetry, C_4v (4mm)  point group:

     freq (  1 -  2) =        126.5  [cm-1]   --> E    G_5 D_5       
     freq (  3 -  3) =        233.1  [cm-1]   --> A_1  G_1 D_1       
     freq (  4 -  5) =        455.5  [cm-1]   --> E    G_5 D_5       
     freq (  6 -  6) =        477.8  [cm-1]   --> B_2  G_4 D_2'      

     Calculation of q =    0.7500000  -0.2500000   0.7500000

   Info: using nr1, nr2, nr3 values from input

   Info: using nr1, nr2, nr3 values from input

     Parallelization info
     --------------------
     sticks:   dense  smooth     PW     G-vecs:    dense   smooth      PW
     Min         222     109     40                 4369     1545     362
     Max         223     110     41                 4370     1546     366
     Sum         889     439    163                17477     6183    1459



     bravais-lattice index     =            2
     lattice parameter (alat)  =      10.3660  a.u.
     unit-cell volume          =     278.4669 (a.u.)^3
     number of atoms/cell      =            2
     number of atomic types    =            1
     number of electrons       =         8.00
     number of Kohn-Sham states=            4
     kinetic-energy cutoff     =      30.0000  Ry
     charge density cutoff     =     240.0000  Ry
     Exchange-correlation      = SLA  PW   PBE  PBE ( 1  4  3  4 0 0)

     celldm(1)=  10.366000  celldm(2)=   0.000000  celldm(3)=   0.000000
     celldm(4)=   0.000000  celldm(5)=   0.000000  celldm(6)=   0.000000

     crystal axes: (cart. coord. in units of alat)
               a(1) = (  -0.500000   0.000000   0.500000 )  
               a(2) = (   0.000000   0.500000   0.500000 )  
               a(3) = (  -0.500000   0.500000   0.000000 )  

     reciprocal axes: (cart. coord. in units 2 pi/alat)
               b(1) = ( -1.000000 -1.000000  1.000000 )  
               b(2) = (  1.000000  1.000000  1.000000 )  
               b(3) = ( -1.000000  1.000000 -1.000000 )  


     PseudoPot. # 1 for Si read from file:
     /home/s1333534/quantum_espresso/qe-6.1/pseudo/si_pbe_v1.uspp.F.UPF.txt
     MD5 check sum: a056efeee980c13900f22a371efd63c1
     Pseudo is Ultrasoft + core correction, Zval =  4.0
     Generated by new atomic code, or converted to UPF format
     Using radial grid of  899 points,  6 beta functions with: 
                l(1) =   0
                l(2) =   0
                l(3) =   1
                l(4) =   1
                l(5) =   2
                l(6) =   2
     Q(r) pseudized with  8 coefficients,  rinner =    0.900   0.900   0.900
                                                       0.900   0.900

     atomic species   valence    mass     pseudopotential
        Si             4.00    28.08600     Si( 1.00)

     48 Sym. Ops., with inversion, found



   Cartesian axes

     site n.     atom                  positions (alat units)
         1           Si  tau(   1) = (   0.0000000   0.0000000   0.0000000  )
         2           Si  tau(   2) = (   0.2500000   0.2500000   0.2500000  )

     number of k points=   288

     Number of k-points >= 100: set verbosity='high' to print them.

     Dense  grid:    17477 G-vectors     FFT dimensions: (  40,  40,  40)

     Smooth grid:     6183 G-vectors     FFT dimensions: (  25,  25,  25)

     Estimated max dynamical RAM per process >       1.79MB

     Estimated total allocated dynamical RAM >       7.17MB

     The potential is recalculated from file :
     ./_ph0/silicon.10.366.save/charge-density.dat

     Starting wfc are    8 atomic wfcs

     Band Structure Calculation
     Davidson diagonalization with overlap

     ethr =  1.25E-10,  avg # of iterations = 12.1

     total cpu time spent up to now is        7.0 secs

     End of band structure calculation

     Number of k-points >= 100: set verbosity='high' to print the bands.

     highest occupied level (ev):     5.6032

     Writing output data file silicon.10.366.save

                                                                                

     bravais-lattice index     =            2
     lattice parameter (alat)  =      10.3660  a.u.
     unit-cell volume          =     278.4669 (a.u.)^3
     number of atoms/cell      =            2
     number of atomic types    =            1
     kinetic-energy cut-off    =      30.0000  Ry
     charge density cut-off    =     240.0000  Ry
     convergence threshold     =      1.0E-12
     beta                      =       0.7000
     number of iterations used =            4
     Exchange-correlation      = SLA  PW   PBE  PBE ( 1  4  3  4 0 0)


     celldm(1)=   10.36600  celldm(2)=    0.00000  celldm(3)=    0.00000
     celldm(4)=    0.00000  celldm(5)=    0.00000  celldm(6)=    0.00000

     crystal axes: (cart. coord. in units of alat)
               a(1) = ( -0.5000  0.0000  0.5000 )  
               a(2) = (  0.0000  0.5000  0.5000 )  
               a(3) = ( -0.5000  0.5000  0.0000 )  

     reciprocal axes: (cart. coord. in units 2 pi/alat)
               b(1) = ( -1.0000 -1.0000  1.0000 )  
               b(2) = (  1.0000  1.0000  1.0000 )  
               b(3) = ( -1.0000  1.0000 -1.0000 )  


     Atoms inside the unit cell: 

     Cartesian axes

     site n.  atom      mass           positions (alat units)
        1     Si  28.0860   tau(    1) = (    0.00000    0.00000    0.00000  )
        2     Si  28.0860   tau(    2) = (    0.25000    0.25000    0.25000  )

     Computing dynamical matrix for 
                    q = (   0.7500000  -0.2500000   0.7500000 )

      2 Sym.Ops. (no q -> -q+G )


     G cutoff =  653.2417  (   4369 G-vectors)     FFT grid: ( 40, 40, 40)
     G cutoff =  326.6209  (   1546 G-vectors)  smooth grid: ( 25, 25, 25)
     number of k points=   288

     PseudoPot. # 1 for Si read from file:
     /home/s1333534/quantum_espresso/qe-6.1/pseudo/si_pbe_v1.uspp.F.UPF.txt
     MD5 check sum: a056efeee980c13900f22a371efd63c1
     Pseudo is Ultrasoft + core correction, Zval =  4.0
     Generated by new atomic code, or converted to UPF format
     Using radial grid of  899 points,  6 beta functions with: 
                l(1) =   0
                l(2) =   0
                l(3) =   1
                l(4) =   1
                l(5) =   2
                l(6) =   2
     Q(r) pseudized with  8 coefficients,  rinner =    0.900   0.900   0.900
                                                       0.900   0.900

     Mode symmetry, C_s (m)     point group:


     Atomic displacements:
     There are   6 irreducible representations

     Representation     1      1 modes -A'  To be done

     Representation     2      1 modes -A'  To be done

     Representation     3      1 modes -A'  To be done

     Representation     4      1 modes -A'  To be done

     Representation     5      1 modes -A''  To be done

     Representation     6      1 modes -A''  To be done



     Alpha used in Ewald sum =   2.5000
     PHONON       :  0m54.83s CPU     1m11.34s WALL



     Representation #  1 mode #   1

     Self-consistent Calculation

      iter #   1 total cpu time :    72.3 secs   av.it.:   5.6
      thresh= 1.000E-02 alpha_mix =  0.700 |ddv_scf|^2 =  7.567E-06

      iter #   2 total cpu time :    73.7 secs   av.it.:  10.7
      thresh= 2.751E-04 alpha_mix =  0.700 |ddv_scf|^2 =  2.033E-05

      iter #   3 total cpu time :    75.0 secs   av.it.:   9.4
      thresh= 4.509E-04 alpha_mix =  0.700 |ddv_scf|^2 =  1.361E-07

      iter #   4 total cpu time :    76.3 secs   av.it.:  10.1
      thresh= 3.689E-05 alpha_mix =  0.700 |ddv_scf|^2 =  2.746E-09

      iter #   5 total cpu time :    77.7 secs   av.it.:  10.7
      thresh= 5.241E-06 alpha_mix =  0.700 |ddv_scf|^2 =  4.658E-10

      iter #   6 total cpu time :    79.1 secs   av.it.:  10.6
      thresh= 2.158E-06 alpha_mix =  0.700 |ddv_scf|^2 =  7.457E-12

      iter #   7 total cpu time :    80.4 secs   av.it.:  10.8
      thresh= 2.731E-07 alpha_mix =  0.700 |ddv_scf|^2 =  2.877E-13

     End of self-consistent calculation

     Convergence has been achieved 


     Representation #  2 mode #   2

     Self-consistent Calculation

      iter #   1 total cpu time :    81.5 secs   av.it.:   5.8
      thresh= 1.000E-02 alpha_mix =  0.700 |ddv_scf|^2 =  1.352E-05

      iter #   2 total cpu time :    82.9 secs   av.it.:  10.6
      thresh= 3.677E-04 alpha_mix =  0.700 |ddv_scf|^2 =  3.937E-05

      iter #   3 total cpu time :    84.1 secs   av.it.:   9.2
      thresh= 6.274E-04 alpha_mix =  0.700 |ddv_scf|^2 =  9.311E-08

      iter #   4 total cpu time :    85.5 secs   av.it.:  10.4
      thresh= 3.051E-05 alpha_mix =  0.700 |ddv_scf|^2 =  3.108E-09

      iter #   5 total cpu time :    86.8 secs   av.it.:  10.6
      thresh= 5.575E-06 alpha_mix =  0.700 |ddv_scf|^2 =  6.324E-10

      iter #   6 total cpu time :    88.2 secs   av.it.:  10.5
      thresh= 2.515E-06 alpha_mix =  0.700 |ddv_scf|^2 =  6.640E-12

      iter #   7 total cpu time :    89.6 secs   av.it.:  10.8
      thresh= 2.577E-07 alpha_mix =  0.700 |ddv_scf|^2 =  2.399E-13

     End of self-consistent calculation

     Convergence has been achieved 


     Representation #  3 mode #   3

     Self-consistent Calculation

      iter #   1 total cpu time :    90.7 secs   av.it.:   5.7
      thresh= 1.000E-02 alpha_mix =  0.700 |ddv_scf|^2 =  1.059E-05

      iter #   2 total cpu time :    92.2 secs   av.it.:  10.7
      thresh= 3.255E-04 alpha_mix =  0.700 |ddv_scf|^2 =  2.893E-05

      iter #   3 total cpu time :    93.4 secs   av.it.:   9.2
      thresh= 5.379E-04 alpha_mix =  0.700 |ddv_scf|^2 =  1.620E-07

      iter #   4 total cpu time :    94.8 secs   av.it.:  10.1
      thresh= 4.025E-05 alpha_mix =  0.700 |ddv_scf|^2 =  3.166E-09

      iter #   5 total cpu time :    96.2 secs   av.it.:  10.7
      thresh= 5.627E-06 alpha_mix =  0.700 |ddv_scf|^2 =  6.210E-10

      iter #   6 total cpu time :    97.6 secs   av.it.:  10.5
      thresh= 2.492E-06 alpha_mix =  0.700 |ddv_scf|^2 =  4.624E-12

      iter #   7 total cpu time :    99.0 secs   av.it.:  10.7
      thresh= 2.150E-07 alpha_mix =  0.700 |ddv_scf|^2 =  1.373E-13

     End of self-consistent calculation

     Convergence has been achieved 


     Representation #  4 mode #   4

     Self-consistent Calculation

      iter #   1 total cpu time :   100.1 secs   av.it.:   5.5
      thresh= 1.000E-02 alpha_mix =  0.700 |ddv_scf|^2 =  4.630E-06

      iter #   2 total cpu time :   101.5 secs   av.it.:  10.9
      thresh= 2.152E-04 alpha_mix =  0.700 |ddv_scf|^2 =  9.877E-06

      iter #   3 total cpu time :   102.8 secs   av.it.:   9.7
      thresh= 3.143E-04 alpha_mix =  0.700 |ddv_scf|^2 =  2.136E-07

      iter #   4 total cpu time :   104.1 secs   av.it.:  10.0
      thresh= 4.622E-05 alpha_mix =  0.700 |ddv_scf|^2 =  2.715E-09

      iter #   5 total cpu time :   105.5 secs   av.it.:  10.7
      thresh= 5.210E-06 alpha_mix =  0.700 |ddv_scf|^2 =  5.074E-10

      iter #   6 total cpu time :   107.1 secs   av.it.:  10.5
      thresh= 2.253E-06 alpha_mix =  0.700 |ddv_scf|^2 =  3.124E-12

      iter #   7 total cpu time :   108.4 secs   av.it.:  10.8
      thresh= 1.768E-07 alpha_mix =  0.700 |ddv_scf|^2 =  1.477E-13

     End of self-consistent calculation

     Convergence has been achieved 


     Representation #  5 mode #   5

     Self-consistent Calculation

      iter #   1 total cpu time :   109.5 secs   av.it.:   5.2
      thresh= 1.000E-02 alpha_mix =  0.700 |ddv_scf|^2 =  4.813E-07

      iter #   2 total cpu time :   111.0 secs   av.it.:  10.4
      thresh= 6.938E-05 alpha_mix =  0.700 |ddv_scf|^2 =  7.863E-08

      iter #   3 total cpu time :   112.3 secs   av.it.:  10.2
      thresh= 2.804E-05 alpha_mix =  0.700 |ddv_scf|^2 =  1.048E-09

      iter #   4 total cpu time :   113.6 secs   av.it.:   9.8
      thresh= 3.237E-06 alpha_mix =  0.700 |ddv_scf|^2 =  2.477E-12

      iter #   5 total cpu time :   114.9 secs   av.it.:  10.3
      thresh= 1.574E-07 alpha_mix =  0.700 |ddv_scf|^2 =  7.024E-14

     End of self-consistent calculation

     Convergence has been achieved 


     Representation #  6 mode #   6

     Self-consistent Calculation

      iter #   1 total cpu time :   116.0 secs   av.it.:   5.2
      thresh= 1.000E-02 alpha_mix =  0.700 |ddv_scf|^2 =  4.813E-07

      iter #   2 total cpu time :   117.4 secs   av.it.:  10.4
[...]
        k(   59) = (  -0.8750000   0.1250000  -0.1250000), wk =   0.0625000
        k(   60) = (  -1.3750000  -0.8750000  -0.1250000), wk =   0.0000000
        k(   61) = (  -1.1250000   0.3750000  -0.3750000), wk =   0.0625000
        k(   62) = (  -1.6250000  -0.6250000  -0.3750000), wk =   0.0000000
        k(   63) = (  -0.3750000   0.3750000   1.1250000), wk =   0.0625000
        k(   64) = (  -0.8750000  -0.6250000   1.1250000), wk =   0.0000000

     Dense  grid:    17477 G-vectors     FFT dimensions: (  40,  40,  40)

     Smooth grid:     6183 G-vectors     FFT dimensions: (  25,  25,  25)

     Estimated max dynamical RAM per process >       1.79MB

     Estimated total allocated dynamical RAM >       7.17MB

     The potential is recalculated from file :
     ./_ph0/silicon.10.366.save/charge-density.dat

     Starting wfc are    8 atomic wfcs

     Band Structure Calculation
     Davidson diagonalization with overlap

     ethr =  1.25E-10,  avg # of iterations = 12.1

     total cpu time spent up to now is       10.9 secs

     End of band structure calculation

          k =-0.1250 0.1250 0.1250 (   779 PWs)   bands (ev):

    -5.6721   4.2934   5.6032   5.6032

          k =-0.6250-0.8750 0.1250 (   762 PWs)   bands (ev):

    -2.5042  -0.9724   1.9531   3.0185

          k =-0.3750 0.3750-0.1250 (   781 PWs)   bands (ev):

    -4.6548   1.3173   3.6340   5.1256

          k =-0.8750-0.6250-0.1250 (   762 PWs)   bands (ev):

    -2.5042  -0.9724   1.9531   3.0185

          k = 0.3750-0.3750 0.6250 (   773 PWs)   bands (ev):

    -3.5286  -0.7394   3.6503   4.3621

          k =-0.1250-1.3750 0.6250 (   773 PWs)   bands (ev):

    -3.0370  -0.6649   2.0072   4.0486

          k = 0.1250-0.1250 0.3750 (   781 PWs)   bands (ev):

    -5.1488   2.6818   4.6055   4.6640

          k =-0.3750-1.1250 0.3750 (   773 PWs)   bands (ev):

    -3.0370  -0.6649   2.0072   4.0486

          k =-0.1250 0.6250 0.1250 (   775 PWs)   bands (ev):

    -4.1267   0.9749   3.2909   3.7391

          k =-0.6250-0.3750 0.1250 (   775 PWs)   bands (ev):

    -3.7160   0.1147   2.6532   4.0116

          k = 0.6250-0.1250 0.8750 (   762 PWs)   bands (ev):

    -2.5042  -0.9724   1.9531   3.0185

          k = 0.1250-1.1250 0.8750 (   766 PWs)   bands (ev):

    -2.6681  -0.8772   2.5562   3.2760

          k = 0.3750 0.1250 0.6250 (   775 PWs)   bands (ev):

    -3.7160   0.1147   2.6532   4.0116

          k =-0.1250-0.8750 0.6250 (   762 PWs)   bands (ev):

    -2.5042  -0.9724   1.9531   3.0185

          k =-0.1250-0.8750 0.1250 (   766 PWs)   bands (ev):

    -2.6681  -0.8772   2.5562   3.2760

          k =-0.6250-1.8750 0.1250 (   775 PWs)   bands (ev):

    -4.1267   0.9749   3.2909   3.7391

          k =-0.3750 0.3750 0.3750 (   769 PWs)   bands (ev):

    -4.2268   0.0423   4.8215   4.8215

          k =-0.8750-0.6250 0.3750 (   775 PWs)   bands (ev):

    -3.7160   0.1147   2.6532   4.0116

          k = 0.3750-0.3750 1.1250 (   773 PWs)   bands (ev):

    -3.0370  -0.6649   2.0072   4.0486

          k =-0.1250-1.3750 1.1250 (   762 PWs)   bands (ev):

    -2.5042  -0.9724   1.9531   3.0185

          k = 0.1250-0.3750 0.3750 (   781 PWs)   bands (ev):

    -4.6548   1.3173   3.6340   5.1256

          k =-0.3750-1.3750 0.3750 (   773 PWs)   bands (ev):

    -3.5286  -0.7394   3.6503   4.3621

          k = 0.3750-0.3750-0.1250 (   781 PWs)   bands (ev):

    -4.6548   1.3173   3.6340   5.1256

          k =-0.1250-1.3750-0.1250 (   775 PWs)   bands (ev):

    -4.1267   0.9749   3.2909   3.7391

          k =-0.6250 0.3750-0.3750 (   773 PWs)   bands (ev):

    -3.5286  -0.7394   3.6503   4.3621

          k =-1.1250-0.6250-0.3750 (   775 PWs)   bands (ev):

    -3.7160   0.1147   2.6532   4.0116

          k =-0.3750 0.3750 0.6250 (   773 PWs)   bands (ev):

    -3.5286  -0.7394   3.6503   4.3621

          k =-0.8750-0.6250 0.6250 (   781 PWs)   bands (ev):

    -4.6548   1.3173   3.6340   5.1256

          k =-0.3750 0.1250-0.1250 (   781 PWs)   bands (ev):

    -5.1488   2.6818   4.6055   4.6640

          k =-0.8750-0.8750-0.1250 (   766 PWs)   bands (ev):

    -2.6681  -0.8772   2.5562   3.2760

          k =-0.1250 0.1250 0.3750 (   781 PWs)   bands (ev):

    -5.1488   2.6818   4.6055   4.6640

          k =-0.6250-0.8750 0.3750 (   775 PWs)   bands (ev):

    -3.7160   0.1147   2.6532   4.0116

          k = 0.1250 0.6250-0.1250 (   775 PWs)   bands (ev):

    -4.1267   0.9749   3.2909   3.7391

          k =-0.3750-0.3750-0.1250 (   781 PWs)   bands (ev):

    -4.6548   1.3173   3.6340   5.1256

          k = 0.6250 0.1250-0.1250 (   775 PWs)   bands (ev):

    -4.1267   0.9749   3.2909   3.7391

          k = 0.1250-0.8750-0.1250 (   766 PWs)   bands (ev):

    -2.6681  -0.8772   2.5562   3.2760

          k =-0.8750 0.1250-0.6250 (   762 PWs)   bands (ev):

    -2.5042  -0.9724   1.9531   3.0185

          k =-1.3750-0.8750-0.6250 (   781 PWs)   bands (ev):

    -4.6548   1.3173   3.6340   5.1256

          k = 0.8750-0.1250 0.6250 (   762 PWs)   bands (ev):

    -2.5042  -0.9724   1.9531   3.0185

          k = 0.3750-1.1250 0.6250 (   775 PWs)   bands (ev):

    -3.7160   0.1147   2.6532   4.0116

          k =-0.6250 0.1250 0.8750 (   762 PWs)   bands (ev):

    -2.5042  -0.9724   1.9531   3.0185

          k =-1.1250-0.8750 0.8750 (   779 PWs)   bands (ev):

    -5.6721   4.2934   5.6032   5.6032

          k =-0.1250 0.8750 0.6250 (   762 PWs)   bands (ev):

    -2.5042  -0.9724   1.9531   3.0185

          k =-0.6250-0.1250 0.6250 (   773 PWs)   bands (ev):

    -3.0370  -0.6649   2.0072   4.0486

          k = 0.1250 0.8750-0.6250 (   762 PWs)   bands (ev):

    -2.5042  -0.9724   1.9531   3.0185

          k =-0.3750-0.1250-0.6250 (   775 PWs)   bands (ev):

    -3.7160   0.1147   2.6532   4.0116

          k =-0.6250-0.1250-0.3750 (   775 PWs)   bands (ev):

    -3.7160   0.1147   2.6532   4.0116

          k =-1.1250-1.1250-0.3750 (   775 PWs)   bands (ev):

    -4.1267   0.9749   3.2909   3.7391

          k = 0.6250 0.1250 0.3750 (   775 PWs)   bands (ev):

    -3.7160   0.1147   2.6532   4.0116

          k = 0.1250-0.8750 0.3750 (   762 PWs)   bands (ev):

    -2.5042  -0.9724   1.9531   3.0185

          k =-0.3750-0.1250 0.6250 (   775 PWs)   bands (ev):

    -3.7160   0.1147   2.6532   4.0116

          k =-0.8750-1.1250 0.6250 (   781 PWs)   bands (ev):

    -5.1488   2.6818   4.6055   4.6640

          k = 0.1250 0.6250 0.3750 (   775 PWs)   bands (ev):

    -3.7160   0.1147   2.6532   4.0116

          k =-0.3750-0.3750 0.3750 (   769 PWs)   bands (ev):

    -4.2268   0.0423   4.8215   4.8215

          k =-0.1250 0.6250-0.3750 (   775 PWs)   bands (ev):

    -3.7160   0.1147   2.6532   4.0116

          k =-0.6250-0.3750-0.3750 (   773 PWs)   bands (ev):

    -3.5286  -0.7394   3.6503   4.3621

          k = 0.1250-0.8750-0.1250 (   766 PWs)   bands (ev):

    -2.6681  -0.8772   2.5562   3.2760

          k =-0.3750-1.8750-0.1250 (   781 PWs)   bands (ev):

    -5.1488   2.6818   4.6055   4.6640

          k =-0.8750 0.1250-0.1250 (   766 PWs)   bands (ev):

    -2.6681  -0.8772   2.5562   3.2760

          k =-1.3750-0.8750-0.1250 (   762 PWs)   bands (ev):

    -2.5042  -0.9724   1.9531   3.0185

          k =-1.1250 0.3750-0.3750 (   773 PWs)   bands (ev):

    -3.0370  -0.6649   2.0072   4.0486

          k =-1.6250-0.6250-0.3750 (   773 PWs)   bands (ev):

    -3.5286  -0.7394   3.6503   4.3621

          k =-0.3750 0.3750 1.1250 (   773 PWs)   bands (ev):

    -3.0370  -0.6649   2.0072   4.0486

          k =-0.8750-0.6250 1.1250 (   781 PWs)   bands (ev):

    -5.1488   2.6818   4.6055   4.6640

     highest occupied level (ev):     5.6032

     Writing output data file silicon.10.366.save

                                                                                

     bravais-lattice index     =            2
     lattice parameter (alat)  =      10.3660  a.u.
     unit-cell volume          =     278.4669 (a.u.)^3
     number of atoms/cell      =            2
     number of atomic types    =            1
     kinetic-energy cut-off    =      30.0000  Ry
     charge density cut-off    =     240.0000  Ry
     convergence threshold     =      1.0E-12
     beta                      =       0.7000
     number of iterations used =            4
     Exchange-correlation      = SLA  PW   PBE  PBE ( 1  4  3  4 0 0)


     celldm(1)=   10.36600  celldm(2)=    0.00000  celldm(3)=    0.00000
     celldm(4)=    0.00000  celldm(5)=    0.00000  celldm(6)=    0.00000

     crystal axes: (cart. coord. in units of alat)
               a(1) = ( -0.5000  0.0000  0.5000 )  
               a(2) = (  0.0000  0.5000  0.5000 )  
               a(3) = ( -0.5000  0.5000  0.0000 )  

     reciprocal axes: (cart. coord. in units 2 pi/alat)
               b(1) = ( -1.0000 -1.0000  1.0000 )  
               b(2) = (  1.0000  1.0000  1.0000 )  
               b(3) = ( -1.0000  1.0000 -1.0000 )  


     Atoms inside the unit cell: 

     Cartesian axes

     site n.  atom      mass           positions (alat units)
        1     Si  28.0860   tau(    1) = (    0.00000    0.00000    0.00000  )
        2     Si  28.0860   tau(    2) = (    0.25000    0.25000    0.25000  )

     Computing dynamical matrix for 
                    q = (  -0.5000000  -1.0000000   0.0000000 )

      8 Sym.Ops. (no q -> -q+G )


     G cutoff =  653.2417  (   4369 G-vectors)     FFT grid: ( 40, 40, 40)
     G cutoff =  326.6209  (   1546 G-vectors)  smooth grid: ( 25, 25, 25)
     number of k points=    64

     PseudoPot. # 1 for Si read from file:
     /home/s1333534/quantum_espresso/qe-6.1/pseudo/si_pbe_v1.uspp.F.UPF.txt
     MD5 check sum: a056efeee980c13900f22a371efd63c1
     Pseudo is Ultrasoft + core correction, Zval =  4.0
     Generated by new atomic code, or converted to UPF format
     Using radial grid of  899 points,  6 beta functions with: 
                l(1) =   0
                l(2) =   0
                l(3) =   1
                l(4) =   1
                l(5) =   2
                l(6) =   2
     Q(r) pseudized with  8 coefficients,  rinner =    0.900   0.900   0.900
                                                       0.900   0.900


     Atomic displacements:
     There are   3 irreducible representations

     Representation     1      2 modes -  To be done

     Representation     2      2 modes -  To be done

     Representation     3      2 modes -  To be done



     Alpha used in Ewald sum =   2.5000
     PHONON       :  2m 8.37s CPU     2m43.69s WALL



     Representation #  1 modes #   1  2

     Self-consistent Calculation

      iter #   1 total cpu time :   164.6 secs   av.it.:   5.7
      thresh= 1.000E-02 alpha_mix =  0.700 |ddv_scf|^2 =  7.808E-07

      iter #   2 total cpu time :   165.5 secs   av.it.:  11.8
      thresh= 8.836E-05 alpha_mix =  0.700 |ddv_scf|^2 =  4.412E-07

      iter #   3 total cpu time :   166.4 secs   av.it.:  11.3
      thresh= 6.642E-05 alpha_mix =  0.700 |ddv_scf|^2 =  4.272E-10

      iter #   4 total cpu time :   167.2 secs   av.it.:  11.1
      thresh= 2.067E-06 alpha_mix =  0.700 |ddv_scf|^2 =  1.934E-12

      iter #   5 total cpu time :   168.0 secs   av.it.:  11.2
      thresh= 1.391E-07 alpha_mix =  0.700 |ddv_scf|^2 =  5.060E-14

     End of self-consistent calculation

     Convergence has been achieved 


     Representation #  2 modes #   3  4

     Self-consistent Calculation

      iter #   1 total cpu time :   168.7 secs   av.it.:   5.6
      thresh= 1.000E-02 alpha_mix =  0.700 |ddv_scf|^2 =  1.216E-06

      iter #   2 total cpu time :   169.6 secs   av.it.:  11.8
      thresh= 1.103E-04 alpha_mix =  0.700 |ddv_scf|^2 =  1.666E-06

      iter #   3 total cpu time :   170.5 secs   av.it.:  11.0
      thresh= 1.291E-04 alpha_mix =  0.700 |ddv_scf|^2 =  5.112E-10

      iter #   4 total cpu time :   171.3 secs   av.it.:  11.1
      thresh= 2.261E-06 alpha_mix =  0.700 |ddv_scf|^2 =  8.441E-12

      iter #   5 total cpu time :   172.1 secs   av.it.:  11.3
      thresh= 2.905E-07 alpha_mix =  0.700 |ddv_scf|^2 =  1.347E-13

     End of self-consistent calculation

     Convergence has been achieved 


     Representation #  3 modes #   5  6

     Self-consistent Calculation

      iter #   1 total cpu time :   172.9 secs   av.it.:   5.3
      thresh= 1.000E-02 alpha_mix =  0.700 |ddv_scf|^2 =  3.174E-07

      iter #   2 total cpu time :   173.8 secs   av.it.:  11.8
      thresh= 5.634E-05 alpha_mix =  0.700 |ddv_scf|^2 =  1.852E-07

      iter #   3 total cpu time :   174.6 secs   av.it.:  11.2
      thresh= 4.303E-05 alpha_mix =  0.700 |ddv_scf|^2 =  3.696E-10

      iter #   4 total cpu time :   175.5 secs   av.it.:  11.2
      thresh= 1.923E-06 alpha_mix =  0.700 |ddv_scf|^2 =  4.457E-12

      iter #   5 total cpu time :   176.5 secs   av.it.:  11.2
      thresh= 2.111E-07 alpha_mix =  0.700 |ddv_scf|^2 =  6.054E-14

     End of self-consistent calculation

     Convergence has been achieved 

     Number of q in the star =    6
     List of q in the star:
          1  -0.500000000  -1.000000000   0.000000000
          2   0.000000000   1.000000000   0.500000000
          3   0.000000000  -1.000000000  -0.500000000
          4   0.500000000   1.000000000   0.000000000
          5  -1.000000000  -0.500000000   0.000000000
          6   0.000000000  -0.500000000  -1.000000000

     Diagonalizing the dynamical matrix

     q = (   -0.500000000  -1.000000000   0.000000000 ) 

 **************************************************************************
     freq (    1) =       6.045018 [THz] =     201.640081 [cm-1]
     freq (    2) =       6.045018 [THz] =     201.640081 [cm-1]
     freq (    3) =      10.211439 [THz] =     340.616956 [cm-1]
     freq (    4) =      10.211439 [THz] =     340.616956 [cm-1]
     freq (    5) =      13.367466 [THz] =     445.890657 [cm-1]
     freq (    6) =      13.367466 [THz] =     445.890657 [cm-1]
 **************************************************************************

     init_run     :      1.27s CPU      1.55s WALL (       7 calls)
     electrons    :      7.38s CPU      7.99s WALL (       7 calls)

     Called by init_run:
     wfcinit      :      0.00s CPU      0.02s WALL (       7 calls)
     potinit      :      0.10s CPU      0.34s WALL (       7 calls)

     Called by electrons:
     c_bands      :      7.38s CPU      7.99s WALL (       7 calls)
     v_of_rho     :      0.09s CPU      0.09s WALL (       8 calls)
     newd         :      0.13s CPU      0.13s WALL (       8 calls)

     Called by c_bands:
     init_us_2    :      1.65s CPU      1.59s WALL (   15896 calls)
     cegterg      :      6.18s CPU      6.69s WALL (     796 calls)

     Called by sum_band:

     Called by *egterg:
     h_psi        :     71.07s CPU     76.19s WALL (  154773 calls)
     s_psi        :      5.99s CPU      7.08s WALL (  311804 calls)
     g_psi        :      0.05s CPU      0.07s WALL (    9666 calls)
     cdiaghg      :      0.56s CPU      0.56s WALL (   10462 calls)

     Called by h_psi:
     h_psi:pot    :     70.64s CPU     75.67s WALL (  154773 calls)
     h_psi:calbec :      3.51s CPU      4.05s WALL (  154773 calls)
     vloc_psi     :     62.42s CPU     67.42s WALL (  154773 calls)
     add_vuspsi   :      4.33s CPU      3.72s WALL (  154773 calls)

     General routines
     calbec       :      8.00s CPU      8.54s WALL (  346112 calls)
     fft          :      1.93s CPU      2.01s WALL (    5233 calls)
     ffts         :      0.21s CPU      0.23s WALL (    3316 calls)
     fftw         :     63.98s CPU     68.30s WALL ( 1385112 calls)
     interpolate  :      0.26s CPU      0.29s WALL (     568 calls)
     davcio       :      0.35s CPU      0.97s WALL (   69130 calls)

     Parallel routines
     fft_scatter  :     15.62s CPU     20.17s WALL ( 1393661 calls)

     PHONON       :  2m18.22s CPU     2m56.92s WALL

     INITIALIZATION: 
     phq_setup    :      0.30s CPU      0.47s WALL (       8 calls)
     phq_init     :      6.86s CPU      7.14s WALL (       8 calls)

     phq_init     :      6.86s CPU      7.14s WALL (       8 calls)
     set_drhoc    :      1.85s CPU      1.85s WALL (      24 calls)
     init_vloc    :      0.03s CPU      0.03s WALL (       8 calls)
     init_us_1    :      0.97s CPU      0.98s WALL (       8 calls)
     newd         :      0.13s CPU      0.13s WALL (       8 calls)
     dvanqq       :      1.18s CPU      1.19s WALL (       8 calls)
     drho         :      2.66s CPU      2.73s WALL (       8 calls)

     DYNAMICAL MATRIX:
     dynmat0      :      1.76s CPU      1.86s WALL (       8 calls)
     phqscf       :    117.00s CPU    149.28s WALL (       8 calls)
     dynmatrix    :      0.01s CPU      0.27s WALL (       8 calls)

     phqscf       :    117.00s CPU    149.28s WALL (       8 calls)
     solve_linter :    116.12s CPU    146.06s WALL (      32 calls)
     drhodv       :      0.59s CPU      0.62s WALL (      32 calls)

     dynmat0      :      1.76s CPU      1.86s WALL (       8 calls)
     dynmat_us    :      0.39s CPU      0.39s WALL (       8 calls)
     d2ionq       :      0.04s CPU      0.04s WALL (       8 calls)
     dynmatcc     :      1.32s CPU      1.32s WALL (       8 calls)

     dynmat_us    :      0.39s CPU      0.39s WALL (       8 calls)
     addusdynmat  :      0.00s CPU      0.00s WALL (       8 calls)

     phqscf       :    117.00s CPU    149.28s WALL (       8 calls)
     solve_linter :    116.12s CPU    146.06s WALL (      32 calls)

     solve_linter :    116.12s CPU    146.06s WALL (      32 calls)
     dvqpsi_us    :      2.13s CPU      2.28s WALL (    2508 calls)
     ortho        :      0.96s CPU      1.12s WALL (   13486 calls)
     cgsolve      :     78.66s CPU     85.51s WALL (   13486 calls)
     incdrhoscf   :      6.39s CPU      7.05s WALL (   13486 calls)
     addusddens   :      7.17s CPU      7.22s WALL (     200 calls)
     vpsifft      :      4.45s CPU      4.88s WALL (   10858 calls)
     dv_of_drho   :      1.81s CPU      1.87s WALL (     254 calls)
     mix_pot      :      0.39s CPU     11.79s WALL (     173 calls)
     psymdvscf    :      5.94s CPU      6.02s WALL (     168 calls)
     newdq        :      7.69s CPU      7.72s WALL (     173 calls)
     adddvscf     :      0.45s CPU      0.43s WALL (   10978 calls)
     drhodvus     :      0.01s CPU      0.02s WALL (      32 calls)

     dvqpsi_us    :      2.13s CPU      2.28s WALL (    2508 calls)
     dvqpsi_us_on :      0.91s CPU      0.95s WALL (    2508 calls)

     cgsolve      :     78.66s CPU     85.51s WALL (   13486 calls)
     ch_psi       :     77.58s CPU     83.72s WALL (  143515 calls)

     ch_psi       :     77.58s CPU     83.72s WALL (  143515 calls)
     h_psi        :     71.07s CPU     76.19s WALL (  154773 calls)
     last         :      9.14s CPU      9.28s WALL (  143515 calls)

     h_psi        :     71.07s CPU     76.19s WALL (  154773 calls)
     add_vuspsi   :      4.33s CPU      3.72s WALL (  154773 calls)

     incdrhoscf   :      6.39s CPU      7.05s WALL (   13486 calls)
     addusdbec    :      0.48s CPU      0.52s WALL (   15934 calls)

     drhodvus     :      0.01s CPU      0.02s WALL (      32 calls)

      General routines
     calbec       :      8.00s CPU      8.54s WALL (  346112 calls)
     fft          :      1.93s CPU      2.01s WALL (    5233 calls)
     ffts         :      0.21s CPU      0.23s WALL (    3316 calls)
     fftw         :     63.98s CPU     68.30s WALL ( 1385112 calls)
     davcio       :      0.35s CPU      0.97s WALL (   69130 calls)
     write_rec    :      0.23s CPU     13.21s WALL (     205 calls)


     PHONON       :  2m18.22s CPU     2m56.92s WALL


   This run was terminated on:  15:44:48  10Nov2017            

=------------------------------------------------------------------------------=
   JOB DONE.
=------------------------------------------------------------------------------=
