
     Program PWSCF v.6.1 (svn rev. 13369) starts on 10Nov2017 at 12: 7:53 

     This program is part of the open-source Quantum ESPRESSO suite
     for quantum simulation of materials; please cite
         "P. Giannozzi et al., J. Phys.:Condens. Matter 21 395502 (2009);
          URL http://www.quantum-espresso.org", 
     in publications or presentations arising from this work. More details at
     http://www.quantum-espresso.org/quote

     Parallel version (MPI), running on     4 processors
     R & G space division:  proc/nbgrp/npool/nimage =       4
     Waiting for input...
     Reading input from standard input
     Message from routine read_cards :
     DEPRECATED: no units specified in ATOMIC_POSITIONS card
     Message from routine read_cards :
     ATOMIC_POSITIONS: units set to alat

     Current dimensions of program PWSCF are:
     Max number of different atomic species (ntypx) = 10
     Max number of k-points (npk) =  40000
     Max angular momentum in pseudopotentials (lmaxx) =  3

     Subspace diagonalization in iterative solution of the eigenvalue problem:
     a serial algorithm will be used


     Parallelization info
     --------------------
     sticks:   dense  smooth     PW     G-vecs:    dense   smooth      PW
     Min          94      49     18                 1237      451     102
     Max          95      50     19                 1240      453     104
     Sum         379     199     73                 4957     1807     411



     bravais-lattice index     =            2
     lattice parameter (alat)  =      10.3330  a.u.
     unit-cell volume          =     275.8159 (a.u.)^3
     number of atoms/cell      =            2
     number of atomic types    =            1
     number of electrons       =         8.00
     number of Kohn-Sham states=            4
     kinetic-energy cutoff     =      13.0000  Ry
     charge density cutoff     =     104.0000  Ry
     convergence threshold     =      1.0E-08
     mixing beta               =       0.7000
     number of iterations used =            8  plain     mixing
     Exchange-correlation      = SLA  PW   PBE  PBE ( 1  4  3  4 0 0)

     celldm(1)=  10.333000  celldm(2)=   0.000000  celldm(3)=   0.000000
     celldm(4)=   0.000000  celldm(5)=   0.000000  celldm(6)=   0.000000

     crystal axes: (cart. coord. in units of alat)
               a(1) = (  -0.500000   0.000000   0.500000 )  
               a(2) = (   0.000000   0.500000   0.500000 )  
               a(3) = (  -0.500000   0.500000   0.000000 )  

     reciprocal axes: (cart. coord. in units 2 pi/alat)
               b(1) = ( -1.000000 -1.000000  1.000000 )  
               b(2) = (  1.000000  1.000000  1.000000 )  
               b(3) = ( -1.000000  1.000000 -1.000000 )  


     PseudoPot. # 1 for Si read from file:
     /home/max/quantum_espresso/qe-6.1/pseudo/si_pbe_v1.uspp.F.UPF.txt
     MD5 check sum: a056efeee980c13900f22a371efd63c1
     Pseudo is Ultrasoft + core correction, Zval =  4.0
     Generated by new atomic code, or converted to UPF format
     Using radial grid of  899 points,  6 beta functions with: 
                l(1) =   0
                l(2) =   0
                l(3) =   1
                l(4) =   1
                l(5) =   2
                l(6) =   2
     Q(r) pseudized with  8 coefficients,  rinner =    0.900   0.900   0.900
                                                       0.900   0.900

     atomic species   valence    mass     pseudopotential
        Si             4.00    28.08600     Si( 1.00)

     48 Sym. Ops., with inversion, found (24 have fractional translation)



   Cartesian axes

     site n.     atom                  positions (alat units)
         1           Si  tau(   1) = (   0.0000000   0.0000000   0.0000000  )
         2           Si  tau(   2) = (   0.2500000   0.2500000   0.2500000  )

     number of k points=    28
                       cart. coord. in units 2pi/alat
        k(    1) = (  -0.0833333   0.0833333   0.0833333), wk =   0.0185185
        k(    2) = (  -0.2500000   0.2500000  -0.0833333), wk =   0.0555556
        k(    3) = (  -0.4166667   0.4166667  -0.2500000), wk =   0.0555556
        k(    4) = (   0.4166667  -0.4166667   0.5833333), wk =   0.0555556
        k(    5) = (   0.2500000  -0.2500000   0.4166667), wk =   0.0555556
        k(    6) = (   0.0833333  -0.0833333   0.2500000), wk =   0.0555556
        k(    7) = (  -0.0833333   0.4166667   0.0833333), wk =   0.0555556
        k(    8) = (  -0.2500000   0.5833333  -0.0833333), wk =   0.1111111
        k(    9) = (   0.5833333  -0.2500000   0.7500000), wk =   0.1111111
        k(   10) = (   0.4166667  -0.0833333   0.5833333), wk =   0.1111111
        k(   11) = (   0.2500000   0.0833333   0.4166667), wk =   0.1111111
        k(   12) = (  -0.0833333   0.7500000   0.0833333), wk =   0.0555556
        k(   13) = (   0.7500000  -0.0833333   0.9166667), wk =   0.1111111
        k(   14) = (   0.5833333   0.0833333   0.7500000), wk =   0.1111111
        k(   15) = (   0.4166667   0.2500000   0.5833333), wk =   0.1111111
        k(   16) = (  -0.0833333  -0.9166667   0.0833333), wk =   0.0555556
        k(   17) = (  -0.2500000  -0.7500000  -0.0833333), wk =   0.1111111
        k(   18) = (  -0.0833333  -0.5833333   0.0833333), wk =   0.0555556
        k(   19) = (  -0.2500000   0.2500000   0.2500000), wk =   0.0185185
        k(   20) = (  -0.4166667   0.4166667   0.0833333), wk =   0.0555556
        k(   21) = (   0.4166667  -0.4166667   0.9166667), wk =   0.0555556
        k(   22) = (   0.2500000  -0.2500000   0.7500000), wk =   0.0555556
        k(   23) = (  -0.2500000   0.5833333   0.2500000), wk =   0.0555556
        k(   24) = (   0.5833333  -0.2500000   1.0833333), wk =   0.1111111
        k(   25) = (   0.4166667  -0.0833333   0.9166667), wk =   0.1111111
        k(   26) = (  -0.2500000  -1.0833333   0.2500000), wk =   0.0555556
        k(   27) = (  -0.4166667   0.4166667   0.4166667), wk =   0.0185185
        k(   28) = (   0.4166667  -0.4166667   1.2500000), wk =   0.0555556

     Dense  grid:     4957 G-vectors     FFT dimensions: (  24,  24,  24)

     Smooth grid:     1807 G-vectors     FFT dimensions: (  18,  18,  18)

     Estimated max dynamical RAM per process >       0.89MB

     Estimated total allocated dynamical RAM >       3.56MB

     Initial potential from superposition of free atoms

     starting charge    7.99866, renormalised to    8.00000
     Starting wfc are    8 randomized atomic wfcs

     total cpu time spent up to now is        0.3 secs

     per-process dynamical memory:     7.6 Mb

     Self-consistent Calculation

     iteration #  1     ecut=    13.00 Ry     beta=0.70
     Davidson diagonalization with overlap
     ethr =  1.00E-02,  avg # of iterations =  2.0

     Threshold (ethr) on eigenvalues was too large:
     Diagonalizing with lowered threshold

     Davidson diagonalization with overlap
     ethr =  6.66E-04,  avg # of iterations =  1.0

     total cpu time spent up to now is        0.5 secs

     total energy              =     -19.17609109 Ry
     Harris-Foulkes estimate   =     -19.18784682 Ry
     estimated scf accuracy    <       0.05336141 Ry

     iteration #  2     ecut=    13.00 Ry     beta=0.70
     Davidson diagonalization with overlap
     ethr =  6.67E-04,  avg # of iterations =  1.0

     total cpu time spent up to now is        0.5 secs

     total energy              =     -19.17771491 Ry
     Harris-Foulkes estimate   =     -19.17788546 Ry
     estimated scf accuracy    <       0.00250034 Ry

     iteration #  3     ecut=    13.00 Ry     beta=0.70
     Davidson diagonalization with overlap
     ethr =  3.13E-05,  avg # of iterations =  1.9

     total cpu time spent up to now is        0.6 secs

     total energy              =     -19.17797400 Ry
     Harris-Foulkes estimate   =     -19.17798572 Ry
     estimated scf accuracy    <       0.00003972 Ry

     iteration #  4     ecut=    13.00 Ry     beta=0.70
     Davidson diagonalization with overlap
     ethr =  4.96E-07,  avg # of iterations =  2.6

     total cpu time spent up to now is        0.7 secs

     total energy              =     -19.17799070 Ry
     Harris-Foulkes estimate   =     -19.17799091 Ry
     estimated scf accuracy    <       0.00000125 Ry

     iteration #  5     ecut=    13.00 Ry     beta=0.70
     Davidson diagonalization with overlap
     ethr =  1.57E-08,  avg # of iterations =  2.1

     total cpu time spent up to now is        0.8 secs

     total energy              =     -19.17799097 Ry
     Harris-Foulkes estimate   =     -19.17799097 Ry
     estimated scf accuracy    <       0.00000002 Ry

     iteration #  6     ecut=    13.00 Ry     beta=0.70
     Davidson diagonalization with overlap
     ethr =  3.07E-10,  avg # of iterations =  2.8

     total cpu time spent up to now is        1.2 secs

     End of self-consistent calculation

          k =-0.0833 0.0833 0.0833 (   214 PWs)   bands (ev):

    -5.7185   5.1402   5.8549   5.8549

          k =-0.2500 0.2500-0.0833 (   215 PWs)   bands (ev):

    -5.2490   3.0794   4.6362   5.6438

          k =-0.4167 0.4167-0.2500 (   217 PWs)   bands (ev):

    -4.1766   0.3551   4.1723   5.0123

          k = 0.4167-0.4167 0.5833 (   219 PWs)   bands (ev):

    -3.4914  -0.7724   4.2359   4.6367

          k = 0.2500-0.2500 0.4167 (   217 PWs)   bands (ev):

    -4.5793   1.1877   4.6980   4.7311

          k = 0.0833-0.0833 0.2500 (   219 PWs)   bands (ev):

    -5.4824   4.0735   5.2188   5.3966

          k =-0.0833 0.4167 0.0833 (   217 PWs)   bands (ev):

    -5.0126   2.8842   4.4796   4.4968

          k =-0.2500 0.5833-0.0833 (   219 PWs)   bands (ev):

    -4.1184   1.0699   3.1802   4.1128

          k = 0.5833-0.2500 0.7500 (   223 PWs)   bands (ev):

    -3.0212  -0.6550   2.5842   3.8885

          k = 0.4167-0.0833 0.5833 (   217 PWs)   bands (ev):

    -3.7271   0.3899   2.5476   4.3678

          k = 0.2500 0.0833 0.4167 (   216 PWs)   bands (ev):

    -4.7906   2.0639   3.8696   5.0264

          k =-0.0833 0.7500 0.0833 (   217 PWs)   bands (ev):

    -3.4150   0.2461   3.1449   3.4773

          k = 0.7500-0.0833 0.9167 (   216 PWs)   bands (ev):

    -2.2362  -1.0758   2.3190   3.0789

          k = 0.5833 0.0833 0.7500 (   221 PWs)   bands (ev):

    -2.6077  -0.7402   1.8418   3.6169

          k = 0.4167 0.2500 0.5833 (   220 PWs)   bands (ev):

    -3.6197  -0.2825   3.4713   4.4638

          k =-0.0833-0.9167 0.0833 (   219 PWs)   bands (ev):

    -2.3271  -1.0870   2.8784   3.2631

          k =-0.2500-0.7500-0.0833 (   220 PWs)   bands (ev):

    -3.2493   0.0256   2.6337   3.4148

          k =-0.0833-0.5833 0.0833 (   215 PWs)   bands (ev):

    -4.3177   1.5969   3.6833   3.8961

          k =-0.2500 0.2500 0.2500 (   211 PWs)   bands (ev):

    -5.0209   2.1176   5.2459   5.2459

          k =-0.4167 0.4167 0.0833 (   216 PWs)   bands (ev):

    -4.3562   1.1898   3.1459   5.0770

          k = 0.4167-0.4167 0.9167 (   223 PWs)   bands (ev):

    -3.1975  -0.2405   2.0548   4.3001

          k = 0.2500-0.2500 0.7500 (   216 PWs)   bands (ev):

    -3.1417  -0.3170   2.5260   3.8259

          k =-0.2500 0.5833 0.2500 (   222 PWs)   bands (ev):

    -3.9404   0.3903   3.5980   4.1944

          k = 0.5833-0.2500 1.0833 (   215 PWs)   bands (ev):

    -2.9474  -0.3529   2.1552   3.4158

          k = 0.4167-0.0833 0.9167 (   215 PWs)   bands (ev):

    -2.1304  -1.0818   1.9955   2.7591

          k =-0.2500-1.0833 0.2500 (   223 PWs)   bands (ev):

    -2.3456  -0.9907   1.8705   3.6325

          k =-0.4167 0.4167 0.4167 (   226 PWs)   bands (ev):

    -3.8561  -0.3798   4.8563   4.8563

          k = 0.4167-0.4167 1.2500 (   217 PWs)   bands (ev):

    -3.2566  -0.6779   3.0527   4.4264

     highest occupied level (ev):     5.8549

!    total energy              =     -19.17799099 Ry
     Harris-Foulkes estimate   =     -19.17799099 Ry
     estimated scf accuracy    <          3.5E-09 Ry

     The total energy is the sum of the following terms:

     one-electron contribution =       4.96963871 Ry
     hartree contribution      =       1.12869281 Ry
     xc contribution           =      -8.59408716 Ry
     ewald contribution        =     -16.68223535 Ry

     convergence has been achieved in   6 iterations


     Computing stress (Cartesian axis) and pressure

          total   stress  (Ry/bohr**3)                   (kbar)     P=  -20.11
  -0.00013669  -0.00000000  -0.00000000        -20.11     -0.00     -0.00
  -0.00000000  -0.00013669   0.00000000         -0.00    -20.11      0.00
  -0.00000000   0.00000000  -0.00013669         -0.00      0.00    -20.11


     Writing output data file silicon.13.save

     init_run     :      0.19s CPU      0.21s WALL (       1 calls)
     electrons    :      0.60s CPU      0.93s WALL (       1 calls)
     stress       :      0.10s CPU      0.10s WALL (       1 calls)

     Called by init_run:
     wfcinit      :      0.03s CPU      0.04s WALL (       1 calls)
     potinit      :      0.01s CPU      0.01s WALL (       1 calls)

     Called by electrons:
     c_bands      :      0.41s CPU      0.62s WALL (       7 calls)
     sum_band     :      0.12s CPU      0.20s WALL (       7 calls)
     v_of_rho     :      0.02s CPU      0.03s WALL (       7 calls)
     newd         :      0.05s CPU      0.07s WALL (       7 calls)
     mix_rho      :      0.00s CPU      0.00s WALL (       7 calls)

     Called by c_bands:
     init_us_2    :      0.02s CPU      0.02s WALL (     448 calls)
     cegterg      :      0.37s CPU      0.55s WALL (     196 calls)

     Called by sum_band:
     sum_band:bec :      0.00s CPU      0.00s WALL (     196 calls)
     addusdens    :      0.04s CPU      0.05s WALL (       7 calls)

     Called by *egterg:
     h_psi        :      0.31s CPU      0.40s WALL (     601 calls)
     s_psi        :      0.02s CPU      0.02s WALL (     601 calls)
     g_psi        :      0.00s CPU      0.00s WALL (     377 calls)
     cdiaghg      :      0.04s CPU      0.06s WALL (     545 calls)

     Called by h_psi:
     h_psi:pot    :      0.30s CPU      0.40s WALL (     601 calls)
     h_psi:calbec :      0.03s CPU      0.07s WALL (     601 calls)
     vloc_psi     :      0.25s CPU      0.31s WALL (     601 calls)
     add_vuspsi   :      0.02s CPU      0.02s WALL (     601 calls)

     General routines
     calbec       :      0.05s CPU      0.11s WALL (     825 calls)
     fft          :      0.03s CPU      0.06s WALL (     126 calls)
     ffts         :      0.01s CPU      0.01s WALL (      14 calls)
     fftw         :      0.27s CPU      0.35s WALL (    5370 calls)
     interpolate  :      0.01s CPU      0.02s WALL (      14 calls)
     davcio       :      0.00s CPU      0.00s WALL (      28 calls)

     Parallel routines
     fft_scatter  :      0.06s CPU      0.15s WALL (    5510 calls)

     PWSCF        :     1.09s CPU         1.46s WALL


   This run was terminated on:  12: 7:55  10Nov2017            

=------------------------------------------------------------------------------=
   JOB DONE.
=------------------------------------------------------------------------------=
