
     Program PHONON v.6.1 (svn rev. 13369) starts on  9Nov2017 at  1: 3:56 

     This program is part of the open-source Quantum ESPRESSO suite
     for quantum simulation of materials; please cite
         "P. Giannozzi et al., J. Phys.:Condens. Matter 21 395502 (2009);
          URL http://www.quantum-espresso.org", 
     in publications or presentations arising from this work. More details at
     http://www.quantum-espresso.org/quote

     Parallel version (MPI), running on     4 processors
     R & G space division:  proc/nbgrp/npool/nimage =       4

     Reading data from directory:
     ./silicon.10.20.save

   Info: using nr1, nr2, nr3 values from input

   Info: using nr1, nr2, nr3 values from input

     IMPORTANT: XC functional enforced from input :
     Exchange-correlation      = SLA  PW   PBE  PBE ( 1  4  3  4 0 0)
     Any further DFT definition will be discarded
     Please, verify this is what you really want


     Parallelization info
     --------------------
     sticks:   dense  smooth     PW     G-vecs:    dense   smooth      PW
     Min          63      63     21                  682      682     133
     Max          64      64     22                  686      686     136
     Sum         253     253     85                 2733     2733     537


     Check: negative/imaginary core charge=   -0.000006    0.000000


     Dynamical matrices for ( 4, 4, 4)  uniform grid of q-points
     (   8q-points):
       N         xq(1)         xq(2)         xq(3) 
       1   0.000000000   0.000000000   0.000000000
       2  -0.250000000   0.250000000  -0.250000000
       3   0.500000000  -0.500000000   0.500000000
       4   0.000000000   0.500000000   0.000000000
       5   0.750000000  -0.250000000   0.750000000
       6   0.500000000   0.000000000   0.500000000
       7   0.000000000  -1.000000000   0.000000000
       8  -0.500000000  -1.000000000   0.000000000

     Calculation of q =    0.0000000   0.0000000   0.0000000

                                                                                

     bravais-lattice index     =            2
     lattice parameter (alat)  =      10.2000  a.u.
     unit-cell volume          =     265.3020 (a.u.)^3
     number of atoms/cell      =            2
     number of atomic types    =            1
     kinetic-energy cut-off    =      18.0000  Ry
     charge density cut-off    =      72.0000  Ry
     convergence threshold     =      1.0E-12
     beta                      =       0.7000
     number of iterations used =            4
     Exchange-correlation      = SLA  PW   PBE  PBE ( 1  4  3  4 0 0)


     celldm(1)=   10.20000  celldm(2)=    0.00000  celldm(3)=    0.00000
     celldm(4)=    0.00000  celldm(5)=    0.00000  celldm(6)=    0.00000

     crystal axes: (cart. coord. in units of alat)
               a(1) = ( -0.5000  0.0000  0.5000 )  
               a(2) = (  0.0000  0.5000  0.5000 )  
               a(3) = ( -0.5000  0.5000  0.0000 )  

     reciprocal axes: (cart. coord. in units 2 pi/alat)
               b(1) = ( -1.0000 -1.0000  1.0000 )  
               b(2) = (  1.0000  1.0000  1.0000 )  
               b(3) = ( -1.0000  1.0000 -1.0000 )  


     Atoms inside the unit cell: 

     Cartesian axes

     site n.  atom      mass           positions (alat units)
        1     Si  28.0860   tau(    1) = (    0.00000    0.00000    0.00000  )
        2     Si  28.0860   tau(    2) = (    0.25000    0.25000    0.25000  )

     Computing dynamical matrix for 
                    q = (   0.0000000   0.0000000   0.0000000 )

     49 Sym.Ops. (with q -> -q+G )


     G cutoff =  189.7462  (    683 G-vectors)     FFT grid: ( 20, 20, 20)
     number of k points=    10

     PseudoPot. # 1 for Si read from file:
     /home/max/quantum_espresso/qe-6.1/pseudo/si_pbe_v1.uspp.F.UPF.txt
     MD5 check sum: a056efeee980c13900f22a371efd63c1
     Pseudo is Ultrasoft + core correction, Zval =  4.0
     Generated by new atomic code, or converted to UPF format
     Using radial grid of  899 points,  6 beta functions with: 
                l(1) =   0
                l(2) =   0
                l(3) =   1
                l(4) =   1
                l(5) =   2
                l(6) =   2
     Q(r) pseudized with  8 coefficients,  rinner =    0.900   0.900   0.900
                                                       0.900   0.900

     Mode symmetry, O_h (m-3m)  point group:


     Electric field:
     Dielectric constant
     Born effective charges in two ways 


     Atomic displacements:
     There are   2 irreducible representations

     Representation     1      3 modes -T_2g G_25' G_5+  To be done

     Representation     2      3 modes -T_1u G_15  G_4-  To be done



     Alpha used in Ewald sum =   0.7000
     PHONON       :     0.39s CPU         0.40s WALL


     Electric Fields Calculation

      iter #   1 total cpu time :     0.8 secs   av.it.:   5.5
      thresh= 1.000E-02 alpha_mix =  0.700 |ddv_scf|^2 =  9.021E-07

      iter #   2 total cpu time :     0.9 secs   av.it.:   9.9
      thresh= 9.498E-05 alpha_mix =  0.700 |ddv_scf|^2 =  5.299E-08

      iter #   3 total cpu time :     1.1 secs   av.it.:   9.8
      thresh= 2.302E-05 alpha_mix =  0.700 |ddv_scf|^2 =  3.959E-09

      iter #   4 total cpu time :     1.3 secs   av.it.:   9.0
      thresh= 6.292E-06 alpha_mix =  0.700 |ddv_scf|^2 =  2.180E-11

      iter #   5 total cpu time :     1.4 secs   av.it.:   9.1
      thresh= 4.669E-07 alpha_mix =  0.700 |ddv_scf|^2 =  1.136E-14

     End of electric fields calculation

          Dielectric constant in cartesian axis 

          (      13.658416122       0.000000000       0.000000000 )
          (       0.000000000      13.658416122      -0.000000000 )
          (       0.000000000      -0.000000000      13.658416122 )

          Effective charges (d Force / dE) in cartesian axis

           atom      1   Si 
      Ex  (       -0.03726        0.00000       -0.00000 )
      Ey  (        0.00000       -0.03726       -0.00000 )
      Ez  (       -0.00000       -0.00000       -0.03726 )
           atom      2   Si 
      Ex  (       -0.03726        0.00000        0.00000 )
      Ey  (        0.00000       -0.03726       -0.00000 )
      Ez  (        0.00000       -0.00000       -0.03726 )


     Representation #  1 modes #   1  2  3

     Self-consistent Calculation

      iter #   1 total cpu time :     1.8 secs   av.it.:   5.0
      thresh= 1.000E-02 alpha_mix =  0.700 |ddv_scf|^2 =  2.068E-07

      iter #   2 total cpu time :     2.2 secs   av.it.:   9.9
      thresh= 4.547E-05 alpha_mix =  0.700 |ddv_scf|^2 =  1.217E-08

      iter #   3 total cpu time :     2.3 secs   av.it.:   9.2
      thresh= 1.103E-05 alpha_mix =  0.700 |ddv_scf|^2 =  7.834E-10

      iter #   4 total cpu time :     2.5 secs   av.it.:   9.0
      thresh= 2.799E-06 alpha_mix =  0.700 |ddv_scf|^2 =  1.713E-12

      iter #   5 total cpu time :     2.7 secs   av.it.:   9.4
      thresh= 1.309E-07 alpha_mix =  0.700 |ddv_scf|^2 =  1.162E-14

     End of self-consistent calculation

     Convergence has been achieved 


     Representation #  2 modes #   4  5  6

     Self-consistent Calculation

      iter #   1 total cpu time :     2.9 secs   av.it.:   5.0
      thresh= 1.000E-02 alpha_mix =  0.700 |ddv_scf|^2 =  1.719E-07

      iter #   2 total cpu time :     3.1 secs   av.it.:   9.6
      thresh= 4.147E-05 alpha_mix =  0.700 |ddv_scf|^2 =  1.337E-08

      iter #   3 total cpu time :     3.2 secs   av.it.:   9.2
      thresh= 1.156E-05 alpha_mix =  0.700 |ddv_scf|^2 =  8.265E-10

      iter #   4 total cpu time :     3.6 secs   av.it.:   9.5
      thresh= 2.875E-06 alpha_mix =  0.700 |ddv_scf|^2 =  4.805E-12

      iter #   5 total cpu time :     3.8 secs   av.it.:   8.9
      thresh= 2.192E-07 alpha_mix =  0.700 |ddv_scf|^2 =  3.507E-15

     End of self-consistent calculation

     Convergence has been achieved 

     Number of q in the star =    1
     List of q in the star:
          1   0.000000000   0.000000000   0.000000000

          Dielectric constant in cartesian axis 

          (      13.658416122       0.000000000       0.000000000 )
          (       0.000000000      13.658416122      -0.000000000 )
          (       0.000000000      -0.000000000      13.658416122 )

          Effective charges (d Force / dE) in cartesian axis

           atom      1   Si 
      Ex  (       -0.03726        0.00000       -0.00000 )
      Ey  (        0.00000       -0.03726       -0.00000 )
      Ez  (       -0.00000       -0.00000       -0.03726 )
           atom      2   Si 
      Ex  (       -0.03726        0.00000        0.00000 )
      Ey  (        0.00000       -0.03726       -0.00000 )
      Ez  (        0.00000       -0.00000       -0.03726 )

          Effective charges (d P / du) in cartesian axis 

           atom      1   Si 
      Px  (       -0.07318        0.00000       -0.00000 )
      Py  (       -0.00000       -0.07318       -0.00000 )
      Pz  (       -0.00000        0.00000       -0.07318 )
           atom      2   Si 
      Px  (       -0.07318        0.00000        0.00000 )
      Py  (        0.00000       -0.07318       -0.00000 )
      Pz  (        0.00000       -0.00000       -0.07318 )

     Diagonalizing the dynamical matrix

     q = (    0.000000000   0.000000000   0.000000000 ) 

 **************************************************************************
     freq (    1) =       1.754822 [THz] =      58.534551 [cm-1]
     freq (    2) =       1.754822 [THz] =      58.534551 [cm-1]
     freq (    3) =       1.754822 [THz] =      58.534551 [cm-1]
     freq (    4) =      15.726556 [THz] =     524.581433 [cm-1]
     freq (    5) =      15.726556 [THz] =     524.581433 [cm-1]
     freq (    6) =      15.726556 [THz] =     524.581433 [cm-1]
 **************************************************************************

     Mode symmetry, O_h (m-3m)  point group:

     freq (  1 -  3) =         58.5  [cm-1]   --> T_1u G_15  G_4- I  
     freq (  4 -  6) =        524.6  [cm-1]   --> T_2g G_25' G_5+ R  

     Calculation of q =   -0.2500000   0.2500000  -0.2500000

   Info: using nr1, nr2, nr3 values from input

   Info: using nr1, nr2, nr3 values from input

     Parallelization info
     --------------------
     sticks:   dense  smooth     PW     G-vecs:    dense   smooth      PW
     Min          63      63     24                  682      682     161
     Max          64      64     25                  686      686     162
     Sum         253     253     97                 2733     2733     645



     bravais-lattice index     =            2
     lattice parameter (alat)  =      10.2000  a.u.
     unit-cell volume          =     265.3020 (a.u.)^3
     number of atoms/cell      =            2
     number of atomic types    =            1
     number of electrons       =         8.00
     number of Kohn-Sham states=            4
     kinetic-energy cutoff     =      18.0000  Ry
     charge density cutoff     =      72.0000  Ry
     Exchange-correlation      = SLA  PW   PBE  PBE ( 1  4  3  4 0 0)

     celldm(1)=  10.200000  celldm(2)=   0.000000  celldm(3)=   0.000000
     celldm(4)=   0.000000  celldm(5)=   0.000000  celldm(6)=   0.000000

     crystal axes: (cart. coord. in units of alat)
               a(1) = (  -0.500000   0.000000   0.500000 )  
               a(2) = (   0.000000   0.500000   0.500000 )  
               a(3) = (  -0.500000   0.500000   0.000000 )  

     reciprocal axes: (cart. coord. in units 2 pi/alat)
               b(1) = ( -1.000000 -1.000000  1.000000 )  
               b(2) = (  1.000000  1.000000  1.000000 )  
               b(3) = ( -1.000000  1.000000 -1.000000 )  


     PseudoPot. # 1 for Si read from file:
     /home/max/quantum_espresso/qe-6.1/pseudo/si_pbe_v1.uspp.F.UPF.txt
     MD5 check sum: a056efeee980c13900f22a371efd63c1
     Pseudo is Ultrasoft + core correction, Zval =  4.0
     Generated by new atomic code, or converted to UPF format
     Using radial grid of  899 points,  6 beta functions with: 
                l(1) =   0
                l(2) =   0
                l(3) =   1
                l(4) =   1
                l(5) =   2
                l(6) =   2
     Q(r) pseudized with  8 coefficients,  rinner =    0.900   0.900   0.900
                                                       0.900   0.900

     atomic species   valence    mass     pseudopotential
        Si             4.00    28.08600     Si( 1.00)

     48 Sym. Ops., with inversion, found



   Cartesian axes

     site n.     atom                  positions (alat units)
         1           Si  tau(   1) = (   0.0000000   0.0000000   0.0000000  )
         2           Si  tau(   2) = (   0.2500000   0.2500000   0.2500000  )

     number of k points=   120

     Number of k-points >= 100: set verbosity='high' to print them.

     Dense  grid:     2733 G-vectors     FFT dimensions: (  20,  20,  20)

     Estimated max dynamical RAM per process >       0.32MB

     Estimated total allocated dynamical RAM >       1.29MB

     Check: negative/imaginary core charge=   -0.000006    0.000000

     The potential is recalculated from file :
     ./_ph0/silicon.10.20.save/charge-density.dat

     Starting wfc are    8 atomic wfcs

     Band Structure Calculation
     Davidson diagonalization with overlap

     ethr =  1.25E-10,  avg # of iterations = 11.6

     total cpu time spent up to now is        0.8 secs

     End of band structure calculation

     Number of k-points >= 100: set verbosity='high' to print the bands.

     highest occupied level (ev):     6.0947

     Writing output data file silicon.10.20.save

                                                                                

     bravais-lattice index     =            2
     lattice parameter (alat)  =      10.2000  a.u.
     unit-cell volume          =     265.3020 (a.u.)^3
     number of atoms/cell      =            2
     number of atomic types    =            1
     kinetic-energy cut-off    =      18.0000  Ry
     charge density cut-off    =      72.0000  Ry
     convergence threshold     =      1.0E-12
     beta                      =       0.7000
     number of iterations used =            4
     Exchange-correlation      = SLA  PW   PBE  PBE ( 1  4  3  4 0 0)


     celldm(1)=   10.20000  celldm(2)=    0.00000  celldm(3)=    0.00000
     celldm(4)=    0.00000  celldm(5)=    0.00000  celldm(6)=    0.00000

     crystal axes: (cart. coord. in units of alat)
               a(1) = ( -0.5000  0.0000  0.5000 )  
               a(2) = (  0.0000  0.5000  0.5000 )  
               a(3) = ( -0.5000  0.5000  0.0000 )  

     reciprocal axes: (cart. coord. in units 2 pi/alat)
               b(1) = ( -1.0000 -1.0000  1.0000 )  
               b(2) = (  1.0000  1.0000  1.0000 )  
               b(3) = ( -1.0000  1.0000 -1.0000 )  


     Atoms inside the unit cell: 

     Cartesian axes

     site n.  atom      mass           positions (alat units)
        1     Si  28.0860   tau(    1) = (    0.00000    0.00000    0.00000  )
        2     Si  28.0860   tau(    2) = (    0.25000    0.25000    0.25000  )

     Computing dynamical matrix for 
                    q = (  -0.2500000   0.2500000  -0.2500000 )

      6 Sym.Ops. (no q -> -q+G )


     G cutoff =  189.7462  (    683 G-vectors)     FFT grid: ( 20, 20, 20)
     number of k points=   120

     PseudoPot. # 1 for Si read from file:
     /home/max/quantum_espresso/qe-6.1/pseudo/si_pbe_v1.uspp.F.UPF.txt
     MD5 check sum: a056efeee980c13900f22a371efd63c1
     Pseudo is Ultrasoft + core correction, Zval =  4.0
     Generated by new atomic code, or converted to UPF format
     Using radial grid of  899 points,  6 beta functions with: 
                l(1) =   0
                l(2) =   0
                l(3) =   1
                l(4) =   1
                l(5) =   2
                l(6) =   2
     Q(r) pseudized with  8 coefficients,  rinner =    0.900   0.900   0.900
                                                       0.900   0.900

     Mode symmetry, C_3v (3m)   point group:


     Atomic displacements:
     There are   4 irreducible representations

     Representation     1      1 modes -A_1  L_1  To be done

     Representation     2      1 modes -A_1  L_1  To be done

     Representation     3      2 modes -E    L_3  To be done

     Representation     4      2 modes -E    L_3  To be done



     Alpha used in Ewald sum =   0.7000
     PHONON       :     4.75s CPU         5.18s WALL



     Representation #  1 mode #   1

     Self-consistent Calculation

      iter #   1 total cpu time :     5.4 secs   av.it.:   5.5
      thresh= 1.000E-02 alpha_mix =  0.700 |ddv_scf|^2 =  2.572E-03

      iter #   2 total cpu time :     5.6 secs   av.it.:   7.4
      thresh= 5.071E-03 alpha_mix =  0.700 |ddv_scf|^2 =  3.835E-02

      iter #   3 total cpu time :     6.0 secs   av.it.:   6.3
      thresh= 1.000E-02 alpha_mix =  0.700 |ddv_scf|^2 =  1.696E-06

      iter #   4 total cpu time :     6.3 secs   av.it.:   8.2
      thresh= 1.302E-04 alpha_mix =  0.700 |ddv_scf|^2 =  1.062E-07

      iter #   5 total cpu time :     6.5 secs   av.it.:   8.1
      thresh= 3.260E-05 alpha_mix =  0.700 |ddv_scf|^2 =  4.724E-09

      iter #   6 total cpu time :     6.8 secs   av.it.:   7.8
      thresh= 6.873E-06 alpha_mix =  0.700 |ddv_scf|^2 =  1.275E-08

      iter #   7 total cpu time :     7.0 secs   av.it.:   5.8
      thresh= 1.129E-05 alpha_mix =  0.700 |ddv_scf|^2 =  1.259E-10

      iter #   8 total cpu time :     7.3 secs   av.it.:   7.7
      thresh= 1.122E-06 alpha_mix =  0.700 |ddv_scf|^2 =  4.418E-12

      iter #   9 total cpu time :     7.6 secs   av.it.:   7.1
      thresh= 2.102E-07 alpha_mix =  0.700 |ddv_scf|^2 =  1.724E-13

     End of self-consistent calculation

     Convergence has been achieved 


     Representation #  2 mode #   2

     Self-consistent Calculation

      iter #   1 total cpu time :     8.0 secs   av.it.:   5.5
      thresh= 1.000E-02 alpha_mix =  0.700 |ddv_scf|^2 =  2.572E-03

      iter #   2 total cpu time :     8.2 secs   av.it.:   7.4
      thresh= 5.071E-03 alpha_mix =  0.700 |ddv_scf|^2 =  3.835E-02

      iter #   3 total cpu time :     8.4 secs   av.it.:   6.3
      thresh= 1.000E-02 alpha_mix =  0.700 |ddv_scf|^2 =  1.696E-06

      iter #   4 total cpu time :     8.7 secs   av.it.:   8.2
      thresh= 1.302E-04 alpha_mix =  0.700 |ddv_scf|^2 =  1.062E-07

      iter #   5 total cpu time :     9.0 secs   av.it.:   8.1
      thresh= 3.260E-05 alpha_mix =  0.700 |ddv_scf|^2 =  4.724E-09

      iter #   6 total cpu time :     9.2 secs   av.it.:   7.8
      thresh= 6.873E-06 alpha_mix =  0.700 |ddv_scf|^2 =  1.275E-08

      iter #   7 total cpu time :     9.4 secs   av.it.:   5.8
      thresh= 1.129E-05 alpha_mix =  0.700 |ddv_scf|^2 =  1.259E-10

      iter #   8 total cpu time :     9.7 secs   av.it.:   7.7
      thresh= 1.122E-06 alpha_mix =  0.700 |ddv_scf|^2 =  4.418E-12

      iter #   9 total cpu time :    10.0 secs   av.it.:   7.1
      thresh= 2.102E-07 alpha_mix =  0.700 |ddv_scf|^2 =  1.724E-13

     End of self-consistent calculation

     Convergence has been achieved 


     Representation #  3 modes #   3  4

     Self-consistent Calculation

      iter #   1 total cpu time :    10.4 secs   av.it.:   5.0
      thresh= 1.000E-02 alpha_mix =  0.700 |ddv_scf|^2 =  5.393E-07

      iter #   2 total cpu time :    11.0 secs   av.it.:   9.4
      thresh= 7.344E-05 alpha_mix =  0.700 |ddv_scf|^2 =  3.936E-08

      iter #   3 total cpu time :    11.7 secs   av.it.:   9.2
      thresh= 1.984E-05 alpha_mix =  0.700 |ddv_scf|^2 =  3.300E-09

      iter #   4 total cpu time :    12.4 secs   av.it.:   8.9
      thresh= 5.744E-06 alpha_mix =  0.700 |ddv_scf|^2 =  1.018E-11

      iter #   5 total cpu time :    13.0 secs   av.it.:   9.1
      thresh= 3.191E-07 alpha_mix =  0.700 |ddv_scf|^2 =  4.761E-13

     End of self-consistent calculation

     Convergence has been achieved 


     Representation #  4 modes #   5  6

     Self-consistent Calculation

      iter #   1 total cpu time :    13.4 secs   av.it.:   5.0
      thresh= 1.000E-02 alpha_mix =  0.700 |ddv_scf|^2 =  5.391E-07

      iter #   2 total cpu time :    14.2 secs   av.it.:   9.6
      thresh= 7.343E-05 alpha_mix =  0.700 |ddv_scf|^2 =  3.930E-08

      iter #   3 total cpu time :    14.7 secs   av.it.:   9.4
      thresh= 1.983E-05 alpha_mix =  0.700 |ddv_scf|^2 =  3.297E-09

      iter #   4 total cpu time :    15.3 secs   av.it.:   9.1
      thresh= 5.742E-06 alpha_mix =  0.700 |ddv_scf|^2 =  1.019E-11

      iter #   5 total cpu time :    15.9 secs   av.it.:   9.2
      thresh= 3.192E-07 alpha_mix =  0.700 |ddv_scf|^2 =  4.765E-13

     End of self-consistent calculation

     Convergence has been achieved 

     Number of q in the star =    8
     List of q in the star:
          1  -0.250000000   0.250000000  -0.250000000
          2   0.250000000  -0.250000000  -0.250000000
          3   0.250000000  -0.250000000   0.250000000
          4   0.250000000   0.250000000   0.250000000
          5  -0.250000000  -0.250000000  -0.250000000
          6  -0.250000000  -0.250000000   0.250000000
          7  -0.250000000   0.250000000   0.250000000
          8   0.250000000   0.250000000  -0.250000000

     Diagonalizing the dynamical matrix

     q = (   -0.250000000   0.250000000  -0.250000000 ) 

 **************************************************************************
     freq (    1) =       3.241490 [THz] =     108.124461 [cm-1]
     freq (    2) =       3.241490 [THz] =     108.124461 [cm-1]
     freq (    3) =       7.175501 [THz] =     239.348966 [cm-1]
     freq (    4) =      14.781852 [THz] =     493.069509 [cm-1]
     freq (    5) =      15.170060 [THz] =     506.018736 [cm-1]
     freq (    6) =      15.170060 [THz] =     506.018736 [cm-1]
 **************************************************************************

     Mode symmetry, C_3v (3m)   point group:

     freq (  1 -  2) =        108.1  [cm-1]   --> E    L_3           
     freq (  3 -  3) =        239.3  [cm-1]   --> A_1  L_1           
     freq (  4 -  4) =        493.1  [cm-1]   --> A_1  L_1           
     freq (  5 -  6) =        506.0  [cm-1]   --> E    L_3           

     Calculation of q =    0.5000000  -0.5000000   0.5000000

   Info: using nr1, nr2, nr3 values from input

   Info: using nr1, nr2, nr3 values from input

     Parallelization info
     --------------------
     sticks:   dense  smooth     PW     G-vecs:    dense   smooth      PW
     Min          63      63     27                  682      682     181
     Max          64      64     28                  686      686     182
     Sum         253     253    109                 2733     2733     725



     bravais-lattice index     =            2
     lattice parameter (alat)  =      10.2000  a.u.
     unit-cell volume          =     265.3020 (a.u.)^3
     number of atoms/cell      =            2
     number of atomic types    =            1
     number of electrons       =         8.00
     number of Kohn-Sham states=            4
     kinetic-energy cutoff     =      18.0000  Ry
     charge density cutoff     =      72.0000  Ry
     Exchange-correlation      = SLA  PW   PBE  PBE ( 1  4  3  4 0 0)

     celldm(1)=  10.200000  celldm(2)=   0.000000  celldm(3)=   0.000000
     celldm(4)=   0.000000  celldm(5)=   0.000000  celldm(6)=   0.000000

     crystal axes: (cart. coord. in units of alat)
               a(1) = (  -0.500000   0.000000   0.500000 )  
               a(2) = (   0.000000   0.500000   0.500000 )  
               a(3) = (  -0.500000   0.500000   0.000000 )  

     reciprocal axes: (cart. coord. in units 2 pi/alat)
               b(1) = ( -1.000000 -1.000000  1.000000 )  
               b(2) = (  1.000000  1.000000  1.000000 )  
               b(3) = ( -1.000000  1.000000 -1.000000 )  


     PseudoPot. # 1 for Si read from file:
     /home/max/quantum_espresso/qe-6.1/pseudo/si_pbe_v1.uspp.F.UPF.txt
     MD5 check sum: a056efeee980c13900f22a371efd63c1
     Pseudo is Ultrasoft + core correction, Zval =  4.0
     Generated by new atomic code, or converted to UPF format
     Using radial grid of  899 points,  6 beta functions with: 
                l(1) =   0
                l(2) =   0
                l(3) =   1
                l(4) =   1
                l(5) =   2
                l(6) =   2
     Q(r) pseudized with  8 coefficients,  rinner =    0.900   0.900   0.900
                                                       0.900   0.900

     atomic species   valence    mass     pseudopotential
        Si             4.00    28.08600     Si( 1.00)

     48 Sym. Ops., with inversion, found



   Cartesian axes

     site n.     atom                  positions (alat units)
         1           Si  tau(   1) = (   0.0000000   0.0000000   0.0000000  )
         2           Si  tau(   2) = (   0.2500000   0.2500000   0.2500000  )

     number of k points=    60
                       cart. coord. in units 2pi/alat
        k(    1) = (  -0.1250000   0.1250000   0.1250000), wk =   0.0468750
        k(    2) = (   0.3750000  -0.3750000   0.6250000), wk =   0.0000000
        k(    3) = (  -0.3750000   0.3750000  -0.1250000), wk =   0.0468750
        k(    4) = (   0.1250000  -0.1250000   0.3750000), wk =   0.0000000
        k(    5) = (   0.3750000  -0.3750000   0.6250000), wk =   0.0468750
        k(    6) = (   0.8750000  -0.8750000   1.1250000), wk =   0.0000000
        k(    7) = (   0.1250000  -0.1250000   0.3750000), wk =   0.0468750
        k(    8) = (   0.6250000  -0.6250000   0.8750000), wk =   0.0000000
        k(    9) = (  -0.1250000   0.6250000   0.1250000), wk =   0.0937500
        k(   10) = (   0.3750000   0.1250000   0.6250000), wk =   0.0000000
        k(   11) = (   0.6250000  -0.1250000   0.8750000), wk =   0.0937500
        k(   12) = (   1.1250000  -0.6250000   1.3750000), wk =   0.0000000
        k(   13) = (   0.3750000   0.1250000   0.6250000), wk =   0.0937500
        k(   14) = (   0.8750000  -0.3750000   1.1250000), wk =   0.0000000
        k(   15) = (  -0.1250000  -0.8750000   0.1250000), wk =   0.0937500
        k(   16) = (   0.3750000  -1.3750000   0.6250000), wk =   0.0000000
        k(   17) = (  -0.3750000   0.3750000   0.3750000), wk =   0.0468750
        k(   18) = (   0.1250000  -0.1250000   0.8750000), wk =   0.0000000
        k(   19) = (   0.3750000  -0.3750000   1.1250000), wk =   0.0468750
        k(   20) = (   0.8750000  -0.8750000   1.6250000), wk =   0.0000000
        k(   21) = (   0.1250000  -0.1250000   0.1250000), wk =   0.0156250
        k(   22) = (   0.6250000  -0.6250000   0.6250000), wk =   0.0000000
        k(   23) = (  -0.3750000  -0.3750000  -0.1250000), wk =   0.0937500
        k(   24) = (   0.1250000  -0.8750000   0.3750000), wk =   0.0000000
        k(   25) = (  -0.1250000  -0.3750000   0.3750000), wk =   0.0468750
        k(   26) = (   0.3750000  -0.8750000   0.8750000), wk =   0.0000000
        k(   27) = (   0.3750000   0.3750000   0.6250000), wk =   0.0937500
        k(   28) = (   0.8750000  -0.1250000   1.1250000), wk =   0.0000000
        k(   29) = (   0.6250000   0.3750000  -0.3750000), wk =   0.0468750
        k(   30) = (   1.1250000  -0.1250000   0.1250000), wk =   0.0000000
        k(   31) = (   0.1250000   0.1250000   0.3750000), wk =   0.0937500
        k(   32) = (   0.6250000  -0.3750000   0.8750000), wk =   0.0000000
        k(   33) = (   0.3750000   0.1250000  -0.1250000), wk =   0.0468750
        k(   34) = (   0.8750000  -0.3750000   0.3750000), wk =   0.0000000
        k(   35) = (  -0.1250000  -0.6250000  -0.1250000), wk =   0.0468750
        k(   36) = (   0.3750000  -1.1250000   0.3750000), wk =   0.0000000
        k(   37) = (   0.1250000  -0.6250000   0.1250000), wk =   0.0468750
        k(   38) = (   0.6250000  -1.1250000   0.6250000), wk =   0.0000000
        k(   39) = (   0.6250000   0.1250000   0.8750000), wk =   0.0937500
        k(   40) = (   1.1250000  -0.3750000   1.3750000), wk =   0.0000000
        k(   41) = (  -0.8750000   0.1250000   0.6250000), wk =   0.0937500
        k(   42) = (  -0.3750000  -0.3750000   1.1250000), wk =   0.0000000
        k(   43) = (   0.8750000   0.1250000  -0.6250000), wk =   0.0937500
        k(   44) = (   1.3750000  -0.3750000  -0.1250000), wk =   0.0000000
        k(   45) = (   0.3750000  -0.1250000   0.6250000), wk =   0.0937500
        k(   46) = (   0.8750000  -0.6250000   1.1250000), wk =   0.0000000
        k(   47) = (  -0.6250000  -0.1250000   0.3750000), wk =   0.0937500
        k(   48) = (  -0.1250000  -0.6250000   0.8750000), wk =   0.0000000
        k(   49) = (   0.6250000  -0.1250000  -0.3750000), wk =   0.0937500
        k(   50) = (   1.1250000  -0.6250000   0.1250000), wk =   0.0000000
        k(   51) = (  -0.1250000   0.8750000  -0.1250000), wk =   0.0468750
        k(   52) = (   0.3750000   0.3750000   0.3750000), wk =   0.0000000
        k(   53) = (   0.1250000   0.8750000   0.1250000), wk =   0.0468750
        k(   54) = (   0.6250000   0.3750000   0.6250000), wk =   0.0000000
        k(   55) = (   0.3750000  -0.3750000   0.3750000), wk =   0.0156250
        k(   56) = (   0.8750000  -0.8750000   0.8750000), wk =   0.0000000
        k(   57) = (   0.3750000   0.3750000   1.1250000), wk =   0.0937500
        k(   58) = (   0.8750000  -0.1250000   1.6250000), wk =   0.0000000
        k(   59) = (   1.1250000   0.3750000  -0.3750000), wk =   0.0468750
        k(   60) = (   1.6250000  -0.1250000   0.1250000), wk =   0.0000000

     Dense  grid:     2733 G-vectors     FFT dimensions: (  20,  20,  20)

     Estimated max dynamical RAM per process >       0.32MB

     Estimated total allocated dynamical RAM >       1.29MB

     Check: negative/imaginary core charge=   -0.000006    0.000000

     The potential is recalculated from file :
     ./_ph0/silicon.10.20.save/charge-density.dat

     Starting wfc are    8 atomic wfcs

     Band Structure Calculation
     Davidson diagonalization with overlap

     ethr =  1.25E-10,  avg # of iterations = 11.6

     total cpu time spent up to now is        1.4 secs

     End of band structure calculation

          k =-0.1250 0.1250 0.1250 (   335 PWs)   bands (ev):

    -5.4866   4.7848   6.0947   6.0947

          k = 0.3750-0.3750 0.6250 (   343 PWs)   bands (ev):

    -3.2349  -0.4301   4.0848   4.8018

          k =-0.3750 0.3750-0.1250 (   341 PWs)   bands (ev):

    -4.4251   1.7276   4.0466   5.6040

          k = 0.1250-0.1250 0.3750 (   338 PWs)   bands (ev):

    -4.9416   3.1496   5.0468   5.1349

          k = 0.3750-0.3750 0.6250 (   343 PWs)   bands (ev):

    -3.2349  -0.4301   4.0848   4.8018

          k = 0.8750-0.8750 1.1250 (   335 PWs)   bands (ev):

    -5.4866   4.7848   6.0947   6.0947

          k = 0.1250-0.1250 0.3750 (   338 PWs)   bands (ev):

    -4.9416   3.1496   5.0468   5.1349

          k = 0.6250-0.6250 0.8750 (   341 PWs)   bands (ev):

    -4.4251   1.7276   4.0466   5.6040

          k =-0.1250 0.6250 0.1250 (   337 PWs)   bands (ev):

    -3.8751   1.4249   3.6774   4.1437

          k = 0.3750 0.1250 0.6250 (   340 PWs)   bands (ev):

    -3.4412   0.5029   3.0218   4.4279

          k = 0.6250-0.1250 0.8750 (   347 PWs)   bands (ev):

    -2.1707  -0.5925   2.2623   3.3787

          k = 1.1250-0.6250 1.3750 (   341 PWs)   bands (ev):

    -4.4251   1.7276   4.0466   5.6040

          k = 0.3750 0.1250 0.6250 (   340 PWs)   bands (ev):

    -3.4412   0.5029   3.0218   4.4279

          k = 0.8750-0.3750 1.1250 (   337 PWs)   bands (ev):

    -3.8751   1.4249   3.6774   4.1437

          k =-0.1250-0.8750 0.1250 (   343 PWs)   bands (ev):

    -2.3527  -0.4868   2.8960   3.6622

          k = 0.3750-1.3750 0.6250 (   343 PWs)   bands (ev):

    -3.2349  -0.4301   4.0848   4.8018

          k =-0.3750 0.3750 0.3750 (   350 PWs)   bands (ev):

    -3.9745   0.3813   5.2858   5.2858

          k = 0.1250-0.1250 0.8750 (   343 PWs)   bands (ev):

    -2.3527  -0.4868   2.8960   3.6622

          k = 0.3750-0.3750 1.1250 (   344 PWs)   bands (ev):

    -2.7229  -0.3085   2.3372   4.4717

          k = 0.8750-0.8750 1.6250 (   337 PWs)   bands (ev):

    -3.8751   1.4249   3.6774   4.1437

          k = 0.1250-0.1250 0.1250 (   335 PWs)   bands (ev):

    -5.4866   4.7848   6.0947   6.0947

          k = 0.6250-0.6250 0.6250 (   350 PWs)   bands (ev):

    -3.9745   0.3813   5.2858   5.2858

          k =-0.3750-0.3750-0.1250 (   341 PWs)   bands (ev):

    -4.4251   1.7276   4.0466   5.6040

          k = 0.1250-0.8750 0.3750 (   347 PWs)   bands (ev):

    -2.1707  -0.5925   2.2623   3.3787

          k =-0.1250-0.3750 0.3750 (   341 PWs)   bands (ev):

    -4.4251   1.7276   4.0466   5.6040

          k = 0.3750-0.8750 0.8750 (   337 PWs)   bands (ev):

    -3.8751   1.4249   3.6774   4.1437

          k = 0.3750 0.3750 0.6250 (   343 PWs)   bands (ev):

    -3.2349  -0.4301   4.0848   4.8018

          k = 0.8750-0.1250 1.1250 (   343 PWs)   bands (ev):

    -2.3527  -0.4868   2.8960   3.6622

          k = 0.6250 0.3750-0.3750 (   343 PWs)   bands (ev):

    -3.2349  -0.4301   4.0848   4.8018

          k = 1.1250-0.1250 0.1250 (   343 PWs)   bands (ev):

    -2.3527  -0.4868   2.8960   3.6622

          k = 0.1250 0.1250 0.3750 (   338 PWs)   bands (ev):

    -4.9416   3.1496   5.0468   5.1349

          k = 0.6250-0.3750 0.8750 (   340 PWs)   bands (ev):

    -3.4412   0.5029   3.0218   4.4279

          k = 0.3750 0.1250-0.1250 (   338 PWs)   bands (ev):

    -4.9416   3.1496   5.0468   5.1349

          k = 0.8750-0.3750 0.3750 (   344 PWs)   bands (ev):

    -2.7229  -0.3085   2.3372   4.4717

          k =-0.1250-0.6250-0.1250 (   337 PWs)   bands (ev):

    -3.8751   1.4249   3.6774   4.1437

          k = 0.3750-1.1250 0.3750 (   344 PWs)   bands (ev):

    -2.7229  -0.3085   2.3372   4.4717

          k = 0.1250-0.6250 0.1250 (   337 PWs)   bands (ev):

    -3.8751   1.4249   3.6774   4.1437

          k = 0.6250-1.1250 0.6250 (   341 PWs)   bands (ev):

    -4.4251   1.7276   4.0466   5.6040

          k = 0.6250 0.1250 0.8750 (   347 PWs)   bands (ev):

    -2.1707  -0.5925   2.2623   3.3787

          k = 1.1250-0.3750 1.3750 (   340 PWs)   bands (ev):

    -3.4412   0.5029   3.0218   4.4279

          k =-0.8750 0.1250 0.6250 (   347 PWs)   bands (ev):

    -2.1707  -0.5925   2.2623   3.3787

          k =-0.3750-0.3750 1.1250 (   344 PWs)   bands (ev):

    -2.7229  -0.3085   2.3372   4.4717

          k = 0.8750 0.1250-0.6250 (   347 PWs)   bands (ev):

    -2.1707  -0.5925   2.2623   3.3787

          k = 1.3750-0.3750-0.1250 (   340 PWs)   bands (ev):

    -3.4412   0.5029   3.0218   4.4279

          k = 0.3750-0.1250 0.6250 (   340 PWs)   bands (ev):

    -3.4412   0.5029   3.0218   4.4279

          k = 0.8750-0.6250 1.1250 (   338 PWs)   bands (ev):

    -4.9416   3.1496   5.0468   5.1349

          k =-0.6250-0.1250 0.3750 (   340 PWs)   bands (ev):

    -3.4412   0.5029   3.0218   4.4279

          k =-0.1250-0.6250 0.8750 (   347 PWs)   bands (ev):

    -2.1707  -0.5925   2.2623   3.3787

          k = 0.6250-0.1250-0.3750 (   340 PWs)   bands (ev):

    -3.4412   0.5029   3.0218   4.4279

          k = 1.1250-0.6250 0.1250 (   347 PWs)   bands (ev):

    -2.1707  -0.5925   2.2623   3.3787

          k =-0.1250 0.8750-0.1250 (   343 PWs)   bands (ev):

    -2.3527  -0.4868   2.8960   3.6622

          k = 0.3750 0.3750 0.3750 (   350 PWs)   bands (ev):

    -3.9745   0.3813   5.2858   5.2858

          k = 0.1250 0.8750 0.1250 (   343 PWs)   bands (ev):

    -2.3527  -0.4868   2.8960   3.6622

          k = 0.6250 0.3750 0.6250 (   343 PWs)   bands (ev):

    -3.2349  -0.4301   4.0848   4.8018

          k = 0.3750-0.3750 0.3750 (   350 PWs)   bands (ev):

    -3.9745   0.3813   5.2858   5.2858

          k = 0.8750-0.8750 0.8750 (   335 PWs)   bands (ev):

    -5.4866   4.7848   6.0947   6.0947

          k = 0.3750 0.3750 1.1250 (   344 PWs)   bands (ev):

    -2.7229  -0.3085   2.3372   4.4717

          k = 0.8750-0.1250 1.6250 (   347 PWs)   bands (ev):

    -2.1707  -0.5925   2.2623   3.3787

          k = 1.1250 0.3750-0.3750 (   344 PWs)   bands (ev):

    -2.7229  -0.3085   2.3372   4.4717

          k = 1.6250-0.1250 0.1250 (   338 PWs)   bands (ev):

    -4.9416   3.1496   5.0468   5.1349

     highest occupied level (ev):     6.0947

     Writing output data file silicon.10.20.save

                                                                                

     bravais-lattice index     =            2
     lattice parameter (alat)  =      10.2000  a.u.
     unit-cell volume          =     265.3020 (a.u.)^3
     number of atoms/cell      =            2
     number of atomic types    =            1
     kinetic-energy cut-off    =      18.0000  Ry
     charge density cut-off    =      72.0000  Ry
     convergence threshold     =      1.0E-12
     beta                      =       0.7000
     number of iterations used =            4
     Exchange-correlation      = SLA  PW   PBE  PBE ( 1  4  3  4 0 0)


     celldm(1)=   10.20000  celldm(2)=    0.00000  celldm(3)=    0.00000
     celldm(4)=    0.00000  celldm(5)=    0.00000  celldm(6)=    0.00000

     crystal axes: (cart. coord. in units of alat)
               a(1) = ( -0.5000  0.0000  0.5000 )  
               a(2) = (  0.0000  0.5000  0.5000 )  
               a(3) = ( -0.5000  0.5000  0.0000 )  

     reciprocal axes: (cart. coord. in units 2 pi/alat)
               b(1) = ( -1.0000 -1.0000  1.0000 )  
               b(2) = (  1.0000  1.0000  1.0000 )  
               b(3) = ( -1.0000  1.0000 -1.0000 )  


     Atoms inside the unit cell: 

     Cartesian axes

     site n.  atom      mass           positions (alat units)
        1     Si  28.0860   tau(    1) = (    0.00000    0.00000    0.00000  )
        2     Si  28.0860   tau(    2) = (    0.25000    0.25000    0.25000  )

     Computing dynamical matrix for 
                    q = (   0.5000000  -0.5000000   0.5000000 )

     13 Sym.Ops. (with q -> -q+G )


     G cutoff =  189.7462  (    683 G-vectors)     FFT grid: ( 20, 20, 20)
     number of k points=    60

     PseudoPot. # 1 for Si read from file:
     /home/max/quantum_espresso/qe-6.1/pseudo/si_pbe_v1.uspp.F.UPF.txt
     MD5 check sum: a056efeee980c13900f22a371efd63c1
     Pseudo is Ultrasoft + core correction, Zval =  4.0
     Generated by new atomic code, or converted to UPF format
     Using radial grid of  899 points,  6 beta functions with: 
                l(1) =   0
                l(2) =   0
                l(3) =   1
                l(4) =   1
                l(5) =   2
                l(6) =   2
     Q(r) pseudized with  8 coefficients,  rinner =    0.900   0.900   0.900
                                                       0.900   0.900


     Atomic displacements:
     There are   4 irreducible representations

     Representation     1      1 modes -  To be done

     Representation     2      1 modes -  To be done

     Representation     3      2 modes -  To be done

     Representation     4      2 modes -  To be done



     Alpha used in Ewald sum =   0.7000
     PHONON       :    15.35s CPU        16.68s WALL



     Representation #  1 mode #   1

     Self-consistent Calculation

      iter #   1 total cpu time :    16.8 secs   av.it.:   4.8
      thresh= 1.000E-02 alpha_mix =  0.700 |ddv_scf|^2 =  2.560E-05

      iter #   2 total cpu time :    16.9 secs   av.it.:   8.4
      thresh= 5.059E-04 alpha_mix =  0.700 |ddv_scf|^2 =  2.217E-05

      iter #   3 total cpu time :    17.1 secs   av.it.:   7.5
      thresh= 4.708E-04 alpha_mix =  0.700 |ddv_scf|^2 =  3.666E-08

      iter #   4 total cpu time :    17.2 secs   av.it.:   7.6
      thresh= 1.915E-05 alpha_mix =  0.700 |ddv_scf|^2 =  1.409E-10

      iter #   5 total cpu time :    17.3 secs   av.it.:   7.9
      thresh= 1.187E-06 alpha_mix =  0.700 |ddv_scf|^2 =  3.582E-12

      iter #   6 total cpu time :    17.5 secs   av.it.:   7.8
      thresh= 1.893E-07 alpha_mix =  0.700 |ddv_scf|^2 =  5.077E-14

     End of self-consistent calculation

     Convergence has been achieved 


     Representation #  2 mode #   2

     Self-consistent Calculation

      iter #   1 total cpu time :    17.6 secs   av.it.:   5.7
      thresh= 1.000E-02 alpha_mix =  0.700 |ddv_scf|^2 =  3.597E-04

      iter #   2 total cpu time :    17.7 secs   av.it.:   8.3
      thresh= 1.897E-03 alpha_mix =  0.700 |ddv_scf|^2 =  1.099E-03

      iter #   3 total cpu time :    18.0 secs   av.it.:   7.1
      thresh= 3.316E-03 alpha_mix =  0.700 |ddv_scf|^2 =  1.050E-07

      iter #   4 total cpu time :    18.2 secs   av.it.:   8.2
      thresh= 3.241E-05 alpha_mix =  0.700 |ddv_scf|^2 =  6.002E-09

      iter #   5 total cpu time :    18.3 secs   av.it.:   8.4
      thresh= 7.747E-06 alpha_mix =  0.700 |ddv_scf|^2 =  1.224E-10

      iter #   6 total cpu time :    18.5 secs   av.it.:   8.3
      thresh= 1.106E-06 alpha_mix =  0.700 |ddv_scf|^2 =  1.945E-12

      iter #   7 total cpu time :    18.6 secs   av.it.:   7.8
      thresh= 1.395E-07 alpha_mix =  0.700 |ddv_scf|^2 =  4.175E-15

     End of self-consistent calculation

     Convergence has been achieved 


     Representation #  3 modes #   3  4

     Self-consistent Calculation

      iter #   1 total cpu time :    18.8 secs   av.it.:   4.6
      thresh= 1.000E-02 alpha_mix =  0.700 |ddv_scf|^2 =  2.981E-07

      iter #   2 total cpu time :    19.1 secs   av.it.:   9.1
      thresh= 5.460E-05 alpha_mix =  0.700 |ddv_scf|^2 =  2.422E-08

      iter #   3 total cpu time :    19.4 secs   av.it.:   8.4
      thresh= 1.556E-05 alpha_mix =  0.700 |ddv_scf|^2 =  4.709E-10

      iter #   4 total cpu time :    19.7 secs   av.it.:   8.8
      thresh= 2.170E-06 alpha_mix =  0.700 |ddv_scf|^2 =  5.893E-12

      iter #   5 total cpu time :    20.1 secs   av.it.:   8.7
      thresh= 2.428E-07 alpha_mix =  0.700 |ddv_scf|^2 =  2.925E-14

     End of self-consistent calculation

     Convergence has been achieved 


     Representation #  4 modes #   5  6

     Self-consistent Calculation

      iter #   1 total cpu time :    20.3 secs   av.it.:   5.0
      thresh= 1.000E-02 alpha_mix =  0.700 |ddv_scf|^2 =  9.692E-07

      iter #   2 total cpu time :    20.6 secs   av.it.:   9.5
      thresh= 9.845E-05 alpha_mix =  0.700 |ddv_scf|^2 =  7.563E-08

      iter #   3 total cpu time :    20.9 secs   av.it.:   9.3
      thresh= 2.750E-05 alpha_mix =  0.700 |ddv_scf|^2 =  4.554E-09

      iter #   4 total cpu time :    21.2 secs   av.it.:   8.5
      thresh= 6.748E-06 alpha_mix =  0.700 |ddv_scf|^2 =  5.906E-12

      iter #   5 total cpu time :    21.5 secs   av.it.:   8.7
      thresh= 2.430E-07 alpha_mix =  0.700 |ddv_scf|^2 =  2.037E-14

     End of self-consistent calculation

     Convergence has been achieved 

     Number of q in the star =    4
     List of q in the star:
          1   0.500000000  -0.500000000   0.500000000
          2   0.500000000   0.500000000   0.500000000
          3  -0.500000000   0.500000000   0.500000000
          4   0.500000000   0.500000000  -0.500000000

     Diagonalizing the dynamical matrix

     q = (    0.500000000  -0.500000000   0.500000000 ) 

 **************************************************************************
     freq (    1) =       4.365615 [THz] =     145.621248 [cm-1]
     freq (    2) =       4.365615 [THz] =     145.621248 [cm-1]
     freq (    3) =      11.732780 [THz] =     391.363402 [cm-1]
     freq (    4) =      12.816917 [THz] =     427.526317 [cm-1]
     freq (    5) =      15.138074 [THz] =     504.951790 [cm-1]
     freq (    6) =      15.138074 [THz] =     504.951790 [cm-1]
 **************************************************************************

     Calculation of q =    0.0000000   0.5000000   0.0000000

   Info: using nr1, nr2, nr3 values from input

   Info: using nr1, nr2, nr3 values from input

     Parallelization info
     --------------------
     sticks:   dense  smooth     PW     G-vecs:    dense   smooth      PW
     Min          63      63     24                  682      682     161
     Max          64      64     25                  686      686     162
     Sum         253     253     97                 2733     2733     645



     bravais-lattice index     =            2
     lattice parameter (alat)  =      10.2000  a.u.
     unit-cell volume          =     265.3020 (a.u.)^3
     number of atoms/cell      =            2
     number of atomic types    =            1
     number of electrons       =         8.00
     number of Kohn-Sham states=            4
     kinetic-energy cutoff     =      18.0000  Ry
     charge density cutoff     =      72.0000  Ry
     Exchange-correlation      = SLA  PW   PBE  PBE ( 1  4  3  4 0 0)

     celldm(1)=  10.200000  celldm(2)=   0.000000  celldm(3)=   0.000000
     celldm(4)=   0.000000  celldm(5)=   0.000000  celldm(6)=   0.000000

     crystal axes: (cart. coord. in units of alat)
               a(1) = (  -0.500000   0.000000   0.500000 )  
               a(2) = (   0.000000   0.500000   0.500000 )  
               a(3) = (  -0.500000   0.500000   0.000000 )  

     reciprocal axes: (cart. coord. in units 2 pi/alat)
               b(1) = ( -1.000000 -1.000000  1.000000 )  
               b(2) = (  1.000000  1.000000  1.000000 )  
               b(3) = ( -1.000000  1.000000 -1.000000 )  


     PseudoPot. # 1 for Si read from file:
     /home/max/quantum_espresso/qe-6.1/pseudo/si_pbe_v1.uspp.F.UPF.txt
     MD5 check sum: a056efeee980c13900f22a371efd63c1
     Pseudo is Ultrasoft + core correction, Zval =  4.0
     Generated by new atomic code, or converted to UPF format
     Using radial grid of  899 points,  6 beta functions with: 
                l(1) =   0
                l(2) =   0
                l(3) =   1
                l(4) =   1
                l(5) =   2
                l(6) =   2
     Q(r) pseudized with  8 coefficients,  rinner =    0.900   0.900   0.900
                                                       0.900   0.900

     atomic species   valence    mass     pseudopotential
        Si             4.00    28.08600     Si( 1.00)

     48 Sym. Ops., with inversion, found



   Cartesian axes

     site n.     atom                  positions (alat units)
         1           Si  tau(   1) = (   0.0000000   0.0000000   0.0000000  )
         2           Si  tau(   2) = (   0.2500000   0.2500000   0.2500000  )

     number of k points=    80
                       cart. coord. in units 2pi/alat
        k(    1) = (  -0.1250000   0.1250000   0.1250000), wk =   0.0312500
        k(    2) = (  -0.1250000   0.6250000   0.1250000), wk =   0.0000000
        k(    3) = (  -0.3750000   0.3750000  -0.1250000), wk =   0.0625000
        k(    4) = (  -0.3750000   0.8750000  -0.1250000), wk =   0.0000000
        k(    5) = (   0.3750000  -0.3750000   0.6250000), wk =   0.0625000
        k(    6) = (   0.3750000   0.1250000   0.6250000), wk =   0.0000000
        k(    7) = (   0.1250000  -0.1250000   0.3750000), wk =   0.0625000
        k(    8) = (   0.1250000   0.3750000   0.3750000), wk =   0.0000000
        k(    9) = (  -0.1250000   0.6250000   0.1250000), wk =   0.0312500
        k(   10) = (  -0.1250000   1.1250000   0.1250000), wk =   0.0000000
        k(   11) = (   0.6250000  -0.1250000   0.8750000), wk =   0.0625000
        k(   12) = (   0.6250000   0.3750000   0.8750000), wk =   0.0000000
        k(   13) = (   0.3750000   0.1250000   0.6250000), wk =   0.0625000
        k(   14) = (   0.3750000   0.6250000   0.6250000), wk =   0.0000000
        k(   15) = (  -0.1250000  -0.8750000   0.1250000), wk =   0.0312500
        k(   16) = (  -0.1250000  -0.3750000   0.1250000), wk =   0.0000000
        k(   17) = (  -0.3750000   0.3750000   0.3750000), wk =   0.0312500
        k(   18) = (  -0.3750000   0.8750000   0.3750000), wk =   0.0000000
        k(   19) = (   0.3750000  -0.3750000   1.1250000), wk =   0.0625000
        k(   20) = (   0.3750000   0.1250000   1.1250000), wk =   0.0000000
        k(   21) = (  -0.1250000  -0.1250000   0.1250000), wk =   0.0312500
        k(   22) = (  -0.1250000   0.3750000   0.1250000), wk =   0.0000000
        k(   23) = (   0.1250000  -0.3750000   0.3750000), wk =   0.0625000
        k(   24) = (   0.1250000   0.1250000   0.3750000), wk =   0.0000000
        k(   25) = (   0.3750000  -0.1250000   0.3750000), wk =   0.0312500
        k(   26) = (   0.3750000   0.3750000   0.3750000), wk =   0.0000000
        k(   27) = (   0.3750000   0.1250000   0.3750000), wk =   0.0312500
        k(   28) = (   0.3750000   0.6250000   0.3750000), wk =   0.0000000
        k(   29) = (  -0.6250000   0.3750000  -0.3750000), wk =   0.0625000
        k(   30) = (  -0.6250000   0.8750000  -0.3750000), wk =   0.0000000
        k(   31) = (  -0.3750000   0.6250000  -0.3750000), wk =   0.0312500
        k(   32) = (  -0.3750000   1.1250000  -0.3750000), wk =   0.0000000
        k(   33) = (  -0.3750000  -0.6250000  -0.3750000), wk =   0.0312500
        k(   34) = (  -0.3750000  -0.1250000  -0.3750000), wk =   0.0000000
        k(   35) = (  -0.3750000   0.1250000  -0.1250000), wk =   0.0625000
        k(   36) = (  -0.3750000   0.6250000  -0.1250000), wk =   0.0000000
        k(   37) = (  -0.1250000   0.3750000  -0.1250000), wk =   0.0312500
        k(   38) = (  -0.1250000   0.8750000  -0.1250000), wk =   0.0000000
        k(   39) = (  -0.1250000  -0.3750000  -0.1250000), wk =   0.0312500
        k(   40) = (  -0.1250000   0.1250000  -0.1250000), wk =   0.0000000
        k(   41) = (  -0.1250000  -0.6250000   0.1250000), wk =   0.0312500
        k(   42) = (  -0.1250000  -0.1250000   0.1250000), wk =   0.0000000
        k(   43) = (   0.6250000  -0.1250000  -0.1250000), wk =   0.0625000
        k(   44) = (   0.6250000   0.3750000  -0.1250000), wk =   0.0000000
        k(   45) = (   0.6250000   0.1250000   0.1250000), wk =   0.0625000
        k(   46) = (   0.6250000   0.6250000   0.1250000), wk =   0.0000000
        k(   47) = (  -0.8750000   0.1250000  -0.6250000), wk =   0.0625000
        k(   48) = (  -0.8750000   0.6250000  -0.6250000), wk =   0.0000000
        k(   49) = (  -0.1250000   0.6250000  -0.8750000), wk =   0.0625000
        k(   50) = (  -0.1250000   1.1250000  -0.8750000), wk =   0.0000000
        k(   51) = (  -0.1250000   0.8750000  -0.6250000), wk =   0.0625000
        k(   52) = (  -0.1250000   1.3750000  -0.6250000), wk =   0.0000000
        k(   53) = (  -0.1250000  -0.8750000  -0.6250000), wk =   0.0625000
        k(   54) = (  -0.1250000  -0.3750000  -0.6250000), wk =   0.0000000
        k(   55) = (   0.8750000  -0.6250000   0.1250000), wk =   0.0625000
        k(   56) = (   0.8750000  -0.1250000   0.1250000), wk =   0.0000000
        k(   57) = (  -0.6250000  -0.1250000  -0.3750000), wk =   0.0625000
        k(   58) = (  -0.6250000   0.3750000  -0.3750000), wk =   0.0000000
        k(   59) = (   0.1250000   0.3750000  -0.6250000), wk =   0.0625000
        k(   60) = (   0.1250000   0.8750000  -0.6250000), wk =   0.0000000
        k(   61) = (   0.1250000   0.6250000  -0.3750000), wk =   0.0625000
        k(   62) = (   0.1250000   1.1250000  -0.3750000), wk =   0.0000000
        k(   63) = (   0.1250000  -0.6250000  -0.3750000), wk =   0.0625000
        k(   64) = (   0.1250000  -0.1250000  -0.3750000), wk =   0.0000000
        k(   65) = (   0.6250000  -0.3750000  -0.1250000), wk =   0.0625000
        k(   66) = (   0.6250000   0.1250000  -0.1250000), wk =   0.0000000
        k(   67) = (  -0.1250000   0.8750000   0.1250000), wk =   0.0312500
        k(   68) = (  -0.1250000   1.3750000   0.1250000), wk =   0.0000000
        k(   69) = (  -0.8750000  -0.1250000  -0.1250000), wk =   0.0625000
        k(   70) = (  -0.8750000   0.3750000  -0.1250000), wk =   0.0000000
        k(   71) = (  -0.8750000   0.1250000   0.1250000), wk =   0.0625000
        k(   72) = (  -0.8750000   0.6250000   0.1250000), wk =   0.0000000
        k(   73) = (  -0.3750000  -0.3750000   0.3750000), wk =   0.0312500
        k(   74) = (  -0.3750000   0.1250000   0.3750000), wk =   0.0000000
        k(   75) = (  -1.1250000   0.3750000  -0.3750000), wk =   0.0625000
        k(   76) = (  -1.1250000   0.8750000  -0.3750000), wk =   0.0000000
        k(   77) = (  -0.3750000   1.1250000  -0.3750000), wk =   0.0312500
        k(   78) = (  -0.3750000   1.6250000  -0.3750000), wk =   0.0000000
        k(   79) = (  -0.3750000  -1.1250000  -0.3750000), wk =   0.0312500
        k(   80) = (  -0.3750000  -0.6250000  -0.3750000), wk =   0.0000000

     Dense  grid:     2733 G-vectors     FFT dimensions: (  20,  20,  20)

     Estimated max dynamical RAM per process >       0.32MB

     Estimated total allocated dynamical RAM >       1.29MB

     Check: negative/imaginary core charge=   -0.000006    0.000000

     The potential is recalculated from file :
     ./_ph0/silicon.10.20.save/charge-density.dat

     Starting wfc are    8 atomic wfcs

     Band Structure Calculation
     Davidson diagonalization with overlap

     ethr =  1.25E-10,  avg # of iterations = 11.6

     total cpu time spent up to now is        2.1 secs

     End of band structure calculation

          k =-0.1250 0.1250 0.1250 (   335 PWs)   bands (ev):

    -5.4866   4.7848   6.0947   6.0947

          k =-0.1250 0.6250 0.1250 (   337 PWs)   bands (ev):

    -3.8751   1.4249   3.6774   4.1437

          k =-0.3750 0.3750-0.1250 (   341 PWs)   bands (ev):

    -4.4251   1.7276   4.0466   5.6040

          k =-0.3750 0.8750-0.1250 (   347 PWs)   bands (ev):

    -2.1707  -0.5925   2.2623   3.3787

          k = 0.3750-0.3750 0.6250 (   343 PWs)   bands (ev):

    -3.2349  -0.4301   4.0848   4.8018

          k = 0.3750 0.1250 0.6250 (   340 PWs)   bands (ev):

    -3.4412   0.5029   3.0218   4.4279

          k = 0.1250-0.1250 0.3750 (   338 PWs)   bands (ev):

    -4.9416   3.1496   5.0468   5.1349

          k = 0.1250 0.3750 0.3750 (   341 PWs)   bands (ev):

    -4.4251   1.7276   4.0466   5.6040

          k =-0.1250 0.6250 0.1250 (   337 PWs)   bands (ev):

    -3.8751   1.4249   3.6774   4.1437

          k =-0.1250 1.1250 0.1250 (   343 PWs)   bands (ev):

    -2.3527  -0.4868   2.8960   3.6622

          k = 0.6250-0.1250 0.8750 (   347 PWs)   bands (ev):

    -2.1707  -0.5925   2.2623   3.3787

          k = 0.6250 0.3750 0.8750 (   340 PWs)   bands (ev):

    -3.4412   0.5029   3.0218   4.4279

          k = 0.3750 0.1250 0.6250 (   340 PWs)   bands (ev):

    -3.4412   0.5029   3.0218   4.4279

          k = 0.3750 0.6250 0.6250 (   343 PWs)   bands (ev):

    -3.2349  -0.4301   4.0848   4.8018

          k =-0.1250-0.8750 0.1250 (   343 PWs)   bands (ev):

    -2.3527  -0.4868   2.8960   3.6622

          k =-0.1250-0.3750 0.1250 (   338 PWs)   bands (ev):

    -4.9416   3.1496   5.0468   5.1349

          k =-0.3750 0.3750 0.3750 (   350 PWs)   bands (ev):

    -3.9745   0.3813   5.2858   5.2858

          k =-0.3750 0.8750 0.3750 (   344 PWs)   bands (ev):

    -2.7229  -0.3085   2.3372   4.4717

          k = 0.3750-0.3750 1.1250 (   344 PWs)   bands (ev):

    -2.7229  -0.3085   2.3372   4.4717

          k = 0.3750 0.1250 1.1250 (   347 PWs)   bands (ev):

    -2.1707  -0.5925   2.2623   3.3787

          k =-0.1250-0.1250 0.1250 (   335 PWs)   bands (ev):

    -5.4866   4.7848   6.0947   6.0947

          k =-0.1250 0.3750 0.1250 (   338 PWs)   bands (ev):

    -4.9416   3.1496   5.0468   5.1349

          k = 0.1250-0.3750 0.3750 (   341 PWs)   bands (ev):

    -4.4251   1.7276   4.0466   5.6040

          k = 0.1250 0.1250 0.3750 (   338 PWs)   bands (ev):

    -4.9416   3.1496   5.0468   5.1349

          k = 0.3750-0.1250 0.3750 (   341 PWs)   bands (ev):

    -4.4251   1.7276   4.0466   5.6040

          k = 0.3750 0.3750 0.3750 (   350 PWs)   bands (ev):

    -3.9745   0.3813   5.2858   5.2858

          k = 0.3750 0.1250 0.3750 (   341 PWs)   bands (ev):

    -4.4251   1.7276   4.0466   5.6040

          k = 0.3750 0.6250 0.3750 (   343 PWs)   bands (ev):

    -3.2349  -0.4301   4.0848   4.8018

          k =-0.6250 0.3750-0.3750 (   343 PWs)   bands (ev):

    -3.2349  -0.4301   4.0848   4.8018

          k =-0.6250 0.8750-0.3750 (   340 PWs)   bands (ev):

    -3.4412   0.5029   3.0218   4.4279

          k =-0.3750 0.6250-0.3750 (   343 PWs)   bands (ev):

    -3.2349  -0.4301   4.0848   4.8018

          k =-0.3750 1.1250-0.3750 (   344 PWs)   bands (ev):

    -2.7229  -0.3085   2.3372   4.4717

          k =-0.3750-0.6250-0.3750 (   343 PWs)   bands (ev):

    -3.2349  -0.4301   4.0848   4.8018

          k =-0.3750-0.1250-0.3750 (   341 PWs)   bands (ev):

    -4.4251   1.7276   4.0466   5.6040

          k =-0.3750 0.1250-0.1250 (   338 PWs)   bands (ev):

    -4.9416   3.1496   5.0468   5.1349

          k =-0.3750 0.6250-0.1250 (   340 PWs)   bands (ev):

    -3.4412   0.5029   3.0218   4.4279

          k =-0.1250 0.3750-0.1250 (   338 PWs)   bands (ev):

    -4.9416   3.1496   5.0468   5.1349

          k =-0.1250 0.8750-0.1250 (   343 PWs)   bands (ev):

    -2.3527  -0.4868   2.8960   3.6622

          k =-0.1250-0.3750-0.1250 (   338 PWs)   bands (ev):

    -4.9416   3.1496   5.0468   5.1349

          k =-0.1250 0.1250-0.1250 (   335 PWs)   bands (ev):

    -5.4866   4.7848   6.0947   6.0947

          k =-0.1250-0.6250 0.1250 (   337 PWs)   bands (ev):

    -3.8751   1.4249   3.6774   4.1437

          k =-0.1250-0.1250 0.1250 (   335 PWs)   bands (ev):

    -5.4866   4.7848   6.0947   6.0947

          k = 0.6250-0.1250-0.1250 (   337 PWs)   bands (ev):

    -3.8751   1.4249   3.6774   4.1437

          k = 0.6250 0.3750-0.1250 (   340 PWs)   bands (ev):

    -3.4412   0.5029   3.0218   4.4279

          k = 0.6250 0.1250 0.1250 (   337 PWs)   bands (ev):

    -3.8751   1.4249   3.6774   4.1437

          k = 0.6250 0.6250 0.1250 (   344 PWs)   bands (ev):

    -2.7229  -0.3085   2.3372   4.4717

          k =-0.8750 0.1250-0.6250 (   347 PWs)   bands (ev):

    -2.1707  -0.5925   2.2623   3.3787

          k =-0.8750 0.6250-0.6250 (   341 PWs)   bands (ev):

    -4.4251   1.7276   4.0466   5.6040

          k =-0.1250 0.6250-0.8750 (   347 PWs)   bands (ev):

    -2.1707  -0.5925   2.2623   3.3787

          k =-0.1250 1.1250-0.8750 (   343 PWs)   bands (ev):

    -2.3527  -0.4868   2.8960   3.6622

          k =-0.1250 0.8750-0.6250 (   347 PWs)   bands (ev):

    -2.1707  -0.5925   2.2623   3.3787

          k =-0.1250 1.3750-0.6250 (   344 PWs)   bands (ev):

    -2.7229  -0.3085   2.3372   4.4717

          k =-0.1250-0.8750-0.6250 (   347 PWs)   bands (ev):

    -2.1707  -0.5925   2.2623   3.3787

          k =-0.1250-0.3750-0.6250 (   340 PWs)   bands (ev):

    -3.4412   0.5029   3.0218   4.4279

          k = 0.8750-0.6250 0.1250 (   347 PWs)   bands (ev):

    -2.1707  -0.5925   2.2623   3.3787

          k = 0.8750-0.1250 0.1250 (   343 PWs)   bands (ev):

    -2.3527  -0.4868   2.8960   3.6622

          k =-0.6250-0.1250-0.3750 (   340 PWs)   bands (ev):

    -3.4412   0.5029   3.0218   4.4279

          k =-0.6250 0.3750-0.3750 (   343 PWs)   bands (ev):

    -3.2349  -0.4301   4.0848   4.8018

          k = 0.1250 0.3750-0.6250 (   340 PWs)   bands (ev):

    -3.4412   0.5029   3.0218   4.4279

          k = 0.1250 0.8750-0.6250 (   347 PWs)   bands (ev):

    -2.1707  -0.5925   2.2623   3.3787

          k = 0.1250 0.6250-0.3750 (   340 PWs)   bands (ev):

    -3.4412   0.5029   3.0218   4.4279

          k = 0.1250 1.1250-0.3750 (   347 PWs)   bands (ev):

    -2.1707  -0.5925   2.2623   3.3787

          k = 0.1250-0.6250-0.3750 (   340 PWs)   bands (ev):

    -3.4412   0.5029   3.0218   4.4279

          k = 0.1250-0.1250-0.3750 (   338 PWs)   bands (ev):

    -4.9416   3.1496   5.0468   5.1349

          k = 0.6250-0.3750-0.1250 (   340 PWs)   bands (ev):

    -3.4412   0.5029   3.0218   4.4279

          k = 0.6250 0.1250-0.1250 (   337 PWs)   bands (ev):

    -3.8751   1.4249   3.6774   4.1437

          k =-0.1250 0.8750 0.1250 (   343 PWs)   bands (ev):

    -2.3527  -0.4868   2.8960   3.6622

          k =-0.1250 1.3750 0.1250 (   337 PWs)   bands (ev):

    -3.8751   1.4249   3.6774   4.1437

          k =-0.8750-0.1250-0.1250 (   343 PWs)   bands (ev):

    -2.3527  -0.4868   2.8960   3.6622

          k =-0.8750 0.3750-0.1250 (   347 PWs)   bands (ev):

    -2.1707  -0.5925   2.2623   3.3787

          k =-0.8750 0.1250 0.1250 (   343 PWs)   bands (ev):

    -2.3527  -0.4868   2.8960   3.6622

          k =-0.8750 0.6250 0.1250 (   347 PWs)   bands (ev):

    -2.1707  -0.5925   2.2623   3.3787

          k =-0.3750-0.3750 0.3750 (   350 PWs)   bands (ev):

    -3.9745   0.3813   5.2858   5.2858

          k =-0.3750 0.1250 0.3750 (   341 PWs)   bands (ev):

    -4.4251   1.7276   4.0466   5.6040

          k =-1.1250 0.3750-0.3750 (   344 PWs)   bands (ev):

    -2.7229  -0.3085   2.3372   4.4717

          k =-1.1250 0.8750-0.3750 (   337 PWs)   bands (ev):

    -3.8751   1.4249   3.6774   4.1437

          k =-0.3750 1.1250-0.3750 (   344 PWs)   bands (ev):

    -2.7229  -0.3085   2.3372   4.4717

          k =-0.3750 1.6250-0.3750 (   350 PWs)   bands (ev):

    -3.9745   0.3813   5.2858   5.2858

          k =-0.3750-1.1250-0.3750 (   344 PWs)   bands (ev):

    -2.7229  -0.3085   2.3372   4.4717

          k =-0.3750-0.6250-0.3750 (   343 PWs)   bands (ev):

    -3.2349  -0.4301   4.0848   4.8018

     highest occupied level (ev):     6.0947

     Writing output data file silicon.10.20.save

                                                                                

     bravais-lattice index     =            2
     lattice parameter (alat)  =      10.2000  a.u.
     unit-cell volume          =     265.3020 (a.u.)^3
     number of atoms/cell      =            2
     number of atomic types    =            1
     kinetic-energy cut-off    =      18.0000  Ry
     charge density cut-off    =      72.0000  Ry
     convergence threshold     =      1.0E-12
     beta                      =       0.7000
     number of iterations used =            4
     Exchange-correlation      = SLA  PW   PBE  PBE ( 1  4  3  4 0 0)


     celldm(1)=   10.20000  celldm(2)=    0.00000  celldm(3)=    0.00000
     celldm(4)=    0.00000  celldm(5)=    0.00000  celldm(6)=    0.00000

     crystal axes: (cart. coord. in units of alat)
               a(1) = ( -0.5000  0.0000  0.5000 )  
               a(2) = (  0.0000  0.5000  0.5000 )  
               a(3) = ( -0.5000  0.5000  0.0000 )  

     reciprocal axes: (cart. coord. in units 2 pi/alat)
               b(1) = ( -1.0000 -1.0000  1.0000 )  
               b(2) = (  1.0000  1.0000  1.0000 )  
               b(3) = ( -1.0000  1.0000 -1.0000 )  


     Atoms inside the unit cell: 

     Cartesian axes

     site n.  atom      mass           positions (alat units)
        1     Si  28.0860   tau(    1) = (    0.00000    0.00000    0.00000  )
        2     Si  28.0860   tau(    2) = (    0.25000    0.25000    0.25000  )

     Computing dynamical matrix for 
                    q = (   0.0000000   0.5000000   0.0000000 )

      8 Sym.Ops. (no q -> -q+G )


     G cutoff =  189.7462  (    683 G-vectors)     FFT grid: ( 20, 20, 20)
     number of k points=    80

     PseudoPot. # 1 for Si read from file:
     /home/max/quantum_espresso/qe-6.1/pseudo/si_pbe_v1.uspp.F.UPF.txt
     MD5 check sum: a056efeee980c13900f22a371efd63c1
     Pseudo is Ultrasoft + core correction, Zval =  4.0
     Generated by new atomic code, or converted to UPF format
     Using radial grid of  899 points,  6 beta functions with: 
                l(1) =   0
                l(2) =   0
                l(3) =   1
                l(4) =   1
                l(5) =   2
                l(6) =   2
     Q(r) pseudized with  8 coefficients,  rinner =    0.900   0.900   0.900
                                                       0.900   0.900

     Mode symmetry, C_4v (4mm)  point group:


     Atomic displacements:
     There are   4 irreducible representations

     Representation     1      1 modes -A_1  G_1 D_1  To be done

     Representation     2      1 modes -B_2  G_4 D_2'  To be done

     Representation     3      2 modes -E    G_5 D_5  To be done

     Representation     4      2 modes -E    G_5 D_5  To be done



     Alpha used in Ewald sum =   0.7000
     PHONON       :    20.71s CPU        22.52s WALL



     Representation #  1 mode #   1

     Self-consistent Calculation

      iter #   1 total cpu time :    22.7 secs   av.it.:   5.8
      thresh= 1.000E-02 alpha_mix =  0.700 |ddv_scf|^2 =  3.084E-03

      iter #   2 total cpu time :    22.8 secs   av.it.:   7.7
      thresh= 5.553E-03 alpha_mix =  0.700 |ddv_scf|^2 =  3.993E-02

      iter #   3 total cpu time :    23.0 secs   av.it.:   6.8
      thresh= 1.000E-02 alpha_mix =  0.700 |ddv_scf|^2 =  1.340E-07

      iter #   4 total cpu time :    23.2 secs   av.it.:   8.2
      thresh= 3.661E-05 alpha_mix =  0.700 |ddv_scf|^2 =  1.144E-08

      iter #   5 total cpu time :    23.3 secs   av.it.:   7.8
      thresh= 1.070E-05 alpha_mix =  0.700 |ddv_scf|^2 =  7.949E-10

      iter #   6 total cpu time :    23.5 secs   av.it.:   7.8
      thresh= 2.819E-06 alpha_mix =  0.700 |ddv_scf|^2 =  3.119E-12

      iter #   7 total cpu time :    23.7 secs   av.it.:   7.9
      thresh= 1.766E-07 alpha_mix =  0.700 |ddv_scf|^2 =  5.777E-13

     End of self-consistent calculation

     Convergence has been achieved 


     Representation #  2 mode #   2

     Self-consistent Calculation

      iter #   1 total cpu time :    23.9 secs   av.it.:   4.9
      thresh= 1.000E-02 alpha_mix =  0.700 |ddv_scf|^2 =  5.406E-06

      iter #   2 total cpu time :    24.2 secs   av.it.:   8.6
      thresh= 2.325E-04 alpha_mix =  0.700 |ddv_scf|^2 =  1.257E-06

      iter #   3 total cpu time :    24.4 secs   av.it.:   8.5
      thresh= 1.121E-04 alpha_mix =  0.700 |ddv_scf|^2 =  3.410E-08

      iter #   4 total cpu time :    24.5 secs   av.it.:   8.1
      thresh= 1.847E-05 alpha_mix =  0.700 |ddv_scf|^2 =  5.418E-10

      iter #   5 total cpu time :    24.7 secs   av.it.:   8.6
      thresh= 2.328E-06 alpha_mix =  0.700 |ddv_scf|^2 =  6.005E-12

      iter #   6 total cpu time :    24.9 secs   av.it.:   7.8
      thresh= 2.451E-07 alpha_mix =  0.700 |ddv_scf|^2 =  5.966E-14

     End of self-consistent calculation

     Convergence has been achieved 


     Representation #  3 modes #   3  4

     Self-consistent Calculation

      iter #   1 total cpu time :    25.2 secs   av.it.:   5.0
      thresh= 1.000E-02 alpha_mix =  0.700 |ddv_scf|^2 =  1.002E-06

      iter #   2 total cpu time :    25.6 secs   av.it.:   9.7
      thresh= 1.001E-04 alpha_mix =  0.700 |ddv_scf|^2 =  1.254E-07

      iter #   3 total cpu time :    26.1 secs   av.it.:   9.4
      thresh= 3.541E-05 alpha_mix =  0.700 |ddv_scf|^2 =  5.745E-09

      iter #   4 total cpu time :    26.5 secs   av.it.:   8.8
      thresh= 7.579E-06 alpha_mix =  0.700 |ddv_scf|^2 =  8.544E-12

      iter #   5 total cpu time :    26.8 secs   av.it.:   9.0
      thresh= 2.923E-07 alpha_mix =  0.700 |ddv_scf|^2 =  2.632E-13

     End of self-consistent calculation

     Convergence has been achieved 


     Representation #  4 modes #   5  6

     Self-consistent Calculation

      iter #   1 total cpu time :    27.1 secs   av.it.:   5.0
      thresh= 1.000E-02 alpha_mix =  0.700 |ddv_scf|^2 =  9.228E-07

      iter #   2 total cpu time :    27.5 secs   av.it.:   9.7
      thresh= 9.606E-05 alpha_mix =  0.700 |ddv_scf|^2 =  1.164E-07

      iter #   3 total cpu time :    28.1 secs   av.it.:   9.4
      thresh= 3.412E-05 alpha_mix =  0.700 |ddv_scf|^2 =  6.067E-09

      iter #   4 total cpu time :    28.4 secs   av.it.:   8.9
      thresh= 7.789E-06 alpha_mix =  0.700 |ddv_scf|^2 =  1.348E-11

      iter #   5 total cpu time :    28.8 secs   av.it.:   9.1
      thresh= 3.671E-07 alpha_mix =  0.700 |ddv_scf|^2 =  3.943E-14

     End of self-consistent calculation

     Convergence has been achieved 

     Number of q in the star =    6
     List of q in the star:
          1   0.000000000   0.500000000   0.000000000
          2   0.000000000  -0.500000000   0.000000000
          3   0.500000000   0.000000000   0.000000000
          4   0.000000000   0.000000000   0.500000000
          5   0.000000000   0.000000000  -0.500000000
          6  -0.500000000   0.000000000   0.000000000

     Diagonalizing the dynamical matrix

     q = (    0.000000000   0.500000000   0.000000000 ) 

 **************************************************************************
     freq (    1) =       4.115340 [THz] =     137.272964 [cm-1]
     freq (    2) =       4.115340 [THz] =     137.272964 [cm-1]
     freq (    3) =       7.437125 [THz] =     248.075785 [cm-1]
     freq (    4) =      14.523143 [THz] =     484.439920 [cm-1]
     freq (    5) =      14.523143 [THz] =     484.439920 [cm-1]
     freq (    6) =      15.012612 [THz] =     500.766820 [cm-1]
 **************************************************************************

     Mode symmetry, C_4v (4mm)  point group:

     freq (  1 -  2) =        137.3  [cm-1]   --> E    G_5 D_5       
     freq (  3 -  3) =        248.1  [cm-1]   --> A_1  G_1 D_1       
     freq (  4 -  5) =        484.4  [cm-1]   --> E    G_5 D_5       
     freq (  6 -  6) =        500.8  [cm-1]   --> B_2  G_4 D_2'      

     Calculation of q =    0.7500000  -0.2500000   0.7500000

   Info: using nr1, nr2, nr3 values from input

   Info: using nr1, nr2, nr3 values from input

     Parallelization info
     --------------------
     sticks:   dense  smooth     PW     G-vecs:    dense   smooth      PW
     Min          63      63     30                  682      682     205
     Max          64      64     31                  686      686     206
     Sum         253     253    121                 2733     2733     821



     bravais-lattice index     =            2
     lattice parameter (alat)  =      10.2000  a.u.
     unit-cell volume          =     265.3020 (a.u.)^3
     number of atoms/cell      =            2
     number of atomic types    =            1
     number of electrons       =         8.00
     number of Kohn-Sham states=            4
     kinetic-energy cutoff     =      18.0000  Ry
     charge density cutoff     =      72.0000  Ry
     Exchange-correlation      = SLA  PW   PBE  PBE ( 1  4  3  4 0 0)

     celldm(1)=  10.200000  celldm(2)=   0.000000  celldm(3)=   0.000000
     celldm(4)=   0.000000  celldm(5)=   0.000000  celldm(6)=   0.000000

     crystal axes: (cart. coord. in units of alat)
               a(1) = (  -0.500000   0.000000   0.500000 )  
               a(2) = (   0.000000   0.500000   0.500000 )  
               a(3) = (  -0.500000   0.500000   0.000000 )  

     reciprocal axes: (cart. coord. in units 2 pi/alat)
               b(1) = ( -1.000000 -1.000000  1.000000 )  
               b(2) = (  1.000000  1.000000  1.000000 )  
               b(3) = ( -1.000000  1.000000 -1.000000 )  


     PseudoPot. # 1 for Si read from file:
     /home/max/quantum_espresso/qe-6.1/pseudo/si_pbe_v1.uspp.F.UPF.txt
     MD5 check sum: a056efeee980c13900f22a371efd63c1
     Pseudo is Ultrasoft + core correction, Zval =  4.0
     Generated by new atomic code, or converted to UPF format
     Using radial grid of  899 points,  6 beta functions with: 
                l(1) =   0
                l(2) =   0
                l(3) =   1
                l(4) =   1
                l(5) =   2
                l(6) =   2
     Q(r) pseudized with  8 coefficients,  rinner =    0.900   0.900   0.900
                                                       0.900   0.900

     atomic species   valence    mass     pseudopotential
        Si             4.00    28.08600     Si( 1.00)

     48 Sym. Ops., with inversion, found



   Cartesian axes

     site n.     atom                  positions (alat units)
         1           Si  tau(   1) = (   0.0000000   0.0000000   0.0000000  )
         2           Si  tau(   2) = (   0.2500000   0.2500000   0.2500000  )

     number of k points=   288

     Number of k-points >= 100: set verbosity='high' to print them.

     Dense  grid:     2733 G-vectors     FFT dimensions: (  20,  20,  20)

     Estimated max dynamical RAM per process >       0.32MB

     Estimated total allocated dynamical RAM >       1.29MB

     Check: negative/imaginary core charge=   -0.000006    0.000000

     The potential is recalculated from file :
     ./_ph0/silicon.10.20.save/charge-density.dat

     Starting wfc are    8 atomic wfcs

     Band Structure Calculation
     Davidson diagonalization with overlap

     ethr =  1.25E-10,  avg # of iterations = 11.5

     total cpu time spent up to now is        4.2 secs

     End of band structure calculation

     Number of k-points >= 100: set verbosity='high' to print the bands.

     highest occupied level (ev):     6.0947

     Writing output data file silicon.10.20.save

                                                                                

     bravais-lattice index     =            2
     lattice parameter (alat)  =      10.2000  a.u.
     unit-cell volume          =     265.3020 (a.u.)^3
     number of atoms/cell      =            2
     number of atomic types    =            1
     kinetic-energy cut-off    =      18.0000  Ry
     charge density cut-off    =      72.0000  Ry
     convergence threshold     =      1.0E-12
     beta                      =       0.7000
     number of iterations used =            4
     Exchange-correlation      = SLA  PW   PBE  PBE ( 1  4  3  4 0 0)


     celldm(1)=   10.20000  celldm(2)=    0.00000  celldm(3)=    0.00000
     celldm(4)=    0.00000  celldm(5)=    0.00000  celldm(6)=    0.00000

     crystal axes: (cart. coord. in units of alat)
               a(1) = ( -0.5000  0.0000  0.5000 )  
               a(2) = (  0.0000  0.5000  0.5000 )  
               a(3) = ( -0.5000  0.5000  0.0000 )  

     reciprocal axes: (cart. coord. in units 2 pi/alat)
               b(1) = ( -1.0000 -1.0000  1.0000 )  
               b(2) = (  1.0000  1.0000  1.0000 )  
               b(3) = ( -1.0000  1.0000 -1.0000 )  


     Atoms inside the unit cell: 

     Cartesian axes

     site n.  atom      mass           positions (alat units)
        1     Si  28.0860   tau(    1) = (    0.00000    0.00000    0.00000  )
        2     Si  28.0860   tau(    2) = (    0.25000    0.25000    0.25000  )

     Computing dynamical matrix for 
                    q = (   0.7500000  -0.2500000   0.7500000 )

      2 Sym.Ops. (no q -> -q+G )


     G cutoff =  189.7462  (    683 G-vectors)     FFT grid: ( 20, 20, 20)
     number of k points=   288

     PseudoPot. # 1 for Si read from file:
     /home/max/quantum_espresso/qe-6.1/pseudo/si_pbe_v1.uspp.F.UPF.txt
     MD5 check sum: a056efeee980c13900f22a371efd63c1
     Pseudo is Ultrasoft + core correction, Zval =  4.0
     Generated by new atomic code, or converted to UPF format
     Using radial grid of  899 points,  6 beta functions with: 
                l(1) =   0
                l(2) =   0
                l(3) =   1
                l(4) =   1
                l(5) =   2
                l(6) =   2
     Q(r) pseudized with  8 coefficients,  rinner =    0.900   0.900   0.900
                                                       0.900   0.900

     Mode symmetry, C_s (m)     point group:


     Atomic displacements:
     There are   6 irreducible representations

     Representation     1      1 modes -A'  To be done

     Representation     2      1 modes -A'  To be done

     Representation     3      1 modes -A'  To be done

     Representation     4      1 modes -A'  To be done

     Representation     5      1 modes -A''  To be done

     Representation     6      1 modes -A''  To be done



     Alpha used in Ewald sum =   0.7000
     PHONON       :    29.17s CPU        31.52s WALL



     Representation #  1 mode #   1

     Self-consistent Calculation

      iter #   1 total cpu time :    32.2 secs   av.it.:   5.3
      thresh= 1.000E-02 alpha_mix =  0.700 |ddv_scf|^2 =  6.311E-05

      iter #   2 total cpu time :    32.8 secs   av.it.:   8.9
      thresh= 7.944E-04 alpha_mix =  0.700 |ddv_scf|^2 =  1.621E-04

      iter #   3 total cpu time :    33.4 secs   av.it.:   7.5
      thresh= 1.273E-03 alpha_mix =  0.700 |ddv_scf|^2 =  1.156E-06

      iter #   4 total cpu time :    34.2 secs   av.it.:   8.3
      thresh= 1.075E-04 alpha_mix =  0.700 |ddv_scf|^2 =  4.999E-08

      iter #   5 total cpu time :    34.8 secs   av.it.:   8.4
      thresh= 2.236E-05 alpha_mix =  0.700 |ddv_scf|^2 =  6.925E-09

      iter #   6 total cpu time :    35.5 secs   av.it.:   8.5
      thresh= 8.322E-06 alpha_mix =  0.700 |ddv_scf|^2 =  6.719E-11

      iter #   7 total cpu time :    36.3 secs   av.it.:   8.7
      thresh= 8.197E-07 alpha_mix =  0.700 |ddv_scf|^2 =  2.262E-12

      iter #   8 total cpu time :    36.9 secs   av.it.:   8.6
      thresh= 1.504E-07 alpha_mix =  0.700 |ddv_scf|^2 =  1.569E-13

     End of self-consistent calculation

     Convergence has been achieved 


     Representation #  2 mode #   2

     Self-consistent Calculation

      iter #   1 total cpu time :    37.5 secs   av.it.:   5.4
      thresh= 1.000E-02 alpha_mix =  0.700 |ddv_scf|^2 =  1.133E-04

      iter #   2 total cpu time :    38.3 secs   av.it.:   8.7
      thresh= 1.064E-03 alpha_mix =  0.700 |ddv_scf|^2 =  3.190E-04

      iter #   3 total cpu time :    38.9 secs   av.it.:   7.3
      thresh= 1.786E-03 alpha_mix =  0.700 |ddv_scf|^2 =  7.582E-07

      iter #   4 total cpu time :    39.5 secs   av.it.:   8.6
      thresh= 8.708E-05 alpha_mix =  0.700 |ddv_scf|^2 =  5.020E-08

      iter #   5 total cpu time :    40.3 secs   av.it.:   8.2
      thresh= 2.241E-05 alpha_mix =  0.700 |ddv_scf|^2 =  9.225E-09

      iter #   6 total cpu time :    40.9 secs   av.it.:   8.4
      thresh= 9.605E-06 alpha_mix =  0.700 |ddv_scf|^2 =  7.152E-11

      iter #   7 total cpu time :    41.6 secs   av.it.:   8.7
      thresh= 8.457E-07 alpha_mix =  0.700 |ddv_scf|^2 =  2.114E-12

      iter #   8 total cpu time :    42.4 secs   av.it.:   8.7
      thresh= 1.454E-07 alpha_mix =  0.700 |ddv_scf|^2 =  3.854E-13

     End of self-consistent calculation

     Convergence has been achieved 


     Representation #  3 mode #   3

     Self-consistent Calculation

      iter #   1 total cpu time :    42.9 secs   av.it.:   5.4
      thresh= 1.000E-02 alpha_mix =  0.700 |ddv_scf|^2 =  8.901E-05

      iter #   2 total cpu time :    43.6 secs   av.it.:   8.7
      thresh= 9.434E-04 alpha_mix =  0.700 |ddv_scf|^2 =  2.353E-04

      iter #   3 total cpu time :    44.3 secs   av.it.:   7.4
      thresh= 1.534E-03 alpha_mix =  0.700 |ddv_scf|^2 =  1.308E-06

      iter #   4 total cpu time :    44.9 secs   av.it.:   8.2
      thresh= 1.144E-04 alpha_mix =  0.700 |ddv_scf|^2 =  5.137E-08

      iter #   5 total cpu time :    45.5 secs   av.it.:   8.4
      thresh= 2.267E-05 alpha_mix =  0.700 |ddv_scf|^2 =  9.200E-09

      iter #   6 total cpu time :    46.4 secs   av.it.:   8.5
      thresh= 9.592E-06 alpha_mix =  0.700 |ddv_scf|^2 =  4.378E-11

      iter #   7 total cpu time :    47.0 secs   av.it.:   8.6
      thresh= 6.616E-07 alpha_mix =  0.700 |ddv_scf|^2 =  1.503E-12

      iter #   8 total cpu time :    47.6 secs   av.it.:   8.8
      thresh= 1.226E-07 alpha_mix =  0.700 |ddv_scf|^2 =  2.849E-13

     End of self-consistent calculation

     Convergence has been achieved 


     Representation #  4 mode #   4

     Self-consistent Calculation

      iter #   1 total cpu time :    48.4 secs   av.it.:   5.2
      thresh= 1.000E-02 alpha_mix =  0.700 |ddv_scf|^2 =  3.885E-05

      iter #   2 total cpu time :    49.0 secs   av.it.:   8.9
[...]
        k(   59) = (  -0.8750000   0.1250000  -0.1250000), wk =   0.0625000
        k(   60) = (  -1.3750000  -0.8750000  -0.1250000), wk =   0.0000000
        k(   61) = (  -1.1250000   0.3750000  -0.3750000), wk =   0.0625000
        k(   62) = (  -1.6250000  -0.6250000  -0.3750000), wk =   0.0000000
        k(   63) = (  -0.3750000   0.3750000   1.1250000), wk =   0.0625000
        k(   64) = (  -0.8750000  -0.6250000   1.1250000), wk =   0.0000000

     Dense  grid:     2733 G-vectors     FFT dimensions: (  20,  20,  20)

     Estimated max dynamical RAM per process >       0.32MB

     Estimated total allocated dynamical RAM >       1.29MB

     Check: negative/imaginary core charge=   -0.000006    0.000000

     The potential is recalculated from file :
     ./_ph0/silicon.10.20.save/charge-density.dat

     Starting wfc are    8 atomic wfcs

     Band Structure Calculation
     Davidson diagonalization with overlap

     ethr =  1.25E-10,  avg # of iterations = 11.5

     total cpu time spent up to now is        6.6 secs

     End of band structure calculation

          k =-0.1250 0.1250 0.1250 (   335 PWs)   bands (ev):

    -5.4866   4.7848   6.0947   6.0947

          k =-0.6250-0.8750 0.1250 (   347 PWs)   bands (ev):

    -2.1707  -0.5925   2.2623   3.3787

          k =-0.3750 0.3750-0.1250 (   341 PWs)   bands (ev):

    -4.4251   1.7276   4.0466   5.6040

          k =-0.8750-0.6250-0.1250 (   347 PWs)   bands (ev):

    -2.1707  -0.5925   2.2623   3.3787

          k = 0.3750-0.3750 0.6250 (   343 PWs)   bands (ev):

    -3.2349  -0.4301   4.0848   4.8018

          k =-0.1250-1.3750 0.6250 (   344 PWs)   bands (ev):

    -2.7229  -0.3085   2.3372   4.4717

          k = 0.1250-0.1250 0.3750 (   338 PWs)   bands (ev):

    -4.9416   3.1496   5.0468   5.1349

          k =-0.3750-1.1250 0.3750 (   344 PWs)   bands (ev):

    -2.7229  -0.3085   2.3372   4.4717

          k =-0.1250 0.6250 0.1250 (   337 PWs)   bands (ev):

    -3.8751   1.4249   3.6774   4.1437

          k =-0.6250-0.3750 0.1250 (   340 PWs)   bands (ev):

    -3.4412   0.5029   3.0218   4.4279

          k = 0.6250-0.1250 0.8750 (   347 PWs)   bands (ev):

    -2.1707  -0.5925   2.2623   3.3787

          k = 0.1250-1.1250 0.8750 (   343 PWs)   bands (ev):

    -2.3527  -0.4868   2.8960   3.6622

          k = 0.3750 0.1250 0.6250 (   340 PWs)   bands (ev):

    -3.4412   0.5029   3.0218   4.4279

          k =-0.1250-0.8750 0.6250 (   347 PWs)   bands (ev):

    -2.1707  -0.5925   2.2623   3.3787

          k =-0.1250-0.8750 0.1250 (   343 PWs)   bands (ev):

    -2.3527  -0.4868   2.8960   3.6622

          k =-0.6250-1.8750 0.1250 (   337 PWs)   bands (ev):

    -3.8751   1.4249   3.6774   4.1437

          k =-0.3750 0.3750 0.3750 (   350 PWs)   bands (ev):

    -3.9745   0.3813   5.2858   5.2858

          k =-0.8750-0.6250 0.3750 (   340 PWs)   bands (ev):

    -3.4412   0.5029   3.0218   4.4279

          k = 0.3750-0.3750 1.1250 (   344 PWs)   bands (ev):

    -2.7229  -0.3085   2.3372   4.4717

          k =-0.1250-1.3750 1.1250 (   347 PWs)   bands (ev):

    -2.1707  -0.5925   2.2623   3.3787

          k = 0.1250-0.3750 0.3750 (   341 PWs)   bands (ev):

    -4.4251   1.7276   4.0466   5.6040

          k =-0.3750-1.3750 0.3750 (   343 PWs)   bands (ev):

    -3.2349  -0.4301   4.0848   4.8018

          k = 0.3750-0.3750-0.1250 (   341 PWs)   bands (ev):

    -4.4251   1.7276   4.0466   5.6040

          k =-0.1250-1.3750-0.1250 (   337 PWs)   bands (ev):

    -3.8751   1.4249   3.6774   4.1437

          k =-0.6250 0.3750-0.3750 (   343 PWs)   bands (ev):

    -3.2349  -0.4301   4.0848   4.8018

          k =-1.1250-0.6250-0.3750 (   340 PWs)   bands (ev):

    -3.4412   0.5029   3.0218   4.4279

          k =-0.3750 0.3750 0.6250 (   343 PWs)   bands (ev):

    -3.2349  -0.4301   4.0848   4.8018

          k =-0.8750-0.6250 0.6250 (   341 PWs)   bands (ev):

    -4.4251   1.7276   4.0466   5.6040

          k =-0.3750 0.1250-0.1250 (   338 PWs)   bands (ev):

    -4.9416   3.1496   5.0468   5.1349

          k =-0.8750-0.8750-0.1250 (   343 PWs)   bands (ev):

    -2.3527  -0.4868   2.8960   3.6622

          k =-0.1250 0.1250 0.3750 (   338 PWs)   bands (ev):

    -4.9416   3.1496   5.0468   5.1349

          k =-0.6250-0.8750 0.3750 (   340 PWs)   bands (ev):

    -3.4412   0.5029   3.0218   4.4279

          k = 0.1250 0.6250-0.1250 (   337 PWs)   bands (ev):

    -3.8751   1.4249   3.6774   4.1437

          k =-0.3750-0.3750-0.1250 (   341 PWs)   bands (ev):

    -4.4251   1.7276   4.0466   5.6040

          k = 0.6250 0.1250-0.1250 (   337 PWs)   bands (ev):

    -3.8751   1.4249   3.6774   4.1437

          k = 0.1250-0.8750-0.1250 (   343 PWs)   bands (ev):

    -2.3527  -0.4868   2.8960   3.6622

          k =-0.8750 0.1250-0.6250 (   347 PWs)   bands (ev):

    -2.1707  -0.5925   2.2623   3.3787

          k =-1.3750-0.8750-0.6250 (   341 PWs)   bands (ev):

    -4.4251   1.7276   4.0466   5.6040

          k = 0.8750-0.1250 0.6250 (   347 PWs)   bands (ev):

    -2.1707  -0.5925   2.2623   3.3787

          k = 0.3750-1.1250 0.6250 (   340 PWs)   bands (ev):

    -3.4412   0.5029   3.0218   4.4279

          k =-0.6250 0.1250 0.8750 (   347 PWs)   bands (ev):

    -2.1707  -0.5925   2.2623   3.3787

          k =-1.1250-0.8750 0.8750 (   335 PWs)   bands (ev):

    -5.4866   4.7848   6.0947   6.0947

          k =-0.1250 0.8750 0.6250 (   347 PWs)   bands (ev):

    -2.1707  -0.5925   2.2623   3.3787

          k =-0.6250-0.1250 0.6250 (   344 PWs)   bands (ev):

    -2.7229  -0.3085   2.3372   4.4717

          k = 0.1250 0.8750-0.6250 (   347 PWs)   bands (ev):

    -2.1707  -0.5925   2.2623   3.3787

          k =-0.3750-0.1250-0.6250 (   340 PWs)   bands (ev):

    -3.4412   0.5029   3.0218   4.4279

          k =-0.6250-0.1250-0.3750 (   340 PWs)   bands (ev):

    -3.4412   0.5029   3.0218   4.4279

          k =-1.1250-1.1250-0.3750 (   337 PWs)   bands (ev):

    -3.8751   1.4249   3.6774   4.1437

          k = 0.6250 0.1250 0.3750 (   340 PWs)   bands (ev):

    -3.4412   0.5029   3.0218   4.4279

          k = 0.1250-0.8750 0.3750 (   347 PWs)   bands (ev):

    -2.1707  -0.5925   2.2623   3.3787

          k =-0.3750-0.1250 0.6250 (   340 PWs)   bands (ev):

    -3.4412   0.5029   3.0218   4.4279

          k =-0.8750-1.1250 0.6250 (   338 PWs)   bands (ev):

    -4.9416   3.1496   5.0468   5.1349

          k = 0.1250 0.6250 0.3750 (   340 PWs)   bands (ev):

    -3.4412   0.5029   3.0218   4.4279

          k =-0.3750-0.3750 0.3750 (   350 PWs)   bands (ev):

    -3.9745   0.3813   5.2858   5.2858

          k =-0.1250 0.6250-0.3750 (   340 PWs)   bands (ev):

    -3.4412   0.5029   3.0218   4.4279

          k =-0.6250-0.3750-0.3750 (   343 PWs)   bands (ev):

    -3.2349  -0.4301   4.0848   4.8018

          k = 0.1250-0.8750-0.1250 (   343 PWs)   bands (ev):

    -2.3527  -0.4868   2.8960   3.6622

          k =-0.3750-1.8750-0.1250 (   338 PWs)   bands (ev):

    -4.9416   3.1496   5.0468   5.1349

          k =-0.8750 0.1250-0.1250 (   343 PWs)   bands (ev):

    -2.3527  -0.4868   2.8960   3.6622

          k =-1.3750-0.8750-0.1250 (   347 PWs)   bands (ev):

    -2.1707  -0.5925   2.2623   3.3787

          k =-1.1250 0.3750-0.3750 (   344 PWs)   bands (ev):

    -2.7229  -0.3085   2.3372   4.4717

          k =-1.6250-0.6250-0.3750 (   343 PWs)   bands (ev):

    -3.2349  -0.4301   4.0848   4.8018

          k =-0.3750 0.3750 1.1250 (   344 PWs)   bands (ev):

    -2.7229  -0.3085   2.3372   4.4717

          k =-0.8750-0.6250 1.1250 (   338 PWs)   bands (ev):

    -4.9416   3.1496   5.0468   5.1349

     highest occupied level (ev):     6.0947

     Writing output data file silicon.10.20.save

                                                                                

     bravais-lattice index     =            2
     lattice parameter (alat)  =      10.2000  a.u.
     unit-cell volume          =     265.3020 (a.u.)^3
     number of atoms/cell      =            2
     number of atomic types    =            1
     kinetic-energy cut-off    =      18.0000  Ry
     charge density cut-off    =      72.0000  Ry
     convergence threshold     =      1.0E-12
     beta                      =       0.7000
     number of iterations used =            4
     Exchange-correlation      = SLA  PW   PBE  PBE ( 1  4  3  4 0 0)


     celldm(1)=   10.20000  celldm(2)=    0.00000  celldm(3)=    0.00000
     celldm(4)=    0.00000  celldm(5)=    0.00000  celldm(6)=    0.00000

     crystal axes: (cart. coord. in units of alat)
               a(1) = ( -0.5000  0.0000  0.5000 )  
               a(2) = (  0.0000  0.5000  0.5000 )  
               a(3) = ( -0.5000  0.5000  0.0000 )  

     reciprocal axes: (cart. coord. in units 2 pi/alat)
               b(1) = ( -1.0000 -1.0000  1.0000 )  
               b(2) = (  1.0000  1.0000  1.0000 )  
               b(3) = ( -1.0000  1.0000 -1.0000 )  


     Atoms inside the unit cell: 

     Cartesian axes

     site n.  atom      mass           positions (alat units)
        1     Si  28.0860   tau(    1) = (    0.00000    0.00000    0.00000  )
        2     Si  28.0860   tau(    2) = (    0.25000    0.25000    0.25000  )

     Computing dynamical matrix for 
                    q = (  -0.5000000  -1.0000000   0.0000000 )

      8 Sym.Ops. (no q -> -q+G )


     G cutoff =  189.7462  (    683 G-vectors)     FFT grid: ( 20, 20, 20)
     number of k points=    64

     PseudoPot. # 1 for Si read from file:
     /home/max/quantum_espresso/qe-6.1/pseudo/si_pbe_v1.uspp.F.UPF.txt
     MD5 check sum: a056efeee980c13900f22a371efd63c1
     Pseudo is Ultrasoft + core correction, Zval =  4.0
     Generated by new atomic code, or converted to UPF format
     Using radial grid of  899 points,  6 beta functions with: 
                l(1) =   0
                l(2) =   0
                l(3) =   1
                l(4) =   1
                l(5) =   2
                l(6) =   2
     Q(r) pseudized with  8 coefficients,  rinner =    0.900   0.900   0.900
                                                       0.900   0.900


     Atomic displacements:
     There are   3 irreducible representations

     Representation     1      2 modes -  To be done

     Representation     2      2 modes -  To be done

     Representation     3      2 modes -  To be done



     Alpha used in Ewald sum =   0.7000
     PHONON       :  1m12.86s CPU     1m18.49s WALL



     Representation #  1 modes #   1  2

     Self-consistent Calculation

      iter #   1 total cpu time :    78.7 secs   av.it.:   5.3
      thresh= 1.000E-02 alpha_mix =  0.700 |ddv_scf|^2 =  6.595E-06

      iter #   2 total cpu time :    79.1 secs   av.it.:   9.9
      thresh= 2.568E-04 alpha_mix =  0.700 |ddv_scf|^2 =  3.613E-06

      iter #   3 total cpu time :    79.4 secs   av.it.:   9.2
      thresh= 1.901E-04 alpha_mix =  0.700 |ddv_scf|^2 =  8.020E-09

      iter #   4 total cpu time :    79.7 secs   av.it.:   9.1
      thresh= 8.955E-06 alpha_mix =  0.700 |ddv_scf|^2 =  1.931E-11

      iter #   5 total cpu time :    80.1 secs   av.it.:   9.1
      thresh= 4.395E-07 alpha_mix =  0.700 |ddv_scf|^2 =  5.416E-13

     End of self-consistent calculation

     Convergence has been achieved 


     Representation #  2 modes #   3  4

     Self-consistent Calculation

      iter #   1 total cpu time :    80.4 secs   av.it.:   5.3
      thresh= 1.000E-02 alpha_mix =  0.700 |ddv_scf|^2 =  1.006E-05

      iter #   2 total cpu time :    80.7 secs   av.it.:   9.9
      thresh= 3.171E-04 alpha_mix =  0.700 |ddv_scf|^2 =  1.290E-05

      iter #   3 total cpu time :    81.0 secs   av.it.:   9.0
      thresh= 3.592E-04 alpha_mix =  0.700 |ddv_scf|^2 =  9.284E-09

      iter #   4 total cpu time :    81.3 secs   av.it.:   8.9
      thresh= 9.635E-06 alpha_mix =  0.700 |ddv_scf|^2 =  6.246E-11

      iter #   5 total cpu time :    81.6 secs   av.it.:   9.3
      thresh= 7.903E-07 alpha_mix =  0.700 |ddv_scf|^2 =  1.484E-12

      iter #   6 total cpu time :    82.1 secs   av.it.:   9.1
      thresh= 1.218E-07 alpha_mix =  0.700 |ddv_scf|^2 =  1.309E-14

     End of self-consistent calculation

     Convergence has been achieved 


     Representation #  3 modes #   5  6

     Self-consistent Calculation

      iter #   1 total cpu time :    82.4 secs   av.it.:   5.1
      thresh= 1.000E-02 alpha_mix =  0.700 |ddv_scf|^2 =  2.743E-06

      iter #   2 total cpu time :    82.7 secs   av.it.:   9.7
      thresh= 1.656E-04 alpha_mix =  0.700 |ddv_scf|^2 =  1.518E-06

      iter #   3 total cpu time :    83.0 secs   av.it.:   9.1
      thresh= 1.232E-04 alpha_mix =  0.700 |ddv_scf|^2 =  7.720E-09

      iter #   4 total cpu time :    83.3 secs   av.it.:   8.7
      thresh= 8.786E-06 alpha_mix =  0.700 |ddv_scf|^2 =  4.233E-11

      iter #   5 total cpu time :    83.6 secs   av.it.:   9.1
      thresh= 6.506E-07 alpha_mix =  0.700 |ddv_scf|^2 =  7.013E-13

     End of self-consistent calculation

     Convergence has been achieved 

     Number of q in the star =    6
     List of q in the star:
          1  -0.500000000  -1.000000000   0.000000000
          2   0.000000000   1.000000000   0.500000000
          3   0.000000000  -1.000000000  -0.500000000
          4   0.500000000   1.000000000   0.000000000
          5  -1.000000000  -0.500000000   0.000000000
          6   0.000000000  -0.500000000  -1.000000000

     Diagonalizing the dynamical matrix

     q = (   -0.500000000  -1.000000000   0.000000000 ) 

 **************************************************************************
     freq (    1) =       6.886710 [THz] =     229.715909 [cm-1]
     freq (    2) =       6.886710 [THz] =     229.715909 [cm-1]
     freq (    3) =      11.210471 [THz] =     373.941046 [cm-1]
     freq (    4) =      11.210471 [THz] =     373.941046 [cm-1]
     freq (    5) =      14.534453 [THz] =     484.817157 [cm-1]
     freq (    6) =      14.534453 [THz] =     484.817157 [cm-1]
 **************************************************************************

     init_run     :      0.52s CPU      0.67s WALL (       7 calls)
     electrons    :      4.72s CPU      5.24s WALL (       7 calls)

     Called by init_run:
     wfcinit      :      0.00s CPU      0.00s WALL (       7 calls)
     potinit      :      0.02s CPU      0.02s WALL (       7 calls)

     Called by electrons:
     c_bands      :      4.72s CPU      5.22s WALL (       7 calls)
     v_of_rho     :      0.01s CPU      0.01s WALL (       8 calls)
     newd         :      0.03s CPU      0.03s WALL (       8 calls)

     Called by c_bands:
     init_us_2    :      0.65s CPU      0.70s WALL (   17588 calls)
     cegterg      :      3.98s CPU      4.41s WALL (     796 calls)

     Called by sum_band:

     Called by *egterg:
     h_psi        :     42.80s CPU     46.18s WALL (  151907 calls)
     s_psi        :      5.56s CPU      5.91s WALL (  308612 calls)
     g_psi        :      0.03s CPU      0.04s WALL (    9190 calls)
     cdiaghg      :      0.46s CPU      0.51s WALL (    9986 calls)

     Called by h_psi:
     h_psi:pot    :     42.62s CPU     45.99s WALL (  151907 calls)
     h_psi:calbec :      4.31s CPU      4.67s WALL (  151907 calls)
     vloc_psi     :     35.31s CPU     38.13s WALL (  151907 calls)
     add_vuspsi   :      2.78s CPU      2.96s WALL (  151907 calls)

     General routines
     calbec       :      9.61s CPU     10.42s WALL (  344984 calls)
     fft          :      0.40s CPU      0.44s WALL (    5239 calls)
     ffts         :      0.13s CPU      0.14s WALL (    2748 calls)
     fftw         :     40.95s CPU     44.11s WALL ( 1375960 calls)
     davcio       :      0.31s CPU      0.34s WALL (   79045 calls)

     Parallel routines
     fft_scatter  :      9.28s CPU     10.35s WALL ( 1383947 calls)

     PHONON       :  1m17.69s CPU     1m23.62s WALL

     INITIALIZATION: 
     phq_setup    :      0.05s CPU      0.05s WALL (       8 calls)
     phq_init     :      1.89s CPU      1.93s WALL (       8 calls)

     phq_init     :      1.89s CPU      1.93s WALL (       8 calls)
     set_drhoc    :      0.28s CPU      0.28s WALL (      24 calls)
     init_vloc    :      0.01s CPU      0.01s WALL (       8 calls)
     init_us_1    :      0.47s CPU      0.59s WALL (       8 calls)
     newd         :      0.03s CPU      0.03s WALL (       8 calls)
     dvanqq       :      0.23s CPU      0.23s WALL (       8 calls)
     drho         :      0.97s CPU      0.99s WALL (       8 calls)

     DYNAMICAL MATRIX:
     dynmat0      :      0.47s CPU      0.48s WALL (       8 calls)
     phqscf       :     68.14s CPU     73.28s WALL (       8 calls)
     dynmatrix    :      0.01s CPU      0.02s WALL (       8 calls)

     phqscf       :     68.14s CPU     73.28s WALL (       8 calls)
     solve_linter :     67.36s CPU     72.34s WALL (      32 calls)
     drhodv       :      0.50s CPU      0.56s WALL (      32 calls)

     dynmat0      :      0.47s CPU      0.48s WALL (       8 calls)
     dynmat_us    :      0.26s CPU      0.27s WALL (       8 calls)
     d2ionq       :      0.01s CPU      0.01s WALL (       8 calls)
     dynmatcc     :      0.20s CPU      0.20s WALL (       8 calls)

     dynmat_us    :      0.26s CPU      0.27s WALL (       8 calls)
     addusdynmat  :      0.00s CPU      0.00s WALL (       8 calls)

     phqscf       :     68.14s CPU     73.28s WALL (       8 calls)
     solve_linter :     67.36s CPU     72.34s WALL (      32 calls)

     solve_linter :     67.36s CPU     72.34s WALL (      32 calls)
     dvqpsi_us    :      1.63s CPU      1.72s WALL (    2508 calls)
     ortho        :      1.27s CPU      1.37s WALL (   15550 calls)
     cgsolve      :     52.51s CPU     56.48s WALL (   15550 calls)
     incdrhoscf   :      4.57s CPU      4.90s WALL (   15550 calls)
     addusddens   :      1.09s CPU      1.14s WALL (     228 calls)
     vpsifft      :      3.37s CPU      3.57s WALL (   12922 calls)
     dv_of_drho   :      0.22s CPU      0.22s WALL (     295 calls)
     mix_pot      :      0.06s CPU      0.07s WALL (     201 calls)
     psymdvscf    :      0.80s CPU      0.82s WALL (     196 calls)
     newdq        :      1.19s CPU      1.27s WALL (     201 calls)
     adddvscf     :      0.45s CPU      0.48s WALL (   13042 calls)
     drhodvus     :      0.00s CPU      0.00s WALL (      32 calls)

     dvqpsi_us    :      1.63s CPU      1.72s WALL (    2508 calls)
     dvqpsi_us_on :      0.81s CPU      0.85s WALL (    2508 calls)

     cgsolve      :     52.51s CPU     56.48s WALL (   15550 calls)
     ch_psi       :     50.77s CPU     54.56s WALL (  141125 calls)

     ch_psi       :     50.77s CPU     54.56s WALL (  141125 calls)
     h_psi        :     42.80s CPU     46.18s WALL (  151907 calls)
     last         :      8.30s CPU      8.89s WALL (  141125 calls)

     h_psi        :     42.80s CPU     46.18s WALL (  151907 calls)
     add_vuspsi   :      2.78s CPU      2.96s WALL (  151907 calls)

     incdrhoscf   :      4.57s CPU      4.90s WALL (   15550 calls)
     addusdbec    :      0.61s CPU      0.64s WALL (   17998 calls)

     drhodvus     :      0.00s CPU      0.00s WALL (      32 calls)

      General routines
     calbec       :      9.61s CPU     10.42s WALL (  344984 calls)
     fft          :      0.40s CPU      0.44s WALL (    5239 calls)
     ffts         :      0.13s CPU      0.14s WALL (    2748 calls)
     fftw         :     40.95s CPU     44.11s WALL ( 1375960 calls)
     davcio       :      0.31s CPU      0.34s WALL (   79045 calls)
     write_rec    :      0.20s CPU      0.22s WALL (     233 calls)


     PHONON       :  1m17.69s CPU     1m23.62s WALL


   This run was terminated on:   1: 5:19   9Nov2017            

=------------------------------------------------------------------------------=
   JOB DONE.
=------------------------------------------------------------------------------=
