
     Program PHONON v.6.1 (svn rev. 13369) starts on 10Nov2017 at 15:55:43 

     This program is part of the open-source Quantum ESPRESSO suite
     for quantum simulation of materials; please cite
         "P. Giannozzi et al., J. Phys.:Condens. Matter 21 395502 (2009);
          URL http://www.quantum-espresso.org", 
     in publications or presentations arising from this work. More details at
     http://www.quantum-espresso.org/quote

     Parallel version (MPI), running on     4 processors
     R & G space division:  proc/nbgrp/npool/nimage =       4

     Reading data from directory:
     ./silicon.10.342.save

   Info: using nr1, nr2, nr3 values from input

   Info: using nr1, nr2, nr3 values from input

     IMPORTANT: XC functional enforced from input :
     Exchange-correlation      = SLA  PW   PBE  PBE ( 1  4  3  4 0 0)
     Any further DFT definition will be discarded
     Please, verify this is what you really want


     Parallelization info
     --------------------
     sticks:   dense  smooth     PW     G-vecs:    dense   smooth      PW
     Min         219     109     37                 4315     1545     284
     Max         220     110     38                 4316     1546     285
     Sum         877     439    151                17261     6183    1139



     Dynamical matrices for ( 4, 4, 4)  uniform grid of q-points
     (   8q-points):
       N         xq(1)         xq(2)         xq(3) 
       1   0.000000000   0.000000000   0.000000000
       2  -0.250000000   0.250000000  -0.250000000
       3   0.500000000  -0.500000000   0.500000000
       4   0.000000000   0.500000000   0.000000000
       5   0.750000000  -0.250000000   0.750000000
       6   0.500000000   0.000000000   0.500000000
       7   0.000000000  -1.000000000   0.000000000
       8  -0.500000000  -1.000000000   0.000000000

     Calculation of q =    0.0000000   0.0000000   0.0000000

                                                                                

     bravais-lattice index     =            2
     lattice parameter (alat)  =      10.3420  a.u.
     unit-cell volume          =     276.5372 (a.u.)^3
     number of atoms/cell      =            2
     number of atomic types    =            1
     kinetic-energy cut-off    =      30.0000  Ry
     charge density cut-off    =     240.0000  Ry
     convergence threshold     =      1.0E-12
     beta                      =       0.7000
     number of iterations used =            4
     Exchange-correlation      = SLA  PW   PBE  PBE ( 1  4  3  4 0 0)


     celldm(1)=   10.34200  celldm(2)=    0.00000  celldm(3)=    0.00000
     celldm(4)=    0.00000  celldm(5)=    0.00000  celldm(6)=    0.00000

     crystal axes: (cart. coord. in units of alat)
               a(1) = ( -0.5000  0.0000  0.5000 )  
               a(2) = (  0.0000  0.5000  0.5000 )  
               a(3) = ( -0.5000  0.5000  0.0000 )  

     reciprocal axes: (cart. coord. in units 2 pi/alat)
               b(1) = ( -1.0000 -1.0000  1.0000 )  
               b(2) = (  1.0000  1.0000  1.0000 )  
               b(3) = ( -1.0000  1.0000 -1.0000 )  


     Atoms inside the unit cell: 

     Cartesian axes

     site n.  atom      mass           positions (alat units)
        1     Si  28.0860   tau(    1) = (    0.00000    0.00000    0.00000  )
        2     Si  28.0860   tau(    2) = (    0.25000    0.25000    0.25000  )

     Computing dynamical matrix for 
                    q = (   0.0000000   0.0000000   0.0000000 )

     49 Sym.Ops. (with q -> -q+G )


     G cutoff =  650.2204  (   4315 G-vectors)     FFT grid: ( 40, 40, 40)
     G cutoff =  325.1102  (   1546 G-vectors)  smooth grid: ( 25, 25, 25)
     number of k points=    10

     PseudoPot. # 1 for Si read from file:
     /home/s1333534/quantum_espresso/qe-6.1/pseudo/si_pbe_v1.uspp.F.UPF.txt
     MD5 check sum: a056efeee980c13900f22a371efd63c1
     Pseudo is Ultrasoft + core correction, Zval =  4.0
     Generated by new atomic code, or converted to UPF format
     Using radial grid of  899 points,  6 beta functions with: 
                l(1) =   0
                l(2) =   0
                l(3) =   1
                l(4) =   1
                l(5) =   2
                l(6) =   2
     Q(r) pseudized with  8 coefficients,  rinner =    0.900   0.900   0.900
                                                       0.900   0.900

     Mode symmetry, O_h (m-3m)  point group:


     Electric field:
     Dielectric constant
     Born effective charges in two ways 


     Atomic displacements:
     There are   2 irreducible representations

     Representation     1      3 modes -T_2g G_25' G_5+  To be done

     Representation     2      3 modes -T_1u G_15  G_4-  To be done



     Alpha used in Ewald sum =   2.5000
     PHONON       :     0.98s CPU         1.34s WALL


     Electric Fields Calculation

      iter #   1 total cpu time :     2.5 secs   av.it.:   5.7
      thresh= 1.000E-02 alpha_mix =  0.700 |ddv_scf|^2 =  9.690E-08

      iter #   2 total cpu time :     3.3 secs   av.it.:  11.9
      thresh= 3.113E-05 alpha_mix =  0.700 |ddv_scf|^2 =  5.729E-09

      iter #   3 total cpu time :     4.1 secs   av.it.:  11.7
      thresh= 7.569E-06 alpha_mix =  0.700 |ddv_scf|^2 =  3.837E-10

      iter #   4 total cpu time :     4.9 secs   av.it.:  10.6
      thresh= 1.959E-06 alpha_mix =  0.700 |ddv_scf|^2 =  2.537E-12

      iter #   5 total cpu time :     5.6 secs   av.it.:  11.2
      thresh= 1.593E-07 alpha_mix =  0.700 |ddv_scf|^2 =  2.531E-15

     End of electric fields calculation

          Dielectric constant in cartesian axis 

          (      13.983537240       0.000000000       0.000000000 )
          (       0.000000000      13.983537240      -0.000000000 )
          (       0.000000000      -0.000000000      13.983537240 )

          Effective charges (d Force / dE) in cartesian axis

           atom      1   Si 
      Ex  (       -0.03836       -0.00000       -0.00000 )
      Ey  (       -0.00000       -0.03836        0.00000 )
      Ez  (       -0.00000        0.00000       -0.03836 )
           atom      2   Si 
      Ex  (       -0.03836        0.00000        0.00000 )
      Ey  (       -0.00000       -0.03836       -0.00000 )
      Ez  (        0.00000       -0.00000       -0.03836 )


     Representation #  1 modes #   1  2  3

     Self-consistent Calculation

      iter #   1 total cpu time :     7.0 secs   av.it.:   5.1
      thresh= 1.000E-02 alpha_mix =  0.700 |ddv_scf|^2 =  1.713E-08

      iter #   2 total cpu time :     7.8 secs   av.it.:  11.8
      thresh= 1.309E-05 alpha_mix =  0.700 |ddv_scf|^2 =  7.005E-10

      iter #   3 total cpu time :     8.8 secs   av.it.:  11.3
      thresh= 2.647E-06 alpha_mix =  0.700 |ddv_scf|^2 =  4.766E-11

      iter #   4 total cpu time :     9.4 secs   av.it.:  10.4
      thresh= 6.903E-07 alpha_mix =  0.700 |ddv_scf|^2 =  1.181E-13

     End of self-consistent calculation

     Convergence has been achieved 


     Representation #  2 modes #   4  5  6

     Self-consistent Calculation

      iter #   1 total cpu time :    10.4 secs   av.it.:   5.2
      thresh= 1.000E-02 alpha_mix =  0.700 |ddv_scf|^2 =  1.351E-08

      iter #   2 total cpu time :    11.3 secs   av.it.:  11.8
      thresh= 1.162E-05 alpha_mix =  0.700 |ddv_scf|^2 =  7.946E-10

      iter #   3 total cpu time :    12.2 secs   av.it.:  11.4
      thresh= 2.819E-06 alpha_mix =  0.700 |ddv_scf|^2 =  4.932E-11

      iter #   4 total cpu time :    12.8 secs   av.it.:  11.5
      thresh= 7.023E-07 alpha_mix =  0.700 |ddv_scf|^2 =  1.914E-13

     End of self-consistent calculation

     Convergence has been achieved 

     Number of q in the star =    1
     List of q in the star:
          1   0.000000000   0.000000000   0.000000000

          Dielectric constant in cartesian axis 

          (      13.983537240       0.000000000       0.000000000 )
          (       0.000000000      13.983537240      -0.000000000 )
          (       0.000000000      -0.000000000      13.983537240 )

          Effective charges (d Force / dE) in cartesian axis

           atom      1   Si 
      Ex  (       -0.03836       -0.00000       -0.00000 )
      Ey  (       -0.00000       -0.03836        0.00000 )
      Ez  (       -0.00000        0.00000       -0.03836 )
           atom      2   Si 
      Ex  (       -0.03836        0.00000        0.00000 )
      Ey  (       -0.00000       -0.03836       -0.00000 )
      Ez  (        0.00000       -0.00000       -0.03836 )

          Effective charges (d P / du) in cartesian axis 

           atom      1   Si 
      Px  (       -0.07261        0.00000        0.00000 )
      Py  (        0.00000       -0.07261       -0.00000 )
      Pz  (        0.00000       -0.00000       -0.07261 )
           atom      2   Si 
      Px  (       -0.07261        0.00000        0.00000 )
      Py  (        0.00000       -0.07261        0.00000 )
      Pz  (        0.00000       -0.00000       -0.07261 )

     Diagonalizing the dynamical matrix

     q = (    0.000000000   0.000000000   0.000000000 ) 

 **************************************************************************
     freq (    1) =      -0.476334 [THz] =     -15.888801 [cm-1]
     freq (    2) =      -0.476334 [THz] =     -15.888801 [cm-1]
     freq (    3) =      -0.476334 [THz] =     -15.888801 [cm-1]
     freq (    4) =      15.031242 [THz] =     501.388267 [cm-1]
     freq (    5) =      15.031242 [THz] =     501.388267 [cm-1]
     freq (    6) =      15.031242 [THz] =     501.388267 [cm-1]
 **************************************************************************

     Mode symmetry, O_h (m-3m)  point group:

     freq (  1 -  3) =        -15.9  [cm-1]   --> T_1u G_15  G_4- I  
     freq (  4 -  6) =        501.4  [cm-1]   --> T_2g G_25' G_5+ R  

     Calculation of q =   -0.2500000   0.2500000  -0.2500000

   Info: using nr1, nr2, nr3 values from input

   Info: using nr1, nr2, nr3 values from input

     Parallelization info
     --------------------
     sticks:   dense  smooth     PW     G-vecs:    dense   smooth      PW
     Min         218     109     37                 4315     1545     309
     Max         220     110     38                 4316     1546     312
     Sum         877     439    151                17261     6183    1243



     bravais-lattice index     =            2
     lattice parameter (alat)  =      10.3420  a.u.
     unit-cell volume          =     276.5372 (a.u.)^3
     number of atoms/cell      =            2
     number of atomic types    =            1
     number of electrons       =         8.00
     number of Kohn-Sham states=            4
     kinetic-energy cutoff     =      30.0000  Ry
     charge density cutoff     =     240.0000  Ry
     Exchange-correlation      = SLA  PW   PBE  PBE ( 1  4  3  4 0 0)

     celldm(1)=  10.342000  celldm(2)=   0.000000  celldm(3)=   0.000000
     celldm(4)=   0.000000  celldm(5)=   0.000000  celldm(6)=   0.000000

     crystal axes: (cart. coord. in units of alat)
               a(1) = (  -0.500000   0.000000   0.500000 )  
               a(2) = (   0.000000   0.500000   0.500000 )  
               a(3) = (  -0.500000   0.500000   0.000000 )  

     reciprocal axes: (cart. coord. in units 2 pi/alat)
               b(1) = ( -1.000000 -1.000000  1.000000 )  
               b(2) = (  1.000000  1.000000  1.000000 )  
               b(3) = ( -1.000000  1.000000 -1.000000 )  


     PseudoPot. # 1 for Si read from file:
     /home/s1333534/quantum_espresso/qe-6.1/pseudo/si_pbe_v1.uspp.F.UPF.txt
     MD5 check sum: a056efeee980c13900f22a371efd63c1
     Pseudo is Ultrasoft + core correction, Zval =  4.0
     Generated by new atomic code, or converted to UPF format
     Using radial grid of  899 points,  6 beta functions with: 
                l(1) =   0
                l(2) =   0
                l(3) =   1
                l(4) =   1
                l(5) =   2
                l(6) =   2
     Q(r) pseudized with  8 coefficients,  rinner =    0.900   0.900   0.900
                                                       0.900   0.900

     atomic species   valence    mass     pseudopotential
        Si             4.00    28.08600     Si( 1.00)

     48 Sym. Ops., with inversion, found



   Cartesian axes

     site n.     atom                  positions (alat units)
         1           Si  tau(   1) = (   0.0000000   0.0000000   0.0000000  )
         2           Si  tau(   2) = (   0.2500000   0.2500000   0.2500000  )

     number of k points=   120

     Number of k-points >= 100: set verbosity='high' to print them.

     Dense  grid:    17261 G-vectors     FFT dimensions: (  40,  40,  40)

     Smooth grid:     6183 G-vectors     FFT dimensions: (  25,  25,  25)

     Estimated max dynamical RAM per process >       1.78MB

     Estimated total allocated dynamical RAM >       7.14MB

     The potential is recalculated from file :
     ./_ph0/silicon.10.342.save/charge-density.dat

     Starting wfc are    8 atomic wfcs

     Band Structure Calculation
     Davidson diagonalization with overlap

     ethr =  1.25E-10,  avg # of iterations = 12.2

     total cpu time spent up to now is        1.4 secs

     End of band structure calculation

     Number of k-points >= 100: set verbosity='high' to print the bands.

     highest occupied level (ev):     5.6719

     Writing output data file silicon.10.342.save

                                                                                

     bravais-lattice index     =            2
     lattice parameter (alat)  =      10.3420  a.u.
     unit-cell volume          =     276.5372 (a.u.)^3
     number of atoms/cell      =            2
     number of atomic types    =            1
     kinetic-energy cut-off    =      30.0000  Ry
     charge density cut-off    =     240.0000  Ry
     convergence threshold     =      1.0E-12
     beta                      =       0.7000
     number of iterations used =            4
     Exchange-correlation      = SLA  PW   PBE  PBE ( 1  4  3  4 0 0)


     celldm(1)=   10.34200  celldm(2)=    0.00000  celldm(3)=    0.00000
     celldm(4)=    0.00000  celldm(5)=    0.00000  celldm(6)=    0.00000

     crystal axes: (cart. coord. in units of alat)
               a(1) = ( -0.5000  0.0000  0.5000 )  
               a(2) = (  0.0000  0.5000  0.5000 )  
               a(3) = ( -0.5000  0.5000  0.0000 )  

     reciprocal axes: (cart. coord. in units 2 pi/alat)
               b(1) = ( -1.0000 -1.0000  1.0000 )  
               b(2) = (  1.0000  1.0000  1.0000 )  
               b(3) = ( -1.0000  1.0000 -1.0000 )  


     Atoms inside the unit cell: 

     Cartesian axes

     site n.  atom      mass           positions (alat units)
        1     Si  28.0860   tau(    1) = (    0.00000    0.00000    0.00000  )
        2     Si  28.0860   tau(    2) = (    0.25000    0.25000    0.25000  )

     Computing dynamical matrix for 
                    q = (  -0.2500000   0.2500000  -0.2500000 )

      6 Sym.Ops. (no q -> -q+G )


     G cutoff =  650.2204  (   4315 G-vectors)     FFT grid: ( 40, 40, 40)
     G cutoff =  325.1102  (   1546 G-vectors)  smooth grid: ( 25, 25, 25)
     number of k points=   120

     PseudoPot. # 1 for Si read from file:
     /home/s1333534/quantum_espresso/qe-6.1/pseudo/si_pbe_v1.uspp.F.UPF.txt
     MD5 check sum: a056efeee980c13900f22a371efd63c1
     Pseudo is Ultrasoft + core correction, Zval =  4.0
     Generated by new atomic code, or converted to UPF format
     Using radial grid of  899 points,  6 beta functions with: 
                l(1) =   0
                l(2) =   0
                l(3) =   1
                l(4) =   1
                l(5) =   2
                l(6) =   2
     Q(r) pseudized with  8 coefficients,  rinner =    0.900   0.900   0.900
                                                       0.900   0.900

     Mode symmetry, C_3v (3m)   point group:


     Atomic displacements:
     There are   4 irreducible representations

     Representation     1      1 modes -A_1  L_1  To be done

     Representation     2      1 modes -A_1  L_1  To be done

     Representation     3      2 modes -E    L_3  To be done

     Representation     4      2 modes -E    L_3  To be done



     Alpha used in Ewald sum =   2.5000
     PHONON       :    12.15s CPU        16.46s WALL



     Representation #  1 mode #   1

     Self-consistent Calculation

      iter #   1 total cpu time :    16.9 secs   av.it.:   5.9
      thresh= 1.000E-02 alpha_mix =  0.700 |ddv_scf|^2 =  3.100E-04

      iter #   2 total cpu time :    17.6 secs   av.it.:   9.2
      thresh= 1.761E-03 alpha_mix =  0.700 |ddv_scf|^2 =  4.728E-03

      iter #   3 total cpu time :    18.1 secs   av.it.:   7.1
      thresh= 6.876E-03 alpha_mix =  0.700 |ddv_scf|^2 =  1.955E-07

      iter #   4 total cpu time :    18.8 secs   av.it.:   9.7
      thresh= 4.422E-05 alpha_mix =  0.700 |ddv_scf|^2 =  1.293E-08

      iter #   5 total cpu time :    19.5 secs   av.it.:   9.7
      thresh= 1.137E-05 alpha_mix =  0.700 |ddv_scf|^2 =  2.375E-10

      iter #   6 total cpu time :    20.1 secs   av.it.:   9.8
      thresh= 1.541E-06 alpha_mix =  0.700 |ddv_scf|^2 =  5.425E-10

      iter #   7 total cpu time :    20.7 secs   av.it.:   7.8
      thresh= 2.329E-06 alpha_mix =  0.700 |ddv_scf|^2 =  4.025E-11

      iter #   8 total cpu time :    21.3 secs   av.it.:   9.3
      thresh= 6.344E-07 alpha_mix =  0.700 |ddv_scf|^2 =  4.068E-13

     End of self-consistent calculation

     Convergence has been achieved 


     Representation #  2 mode #   2

     Self-consistent Calculation

      iter #   1 total cpu time :    21.9 secs   av.it.:   5.9
      thresh= 1.000E-02 alpha_mix =  0.700 |ddv_scf|^2 =  3.100E-04

      iter #   2 total cpu time :    22.5 secs   av.it.:   9.2
      thresh= 1.761E-03 alpha_mix =  0.700 |ddv_scf|^2 =  4.728E-03

      iter #   3 total cpu time :    23.0 secs   av.it.:   7.1
      thresh= 6.876E-03 alpha_mix =  0.700 |ddv_scf|^2 =  1.955E-07

      iter #   4 total cpu time :    23.7 secs   av.it.:   9.7
      thresh= 4.422E-05 alpha_mix =  0.700 |ddv_scf|^2 =  1.293E-08

      iter #   5 total cpu time :    24.3 secs   av.it.:   9.7
      thresh= 1.137E-05 alpha_mix =  0.700 |ddv_scf|^2 =  2.375E-10

      iter #   6 total cpu time :    25.0 secs   av.it.:   9.8
      thresh= 1.541E-06 alpha_mix =  0.700 |ddv_scf|^2 =  5.425E-10

      iter #   7 total cpu time :    25.7 secs   av.it.:   7.8
      thresh= 2.329E-06 alpha_mix =  0.700 |ddv_scf|^2 =  4.025E-11

      iter #   8 total cpu time :    26.4 secs   av.it.:   9.3
      thresh= 6.344E-07 alpha_mix =  0.700 |ddv_scf|^2 =  4.068E-13

     End of self-consistent calculation

     Convergence has been achieved 


     Representation #  3 modes #   3  4

     Self-consistent Calculation

      iter #   1 total cpu time :    27.3 secs   av.it.:   5.2
      thresh= 1.000E-02 alpha_mix =  0.700 |ddv_scf|^2 =  4.818E-08

      iter #   2 total cpu time :    28.7 secs   av.it.:  11.6
      thresh= 2.195E-05 alpha_mix =  0.700 |ddv_scf|^2 =  3.094E-09

      iter #   3 total cpu time :    30.0 secs   av.it.:  11.2
      thresh= 5.563E-06 alpha_mix =  0.700 |ddv_scf|^2 =  1.636E-10

      iter #   4 total cpu time :    31.3 secs   av.it.:  11.1
      thresh= 1.279E-06 alpha_mix =  0.700 |ddv_scf|^2 =  6.278E-13

     End of self-consistent calculation

     Convergence has been achieved 


     Representation #  4 modes #   5  6

     Self-consistent Calculation

      iter #   1 total cpu time :    32.3 secs   av.it.:   5.2
      thresh= 1.000E-02 alpha_mix =  0.700 |ddv_scf|^2 =  4.819E-08

      iter #   2 total cpu time :    33.7 secs   av.it.:  11.7
      thresh= 2.195E-05 alpha_mix =  0.700 |ddv_scf|^2 =  3.094E-09

      iter #   3 total cpu time :    35.0 secs   av.it.:  11.4
      thresh= 5.563E-06 alpha_mix =  0.700 |ddv_scf|^2 =  1.636E-10

      iter #   4 total cpu time :    36.5 secs   av.it.:  11.2
      thresh= 1.279E-06 alpha_mix =  0.700 |ddv_scf|^2 =  6.318E-13

     End of self-consistent calculation

     Convergence has been achieved 

     Number of q in the star =    8
     List of q in the star:
          1  -0.250000000   0.250000000  -0.250000000
          2   0.250000000  -0.250000000  -0.250000000
          3   0.250000000  -0.250000000   0.250000000
          4   0.250000000   0.250000000   0.250000000
          5  -0.250000000  -0.250000000  -0.250000000
          6  -0.250000000  -0.250000000   0.250000000
          7  -0.250000000   0.250000000   0.250000000
          8   0.250000000   0.250000000  -0.250000000

     Diagonalizing the dynamical matrix

     q = (   -0.250000000   0.250000000  -0.250000000 ) 

 **************************************************************************
     freq (    1) =       2.790226 [THz] =      93.071932 [cm-1]
     freq (    2) =       2.790226 [THz] =      93.071932 [cm-1]
     freq (    3) =       6.713145 [THz] =     223.926428 [cm-1]
     freq (    4) =      14.183954 [THz] =     473.125782 [cm-1]
     freq (    5) =      14.452084 [THz] =     482.069649 [cm-1]
     freq (    6) =      14.452084 [THz] =     482.069649 [cm-1]
 **************************************************************************

     Mode symmetry, C_3v (3m)   point group:

     freq (  1 -  2) =         93.1  [cm-1]   --> E    L_3           
     freq (  3 -  3) =        223.9  [cm-1]   --> A_1  L_1           
     freq (  4 -  4) =        473.1  [cm-1]   --> A_1  L_1           
     freq (  5 -  6) =        482.1  [cm-1]   --> E    L_3           

     Calculation of q =    0.5000000  -0.5000000   0.5000000

   Info: using nr1, nr2, nr3 values from input

   Info: using nr1, nr2, nr3 values from input

     Parallelization info
     --------------------
     sticks:   dense  smooth     PW     G-vecs:    dense   smooth      PW
     Min         219     109     40                 4315     1545     351
     Max         220     110     41                 4316     1546     354
     Sum         877     439    163                17261     6183    1411



     bravais-lattice index     =            2
     lattice parameter (alat)  =      10.3420  a.u.
     unit-cell volume          =     276.5372 (a.u.)^3
     number of atoms/cell      =            2
     number of atomic types    =            1
     number of electrons       =         8.00
     number of Kohn-Sham states=            4
     kinetic-energy cutoff     =      30.0000  Ry
     charge density cutoff     =     240.0000  Ry
     Exchange-correlation      = SLA  PW   PBE  PBE ( 1  4  3  4 0 0)

     celldm(1)=  10.342000  celldm(2)=   0.000000  celldm(3)=   0.000000
     celldm(4)=   0.000000  celldm(5)=   0.000000  celldm(6)=   0.000000

     crystal axes: (cart. coord. in units of alat)
               a(1) = (  -0.500000   0.000000   0.500000 )  
               a(2) = (   0.000000   0.500000   0.500000 )  
               a(3) = (  -0.500000   0.500000   0.000000 )  

     reciprocal axes: (cart. coord. in units 2 pi/alat)
               b(1) = ( -1.000000 -1.000000  1.000000 )  
               b(2) = (  1.000000  1.000000  1.000000 )  
               b(3) = ( -1.000000  1.000000 -1.000000 )  


     PseudoPot. # 1 for Si read from file:
     /home/s1333534/quantum_espresso/qe-6.1/pseudo/si_pbe_v1.uspp.F.UPF.txt
     MD5 check sum: a056efeee980c13900f22a371efd63c1
     Pseudo is Ultrasoft + core correction, Zval =  4.0
     Generated by new atomic code, or converted to UPF format
     Using radial grid of  899 points,  6 beta functions with: 
                l(1) =   0
                l(2) =   0
                l(3) =   1
                l(4) =   1
                l(5) =   2
                l(6) =   2
     Q(r) pseudized with  8 coefficients,  rinner =    0.900   0.900   0.900
                                                       0.900   0.900

     atomic species   valence    mass     pseudopotential
        Si             4.00    28.08600     Si( 1.00)

     48 Sym. Ops., with inversion, found



   Cartesian axes

     site n.     atom                  positions (alat units)
         1           Si  tau(   1) = (   0.0000000   0.0000000   0.0000000  )
         2           Si  tau(   2) = (   0.2500000   0.2500000   0.2500000  )

     number of k points=    60
                       cart. coord. in units 2pi/alat
        k(    1) = (  -0.1250000   0.1250000   0.1250000), wk =   0.0468750
        k(    2) = (   0.3750000  -0.3750000   0.6250000), wk =   0.0000000
        k(    3) = (  -0.3750000   0.3750000  -0.1250000), wk =   0.0468750
        k(    4) = (   0.1250000  -0.1250000   0.3750000), wk =   0.0000000
        k(    5) = (   0.3750000  -0.3750000   0.6250000), wk =   0.0468750
        k(    6) = (   0.8750000  -0.8750000   1.1250000), wk =   0.0000000
        k(    7) = (   0.1250000  -0.1250000   0.3750000), wk =   0.0468750
        k(    8) = (   0.6250000  -0.6250000   0.8750000), wk =   0.0000000
        k(    9) = (  -0.1250000   0.6250000   0.1250000), wk =   0.0937500
        k(   10) = (   0.3750000   0.1250000   0.6250000), wk =   0.0000000
        k(   11) = (   0.6250000  -0.1250000   0.8750000), wk =   0.0937500
        k(   12) = (   1.1250000  -0.6250000   1.3750000), wk =   0.0000000
        k(   13) = (   0.3750000   0.1250000   0.6250000), wk =   0.0937500
        k(   14) = (   0.8750000  -0.3750000   1.1250000), wk =   0.0000000
        k(   15) = (  -0.1250000  -0.8750000   0.1250000), wk =   0.0937500
        k(   16) = (   0.3750000  -1.3750000   0.6250000), wk =   0.0000000
        k(   17) = (  -0.3750000   0.3750000   0.3750000), wk =   0.0468750
        k(   18) = (   0.1250000  -0.1250000   0.8750000), wk =   0.0000000
        k(   19) = (   0.3750000  -0.3750000   1.1250000), wk =   0.0468750
        k(   20) = (   0.8750000  -0.8750000   1.6250000), wk =   0.0000000
        k(   21) = (   0.1250000  -0.1250000   0.1250000), wk =   0.0156250
        k(   22) = (   0.6250000  -0.6250000   0.6250000), wk =   0.0000000
        k(   23) = (  -0.3750000  -0.3750000  -0.1250000), wk =   0.0937500
        k(   24) = (   0.1250000  -0.8750000   0.3750000), wk =   0.0000000
        k(   25) = (  -0.1250000  -0.3750000   0.3750000), wk =   0.0468750
        k(   26) = (   0.3750000  -0.8750000   0.8750000), wk =   0.0000000
        k(   27) = (   0.3750000   0.3750000   0.6250000), wk =   0.0937500
        k(   28) = (   0.8750000  -0.1250000   1.1250000), wk =   0.0000000
        k(   29) = (   0.6250000   0.3750000  -0.3750000), wk =   0.0468750
        k(   30) = (   1.1250000  -0.1250000   0.1250000), wk =   0.0000000
        k(   31) = (   0.1250000   0.1250000   0.3750000), wk =   0.0937500
        k(   32) = (   0.6250000  -0.3750000   0.8750000), wk =   0.0000000
        k(   33) = (   0.3750000   0.1250000  -0.1250000), wk =   0.0468750
        k(   34) = (   0.8750000  -0.3750000   0.3750000), wk =   0.0000000
        k(   35) = (  -0.1250000  -0.6250000  -0.1250000), wk =   0.0468750
        k(   36) = (   0.3750000  -1.1250000   0.3750000), wk =   0.0000000
        k(   37) = (   0.1250000  -0.6250000   0.1250000), wk =   0.0468750
        k(   38) = (   0.6250000  -1.1250000   0.6250000), wk =   0.0000000
        k(   39) = (   0.6250000   0.1250000   0.8750000), wk =   0.0937500
        k(   40) = (   1.1250000  -0.3750000   1.3750000), wk =   0.0000000
        k(   41) = (  -0.8750000   0.1250000   0.6250000), wk =   0.0937500
        k(   42) = (  -0.3750000  -0.3750000   1.1250000), wk =   0.0000000
        k(   43) = (   0.8750000   0.1250000  -0.6250000), wk =   0.0937500
        k(   44) = (   1.3750000  -0.3750000  -0.1250000), wk =   0.0000000
        k(   45) = (   0.3750000  -0.1250000   0.6250000), wk =   0.0937500
        k(   46) = (   0.8750000  -0.6250000   1.1250000), wk =   0.0000000
        k(   47) = (  -0.6250000  -0.1250000   0.3750000), wk =   0.0937500
        k(   48) = (  -0.1250000  -0.6250000   0.8750000), wk =   0.0000000
        k(   49) = (   0.6250000  -0.1250000  -0.3750000), wk =   0.0937500
        k(   50) = (   1.1250000  -0.6250000   0.1250000), wk =   0.0000000
        k(   51) = (  -0.1250000   0.8750000  -0.1250000), wk =   0.0468750
        k(   52) = (   0.3750000   0.3750000   0.3750000), wk =   0.0000000
        k(   53) = (   0.1250000   0.8750000   0.1250000), wk =   0.0468750
        k(   54) = (   0.6250000   0.3750000   0.6250000), wk =   0.0000000
        k(   55) = (   0.3750000  -0.3750000   0.3750000), wk =   0.0156250
        k(   56) = (   0.8750000  -0.8750000   0.8750000), wk =   0.0000000
        k(   57) = (   0.3750000   0.3750000   1.1250000), wk =   0.0937500
        k(   58) = (   0.8750000  -0.1250000   1.6250000), wk =   0.0000000
        k(   59) = (   1.1250000   0.3750000  -0.3750000), wk =   0.0468750
        k(   60) = (   1.6250000  -0.1250000   0.1250000), wk =   0.0000000

     Dense  grid:    17261 G-vectors     FFT dimensions: (  40,  40,  40)

     Smooth grid:     6183 G-vectors     FFT dimensions: (  25,  25,  25)

     Estimated max dynamical RAM per process >       1.78MB

     Estimated total allocated dynamical RAM >       7.14MB

     The potential is recalculated from file :
     ./_ph0/silicon.10.342.save/charge-density.dat

     Starting wfc are    8 atomic wfcs

     Band Structure Calculation
     Davidson diagonalization with overlap

     ethr =  1.25E-10,  avg # of iterations = 12.2

     total cpu time spent up to now is        2.5 secs

     End of band structure calculation

          k =-0.1250 0.1250 0.1250 (   770 PWs)   bands (ev):

    -5.6469   4.3625   5.6719   5.6719

          k = 0.3750-0.3750 0.6250 (   767 PWs)   bands (ev):

    -3.4875  -0.6966   3.7105   4.4236

          k =-0.3750 0.3750-0.1250 (   773 PWs)   bands (ev):

    -4.6231   1.3750   3.6910   5.1925

          k = 0.1250-0.1250 0.3750 (   774 PWs)   bands (ev):

    -5.1204   2.7479   4.6671   4.7295

          k = 0.3750-0.3750 0.6250 (   767 PWs)   bands (ev):

    -3.4875  -0.6966   3.7105   4.4236

          k = 0.8750-0.8750 1.1250 (   770 PWs)   bands (ev):

    -5.6469   4.3625   5.6719   5.6719

          k = 0.1250-0.1250 0.3750 (   774 PWs)   bands (ev):

    -5.1204   2.7479   4.6671   4.7295

          k = 0.6250-0.6250 0.8750 (   773 PWs)   bands (ev):

    -4.6231   1.3750   3.6910   5.1925

          k =-0.1250 0.6250 0.1250 (   768 PWs)   bands (ev):

    -4.0919   1.0386   3.3441   3.7954

          k = 0.3750 0.1250 0.6250 (   768 PWs)   bands (ev):

    -3.6778   0.1693   2.7035   4.0694

          k = 0.6250-0.1250 0.8750 (   757 PWs)   bands (ev):

    -2.4573  -0.9188   1.9948   3.0680

          k = 1.1250-0.6250 1.3750 (   773 PWs)   bands (ev):

    -4.6231   1.3750   3.6910   5.1925

          k = 0.3750 0.1250 0.6250 (   768 PWs)   bands (ev):

    -3.6778   0.1693   2.7035   4.0694

          k = 0.8750-0.3750 1.1250 (   768 PWs)   bands (ev):

    -4.0919   1.0386   3.3441   3.7954

          k =-0.1250-0.8750 0.1250 (   762 PWs)   bands (ev):

    -2.6239  -0.8221   2.6026   3.3297

          k = 0.3750-1.3750 0.6250 (   767 PWs)   bands (ev):

    -3.4875  -0.6966   3.7105   4.4236

          k =-0.3750 0.3750 0.3750 (   763 PWs)   bands (ev):

    -4.1916   0.0894   4.8865   4.8865

          k = 0.1250-0.1250 0.8750 (   762 PWs)   bands (ev):

    -2.6239  -0.8221   2.6026   3.3297

          k = 0.3750-0.3750 1.1250 (   767 PWs)   bands (ev):

    -2.9931  -0.6149   2.0518   4.1076

          k = 0.8750-0.8750 1.6250 (   768 PWs)   bands (ev):

    -4.0919   1.0386   3.3441   3.7954

          k = 0.1250-0.1250 0.1250 (   770 PWs)   bands (ev):

    -5.6469   4.3625   5.6719   5.6719

          k = 0.6250-0.6250 0.6250 (   763 PWs)   bands (ev):

    -4.1916   0.0894   4.8865   4.8865

          k =-0.3750-0.3750-0.1250 (   773 PWs)   bands (ev):

    -4.6231   1.3750   3.6910   5.1925

          k = 0.1250-0.8750 0.3750 (   757 PWs)   bands (ev):

    -2.4573  -0.9188   1.9948   3.0680

          k =-0.1250-0.3750 0.3750 (   773 PWs)   bands (ev):

    -4.6231   1.3750   3.6910   5.1925

          k = 0.3750-0.8750 0.8750 (   768 PWs)   bands (ev):

    -4.0919   1.0386   3.3441   3.7954

          k = 0.3750 0.3750 0.6250 (   767 PWs)   bands (ev):

    -3.4875  -0.6966   3.7105   4.4236

          k = 0.8750-0.1250 1.1250 (   762 PWs)   bands (ev):

    -2.6239  -0.8221   2.6026   3.3297

          k = 0.6250 0.3750-0.3750 (   767 PWs)   bands (ev):

    -3.4875  -0.6966   3.7105   4.4236

          k = 1.1250-0.1250 0.1250 (   762 PWs)   bands (ev):

    -2.6239  -0.8221   2.6026   3.3297

          k = 0.1250 0.1250 0.3750 (   774 PWs)   bands (ev):

    -5.1204   2.7479   4.6671   4.7295

          k = 0.6250-0.3750 0.8750 (   768 PWs)   bands (ev):

    -3.6778   0.1693   2.7035   4.0694

          k = 0.3750 0.1250-0.1250 (   774 PWs)   bands (ev):

    -5.1204   2.7479   4.6671   4.7295

          k = 0.8750-0.3750 0.3750 (   767 PWs)   bands (ev):

    -2.9931  -0.6149   2.0518   4.1076

          k =-0.1250-0.6250-0.1250 (   768 PWs)   bands (ev):

    -4.0919   1.0386   3.3441   3.7954

          k = 0.3750-1.1250 0.3750 (   767 PWs)   bands (ev):

    -2.9931  -0.6149   2.0518   4.1076

          k = 0.1250-0.6250 0.1250 (   768 PWs)   bands (ev):

    -4.0919   1.0386   3.3441   3.7954

          k = 0.6250-1.1250 0.6250 (   773 PWs)   bands (ev):

    -4.6231   1.3750   3.6910   5.1925

          k = 0.6250 0.1250 0.8750 (   757 PWs)   bands (ev):

    -2.4573  -0.9188   1.9948   3.0680

          k = 1.1250-0.3750 1.3750 (   768 PWs)   bands (ev):

    -3.6778   0.1693   2.7035   4.0694

          k =-0.8750 0.1250 0.6250 (   757 PWs)   bands (ev):

    -2.4573  -0.9188   1.9948   3.0680

          k =-0.3750-0.3750 1.1250 (   767 PWs)   bands (ev):

    -2.9931  -0.6149   2.0518   4.1076

          k = 0.8750 0.1250-0.6250 (   757 PWs)   bands (ev):

    -2.4573  -0.9188   1.9948   3.0680

          k = 1.3750-0.3750-0.1250 (   768 PWs)   bands (ev):

    -3.6778   0.1693   2.7035   4.0694

          k = 0.3750-0.1250 0.6250 (   768 PWs)   bands (ev):

    -3.6778   0.1693   2.7035   4.0694

          k = 0.8750-0.6250 1.1250 (   774 PWs)   bands (ev):

    -5.1204   2.7479   4.6671   4.7295

          k =-0.6250-0.1250 0.3750 (   768 PWs)   bands (ev):

    -3.6778   0.1693   2.7035   4.0694

          k =-0.1250-0.6250 0.8750 (   757 PWs)   bands (ev):

    -2.4573  -0.9188   1.9948   3.0680

          k = 0.6250-0.1250-0.3750 (   768 PWs)   bands (ev):

    -3.6778   0.1693   2.7035   4.0694

          k = 1.1250-0.6250 0.1250 (   757 PWs)   bands (ev):

    -2.4573  -0.9188   1.9948   3.0680

          k =-0.1250 0.8750-0.1250 (   762 PWs)   bands (ev):

    -2.6239  -0.8221   2.6026   3.3297

          k = 0.3750 0.3750 0.3750 (   763 PWs)   bands (ev):

    -4.1916   0.0894   4.8865   4.8865

          k = 0.1250 0.8750 0.1250 (   762 PWs)   bands (ev):

    -2.6239  -0.8221   2.6026   3.3297

          k = 0.6250 0.3750 0.6250 (   767 PWs)   bands (ev):

    -3.4875  -0.6966   3.7105   4.4236

          k = 0.3750-0.3750 0.3750 (   763 PWs)   bands (ev):

    -4.1916   0.0894   4.8865   4.8865

          k = 0.8750-0.8750 0.8750 (   770 PWs)   bands (ev):

    -5.6469   4.3625   5.6719   5.6719

          k = 0.3750 0.3750 1.1250 (   767 PWs)   bands (ev):

    -2.9931  -0.6149   2.0518   4.1076

          k = 0.8750-0.1250 1.6250 (   757 PWs)   bands (ev):

    -2.4573  -0.9188   1.9948   3.0680

          k = 1.1250 0.3750-0.3750 (   767 PWs)   bands (ev):

    -2.9931  -0.6149   2.0518   4.1076

          k = 1.6250-0.1250 0.1250 (   774 PWs)   bands (ev):

    -5.1204   2.7479   4.6671   4.7295

     highest occupied level (ev):     5.6719

     Writing output data file silicon.10.342.save

                                                                                

     bravais-lattice index     =            2
     lattice parameter (alat)  =      10.3420  a.u.
     unit-cell volume          =     276.5372 (a.u.)^3
     number of atoms/cell      =            2
     number of atomic types    =            1
     kinetic-energy cut-off    =      30.0000  Ry
     charge density cut-off    =     240.0000  Ry
     convergence threshold     =      1.0E-12
     beta                      =       0.7000
     number of iterations used =            4
     Exchange-correlation      = SLA  PW   PBE  PBE ( 1  4  3  4 0 0)


     celldm(1)=   10.34200  celldm(2)=    0.00000  celldm(3)=    0.00000
     celldm(4)=    0.00000  celldm(5)=    0.00000  celldm(6)=    0.00000

     crystal axes: (cart. coord. in units of alat)
               a(1) = ( -0.5000  0.0000  0.5000 )  
               a(2) = (  0.0000  0.5000  0.5000 )  
               a(3) = ( -0.5000  0.5000  0.0000 )  

     reciprocal axes: (cart. coord. in units 2 pi/alat)
               b(1) = ( -1.0000 -1.0000  1.0000 )  
               b(2) = (  1.0000  1.0000  1.0000 )  
               b(3) = ( -1.0000  1.0000 -1.0000 )  


     Atoms inside the unit cell: 

     Cartesian axes

     site n.  atom      mass           positions (alat units)
        1     Si  28.0860   tau(    1) = (    0.00000    0.00000    0.00000  )
        2     Si  28.0860   tau(    2) = (    0.25000    0.25000    0.25000  )

     Computing dynamical matrix for 
                    q = (   0.5000000  -0.5000000   0.5000000 )

     13 Sym.Ops. (with q -> -q+G )


     G cutoff =  650.2204  (   4316 G-vectors)     FFT grid: ( 40, 40, 40)
     G cutoff =  325.1102  (   1546 G-vectors)  smooth grid: ( 25, 25, 25)
     number of k points=    60

     PseudoPot. # 1 for Si read from file:
     /home/s1333534/quantum_espresso/qe-6.1/pseudo/si_pbe_v1.uspp.F.UPF.txt
     MD5 check sum: a056efeee980c13900f22a371efd63c1
     Pseudo is Ultrasoft + core correction, Zval =  4.0
     Generated by new atomic code, or converted to UPF format
     Using radial grid of  899 points,  6 beta functions with: 
                l(1) =   0
                l(2) =   0
                l(3) =   1
                l(4) =   1
                l(5) =   2
                l(6) =   2
     Q(r) pseudized with  8 coefficients,  rinner =    0.900   0.900   0.900
                                                       0.900   0.900


     Atomic displacements:
     There are   4 irreducible representations

     Representation     1      1 modes -  To be done

     Representation     2      1 modes -  To be done

     Representation     3      2 modes -  To be done

     Representation     4      2 modes -  To be done



     Alpha used in Ewald sum =   2.5000
     PHONON       :    29.74s CPU        38.81s WALL



     Representation #  1 mode #   1

     Self-consistent Calculation

      iter #   1 total cpu time :    39.1 secs   av.it.:   5.1
      thresh= 1.000E-02 alpha_mix =  0.700 |ddv_scf|^2 =  3.041E-06

      iter #   2 total cpu time :    39.6 secs   av.it.:  10.1
      thresh= 1.744E-04 alpha_mix =  0.700 |ddv_scf|^2 =  2.798E-06

      iter #   3 total cpu time :    40.0 secs   av.it.:   9.4
      thresh= 1.673E-04 alpha_mix =  0.700 |ddv_scf|^2 =  1.671E-09

      iter #   4 total cpu time :    40.5 secs   av.it.:   9.6
      thresh= 4.088E-06 alpha_mix =  0.700 |ddv_scf|^2 =  1.610E-11

      iter #   5 total cpu time :    40.9 secs   av.it.:   9.5
      thresh= 4.013E-07 alpha_mix =  0.700 |ddv_scf|^2 =  2.247E-13

     End of self-consistent calculation

     Convergence has been achieved 


     Representation #  2 mode #   2

     Self-consistent Calculation

      iter #   1 total cpu time :    41.4 secs   av.it.:   6.0
      thresh= 1.000E-02 alpha_mix =  0.700 |ddv_scf|^2 =  4.322E-05

      iter #   2 total cpu time :    41.8 secs   av.it.:  10.0
      thresh= 6.574E-04 alpha_mix =  0.700 |ddv_scf|^2 =  1.346E-04

      iter #   3 total cpu time :    42.3 secs   av.it.:   8.9
      thresh= 1.160E-03 alpha_mix =  0.700 |ddv_scf|^2 =  9.932E-09

      iter #   4 total cpu time :    42.7 secs   av.it.:  10.1
      thresh= 9.966E-06 alpha_mix =  0.700 |ddv_scf|^2 =  5.024E-10

      iter #   5 total cpu time :    43.2 secs   av.it.:  10.4
      thresh= 2.241E-06 alpha_mix =  0.700 |ddv_scf|^2 =  1.497E-11

      iter #   6 total cpu time :    43.6 secs   av.it.:   9.9
      thresh= 3.869E-07 alpha_mix =  0.700 |ddv_scf|^2 =  1.112E-13

     End of self-consistent calculation

     Convergence has been achieved 


     Representation #  3 modes #   3  4

     Self-consistent Calculation

      iter #   1 total cpu time :    44.4 secs   av.it.:   5.1
      thresh= 1.000E-02 alpha_mix =  0.700 |ddv_scf|^2 =  1.957E-08

      iter #   2 total cpu time :    45.3 secs   av.it.:  11.1
      thresh= 1.399E-05 alpha_mix =  0.700 |ddv_scf|^2 =  1.152E-09

      iter #   3 total cpu time :    46.1 secs   av.it.:  10.8
      thresh= 3.395E-06 alpha_mix =  0.700 |ddv_scf|^2 =  3.873E-11

      iter #   4 total cpu time :    46.8 secs   av.it.:  10.8
      thresh= 6.223E-07 alpha_mix =  0.700 |ddv_scf|^2 =  3.162E-13

     End of self-consistent calculation

     Convergence has been achieved 


     Representation #  4 modes #   5  6

     Self-consistent Calculation

      iter #   1 total cpu time :    47.6 secs   av.it.:   5.1
      thresh= 1.000E-02 alpha_mix =  0.700 |ddv_scf|^2 =  1.004E-07

      iter #   2 total cpu time :    48.4 secs   av.it.:  11.2
      thresh= 3.168E-05 alpha_mix =  0.700 |ddv_scf|^2 =  8.056E-09

      iter #   3 total cpu time :    49.3 secs   av.it.:  11.1
      thresh= 8.975E-06 alpha_mix =  0.700 |ddv_scf|^2 =  2.117E-10

      iter #   4 total cpu time :    50.0 secs   av.it.:  10.1
      thresh= 1.455E-06 alpha_mix =  0.700 |ddv_scf|^2 =  3.855E-13

     End of self-consistent calculation

     Convergence has been achieved 

     Number of q in the star =    4
     List of q in the star:
          1   0.500000000  -0.500000000   0.500000000
          2   0.500000000   0.500000000   0.500000000
          3  -0.500000000   0.500000000   0.500000000
          4   0.500000000   0.500000000  -0.500000000

     Diagonalizing the dynamical matrix

     q = (    0.500000000  -0.500000000   0.500000000 ) 

 **************************************************************************
     freq (    1) =       3.314808 [THz] =     110.570103 [cm-1]
     freq (    2) =       3.314808 [THz] =     110.570103 [cm-1]
     freq (    3) =      11.086997 [THz] =     369.822408 [cm-1]
     freq (    4) =      11.918250 [THz] =     397.550020 [cm-1]
     freq (    5) =      14.238008 [THz] =     474.928840 [cm-1]
     freq (    6) =      14.238008 [THz] =     474.928840 [cm-1]
 **************************************************************************

     Calculation of q =    0.0000000   0.5000000   0.0000000

   Info: using nr1, nr2, nr3 values from input

   Info: using nr1, nr2, nr3 values from input

     Parallelization info
     --------------------
     sticks:   dense  smooth     PW     G-vecs:    dense   smooth      PW
     Min         219     109     40                 4315     1545     322
     Max         220     110     42                 4316     1547     323
     Sum         877     439    163                17261     6183    1291



     bravais-lattice index     =            2
     lattice parameter (alat)  =      10.3420  a.u.
     unit-cell volume          =     276.5372 (a.u.)^3
     number of atoms/cell      =            2
     number of atomic types    =            1
     number of electrons       =         8.00
     number of Kohn-Sham states=            4
     kinetic-energy cutoff     =      30.0000  Ry
     charge density cutoff     =     240.0000  Ry
     Exchange-correlation      = SLA  PW   PBE  PBE ( 1  4  3  4 0 0)

     celldm(1)=  10.342000  celldm(2)=   0.000000  celldm(3)=   0.000000
     celldm(4)=   0.000000  celldm(5)=   0.000000  celldm(6)=   0.000000

     crystal axes: (cart. coord. in units of alat)
               a(1) = (  -0.500000   0.000000   0.500000 )  
               a(2) = (   0.000000   0.500000   0.500000 )  
               a(3) = (  -0.500000   0.500000   0.000000 )  

     reciprocal axes: (cart. coord. in units 2 pi/alat)
               b(1) = ( -1.000000 -1.000000  1.000000 )  
               b(2) = (  1.000000  1.000000  1.000000 )  
               b(3) = ( -1.000000  1.000000 -1.000000 )  


     PseudoPot. # 1 for Si read from file:
     /home/s1333534/quantum_espresso/qe-6.1/pseudo/si_pbe_v1.uspp.F.UPF.txt
     MD5 check sum: a056efeee980c13900f22a371efd63c1
     Pseudo is Ultrasoft + core correction, Zval =  4.0
     Generated by new atomic code, or converted to UPF format
     Using radial grid of  899 points,  6 beta functions with: 
                l(1) =   0
                l(2) =   0
                l(3) =   1
                l(4) =   1
                l(5) =   2
                l(6) =   2
     Q(r) pseudized with  8 coefficients,  rinner =    0.900   0.900   0.900
                                                       0.900   0.900

     atomic species   valence    mass     pseudopotential
        Si             4.00    28.08600     Si( 1.00)

     48 Sym. Ops., with inversion, found



   Cartesian axes

     site n.     atom                  positions (alat units)
         1           Si  tau(   1) = (   0.0000000   0.0000000   0.0000000  )
         2           Si  tau(   2) = (   0.2500000   0.2500000   0.2500000  )

     number of k points=    80
                       cart. coord. in units 2pi/alat
        k(    1) = (  -0.1250000   0.1250000   0.1250000), wk =   0.0312500
        k(    2) = (  -0.1250000   0.6250000   0.1250000), wk =   0.0000000
        k(    3) = (  -0.3750000   0.3750000  -0.1250000), wk =   0.0625000
        k(    4) = (  -0.3750000   0.8750000  -0.1250000), wk =   0.0000000
        k(    5) = (   0.3750000  -0.3750000   0.6250000), wk =   0.0625000
        k(    6) = (   0.3750000   0.1250000   0.6250000), wk =   0.0000000
        k(    7) = (   0.1250000  -0.1250000   0.3750000), wk =   0.0625000
        k(    8) = (   0.1250000   0.3750000   0.3750000), wk =   0.0000000
        k(    9) = (  -0.1250000   0.6250000   0.1250000), wk =   0.0312500
        k(   10) = (  -0.1250000   1.1250000   0.1250000), wk =   0.0000000
        k(   11) = (   0.6250000  -0.1250000   0.8750000), wk =   0.0625000
        k(   12) = (   0.6250000   0.3750000   0.8750000), wk =   0.0000000
        k(   13) = (   0.3750000   0.1250000   0.6250000), wk =   0.0625000
        k(   14) = (   0.3750000   0.6250000   0.6250000), wk =   0.0000000
        k(   15) = (  -0.1250000  -0.8750000   0.1250000), wk =   0.0312500
        k(   16) = (  -0.1250000  -0.3750000   0.1250000), wk =   0.0000000
        k(   17) = (  -0.3750000   0.3750000   0.3750000), wk =   0.0312500
        k(   18) = (  -0.3750000   0.8750000   0.3750000), wk =   0.0000000
        k(   19) = (   0.3750000  -0.3750000   1.1250000), wk =   0.0625000
        k(   20) = (   0.3750000   0.1250000   1.1250000), wk =   0.0000000
        k(   21) = (  -0.1250000  -0.1250000   0.1250000), wk =   0.0312500
        k(   22) = (  -0.1250000   0.3750000   0.1250000), wk =   0.0000000
        k(   23) = (   0.1250000  -0.3750000   0.3750000), wk =   0.0625000
        k(   24) = (   0.1250000   0.1250000   0.3750000), wk =   0.0000000
        k(   25) = (   0.3750000  -0.1250000   0.3750000), wk =   0.0312500
        k(   26) = (   0.3750000   0.3750000   0.3750000), wk =   0.0000000
        k(   27) = (   0.3750000   0.1250000   0.3750000), wk =   0.0312500
        k(   28) = (   0.3750000   0.6250000   0.3750000), wk =   0.0000000
        k(   29) = (  -0.6250000   0.3750000  -0.3750000), wk =   0.0625000
        k(   30) = (  -0.6250000   0.8750000  -0.3750000), wk =   0.0000000
        k(   31) = (  -0.3750000   0.6250000  -0.3750000), wk =   0.0312500
        k(   32) = (  -0.3750000   1.1250000  -0.3750000), wk =   0.0000000
        k(   33) = (  -0.3750000  -0.6250000  -0.3750000), wk =   0.0312500
        k(   34) = (  -0.3750000  -0.1250000  -0.3750000), wk =   0.0000000
        k(   35) = (  -0.3750000   0.1250000  -0.1250000), wk =   0.0625000
        k(   36) = (  -0.3750000   0.6250000  -0.1250000), wk =   0.0000000
        k(   37) = (  -0.1250000   0.3750000  -0.1250000), wk =   0.0312500
        k(   38) = (  -0.1250000   0.8750000  -0.1250000), wk =   0.0000000
        k(   39) = (  -0.1250000  -0.3750000  -0.1250000), wk =   0.0312500
        k(   40) = (  -0.1250000   0.1250000  -0.1250000), wk =   0.0000000
        k(   41) = (  -0.1250000  -0.6250000   0.1250000), wk =   0.0312500
        k(   42) = (  -0.1250000  -0.1250000   0.1250000), wk =   0.0000000
        k(   43) = (   0.6250000  -0.1250000  -0.1250000), wk =   0.0625000
        k(   44) = (   0.6250000   0.3750000  -0.1250000), wk =   0.0000000
        k(   45) = (   0.6250000   0.1250000   0.1250000), wk =   0.0625000
        k(   46) = (   0.6250000   0.6250000   0.1250000), wk =   0.0000000
        k(   47) = (  -0.8750000   0.1250000  -0.6250000), wk =   0.0625000
        k(   48) = (  -0.8750000   0.6250000  -0.6250000), wk =   0.0000000
        k(   49) = (  -0.1250000   0.6250000  -0.8750000), wk =   0.0625000
        k(   50) = (  -0.1250000   1.1250000  -0.8750000), wk =   0.0000000
        k(   51) = (  -0.1250000   0.8750000  -0.6250000), wk =   0.0625000
        k(   52) = (  -0.1250000   1.3750000  -0.6250000), wk =   0.0000000
        k(   53) = (  -0.1250000  -0.8750000  -0.6250000), wk =   0.0625000
        k(   54) = (  -0.1250000  -0.3750000  -0.6250000), wk =   0.0000000
        k(   55) = (   0.8750000  -0.6250000   0.1250000), wk =   0.0625000
        k(   56) = (   0.8750000  -0.1250000   0.1250000), wk =   0.0000000
        k(   57) = (  -0.6250000  -0.1250000  -0.3750000), wk =   0.0625000
        k(   58) = (  -0.6250000   0.3750000  -0.3750000), wk =   0.0000000
        k(   59) = (   0.1250000   0.3750000  -0.6250000), wk =   0.0625000
        k(   60) = (   0.1250000   0.8750000  -0.6250000), wk =   0.0000000
        k(   61) = (   0.1250000   0.6250000  -0.3750000), wk =   0.0625000
        k(   62) = (   0.1250000   1.1250000  -0.3750000), wk =   0.0000000
        k(   63) = (   0.1250000  -0.6250000  -0.3750000), wk =   0.0625000
        k(   64) = (   0.1250000  -0.1250000  -0.3750000), wk =   0.0000000
        k(   65) = (   0.6250000  -0.3750000  -0.1250000), wk =   0.0625000
        k(   66) = (   0.6250000   0.1250000  -0.1250000), wk =   0.0000000
        k(   67) = (  -0.1250000   0.8750000   0.1250000), wk =   0.0312500
        k(   68) = (  -0.1250000   1.3750000   0.1250000), wk =   0.0000000
        k(   69) = (  -0.8750000  -0.1250000  -0.1250000), wk =   0.0625000
        k(   70) = (  -0.8750000   0.3750000  -0.1250000), wk =   0.0000000
        k(   71) = (  -0.8750000   0.1250000   0.1250000), wk =   0.0625000
        k(   72) = (  -0.8750000   0.6250000   0.1250000), wk =   0.0000000
        k(   73) = (  -0.3750000  -0.3750000   0.3750000), wk =   0.0312500
        k(   74) = (  -0.3750000   0.1250000   0.3750000), wk =   0.0000000
        k(   75) = (  -1.1250000   0.3750000  -0.3750000), wk =   0.0625000
        k(   76) = (  -1.1250000   0.8750000  -0.3750000), wk =   0.0000000
        k(   77) = (  -0.3750000   1.1250000  -0.3750000), wk =   0.0312500
        k(   78) = (  -0.3750000   1.6250000  -0.3750000), wk =   0.0000000
        k(   79) = (  -0.3750000  -1.1250000  -0.3750000), wk =   0.0312500
        k(   80) = (  -0.3750000  -0.6250000  -0.3750000), wk =   0.0000000

     Dense  grid:    17261 G-vectors     FFT dimensions: (  40,  40,  40)

     Smooth grid:     6183 G-vectors     FFT dimensions: (  25,  25,  25)

     Estimated max dynamical RAM per process >       1.78MB

     Estimated total allocated dynamical RAM >       7.14MB

     The potential is recalculated from file :
     ./_ph0/silicon.10.342.save/charge-density.dat

     Starting wfc are    8 atomic wfcs

     Band Structure Calculation
     Davidson diagonalization with overlap

     ethr =  1.25E-10,  avg # of iterations = 12.2

     total cpu time spent up to now is        3.6 secs

     End of band structure calculation

          k =-0.1250 0.1250 0.1250 (   770 PWs)   bands (ev):

    -5.6469   4.3625   5.6719   5.6719

          k =-0.1250 0.6250 0.1250 (   768 PWs)   bands (ev):

    -4.0919   1.0386   3.3441   3.7954

          k =-0.3750 0.3750-0.1250 (   773 PWs)   bands (ev):

    -4.6231   1.3750   3.6910   5.1925

          k =-0.3750 0.8750-0.1250 (   757 PWs)   bands (ev):

    -2.4573  -0.9188   1.9948   3.0680

          k = 0.3750-0.3750 0.6250 (   767 PWs)   bands (ev):

    -3.4875  -0.6966   3.7105   4.4236

          k = 0.3750 0.1250 0.6250 (   768 PWs)   bands (ev):

    -3.6778   0.1693   2.7035   4.0694

          k = 0.1250-0.1250 0.3750 (   774 PWs)   bands (ev):

    -5.1204   2.7479   4.6671   4.7295

          k = 0.1250 0.3750 0.3750 (   773 PWs)   bands (ev):

    -4.6231   1.3750   3.6910   5.1925

          k =-0.1250 0.6250 0.1250 (   768 PWs)   bands (ev):

    -4.0919   1.0386   3.3441   3.7954

          k =-0.1250 1.1250 0.1250 (   762 PWs)   bands (ev):

    -2.6239  -0.8221   2.6026   3.3297

          k = 0.6250-0.1250 0.8750 (   757 PWs)   bands (ev):

    -2.4573  -0.9188   1.9948   3.0680

          k = 0.6250 0.3750 0.8750 (   768 PWs)   bands (ev):

    -3.6778   0.1693   2.7035   4.0694

          k = 0.3750 0.1250 0.6250 (   768 PWs)   bands (ev):

    -3.6778   0.1693   2.7035   4.0694

          k = 0.3750 0.6250 0.6250 (   767 PWs)   bands (ev):

    -3.4875  -0.6966   3.7105   4.4236

          k =-0.1250-0.8750 0.1250 (   762 PWs)   bands (ev):

    -2.6239  -0.8221   2.6026   3.3297

          k =-0.1250-0.3750 0.1250 (   774 PWs)   bands (ev):

    -5.1204   2.7479   4.6671   4.7295

          k =-0.3750 0.3750 0.3750 (   763 PWs)   bands (ev):

    -4.1916   0.0894   4.8865   4.8865

          k =-0.3750 0.8750 0.3750 (   767 PWs)   bands (ev):

    -2.9931  -0.6149   2.0518   4.1076

          k = 0.3750-0.3750 1.1250 (   767 PWs)   bands (ev):

    -2.9931  -0.6149   2.0518   4.1076

          k = 0.3750 0.1250 1.1250 (   757 PWs)   bands (ev):

    -2.4573  -0.9188   1.9948   3.0680

          k =-0.1250-0.1250 0.1250 (   770 PWs)   bands (ev):

    -5.6469   4.3625   5.6719   5.6719

          k =-0.1250 0.3750 0.1250 (   774 PWs)   bands (ev):

    -5.1204   2.7479   4.6671   4.7295

          k = 0.1250-0.3750 0.3750 (   773 PWs)   bands (ev):

    -4.6231   1.3750   3.6910   5.1925

          k = 0.1250 0.1250 0.3750 (   774 PWs)   bands (ev):

    -5.1204   2.7479   4.6671   4.7295

          k = 0.3750-0.1250 0.3750 (   773 PWs)   bands (ev):

    -4.6231   1.3750   3.6910   5.1925

          k = 0.3750 0.3750 0.3750 (   763 PWs)   bands (ev):

    -4.1916   0.0894   4.8865   4.8865

          k = 0.3750 0.1250 0.3750 (   773 PWs)   bands (ev):

    -4.6231   1.3750   3.6910   5.1925

          k = 0.3750 0.6250 0.3750 (   767 PWs)   bands (ev):

    -3.4875  -0.6966   3.7105   4.4236

          k =-0.6250 0.3750-0.3750 (   767 PWs)   bands (ev):

    -3.4875  -0.6966   3.7105   4.4236

          k =-0.6250 0.8750-0.3750 (   768 PWs)   bands (ev):

    -3.6778   0.1693   2.7035   4.0694

          k =-0.3750 0.6250-0.3750 (   767 PWs)   bands (ev):

    -3.4875  -0.6966   3.7105   4.4236

          k =-0.3750 1.1250-0.3750 (   767 PWs)   bands (ev):

    -2.9931  -0.6149   2.0518   4.1076

          k =-0.3750-0.6250-0.3750 (   767 PWs)   bands (ev):

    -3.4875  -0.6966   3.7105   4.4236

          k =-0.3750-0.1250-0.3750 (   773 PWs)   bands (ev):

    -4.6231   1.3750   3.6910   5.1925

          k =-0.3750 0.1250-0.1250 (   774 PWs)   bands (ev):

    -5.1204   2.7479   4.6671   4.7295

          k =-0.3750 0.6250-0.1250 (   768 PWs)   bands (ev):

    -3.6778   0.1693   2.7035   4.0694

          k =-0.1250 0.3750-0.1250 (   774 PWs)   bands (ev):

    -5.1204   2.7479   4.6671   4.7295

          k =-0.1250 0.8750-0.1250 (   762 PWs)   bands (ev):

    -2.6239  -0.8221   2.6026   3.3297

          k =-0.1250-0.3750-0.1250 (   774 PWs)   bands (ev):

    -5.1204   2.7479   4.6671   4.7295

          k =-0.1250 0.1250-0.1250 (   770 PWs)   bands (ev):

    -5.6469   4.3625   5.6719   5.6719

          k =-0.1250-0.6250 0.1250 (   768 PWs)   bands (ev):

    -4.0919   1.0386   3.3441   3.7954

          k =-0.1250-0.1250 0.1250 (   770 PWs)   bands (ev):

    -5.6469   4.3625   5.6719   5.6719

          k = 0.6250-0.1250-0.1250 (   768 PWs)   bands (ev):

    -4.0919   1.0386   3.3441   3.7954

          k = 0.6250 0.3750-0.1250 (   768 PWs)   bands (ev):

    -3.6778   0.1693   2.7035   4.0694

          k = 0.6250 0.1250 0.1250 (   768 PWs)   bands (ev):

    -4.0919   1.0386   3.3441   3.7954

          k = 0.6250 0.6250 0.1250 (   767 PWs)   bands (ev):

    -2.9931  -0.6149   2.0518   4.1076

          k =-0.8750 0.1250-0.6250 (   757 PWs)   bands (ev):

    -2.4573  -0.9188   1.9948   3.0680

          k =-0.8750 0.6250-0.6250 (   773 PWs)   bands (ev):

    -4.6231   1.3750   3.6910   5.1925

          k =-0.1250 0.6250-0.8750 (   757 PWs)   bands (ev):

    -2.4573  -0.9188   1.9948   3.0680

          k =-0.1250 1.1250-0.8750 (   762 PWs)   bands (ev):

    -2.6239  -0.8221   2.6026   3.3297

          k =-0.1250 0.8750-0.6250 (   757 PWs)   bands (ev):

    -2.4573  -0.9188   1.9948   3.0680

          k =-0.1250 1.3750-0.6250 (   767 PWs)   bands (ev):

    -2.9931  -0.6149   2.0518   4.1076

          k =-0.1250-0.8750-0.6250 (   757 PWs)   bands (ev):

    -2.4573  -0.9188   1.9948   3.0680

          k =-0.1250-0.3750-0.6250 (   768 PWs)   bands (ev):

    -3.6778   0.1693   2.7035   4.0694

          k = 0.8750-0.6250 0.1250 (   757 PWs)   bands (ev):

    -2.4573  -0.9188   1.9948   3.0680

          k = 0.8750-0.1250 0.1250 (   762 PWs)   bands (ev):

    -2.6239  -0.8221   2.6026   3.3297

          k =-0.6250-0.1250-0.3750 (   768 PWs)   bands (ev):

    -3.6778   0.1693   2.7035   4.0694

          k =-0.6250 0.3750-0.3750 (   767 PWs)   bands (ev):

    -3.4875  -0.6966   3.7105   4.4236

          k = 0.1250 0.3750-0.6250 (   768 PWs)   bands (ev):

    -3.6778   0.1693   2.7035   4.0694

          k = 0.1250 0.8750-0.6250 (   757 PWs)   bands (ev):

    -2.4573  -0.9188   1.9948   3.0680

          k = 0.1250 0.6250-0.3750 (   768 PWs)   bands (ev):

    -3.6778   0.1693   2.7035   4.0694

          k = 0.1250 1.1250-0.3750 (   757 PWs)   bands (ev):

    -2.4573  -0.9188   1.9948   3.0680

          k = 0.1250-0.6250-0.3750 (   768 PWs)   bands (ev):

    -3.6778   0.1693   2.7035   4.0694

          k = 0.1250-0.1250-0.3750 (   774 PWs)   bands (ev):

    -5.1204   2.7479   4.6671   4.7295

          k = 0.6250-0.3750-0.1250 (   768 PWs)   bands (ev):

    -3.6778   0.1693   2.7035   4.0694

          k = 0.6250 0.1250-0.1250 (   768 PWs)   bands (ev):

    -4.0919   1.0386   3.3441   3.7954

          k =-0.1250 0.8750 0.1250 (   762 PWs)   bands (ev):

    -2.6239  -0.8221   2.6026   3.3297

          k =-0.1250 1.3750 0.1250 (   768 PWs)   bands (ev):

    -4.0919   1.0386   3.3441   3.7954

          k =-0.8750-0.1250-0.1250 (   762 PWs)   bands (ev):

    -2.6239  -0.8221   2.6026   3.3297

          k =-0.8750 0.3750-0.1250 (   757 PWs)   bands (ev):

    -2.4573  -0.9188   1.9948   3.0680

          k =-0.8750 0.1250 0.1250 (   762 PWs)   bands (ev):

    -2.6239  -0.8221   2.6026   3.3297

          k =-0.8750 0.6250 0.1250 (   757 PWs)   bands (ev):

    -2.4573  -0.9188   1.9948   3.0680

          k =-0.3750-0.3750 0.3750 (   763 PWs)   bands (ev):

    -4.1916   0.0894   4.8865   4.8865

          k =-0.3750 0.1250 0.3750 (   773 PWs)   bands (ev):

    -4.6231   1.3750   3.6910   5.1925

          k =-1.1250 0.3750-0.3750 (   767 PWs)   bands (ev):

    -2.9931  -0.6149   2.0518   4.1076

          k =-1.1250 0.8750-0.3750 (   768 PWs)   bands (ev):

    -4.0919   1.0386   3.3441   3.7954

          k =-0.3750 1.1250-0.3750 (   767 PWs)   bands (ev):

    -2.9931  -0.6149   2.0518   4.1076

          k =-0.3750 1.6250-0.3750 (   763 PWs)   bands (ev):

    -4.1916   0.0894   4.8865   4.8865

          k =-0.3750-1.1250-0.3750 (   767 PWs)   bands (ev):

    -2.9931  -0.6149   2.0518   4.1076

          k =-0.3750-0.6250-0.3750 (   767 PWs)   bands (ev):

    -3.4875  -0.6966   3.7105   4.4236

     highest occupied level (ev):     5.6719

     Writing output data file silicon.10.342.save

                                                                                

     bravais-lattice index     =            2
     lattice parameter (alat)  =      10.3420  a.u.
     unit-cell volume          =     276.5372 (a.u.)^3
     number of atoms/cell      =            2
     number of atomic types    =            1
     kinetic-energy cut-off    =      30.0000  Ry
     charge density cut-off    =     240.0000  Ry
     convergence threshold     =      1.0E-12
     beta                      =       0.7000
     number of iterations used =            4
     Exchange-correlation      = SLA  PW   PBE  PBE ( 1  4  3  4 0 0)


     celldm(1)=   10.34200  celldm(2)=    0.00000  celldm(3)=    0.00000
     celldm(4)=    0.00000  celldm(5)=    0.00000  celldm(6)=    0.00000

     crystal axes: (cart. coord. in units of alat)
               a(1) = ( -0.5000  0.0000  0.5000 )  
               a(2) = (  0.0000  0.5000  0.5000 )  
               a(3) = ( -0.5000  0.5000  0.0000 )  

     reciprocal axes: (cart. coord. in units 2 pi/alat)
               b(1) = ( -1.0000 -1.0000  1.0000 )  
               b(2) = (  1.0000  1.0000  1.0000 )  
               b(3) = ( -1.0000  1.0000 -1.0000 )  


     Atoms inside the unit cell: 

     Cartesian axes

     site n.  atom      mass           positions (alat units)
        1     Si  28.0860   tau(    1) = (    0.00000    0.00000    0.00000  )
        2     Si  28.0860   tau(    2) = (    0.25000    0.25000    0.25000  )

     Computing dynamical matrix for 
                    q = (   0.0000000   0.5000000   0.0000000 )

      8 Sym.Ops. (no q -> -q+G )


     G cutoff =  650.2204  (   4315 G-vectors)     FFT grid: ( 40, 40, 40)
     G cutoff =  325.1102  (   1545 G-vectors)  smooth grid: ( 25, 25, 25)
     number of k points=    80

     PseudoPot. # 1 for Si read from file:
     /home/s1333534/quantum_espresso/qe-6.1/pseudo/si_pbe_v1.uspp.F.UPF.txt
     MD5 check sum: a056efeee980c13900f22a371efd63c1
     Pseudo is Ultrasoft + core correction, Zval =  4.0
     Generated by new atomic code, or converted to UPF format
     Using radial grid of  899 points,  6 beta functions with: 
                l(1) =   0
                l(2) =   0
                l(3) =   1
                l(4) =   1
                l(5) =   2
                l(6) =   2
     Q(r) pseudized with  8 coefficients,  rinner =    0.900   0.900   0.900
                                                       0.900   0.900

     Mode symmetry, C_4v (4mm)  point group:


     Atomic displacements:
     There are   4 irreducible representations

     Representation     1      1 modes -A_1  G_1 D_1  To be done

     Representation     2      1 modes -B_2  G_4 D_2'  To be done

     Representation     3      2 modes -E    G_5 D_5  To be done

     Representation     4      2 modes -E    G_5 D_5  To be done



     Alpha used in Ewald sum =   2.5000
     PHONON       :    39.96s CPU        52.68s WALL



     Representation #  1 mode #   1

     Self-consistent Calculation

      iter #   1 total cpu time :    53.0 secs   av.it.:   6.2
      thresh= 1.000E-02 alpha_mix =  0.700 |ddv_scf|^2 =  3.729E-04

      iter #   2 total cpu time :    53.5 secs   av.it.:   9.5
      thresh= 1.931E-03 alpha_mix =  0.700 |ddv_scf|^2 =  4.957E-03

      iter #   3 total cpu time :    54.0 secs   av.it.:   7.5
      thresh= 7.040E-03 alpha_mix =  0.700 |ddv_scf|^2 =  7.395E-09

      iter #   4 total cpu time :    54.5 secs   av.it.:  10.2
      thresh= 8.599E-06 alpha_mix =  0.700 |ddv_scf|^2 =  7.290E-10

      iter #   5 total cpu time :    55.0 secs   av.it.:   9.9
      thresh= 2.700E-06 alpha_mix =  0.700 |ddv_scf|^2 =  8.086E-11

      iter #   6 total cpu time :    55.5 secs   av.it.:   9.5
      thresh= 8.992E-07 alpha_mix =  0.700 |ddv_scf|^2 =  2.388E-13

     End of self-consistent calculation

     Convergence has been achieved 


     Representation #  2 mode #   2

     Self-consistent Calculation

      iter #   1 total cpu time :    55.9 secs   av.it.:   5.1
      thresh= 1.000E-02 alpha_mix =  0.700 |ddv_scf|^2 =  5.903E-07

      iter #   2 total cpu time :    56.4 secs   av.it.:  10.6
      thresh= 7.683E-05 alpha_mix =  0.700 |ddv_scf|^2 =  1.626E-07

      iter #   3 total cpu time :    57.0 secs   av.it.:  10.2
      thresh= 4.032E-05 alpha_mix =  0.700 |ddv_scf|^2 =  1.661E-09

      iter #   4 total cpu time :    57.5 secs   av.it.:  10.3
      thresh= 4.076E-06 alpha_mix =  0.700 |ddv_scf|^2 =  6.575E-11

      iter #   5 total cpu time :    57.9 secs   av.it.:  10.5
      thresh= 8.108E-07 alpha_mix =  0.700 |ddv_scf|^2 =  3.860E-13

     End of self-consistent calculation

     Convergence has been achieved 


     Representation #  3 modes #   3  4

     Self-consistent Calculation

      iter #   1 total cpu time :    58.7 secs   av.it.:   5.2
      thresh= 1.000E-02 alpha_mix =  0.700 |ddv_scf|^2 =  1.046E-07

      iter #   2 total cpu time :    59.7 secs   av.it.:  11.7
      thresh= 3.234E-05 alpha_mix =  0.700 |ddv_scf|^2 =  1.442E-08

      iter #   3 total cpu time :    60.7 secs   av.it.:  11.3
      thresh= 1.201E-05 alpha_mix =  0.700 |ddv_scf|^2 =  2.428E-10

      iter #   4 total cpu time :    61.6 secs   av.it.:  10.8
      thresh= 1.558E-06 alpha_mix =  0.700 |ddv_scf|^2 =  5.751E-13

     End of self-consistent calculation

     Convergence has been achieved 


     Representation #  4 modes #   5  6

     Self-consistent Calculation

      iter #   1 total cpu time :    62.4 secs   av.it.:   5.3
      thresh= 1.000E-02 alpha_mix =  0.700 |ddv_scf|^2 =  9.586E-08

      iter #   2 total cpu time :    63.5 secs   av.it.:  11.6
      thresh= 3.096E-05 alpha_mix =  0.700 |ddv_scf|^2 =  1.287E-08

      iter #   3 total cpu time :    64.5 secs   av.it.:  11.4
      thresh= 1.135E-05 alpha_mix =  0.700 |ddv_scf|^2 =  2.483E-10

      iter #   4 total cpu time :    65.4 secs   av.it.:  11.1
      thresh= 1.576E-06 alpha_mix =  0.700 |ddv_scf|^2 =  6.122E-13

     End of self-consistent calculation

     Convergence has been achieved 

     Number of q in the star =    6
     List of q in the star:
          1   0.000000000   0.500000000   0.000000000
          2   0.000000000  -0.500000000   0.000000000
          3   0.500000000   0.000000000   0.000000000
          4   0.000000000   0.000000000   0.500000000
          5   0.000000000   0.000000000  -0.500000000
          6  -0.500000000   0.000000000   0.000000000

     Diagonalizing the dynamical matrix

     q = (    0.000000000   0.500000000   0.000000000 ) 

 **************************************************************************
     freq (    1) =       3.774641 [THz] =     125.908480 [cm-1]
     freq (    2) =       3.774641 [THz] =     125.908480 [cm-1]
     freq (    3) =       7.040414 [THz] =     234.842942 [cm-1]
     freq (    4) =      13.777380 [THz] =     459.563938 [cm-1]
     freq (    5) =      13.777380 [THz] =     459.563938 [cm-1]
     freq (    6) =      14.420829 [THz] =     481.027091 [cm-1]
 **************************************************************************

     Mode symmetry, C_4v (4mm)  point group:

     freq (  1 -  2) =        125.9  [cm-1]   --> E    G_5 D_5       
     freq (  3 -  3) =        234.8  [cm-1]   --> A_1  G_1 D_1       
     freq (  4 -  5) =        459.6  [cm-1]   --> E    G_5 D_5       
     freq (  6 -  6) =        481.0  [cm-1]   --> B_2  G_4 D_2'      

     Calculation of q =    0.7500000  -0.2500000   0.7500000

   Info: using nr1, nr2, nr3 values from input

   Info: using nr1, nr2, nr3 values from input

     Parallelization info
     --------------------
     sticks:   dense  smooth     PW     G-vecs:    dense   smooth      PW
     Min         219     109     40                 4315     1545     362
     Max         220     110     41                 4316     1546     366
     Sum         877     439    163                17261     6183    1459



     bravais-lattice index     =            2
     lattice parameter (alat)  =      10.3420  a.u.
     unit-cell volume          =     276.5372 (a.u.)^3
     number of atoms/cell      =            2
     number of atomic types    =            1
     number of electrons       =         8.00
     number of Kohn-Sham states=            4
     kinetic-energy cutoff     =      30.0000  Ry
     charge density cutoff     =     240.0000  Ry
     Exchange-correlation      = SLA  PW   PBE  PBE ( 1  4  3  4 0 0)

     celldm(1)=  10.342000  celldm(2)=   0.000000  celldm(3)=   0.000000
     celldm(4)=   0.000000  celldm(5)=   0.000000  celldm(6)=   0.000000

     crystal axes: (cart. coord. in units of alat)
               a(1) = (  -0.500000   0.000000   0.500000 )  
               a(2) = (   0.000000   0.500000   0.500000 )  
               a(3) = (  -0.500000   0.500000   0.000000 )  

     reciprocal axes: (cart. coord. in units 2 pi/alat)
               b(1) = ( -1.000000 -1.000000  1.000000 )  
               b(2) = (  1.000000  1.000000  1.000000 )  
               b(3) = ( -1.000000  1.000000 -1.000000 )  


     PseudoPot. # 1 for Si read from file:
     /home/s1333534/quantum_espresso/qe-6.1/pseudo/si_pbe_v1.uspp.F.UPF.txt
     MD5 check sum: a056efeee980c13900f22a371efd63c1
     Pseudo is Ultrasoft + core correction, Zval =  4.0
     Generated by new atomic code, or converted to UPF format
     Using radial grid of  899 points,  6 beta functions with: 
                l(1) =   0
                l(2) =   0
                l(3) =   1
                l(4) =   1
                l(5) =   2
                l(6) =   2
     Q(r) pseudized with  8 coefficients,  rinner =    0.900   0.900   0.900
                                                       0.900   0.900

     atomic species   valence    mass     pseudopotential
        Si             4.00    28.08600     Si( 1.00)

     48 Sym. Ops., with inversion, found



   Cartesian axes

     site n.     atom                  positions (alat units)
         1           Si  tau(   1) = (   0.0000000   0.0000000   0.0000000  )
         2           Si  tau(   2) = (   0.2500000   0.2500000   0.2500000  )

     number of k points=   288

     Number of k-points >= 100: set verbosity='high' to print them.

     Dense  grid:    17261 G-vectors     FFT dimensions: (  40,  40,  40)

     Smooth grid:     6183 G-vectors     FFT dimensions: (  25,  25,  25)

     Estimated max dynamical RAM per process >       1.78MB

     Estimated total allocated dynamical RAM >       7.14MB

     The potential is recalculated from file :
     ./_ph0/silicon.10.342.save/charge-density.dat

     Starting wfc are    8 atomic wfcs

     Band Structure Calculation
     Davidson diagonalization with overlap

     ethr =  1.25E-10,  avg # of iterations = 12.1

     total cpu time spent up to now is        6.9 secs

     End of band structure calculation

     Number of k-points >= 100: set verbosity='high' to print the bands.

     highest occupied level (ev):     5.6719

     Writing output data file silicon.10.342.save

                                                                                

     bravais-lattice index     =            2
     lattice parameter (alat)  =      10.3420  a.u.
     unit-cell volume          =     276.5372 (a.u.)^3
     number of atoms/cell      =            2
     number of atomic types    =            1
     kinetic-energy cut-off    =      30.0000  Ry
     charge density cut-off    =     240.0000  Ry
     convergence threshold     =      1.0E-12
     beta                      =       0.7000
     number of iterations used =            4
     Exchange-correlation      = SLA  PW   PBE  PBE ( 1  4  3  4 0 0)


     celldm(1)=   10.34200  celldm(2)=    0.00000  celldm(3)=    0.00000
     celldm(4)=    0.00000  celldm(5)=    0.00000  celldm(6)=    0.00000

     crystal axes: (cart. coord. in units of alat)
               a(1) = ( -0.5000  0.0000  0.5000 )  
               a(2) = (  0.0000  0.5000  0.5000 )  
               a(3) = ( -0.5000  0.5000  0.0000 )  

     reciprocal axes: (cart. coord. in units 2 pi/alat)
               b(1) = ( -1.0000 -1.0000  1.0000 )  
               b(2) = (  1.0000  1.0000  1.0000 )  
               b(3) = ( -1.0000  1.0000 -1.0000 )  


     Atoms inside the unit cell: 

     Cartesian axes

     site n.  atom      mass           positions (alat units)
        1     Si  28.0860   tau(    1) = (    0.00000    0.00000    0.00000  )
        2     Si  28.0860   tau(    2) = (    0.25000    0.25000    0.25000  )

     Computing dynamical matrix for 
                    q = (   0.7500000  -0.2500000   0.7500000 )

      2 Sym.Ops. (no q -> -q+G )


     G cutoff =  650.2204  (   4315 G-vectors)     FFT grid: ( 40, 40, 40)
     G cutoff =  325.1102  (   1546 G-vectors)  smooth grid: ( 25, 25, 25)
     number of k points=   288

     PseudoPot. # 1 for Si read from file:
     /home/s1333534/quantum_espresso/qe-6.1/pseudo/si_pbe_v1.uspp.F.UPF.txt
     MD5 check sum: a056efeee980c13900f22a371efd63c1
     Pseudo is Ultrasoft + core correction, Zval =  4.0
     Generated by new atomic code, or converted to UPF format
     Using radial grid of  899 points,  6 beta functions with: 
                l(1) =   0
                l(2) =   0
                l(3) =   1
                l(4) =   1
                l(5) =   2
                l(6) =   2
     Q(r) pseudized with  8 coefficients,  rinner =    0.900   0.900   0.900
                                                       0.900   0.900

     Mode symmetry, C_s (m)     point group:


     Atomic displacements:
     There are   6 irreducible representations

     Representation     1      1 modes -A'  To be done

     Representation     2      1 modes -A'  To be done

     Representation     3      1 modes -A'  To be done

     Representation     4      1 modes -A'  To be done

     Representation     5      1 modes -A''  To be done

     Representation     6      1 modes -A''  To be done



     Alpha used in Ewald sum =   2.5000
     PHONON       :  0m54.66s CPU     1m10.91s WALL



     Representation #  1 mode #   1

     Self-consistent Calculation

      iter #   1 total cpu time :    71.8 secs   av.it.:   5.7
      thresh= 1.000E-02 alpha_mix =  0.700 |ddv_scf|^2 =  7.609E-06

      iter #   2 total cpu time :    73.2 secs   av.it.:  10.7
      thresh= 2.758E-04 alpha_mix =  0.700 |ddv_scf|^2 =  2.036E-05

      iter #   3 total cpu time :    74.5 secs   av.it.:   9.4
      thresh= 4.513E-04 alpha_mix =  0.700 |ddv_scf|^2 =  1.364E-07

      iter #   4 total cpu time :    75.8 secs   av.it.:  10.1
      thresh= 3.694E-05 alpha_mix =  0.700 |ddv_scf|^2 =  2.725E-09

      iter #   5 total cpu time :    77.2 secs   av.it.:  10.6
      thresh= 5.221E-06 alpha_mix =  0.700 |ddv_scf|^2 =  4.658E-10

      iter #   6 total cpu time :    78.5 secs   av.it.:  10.6
      thresh= 2.158E-06 alpha_mix =  0.700 |ddv_scf|^2 =  7.226E-12

      iter #   7 total cpu time :    79.9 secs   av.it.:  10.7
      thresh= 2.688E-07 alpha_mix =  0.700 |ddv_scf|^2 =  2.755E-13

     End of self-consistent calculation

     Convergence has been achieved 


     Representation #  2 mode #   2

     Self-consistent Calculation

      iter #   1 total cpu time :    81.0 secs   av.it.:   5.8
      thresh= 1.000E-02 alpha_mix =  0.700 |ddv_scf|^2 =  1.362E-05

      iter #   2 total cpu time :    82.4 secs   av.it.:  10.6
      thresh= 3.690E-04 alpha_mix =  0.700 |ddv_scf|^2 =  3.953E-05

      iter #   3 total cpu time :    83.6 secs   av.it.:   9.2
      thresh= 6.287E-04 alpha_mix =  0.700 |ddv_scf|^2 =  9.251E-08

      iter #   4 total cpu time :    85.0 secs   av.it.:  10.4
      thresh= 3.041E-05 alpha_mix =  0.700 |ddv_scf|^2 =  3.081E-09

      iter #   5 total cpu time :    86.3 secs   av.it.:  10.6
      thresh= 5.551E-06 alpha_mix =  0.700 |ddv_scf|^2 =  6.273E-10

      iter #   6 total cpu time :    87.6 secs   av.it.:  10.5
      thresh= 2.505E-06 alpha_mix =  0.700 |ddv_scf|^2 =  6.537E-12

      iter #   7 total cpu time :    89.0 secs   av.it.:  10.7
      thresh= 2.557E-07 alpha_mix =  0.700 |ddv_scf|^2 =  2.327E-13

     End of self-consistent calculation

     Convergence has been achieved 


     Representation #  3 mode #   3

     Self-consistent Calculation

      iter #   1 total cpu time :    90.1 secs   av.it.:   5.7
      thresh= 1.000E-02 alpha_mix =  0.700 |ddv_scf|^2 =  1.067E-05

      iter #   2 total cpu time :    91.5 secs   av.it.:  10.7
      thresh= 3.266E-04 alpha_mix =  0.700 |ddv_scf|^2 =  2.907E-05

      iter #   3 total cpu time :    92.8 secs   av.it.:   9.2
      thresh= 5.392E-04 alpha_mix =  0.700 |ddv_scf|^2 =  1.613E-07

      iter #   4 total cpu time :    94.1 secs   av.it.:  10.0
      thresh= 4.017E-05 alpha_mix =  0.700 |ddv_scf|^2 =  3.139E-09

      iter #   5 total cpu time :    95.5 secs   av.it.:  10.7
      thresh= 5.602E-06 alpha_mix =  0.700 |ddv_scf|^2 =  6.143E-10

      iter #   6 total cpu time :    96.9 secs   av.it.:  10.5
      thresh= 2.479E-06 alpha_mix =  0.700 |ddv_scf|^2 =  4.549E-12

      iter #   7 total cpu time :    98.2 secs   av.it.:  10.7
      thresh= 2.133E-07 alpha_mix =  0.700 |ddv_scf|^2 =  1.336E-13

     End of self-consistent calculation

     Convergence has been achieved 


     Representation #  4 mode #   4

     Self-consistent Calculation

      iter #   1 total cpu time :    99.3 secs   av.it.:   5.5
      thresh= 1.000E-02 alpha_mix =  0.700 |ddv_scf|^2 =  4.656E-06

      iter #   2 total cpu time :   100.7 secs   av.it.:  10.9
      thresh= 2.158E-04 alpha_mix =  0.700 |ddv_scf|^2 =  9.891E-06

      iter #   3 total cpu time :   102.1 secs   av.it.:   9.7
      thresh= 3.145E-04 alpha_mix =  0.700 |ddv_scf|^2 =  2.141E-07

      iter #   4 total cpu time :   103.4 secs   av.it.:  10.0
      thresh= 4.627E-05 alpha_mix =  0.700 |ddv_scf|^2 =  2.689E-09

      iter #   5 total cpu time :   104.7 secs   av.it.:  10.7
      thresh= 5.186E-06 alpha_mix =  0.700 |ddv_scf|^2 =  5.031E-10

      iter #   6 total cpu time :   106.3 secs   av.it.:  10.5
      thresh= 2.243E-06 alpha_mix =  0.700 |ddv_scf|^2 =  3.047E-12

      iter #   7 total cpu time :   107.6 secs   av.it.:  10.8
      thresh= 1.745E-07 alpha_mix =  0.700 |ddv_scf|^2 =  1.416E-13

     End of self-consistent calculation

     Convergence has been achieved 


     Representation #  5 mode #   5

     Self-consistent Calculation

      iter #   1 total cpu time :   108.6 secs   av.it.:   5.2
      thresh= 1.000E-02 alpha_mix =  0.700 |ddv_scf|^2 =  4.832E-07

      iter #   2 total cpu time :   110.0 secs   av.it.:  10.4
      thresh= 6.951E-05 alpha_mix =  0.700 |ddv_scf|^2 =  7.886E-08

      iter #   3 total cpu time :   111.3 secs   av.it.:  10.2
      thresh= 2.808E-05 alpha_mix =  0.700 |ddv_scf|^2 =  1.051E-09

      iter #   4 total cpu time :   112.6 secs   av.it.:   9.8
      thresh= 3.242E-06 alpha_mix =  0.700 |ddv_scf|^2 =  2.468E-12

      iter #   5 total cpu time :   113.9 secs   av.it.:  10.3
      thresh= 1.571E-07 alpha_mix =  0.700 |ddv_scf|^2 =  6.987E-14

     End of self-consistent calculation

     Convergence has been achieved 


     Representation #  6 mode #   6

     Self-consistent Calculation

      iter #   1 total cpu time :   115.0 secs   av.it.:   5.2
      thresh= 1.000E-02 alpha_mix =  0.700 |ddv_scf|^2 =  4.832E-07

      iter #   2 total cpu time :   116.3 secs   av.it.:  10.4
[...]
        k(   59) = (  -0.8750000   0.1250000  -0.1250000), wk =   0.0625000
        k(   60) = (  -1.3750000  -0.8750000  -0.1250000), wk =   0.0000000
        k(   61) = (  -1.1250000   0.3750000  -0.3750000), wk =   0.0625000
        k(   62) = (  -1.6250000  -0.6250000  -0.3750000), wk =   0.0000000
        k(   63) = (  -0.3750000   0.3750000   1.1250000), wk =   0.0625000
        k(   64) = (  -0.8750000  -0.6250000   1.1250000), wk =   0.0000000

     Dense  grid:    17261 G-vectors     FFT dimensions: (  40,  40,  40)

     Smooth grid:     6183 G-vectors     FFT dimensions: (  25,  25,  25)

     Estimated max dynamical RAM per process >       1.78MB

     Estimated total allocated dynamical RAM >       7.14MB

     The potential is recalculated from file :
     ./_ph0/silicon.10.342.save/charge-density.dat

     Starting wfc are    8 atomic wfcs

     Band Structure Calculation
     Davidson diagonalization with overlap

     ethr =  1.25E-10,  avg # of iterations = 12.1

     total cpu time spent up to now is       11.0 secs

     End of band structure calculation

          k =-0.1250 0.1250 0.1250 (   770 PWs)   bands (ev):

    -5.6469   4.3625   5.6719   5.6719

          k =-0.6250-0.8750 0.1250 (   757 PWs)   bands (ev):

    -2.4573  -0.9188   1.9948   3.0680

          k =-0.3750 0.3750-0.1250 (   773 PWs)   bands (ev):

    -4.6231   1.3750   3.6910   5.1925

          k =-0.8750-0.6250-0.1250 (   757 PWs)   bands (ev):

    -2.4573  -0.9188   1.9948   3.0680

          k = 0.3750-0.3750 0.6250 (   767 PWs)   bands (ev):

    -3.4875  -0.6966   3.7105   4.4236

          k =-0.1250-1.3750 0.6250 (   767 PWs)   bands (ev):

    -2.9931  -0.6149   2.0518   4.1076

          k = 0.1250-0.1250 0.3750 (   774 PWs)   bands (ev):

    -5.1204   2.7479   4.6671   4.7295

          k =-0.3750-1.1250 0.3750 (   767 PWs)   bands (ev):

    -2.9931  -0.6149   2.0518   4.1076

          k =-0.1250 0.6250 0.1250 (   768 PWs)   bands (ev):

    -4.0919   1.0386   3.3441   3.7954

          k =-0.6250-0.3750 0.1250 (   768 PWs)   bands (ev):

    -3.6778   0.1693   2.7035   4.0694

          k = 0.6250-0.1250 0.8750 (   757 PWs)   bands (ev):

    -2.4573  -0.9188   1.9948   3.0680

          k = 0.1250-1.1250 0.8750 (   762 PWs)   bands (ev):

    -2.6239  -0.8221   2.6026   3.3297

          k = 0.3750 0.1250 0.6250 (   768 PWs)   bands (ev):

    -3.6778   0.1693   2.7035   4.0694

          k =-0.1250-0.8750 0.6250 (   757 PWs)   bands (ev):

    -2.4573  -0.9188   1.9948   3.0680

          k =-0.1250-0.8750 0.1250 (   762 PWs)   bands (ev):

    -2.6239  -0.8221   2.6026   3.3297

          k =-0.6250-1.8750 0.1250 (   768 PWs)   bands (ev):

    -4.0919   1.0386   3.3441   3.7954

          k =-0.3750 0.3750 0.3750 (   763 PWs)   bands (ev):

    -4.1916   0.0894   4.8865   4.8865

          k =-0.8750-0.6250 0.3750 (   768 PWs)   bands (ev):

    -3.6778   0.1693   2.7035   4.0694

          k = 0.3750-0.3750 1.1250 (   767 PWs)   bands (ev):

    -2.9931  -0.6149   2.0518   4.1076

          k =-0.1250-1.3750 1.1250 (   757 PWs)   bands (ev):

    -2.4573  -0.9188   1.9948   3.0680

          k = 0.1250-0.3750 0.3750 (   773 PWs)   bands (ev):

    -4.6231   1.3750   3.6910   5.1925

          k =-0.3750-1.3750 0.3750 (   767 PWs)   bands (ev):

    -3.4875  -0.6966   3.7105   4.4236

          k = 0.3750-0.3750-0.1250 (   773 PWs)   bands (ev):

    -4.6231   1.3750   3.6910   5.1925

          k =-0.1250-1.3750-0.1250 (   768 PWs)   bands (ev):

    -4.0919   1.0386   3.3441   3.7954

          k =-0.6250 0.3750-0.3750 (   767 PWs)   bands (ev):

    -3.4875  -0.6966   3.7105   4.4236

          k =-1.1250-0.6250-0.3750 (   768 PWs)   bands (ev):

    -3.6778   0.1693   2.7035   4.0694

          k =-0.3750 0.3750 0.6250 (   767 PWs)   bands (ev):

    -3.4875  -0.6966   3.7105   4.4236

          k =-0.8750-0.6250 0.6250 (   773 PWs)   bands (ev):

    -4.6231   1.3750   3.6910   5.1925

          k =-0.3750 0.1250-0.1250 (   774 PWs)   bands (ev):

    -5.1204   2.7479   4.6671   4.7295

          k =-0.8750-0.8750-0.1250 (   762 PWs)   bands (ev):

    -2.6239  -0.8221   2.6026   3.3297

          k =-0.1250 0.1250 0.3750 (   774 PWs)   bands (ev):

    -5.1204   2.7479   4.6671   4.7295

          k =-0.6250-0.8750 0.3750 (   768 PWs)   bands (ev):

    -3.6778   0.1693   2.7035   4.0694

          k = 0.1250 0.6250-0.1250 (   768 PWs)   bands (ev):

    -4.0919   1.0386   3.3441   3.7954

          k =-0.3750-0.3750-0.1250 (   773 PWs)   bands (ev):

    -4.6231   1.3750   3.6910   5.1925

          k = 0.6250 0.1250-0.1250 (   768 PWs)   bands (ev):

    -4.0919   1.0386   3.3441   3.7954

          k = 0.1250-0.8750-0.1250 (   762 PWs)   bands (ev):

    -2.6239  -0.8221   2.6026   3.3297

          k =-0.8750 0.1250-0.6250 (   757 PWs)   bands (ev):

    -2.4573  -0.9188   1.9948   3.0680

          k =-1.3750-0.8750-0.6250 (   773 PWs)   bands (ev):

    -4.6231   1.3750   3.6910   5.1925

          k = 0.8750-0.1250 0.6250 (   757 PWs)   bands (ev):

    -2.4573  -0.9188   1.9948   3.0680

          k = 0.3750-1.1250 0.6250 (   768 PWs)   bands (ev):

    -3.6778   0.1693   2.7035   4.0694

          k =-0.6250 0.1250 0.8750 (   757 PWs)   bands (ev):

    -2.4573  -0.9188   1.9948   3.0680

          k =-1.1250-0.8750 0.8750 (   770 PWs)   bands (ev):

    -5.6469   4.3625   5.6719   5.6719

          k =-0.1250 0.8750 0.6250 (   757 PWs)   bands (ev):

    -2.4573  -0.9188   1.9948   3.0680

          k =-0.6250-0.1250 0.6250 (   767 PWs)   bands (ev):

    -2.9931  -0.6149   2.0518   4.1076

          k = 0.1250 0.8750-0.6250 (   757 PWs)   bands (ev):

    -2.4573  -0.9188   1.9948   3.0680

          k =-0.3750-0.1250-0.6250 (   768 PWs)   bands (ev):

    -3.6778   0.1693   2.7035   4.0694

          k =-0.6250-0.1250-0.3750 (   768 PWs)   bands (ev):

    -3.6778   0.1693   2.7035   4.0694

          k =-1.1250-1.1250-0.3750 (   768 PWs)   bands (ev):

    -4.0919   1.0386   3.3441   3.7954

          k = 0.6250 0.1250 0.3750 (   768 PWs)   bands (ev):

    -3.6778   0.1693   2.7035   4.0694

          k = 0.1250-0.8750 0.3750 (   757 PWs)   bands (ev):

    -2.4573  -0.9188   1.9948   3.0680

          k =-0.3750-0.1250 0.6250 (   768 PWs)   bands (ev):

    -3.6778   0.1693   2.7035   4.0694

          k =-0.8750-1.1250 0.6250 (   774 PWs)   bands (ev):

    -5.1204   2.7479   4.6671   4.7295

          k = 0.1250 0.6250 0.3750 (   768 PWs)   bands (ev):

    -3.6778   0.1693   2.7035   4.0694

          k =-0.3750-0.3750 0.3750 (   763 PWs)   bands (ev):

    -4.1916   0.0894   4.8865   4.8865

          k =-0.1250 0.6250-0.3750 (   768 PWs)   bands (ev):

    -3.6778   0.1693   2.7035   4.0694

          k =-0.6250-0.3750-0.3750 (   767 PWs)   bands (ev):

    -3.4875  -0.6966   3.7105   4.4236

          k = 0.1250-0.8750-0.1250 (   762 PWs)   bands (ev):

    -2.6239  -0.8221   2.6026   3.3297

          k =-0.3750-1.8750-0.1250 (   774 PWs)   bands (ev):

    -5.1204   2.7479   4.6671   4.7295

          k =-0.8750 0.1250-0.1250 (   762 PWs)   bands (ev):

    -2.6239  -0.8221   2.6026   3.3297

          k =-1.3750-0.8750-0.1250 (   757 PWs)   bands (ev):

    -2.4573  -0.9188   1.9948   3.0680

          k =-1.1250 0.3750-0.3750 (   767 PWs)   bands (ev):

    -2.9931  -0.6149   2.0518   4.1076

          k =-1.6250-0.6250-0.3750 (   767 PWs)   bands (ev):

    -3.4875  -0.6966   3.7105   4.4236

          k =-0.3750 0.3750 1.1250 (   767 PWs)   bands (ev):

    -2.9931  -0.6149   2.0518   4.1076

          k =-0.8750-0.6250 1.1250 (   774 PWs)   bands (ev):

    -5.1204   2.7479   4.6671   4.7295

     highest occupied level (ev):     5.6719

     Writing output data file silicon.10.342.save

                                                                                

     bravais-lattice index     =            2
     lattice parameter (alat)  =      10.3420  a.u.
     unit-cell volume          =     276.5372 (a.u.)^3
     number of atoms/cell      =            2
     number of atomic types    =            1
     kinetic-energy cut-off    =      30.0000  Ry
     charge density cut-off    =     240.0000  Ry
     convergence threshold     =      1.0E-12
     beta                      =       0.7000
     number of iterations used =            4
     Exchange-correlation      = SLA  PW   PBE  PBE ( 1  4  3  4 0 0)


     celldm(1)=   10.34200  celldm(2)=    0.00000  celldm(3)=    0.00000
     celldm(4)=    0.00000  celldm(5)=    0.00000  celldm(6)=    0.00000

     crystal axes: (cart. coord. in units of alat)
               a(1) = ( -0.5000  0.0000  0.5000 )  
               a(2) = (  0.0000  0.5000  0.5000 )  
               a(3) = ( -0.5000  0.5000  0.0000 )  

     reciprocal axes: (cart. coord. in units 2 pi/alat)
               b(1) = ( -1.0000 -1.0000  1.0000 )  
               b(2) = (  1.0000  1.0000  1.0000 )  
               b(3) = ( -1.0000  1.0000 -1.0000 )  


     Atoms inside the unit cell: 

     Cartesian axes

     site n.  atom      mass           positions (alat units)
        1     Si  28.0860   tau(    1) = (    0.00000    0.00000    0.00000  )
        2     Si  28.0860   tau(    2) = (    0.25000    0.25000    0.25000  )

     Computing dynamical matrix for 
                    q = (  -0.5000000  -1.0000000   0.0000000 )

      8 Sym.Ops. (no q -> -q+G )


     G cutoff =  650.2204  (   4316 G-vectors)     FFT grid: ( 40, 40, 40)
     G cutoff =  325.1102  (   1546 G-vectors)  smooth grid: ( 25, 25, 25)
     number of k points=    64

     PseudoPot. # 1 for Si read from file:
     /home/s1333534/quantum_espresso/qe-6.1/pseudo/si_pbe_v1.uspp.F.UPF.txt
     MD5 check sum: a056efeee980c13900f22a371efd63c1
     Pseudo is Ultrasoft + core correction, Zval =  4.0
     Generated by new atomic code, or converted to UPF format
     Using radial grid of  899 points,  6 beta functions with: 
                l(1) =   0
                l(2) =   0
                l(3) =   1
                l(4) =   1
                l(5) =   2
                l(6) =   2
     Q(r) pseudized with  8 coefficients,  rinner =    0.900   0.900   0.900
                                                       0.900   0.900


     Atomic displacements:
     There are   3 irreducible representations

     Representation     1      2 modes -  To be done

     Representation     2      2 modes -  To be done

     Representation     3      2 modes -  To be done



     Alpha used in Ewald sum =   2.5000
     PHONON       :  2m 7.72s CPU     2m40.54s WALL



     Representation #  1 modes #   1  2

     Self-consistent Calculation

      iter #   1 total cpu time :   161.3 secs   av.it.:   5.7
      thresh= 1.000E-02 alpha_mix =  0.700 |ddv_scf|^2 =  7.863E-07

      iter #   2 total cpu time :   162.1 secs   av.it.:  11.8
      thresh= 8.868E-05 alpha_mix =  0.700 |ddv_scf|^2 =  4.449E-07

      iter #   3 total cpu time :   162.9 secs   av.it.:  11.3
      thresh= 6.670E-05 alpha_mix =  0.700 |ddv_scf|^2 =  4.285E-10

      iter #   4 total cpu time :   163.8 secs   av.it.:  11.1
      thresh= 2.070E-06 alpha_mix =  0.700 |ddv_scf|^2 =  1.929E-12

      iter #   5 total cpu time :   164.6 secs   av.it.:  11.3
      thresh= 1.389E-07 alpha_mix =  0.700 |ddv_scf|^2 =  5.054E-14

     End of self-consistent calculation

     Convergence has been achieved 


     Representation #  2 modes #   3  4

     Self-consistent Calculation

      iter #   1 total cpu time :   165.3 secs   av.it.:   5.7
      thresh= 1.000E-02 alpha_mix =  0.700 |ddv_scf|^2 =  1.221E-06

      iter #   2 total cpu time :   166.1 secs   av.it.:  11.8
      thresh= 1.105E-04 alpha_mix =  0.700 |ddv_scf|^2 =  1.661E-06

      iter #   3 total cpu time :   167.0 secs   av.it.:  11.0
      thresh= 1.289E-04 alpha_mix =  0.700 |ddv_scf|^2 =  5.096E-10

      iter #   4 total cpu time :   167.8 secs   av.it.:  11.1
      thresh= 2.257E-06 alpha_mix =  0.700 |ddv_scf|^2 =  8.041E-12

      iter #   5 total cpu time :   168.6 secs   av.it.:  11.3
      thresh= 2.836E-07 alpha_mix =  0.700 |ddv_scf|^2 =  1.320E-13

     End of self-consistent calculation

     Convergence has been achieved 


     Representation #  3 modes #   5  6

     Self-consistent Calculation

      iter #   1 total cpu time :   169.7 secs   av.it.:   5.3
      thresh= 1.000E-02 alpha_mix =  0.700 |ddv_scf|^2 =  3.195E-07

      iter #   2 total cpu time :   170.5 secs   av.it.:  11.9
      thresh= 5.653E-05 alpha_mix =  0.700 |ddv_scf|^2 =  1.866E-07

      iter #   3 total cpu time :   171.4 secs   av.it.:  11.3
      thresh= 4.319E-05 alpha_mix =  0.700 |ddv_scf|^2 =  3.719E-10

      iter #   4 total cpu time :   172.2 secs   av.it.:  11.1
      thresh= 1.928E-06 alpha_mix =  0.700 |ddv_scf|^2 =  4.418E-12

      iter #   5 total cpu time :   173.0 secs   av.it.:  11.2
      thresh= 2.102E-07 alpha_mix =  0.700 |ddv_scf|^2 =  6.070E-14

     End of self-consistent calculation

     Convergence has been achieved 

     Number of q in the star =    6
     List of q in the star:
          1  -0.500000000  -1.000000000   0.000000000
          2   0.000000000   1.000000000   0.500000000
          3   0.000000000  -1.000000000  -0.500000000
          4   0.500000000   1.000000000   0.000000000
          5  -1.000000000  -0.500000000   0.000000000
          6   0.000000000  -0.500000000  -1.000000000

     Diagonalizing the dynamical matrix

     q = (   -0.500000000  -1.000000000   0.000000000 ) 

 **************************************************************************
     freq (    1) =       6.025990 [THz] =     201.005378 [cm-1]
     freq (    2) =       6.025990 [THz] =     201.005378 [cm-1]
     freq (    3) =      10.294382 [THz] =     343.383606 [cm-1]
     freq (    4) =      10.294382 [THz] =     343.383606 [cm-1]
     freq (    5) =      13.506285 [THz] =     450.521188 [cm-1]
     freq (    6) =      13.506285 [THz] =     450.521188 [cm-1]
 **************************************************************************

     init_run     :      1.28s CPU      1.33s WALL (       7 calls)
     electrons    :      7.39s CPU      7.97s WALL (       7 calls)

     Called by init_run:
     wfcinit      :      0.00s CPU      0.02s WALL (       7 calls)
     potinit      :      0.10s CPU      0.12s WALL (       7 calls)

     Called by electrons:
     c_bands      :      7.39s CPU      7.96s WALL (       7 calls)
     v_of_rho     :      0.09s CPU      0.09s WALL (       8 calls)
     newd         :      0.12s CPU      0.12s WALL (       8 calls)

     Called by c_bands:
     init_us_2    :      1.62s CPU      1.56s WALL (   15896 calls)
     cegterg      :      6.19s CPU      6.67s WALL (     796 calls)

     Called by sum_band:

     Called by *egterg:
     h_psi        :     70.76s CPU     75.71s WALL (  154699 calls)
     s_psi        :      6.01s CPU      7.00s WALL (  311656 calls)
     g_psi        :      0.05s CPU      0.07s WALL (    9666 calls)
     cdiaghg      :      0.57s CPU      0.57s WALL (   10462 calls)

     Called by h_psi:
     h_psi:pot    :     70.33s CPU     75.20s WALL (  154699 calls)
     h_psi:calbec :      3.52s CPU      4.04s WALL (  154699 calls)
     vloc_psi     :     62.19s CPU     66.95s WALL (  154699 calls)
     add_vuspsi   :      4.24s CPU      3.74s WALL (  154699 calls)

     General routines
     calbec       :      8.11s CPU      8.54s WALL (  345964 calls)
     fft          :      1.83s CPU      1.91s WALL (    5233 calls)
     ffts         :      0.21s CPU      0.23s WALL (    3316 calls)
     fftw         :     63.58s CPU     67.55s WALL ( 1384588 calls)
     interpolate  :      0.26s CPU      0.28s WALL (     568 calls)
     davcio       :      0.35s CPU      1.11s WALL (   69130 calls)

     Parallel routines
     fft_scatter  :     15.03s CPU     19.41s WALL ( 1393137 calls)

     PHONON       :  2m17.42s CPU     2m53.57s WALL

     INITIALIZATION: 
     phq_setup    :      0.30s CPU      0.56s WALL (       8 calls)
     phq_init     :      6.87s CPU      7.24s WALL (       8 calls)

     phq_init     :      6.87s CPU      7.24s WALL (       8 calls)
     set_drhoc    :      1.83s CPU      1.83s WALL (      24 calls)
     init_vloc    :      0.03s CPU      0.03s WALL (       8 calls)
     init_us_1    :      0.98s CPU      0.98s WALL (       8 calls)
     newd         :      0.12s CPU      0.12s WALL (       8 calls)
     dvanqq       :      1.18s CPU      1.18s WALL (       8 calls)
     drho         :      2.61s CPU      2.70s WALL (       8 calls)

     DYNAMICAL MATRIX:
     dynmat0      :      1.74s CPU      1.84s WALL (       8 calls)
     phqscf       :    116.23s CPU    145.99s WALL (       8 calls)
     dynmatrix    :      0.01s CPU      0.25s WALL (       8 calls)

     phqscf       :    116.23s CPU    145.99s WALL (       8 calls)
     solve_linter :    115.35s CPU    143.26s WALL (      32 calls)
     drhodv       :      0.58s CPU      0.60s WALL (      32 calls)

     dynmat0      :      1.74s CPU      1.84s WALL (       8 calls)
     dynmat_us    :      0.38s CPU      0.39s WALL (       8 calls)
     d2ionq       :      0.04s CPU      0.04s WALL (       8 calls)
     dynmatcc     :      1.31s CPU      1.31s WALL (       8 calls)

     dynmat_us    :      0.38s CPU      0.39s WALL (       8 calls)
     addusdynmat  :      0.00s CPU      0.00s WALL (       8 calls)

     phqscf       :    116.23s CPU    145.99s WALL (       8 calls)
     solve_linter :    115.35s CPU    143.26s WALL (      32 calls)

     solve_linter :    115.35s CPU    143.26s WALL (      32 calls)
     dvqpsi_us    :      2.13s CPU      2.29s WALL (    2508 calls)
     ortho        :      0.93s CPU      1.06s WALL (   13486 calls)
     cgsolve      :     78.33s CPU     84.94s WALL (   13486 calls)
     incdrhoscf   :      6.27s CPU      6.87s WALL (   13486 calls)
     addusddens   :      7.07s CPU      7.13s WALL (     200 calls)
     vpsifft      :      4.47s CPU      4.89s WALL (   10858 calls)
     dv_of_drho   :      1.75s CPU      1.80s WALL (     254 calls)
     mix_pot      :      0.35s CPU     10.89s WALL (     173 calls)
     psymdvscf    :      5.90s CPU      5.99s WALL (     168 calls)
     newdq        :      7.78s CPU      7.79s WALL (     173 calls)
     adddvscf     :      0.46s CPU      0.43s WALL (   10978 calls)
     drhodvus     :      0.01s CPU      0.02s WALL (      32 calls)

     dvqpsi_us    :      2.13s CPU      2.29s WALL (    2508 calls)
     dvqpsi_us_on :      0.91s CPU      0.95s WALL (    2508 calls)

     cgsolve      :     78.33s CPU     84.94s WALL (   13486 calls)
     ch_psi       :     77.21s CPU     83.13s WALL (  143441 calls)

     ch_psi       :     77.21s CPU     83.13s WALL (  143441 calls)
     h_psi        :     70.76s CPU     75.71s WALL (  154699 calls)
     last         :      9.05s CPU      9.18s WALL (  143441 calls)

     h_psi        :     70.76s CPU     75.71s WALL (  154699 calls)
     add_vuspsi   :      4.24s CPU      3.74s WALL (  154699 calls)

     incdrhoscf   :      6.27s CPU      6.87s WALL (   13486 calls)
     addusdbec    :      0.49s CPU      0.53s WALL (   15934 calls)

     drhodvus     :      0.01s CPU      0.02s WALL (      32 calls)

      General routines
     calbec       :      8.11s CPU      8.54s WALL (  345964 calls)
     fft          :      1.83s CPU      1.91s WALL (    5233 calls)
     ffts         :      0.21s CPU      0.23s WALL (    3316 calls)
     fftw         :     63.58s CPU     67.55s WALL ( 1384588 calls)
     davcio       :      0.35s CPU      1.11s WALL (   69130 calls)
     write_rec    :      0.22s CPU     11.44s WALL (     205 calls)


     PHONON       :  2m17.42s CPU     2m53.57s WALL


   This run was terminated on:  15:58:36  10Nov2017            

=------------------------------------------------------------------------------=
   JOB DONE.
=------------------------------------------------------------------------------=
