
     Program PHONON v.6.1 (svn rev. 13369) starts on 10Nov2017 at 15:30:29 

     This program is part of the open-source Quantum ESPRESSO suite
     for quantum simulation of materials; please cite
         "P. Giannozzi et al., J. Phys.:Condens. Matter 21 395502 (2009);
          URL http://www.quantum-espresso.org", 
     in publications or presentations arising from this work. More details at
     http://www.quantum-espresso.org/quote

     Parallel version (MPI), running on     4 processors
     R & G space division:  proc/nbgrp/npool/nimage =       4

     Reading data from directory:
     ./silicon.10.360.save

   Info: using nr1, nr2, nr3 values from input

   Info: using nr1, nr2, nr3 values from input

     IMPORTANT: XC functional enforced from input :
     Exchange-correlation      = SLA  PW   PBE  PBE ( 1  4  3  4 0 0)
     Any further DFT definition will be discarded
     Please, verify this is what you really want


     Parallelization info
     --------------------
     sticks:   dense  smooth     PW     G-vecs:    dense   smooth      PW
     Min         222     109     37                 4369     1545     284
     Max         223     110     38                 4370     1546     285
     Sum         889     439    151                17477     6183    1139



     Dynamical matrices for ( 4, 4, 4)  uniform grid of q-points
     (   8q-points):
       N         xq(1)         xq(2)         xq(3) 
       1   0.000000000   0.000000000   0.000000000
       2  -0.250000000   0.250000000  -0.250000000
       3   0.500000000  -0.500000000   0.500000000
       4   0.000000000   0.500000000   0.000000000
       5   0.750000000  -0.250000000   0.750000000
       6   0.500000000   0.000000000   0.500000000
       7   0.000000000  -1.000000000   0.000000000
       8  -0.500000000  -1.000000000   0.000000000

     Calculation of q =    0.0000000   0.0000000   0.0000000

                                                                                

     bravais-lattice index     =            2
     lattice parameter (alat)  =      10.3600  a.u.
     unit-cell volume          =     277.9837 (a.u.)^3
     number of atoms/cell      =            2
     number of atomic types    =            1
     kinetic-energy cut-off    =      30.0000  Ry
     charge density cut-off    =     240.0000  Ry
     convergence threshold     =      1.0E-12
     beta                      =       0.7000
     number of iterations used =            4
     Exchange-correlation      = SLA  PW   PBE  PBE ( 1  4  3  4 0 0)


     celldm(1)=   10.36000  celldm(2)=    0.00000  celldm(3)=    0.00000
     celldm(4)=    0.00000  celldm(5)=    0.00000  celldm(6)=    0.00000

     crystal axes: (cart. coord. in units of alat)
               a(1) = ( -0.5000  0.0000  0.5000 )  
               a(2) = (  0.0000  0.5000  0.5000 )  
               a(3) = ( -0.5000  0.5000  0.0000 )  

     reciprocal axes: (cart. coord. in units 2 pi/alat)
               b(1) = ( -1.0000 -1.0000  1.0000 )  
               b(2) = (  1.0000  1.0000  1.0000 )  
               b(3) = ( -1.0000  1.0000 -1.0000 )  


     Atoms inside the unit cell: 

     Cartesian axes

     site n.  atom      mass           positions (alat units)
        1     Si  28.0860   tau(    1) = (    0.00000    0.00000    0.00000  )
        2     Si  28.0860   tau(    2) = (    0.25000    0.25000    0.25000  )

     Computing dynamical matrix for 
                    q = (   0.0000000   0.0000000   0.0000000 )

     49 Sym.Ops. (with q -> -q+G )


     G cutoff =  652.4857  (   4369 G-vectors)     FFT grid: ( 40, 40, 40)
     G cutoff =  326.2429  (   1546 G-vectors)  smooth grid: ( 25, 25, 25)
     number of k points=    10

     PseudoPot. # 1 for Si read from file:
     /home/s1333534/quantum_espresso/qe-6.1/pseudo/si_pbe_v1.uspp.F.UPF.txt
     MD5 check sum: a056efeee980c13900f22a371efd63c1
     Pseudo is Ultrasoft + core correction, Zval =  4.0
     Generated by new atomic code, or converted to UPF format
     Using radial grid of  899 points,  6 beta functions with: 
                l(1) =   0
                l(2) =   0
                l(3) =   1
                l(4) =   1
                l(5) =   2
                l(6) =   2
     Q(r) pseudized with  8 coefficients,  rinner =    0.900   0.900   0.900
                                                       0.900   0.900

     Mode symmetry, O_h (m-3m)  point group:


     Electric field:
     Dielectric constant
     Born effective charges in two ways 


     Atomic displacements:
     There are   2 irreducible representations

     Representation     1      3 modes -T_2g G_25' G_5+  To be done

     Representation     2      3 modes -T_1u G_15  G_4-  To be done



     Alpha used in Ewald sum =   2.5000
     PHONON       :     0.96s CPU         1.39s WALL


     Electric Fields Calculation

      iter #   1 total cpu time :     2.6 secs   av.it.:   5.7
      thresh= 1.000E-02 alpha_mix =  0.700 |ddv_scf|^2 =  9.668E-08

      iter #   2 total cpu time :     3.3 secs   av.it.:  11.9
      thresh= 3.109E-05 alpha_mix =  0.700 |ddv_scf|^2 =  5.762E-09

      iter #   3 total cpu time :     4.2 secs   av.it.:  11.7
      thresh= 7.591E-06 alpha_mix =  0.700 |ddv_scf|^2 =  3.887E-10

      iter #   4 total cpu time :     4.9 secs   av.it.:  10.6
      thresh= 1.972E-06 alpha_mix =  0.700 |ddv_scf|^2 =  2.604E-12

      iter #   5 total cpu time :     5.6 secs   av.it.:  11.2
      thresh= 1.614E-07 alpha_mix =  0.700 |ddv_scf|^2 =  2.603E-15

     End of electric fields calculation

          Dielectric constant in cartesian axis 

          (      14.017972372      -0.000000000      -0.000000000 )
          (      -0.000000000      14.017972372       0.000000000 )
          (      -0.000000000       0.000000000      14.017972372 )

          Effective charges (d Force / dE) in cartesian axis

           atom      1   Si 
      Ex  (       -0.03754       -0.00000       -0.00000 )
      Ey  (       -0.00000       -0.03754        0.00000 )
      Ez  (       -0.00000        0.00000       -0.03754 )
           atom      2   Si 
      Ex  (       -0.03754        0.00000        0.00000 )
      Ey  (        0.00000       -0.03754       -0.00000 )
      Ez  (        0.00000       -0.00000       -0.03754 )


     Representation #  1 modes #   1  2  3

     Self-consistent Calculation

      iter #   1 total cpu time :     7.0 secs   av.it.:   5.1
      thresh= 1.000E-02 alpha_mix =  0.700 |ddv_scf|^2 =  1.712E-08

      iter #   2 total cpu time :     8.0 secs   av.it.:  11.8
      thresh= 1.308E-05 alpha_mix =  0.700 |ddv_scf|^2 =  6.994E-10

      iter #   3 total cpu time :     8.9 secs   av.it.:  11.3
      thresh= 2.645E-06 alpha_mix =  0.700 |ddv_scf|^2 =  4.755E-11

      iter #   4 total cpu time :     9.6 secs   av.it.:  10.4
      thresh= 6.896E-07 alpha_mix =  0.700 |ddv_scf|^2 =  1.178E-13

     End of self-consistent calculation

     Convergence has been achieved 


     Representation #  2 modes #   4  5  6

     Self-consistent Calculation

      iter #   1 total cpu time :    10.5 secs   av.it.:   5.2
      thresh= 1.000E-02 alpha_mix =  0.700 |ddv_scf|^2 =  1.349E-08

      iter #   2 total cpu time :    11.3 secs   av.it.:  11.8
      thresh= 1.162E-05 alpha_mix =  0.700 |ddv_scf|^2 =  7.924E-10

      iter #   3 total cpu time :    12.2 secs   av.it.:  11.4
      thresh= 2.815E-06 alpha_mix =  0.700 |ddv_scf|^2 =  4.922E-11

      iter #   4 total cpu time :    12.8 secs   av.it.:  11.5
      thresh= 7.016E-07 alpha_mix =  0.700 |ddv_scf|^2 =  1.924E-13

     End of self-consistent calculation

     Convergence has been achieved 

     Number of q in the star =    1
     List of q in the star:
          1   0.000000000   0.000000000   0.000000000

          Dielectric constant in cartesian axis 

          (      14.017972372      -0.000000000      -0.000000000 )
          (      -0.000000000      14.017972372       0.000000000 )
          (      -0.000000000       0.000000000      14.017972372 )

          Effective charges (d Force / dE) in cartesian axis

           atom      1   Si 
      Ex  (       -0.03754       -0.00000       -0.00000 )
      Ey  (       -0.00000       -0.03754        0.00000 )
      Ez  (       -0.00000        0.00000       -0.03754 )
           atom      2   Si 
      Ex  (       -0.03754        0.00000        0.00000 )
      Ey  (        0.00000       -0.03754       -0.00000 )
      Ez  (        0.00000       -0.00000       -0.03754 )

          Effective charges (d P / du) in cartesian axis 

           atom      1   Si 
      Px  (       -0.07234       -0.00000        0.00000 )
      Py  (       -0.00000       -0.07234        0.00000 )
      Pz  (        0.00000        0.00000       -0.07234 )
           atom      2   Si 
      Px  (       -0.07234        0.00000       -0.00000 )
      Py  (        0.00000       -0.07234        0.00000 )
      Pz  (       -0.00000        0.00000       -0.07234 )

     Diagonalizing the dynamical matrix

     q = (    0.000000000   0.000000000   0.000000000 ) 

 **************************************************************************
     freq (    1) =      -0.433367 [THz] =     -14.455574 [cm-1]
     freq (    2) =      -0.433367 [THz] =     -14.455574 [cm-1]
     freq (    3) =      -0.433367 [THz] =     -14.455574 [cm-1]
     freq (    4) =      14.955323 [THz] =     498.855887 [cm-1]
     freq (    5) =      14.955323 [THz] =     498.855887 [cm-1]
     freq (    6) =      14.955323 [THz] =     498.855887 [cm-1]
 **************************************************************************

     Mode symmetry, O_h (m-3m)  point group:

     freq (  1 -  3) =        -14.5  [cm-1]   --> T_1u G_15  G_4- I  
     freq (  4 -  6) =        498.9  [cm-1]   --> T_2g G_25' G_5+ R  

     Calculation of q =   -0.2500000   0.2500000  -0.2500000

   Info: using nr1, nr2, nr3 values from input

   Info: using nr1, nr2, nr3 values from input

     Parallelization info
     --------------------
     sticks:   dense  smooth     PW     G-vecs:    dense   smooth      PW
     Min         222     109     37                 4369     1545     309
     Max         223     110     38                 4370     1546     312
     Sum         889     439    151                17477     6183    1243



     bravais-lattice index     =            2
     lattice parameter (alat)  =      10.3600  a.u.
     unit-cell volume          =     277.9837 (a.u.)^3
     number of atoms/cell      =            2
     number of atomic types    =            1
     number of electrons       =         8.00
     number of Kohn-Sham states=            4
     kinetic-energy cutoff     =      30.0000  Ry
     charge density cutoff     =     240.0000  Ry
     Exchange-correlation      = SLA  PW   PBE  PBE ( 1  4  3  4 0 0)

     celldm(1)=  10.360000  celldm(2)=   0.000000  celldm(3)=   0.000000
     celldm(4)=   0.000000  celldm(5)=   0.000000  celldm(6)=   0.000000

     crystal axes: (cart. coord. in units of alat)
               a(1) = (  -0.500000   0.000000   0.500000 )  
               a(2) = (   0.000000   0.500000   0.500000 )  
               a(3) = (  -0.500000   0.500000   0.000000 )  

     reciprocal axes: (cart. coord. in units 2 pi/alat)
               b(1) = ( -1.000000 -1.000000  1.000000 )  
               b(2) = (  1.000000  1.000000  1.000000 )  
               b(3) = ( -1.000000  1.000000 -1.000000 )  


     PseudoPot. # 1 for Si read from file:
     /home/s1333534/quantum_espresso/qe-6.1/pseudo/si_pbe_v1.uspp.F.UPF.txt
     MD5 check sum: a056efeee980c13900f22a371efd63c1
     Pseudo is Ultrasoft + core correction, Zval =  4.0
     Generated by new atomic code, or converted to UPF format
     Using radial grid of  899 points,  6 beta functions with: 
                l(1) =   0
                l(2) =   0
                l(3) =   1
                l(4) =   1
                l(5) =   2
                l(6) =   2
     Q(r) pseudized with  8 coefficients,  rinner =    0.900   0.900   0.900
                                                       0.900   0.900

     atomic species   valence    mass     pseudopotential
        Si             4.00    28.08600     Si( 1.00)

     48 Sym. Ops., with inversion, found



   Cartesian axes

     site n.     atom                  positions (alat units)
         1           Si  tau(   1) = (   0.0000000   0.0000000   0.0000000  )
         2           Si  tau(   2) = (   0.2500000   0.2500000   0.2500000  )

     number of k points=   120

     Number of k-points >= 100: set verbosity='high' to print them.

     Dense  grid:    17477 G-vectors     FFT dimensions: (  40,  40,  40)

     Smooth grid:     6183 G-vectors     FFT dimensions: (  25,  25,  25)

     Estimated max dynamical RAM per process >       1.79MB

     Estimated total allocated dynamical RAM >       7.17MB

     The potential is recalculated from file :
     ./_ph0/silicon.10.360.save/charge-density.dat

     Starting wfc are    8 atomic wfcs

     Band Structure Calculation
     Davidson diagonalization with overlap

     ethr =  1.25E-10,  avg # of iterations = 12.2

     total cpu time spent up to now is        1.4 secs

     End of band structure calculation

     Number of k-points >= 100: set verbosity='high' to print the bands.

     highest occupied level (ev):     5.6203

     Writing output data file silicon.10.360.save

                                                                                

     bravais-lattice index     =            2
     lattice parameter (alat)  =      10.3600  a.u.
     unit-cell volume          =     277.9837 (a.u.)^3
     number of atoms/cell      =            2
     number of atomic types    =            1
     kinetic-energy cut-off    =      30.0000  Ry
     charge density cut-off    =     240.0000  Ry
     convergence threshold     =      1.0E-12
     beta                      =       0.7000
     number of iterations used =            4
     Exchange-correlation      = SLA  PW   PBE  PBE ( 1  4  3  4 0 0)


     celldm(1)=   10.36000  celldm(2)=    0.00000  celldm(3)=    0.00000
     celldm(4)=    0.00000  celldm(5)=    0.00000  celldm(6)=    0.00000

     crystal axes: (cart. coord. in units of alat)
               a(1) = ( -0.5000  0.0000  0.5000 )  
               a(2) = (  0.0000  0.5000  0.5000 )  
               a(3) = ( -0.5000  0.5000  0.0000 )  

     reciprocal axes: (cart. coord. in units 2 pi/alat)
               b(1) = ( -1.0000 -1.0000  1.0000 )  
               b(2) = (  1.0000  1.0000  1.0000 )  
               b(3) = ( -1.0000  1.0000 -1.0000 )  


     Atoms inside the unit cell: 

     Cartesian axes

     site n.  atom      mass           positions (alat units)
        1     Si  28.0860   tau(    1) = (    0.00000    0.00000    0.00000  )
        2     Si  28.0860   tau(    2) = (    0.25000    0.25000    0.25000  )

     Computing dynamical matrix for 
                    q = (  -0.2500000   0.2500000  -0.2500000 )

      6 Sym.Ops. (no q -> -q+G )


     G cutoff =  652.4857  (   4369 G-vectors)     FFT grid: ( 40, 40, 40)
     G cutoff =  326.2429  (   1546 G-vectors)  smooth grid: ( 25, 25, 25)
     number of k points=   120

     PseudoPot. # 1 for Si read from file:
     /home/s1333534/quantum_espresso/qe-6.1/pseudo/si_pbe_v1.uspp.F.UPF.txt
     MD5 check sum: a056efeee980c13900f22a371efd63c1
     Pseudo is Ultrasoft + core correction, Zval =  4.0
     Generated by new atomic code, or converted to UPF format
     Using radial grid of  899 points,  6 beta functions with: 
                l(1) =   0
                l(2) =   0
                l(3) =   1
                l(4) =   1
                l(5) =   2
                l(6) =   2
     Q(r) pseudized with  8 coefficients,  rinner =    0.900   0.900   0.900
                                                       0.900   0.900

     Mode symmetry, C_3v (3m)   point group:


     Atomic displacements:
     There are   4 irreducible representations

     Representation     1      1 modes -A_1  L_1  To be done

     Representation     2      1 modes -A_1  L_1  To be done

     Representation     3      2 modes -E    L_3  To be done

     Representation     4      2 modes -E    L_3  To be done



     Alpha used in Ewald sum =   2.5000
     PHONON       :    11.96s CPU        16.45s WALL



     Representation #  1 mode #   1

     Self-consistent Calculation

      iter #   1 total cpu time :    16.9 secs   av.it.:   5.9
      thresh= 1.000E-02 alpha_mix =  0.700 |ddv_scf|^2 =  3.084E-04

      iter #   2 total cpu time :    17.6 secs   av.it.:   9.2
      thresh= 1.756E-03 alpha_mix =  0.700 |ddv_scf|^2 =  4.715E-03

      iter #   3 total cpu time :    18.2 secs   av.it.:   7.1
      thresh= 6.866E-03 alpha_mix =  0.700 |ddv_scf|^2 =  1.954E-07

      iter #   4 total cpu time :    18.9 secs   av.it.:   9.7
      thresh= 4.421E-05 alpha_mix =  0.700 |ddv_scf|^2 =  1.308E-08

      iter #   5 total cpu time :    19.5 secs   av.it.:   9.8
      thresh= 1.144E-05 alpha_mix =  0.700 |ddv_scf|^2 =  2.391E-10

      iter #   6 total cpu time :    20.2 secs   av.it.:   9.9
      thresh= 1.546E-06 alpha_mix =  0.700 |ddv_scf|^2 =  6.089E-10

      iter #   7 total cpu time :    20.8 secs   av.it.:   7.8
      thresh= 2.468E-06 alpha_mix =  0.700 |ddv_scf|^2 =  3.917E-11

      iter #   8 total cpu time :    21.4 secs   av.it.:   9.4
      thresh= 6.259E-07 alpha_mix =  0.700 |ddv_scf|^2 =  4.053E-13

     End of self-consistent calculation

     Convergence has been achieved 


     Representation #  2 mode #   2

     Self-consistent Calculation

      iter #   1 total cpu time :    22.1 secs   av.it.:   5.9
      thresh= 1.000E-02 alpha_mix =  0.700 |ddv_scf|^2 =  3.084E-04

      iter #   2 total cpu time :    22.8 secs   av.it.:   9.2
      thresh= 1.756E-03 alpha_mix =  0.700 |ddv_scf|^2 =  4.715E-03

      iter #   3 total cpu time :    23.3 secs   av.it.:   7.1
      thresh= 6.866E-03 alpha_mix =  0.700 |ddv_scf|^2 =  1.954E-07

      iter #   4 total cpu time :    24.0 secs   av.it.:   9.7
      thresh= 4.421E-05 alpha_mix =  0.700 |ddv_scf|^2 =  1.308E-08

      iter #   5 total cpu time :    24.7 secs   av.it.:   9.8
      thresh= 1.144E-05 alpha_mix =  0.700 |ddv_scf|^2 =  2.391E-10

      iter #   6 total cpu time :    25.4 secs   av.it.:   9.9
      thresh= 1.546E-06 alpha_mix =  0.700 |ddv_scf|^2 =  6.089E-10

      iter #   7 total cpu time :    26.0 secs   av.it.:   7.8
      thresh= 2.468E-06 alpha_mix =  0.700 |ddv_scf|^2 =  3.917E-11

      iter #   8 total cpu time :    26.6 secs   av.it.:   9.4
      thresh= 6.259E-07 alpha_mix =  0.700 |ddv_scf|^2 =  4.053E-13

     End of self-consistent calculation

     Convergence has been achieved 


     Representation #  3 modes #   3  4

     Self-consistent Calculation

      iter #   1 total cpu time :    27.5 secs   av.it.:   5.2
      thresh= 1.000E-02 alpha_mix =  0.700 |ddv_scf|^2 =  4.811E-08

      iter #   2 total cpu time :    28.9 secs   av.it.:  11.7
      thresh= 2.193E-05 alpha_mix =  0.700 |ddv_scf|^2 =  3.091E-09

      iter #   3 total cpu time :    30.3 secs   av.it.:  11.2
      thresh= 5.560E-06 alpha_mix =  0.700 |ddv_scf|^2 =  1.632E-10

      iter #   4 total cpu time :    31.5 secs   av.it.:  11.1
      thresh= 1.278E-06 alpha_mix =  0.700 |ddv_scf|^2 =  6.297E-13

     End of self-consistent calculation

     Convergence has been achieved 


     Representation #  4 modes #   5  6

     Self-consistent Calculation

      iter #   1 total cpu time :    32.6 secs   av.it.:   5.2
      thresh= 1.000E-02 alpha_mix =  0.700 |ddv_scf|^2 =  4.812E-08

      iter #   2 total cpu time :    34.0 secs   av.it.:  11.7
      thresh= 2.194E-05 alpha_mix =  0.700 |ddv_scf|^2 =  3.093E-09

      iter #   3 total cpu time :    35.4 secs   av.it.:  11.4
      thresh= 5.561E-06 alpha_mix =  0.700 |ddv_scf|^2 =  1.632E-10

      iter #   4 total cpu time :    36.7 secs   av.it.:  11.2
      thresh= 1.277E-06 alpha_mix =  0.700 |ddv_scf|^2 =  6.331E-13

     End of self-consistent calculation

     Convergence has been achieved 

     Number of q in the star =    8
     List of q in the star:
          1  -0.250000000   0.250000000  -0.250000000
          2   0.250000000  -0.250000000  -0.250000000
          3   0.250000000  -0.250000000   0.250000000
          4   0.250000000   0.250000000   0.250000000
          5  -0.250000000  -0.250000000  -0.250000000
          6  -0.250000000  -0.250000000   0.250000000
          7  -0.250000000   0.250000000   0.250000000
          8   0.250000000   0.250000000  -0.250000000

     Diagonalizing the dynamical matrix

     q = (   -0.250000000   0.250000000  -0.250000000 ) 

 **************************************************************************
     freq (    1) =       2.803104 [THz] =      93.501485 [cm-1]
     freq (    2) =       2.803104 [THz] =      93.501485 [cm-1]
     freq (    3) =       6.678368 [THz] =     222.766383 [cm-1]
     freq (    4) =      14.109876 [THz] =     470.654798 [cm-1]
     freq (    5) =      14.368200 [THz] =     479.271557 [cm-1]
     freq (    6) =      14.368200 [THz] =     479.271557 [cm-1]
 **************************************************************************

     Mode symmetry, C_3v (3m)   point group:

     freq (  1 -  2) =         93.5  [cm-1]   --> E    L_3           
     freq (  3 -  3) =        222.8  [cm-1]   --> A_1  L_1           
     freq (  4 -  4) =        470.7  [cm-1]   --> A_1  L_1           
     freq (  5 -  6) =        479.3  [cm-1]   --> E    L_3           

     Calculation of q =    0.5000000  -0.5000000   0.5000000

   Info: using nr1, nr2, nr3 values from input

   Info: using nr1, nr2, nr3 values from input

     Parallelization info
     --------------------
     sticks:   dense  smooth     PW     G-vecs:    dense   smooth      PW
     Min         222     109     40                 4369     1545     351
     Max         223     110     41                 4370     1546     354
     Sum         889     439    163                17477     6183    1411



     bravais-lattice index     =            2
     lattice parameter (alat)  =      10.3600  a.u.
     unit-cell volume          =     277.9837 (a.u.)^3
     number of atoms/cell      =            2
     number of atomic types    =            1
     number of electrons       =         8.00
     number of Kohn-Sham states=            4
     kinetic-energy cutoff     =      30.0000  Ry
     charge density cutoff     =     240.0000  Ry
     Exchange-correlation      = SLA  PW   PBE  PBE ( 1  4  3  4 0 0)

     celldm(1)=  10.360000  celldm(2)=   0.000000  celldm(3)=   0.000000
     celldm(4)=   0.000000  celldm(5)=   0.000000  celldm(6)=   0.000000

     crystal axes: (cart. coord. in units of alat)
               a(1) = (  -0.500000   0.000000   0.500000 )  
               a(2) = (   0.000000   0.500000   0.500000 )  
               a(3) = (  -0.500000   0.500000   0.000000 )  

     reciprocal axes: (cart. coord. in units 2 pi/alat)
               b(1) = ( -1.000000 -1.000000  1.000000 )  
               b(2) = (  1.000000  1.000000  1.000000 )  
               b(3) = ( -1.000000  1.000000 -1.000000 )  


     PseudoPot. # 1 for Si read from file:
     /home/s1333534/quantum_espresso/qe-6.1/pseudo/si_pbe_v1.uspp.F.UPF.txt
     MD5 check sum: a056efeee980c13900f22a371efd63c1
     Pseudo is Ultrasoft + core correction, Zval =  4.0
     Generated by new atomic code, or converted to UPF format
     Using radial grid of  899 points,  6 beta functions with: 
                l(1) =   0
                l(2) =   0
                l(3) =   1
                l(4) =   1
                l(5) =   2
                l(6) =   2
     Q(r) pseudized with  8 coefficients,  rinner =    0.900   0.900   0.900
                                                       0.900   0.900

     atomic species   valence    mass     pseudopotential
        Si             4.00    28.08600     Si( 1.00)

     48 Sym. Ops., with inversion, found



   Cartesian axes

     site n.     atom                  positions (alat units)
         1           Si  tau(   1) = (   0.0000000   0.0000000   0.0000000  )
         2           Si  tau(   2) = (   0.2500000   0.2500000   0.2500000  )

     number of k points=    60
                       cart. coord. in units 2pi/alat
        k(    1) = (  -0.1250000   0.1250000   0.1250000), wk =   0.0468750
        k(    2) = (   0.3750000  -0.3750000   0.6250000), wk =   0.0000000
        k(    3) = (  -0.3750000   0.3750000  -0.1250000), wk =   0.0468750
        k(    4) = (   0.1250000  -0.1250000   0.3750000), wk =   0.0000000
        k(    5) = (   0.3750000  -0.3750000   0.6250000), wk =   0.0468750
        k(    6) = (   0.8750000  -0.8750000   1.1250000), wk =   0.0000000
        k(    7) = (   0.1250000  -0.1250000   0.3750000), wk =   0.0468750
        k(    8) = (   0.6250000  -0.6250000   0.8750000), wk =   0.0000000
        k(    9) = (  -0.1250000   0.6250000   0.1250000), wk =   0.0937500
        k(   10) = (   0.3750000   0.1250000   0.6250000), wk =   0.0000000
        k(   11) = (   0.6250000  -0.1250000   0.8750000), wk =   0.0937500
        k(   12) = (   1.1250000  -0.6250000   1.3750000), wk =   0.0000000
        k(   13) = (   0.3750000   0.1250000   0.6250000), wk =   0.0937500
        k(   14) = (   0.8750000  -0.3750000   1.1250000), wk =   0.0000000
        k(   15) = (  -0.1250000  -0.8750000   0.1250000), wk =   0.0937500
        k(   16) = (   0.3750000  -1.3750000   0.6250000), wk =   0.0000000
        k(   17) = (  -0.3750000   0.3750000   0.3750000), wk =   0.0468750
        k(   18) = (   0.1250000  -0.1250000   0.8750000), wk =   0.0000000
        k(   19) = (   0.3750000  -0.3750000   1.1250000), wk =   0.0468750
        k(   20) = (   0.8750000  -0.8750000   1.6250000), wk =   0.0000000
        k(   21) = (   0.1250000  -0.1250000   0.1250000), wk =   0.0156250
        k(   22) = (   0.6250000  -0.6250000   0.6250000), wk =   0.0000000
        k(   23) = (  -0.3750000  -0.3750000  -0.1250000), wk =   0.0937500
        k(   24) = (   0.1250000  -0.8750000   0.3750000), wk =   0.0000000
        k(   25) = (  -0.1250000  -0.3750000   0.3750000), wk =   0.0468750
        k(   26) = (   0.3750000  -0.8750000   0.8750000), wk =   0.0000000
        k(   27) = (   0.3750000   0.3750000   0.6250000), wk =   0.0937500
        k(   28) = (   0.8750000  -0.1250000   1.1250000), wk =   0.0000000
        k(   29) = (   0.6250000   0.3750000  -0.3750000), wk =   0.0468750
        k(   30) = (   1.1250000  -0.1250000   0.1250000), wk =   0.0000000
        k(   31) = (   0.1250000   0.1250000   0.3750000), wk =   0.0937500
        k(   32) = (   0.6250000  -0.3750000   0.8750000), wk =   0.0000000
        k(   33) = (   0.3750000   0.1250000  -0.1250000), wk =   0.0468750
        k(   34) = (   0.8750000  -0.3750000   0.3750000), wk =   0.0000000
        k(   35) = (  -0.1250000  -0.6250000  -0.1250000), wk =   0.0468750
        k(   36) = (   0.3750000  -1.1250000   0.3750000), wk =   0.0000000
        k(   37) = (   0.1250000  -0.6250000   0.1250000), wk =   0.0468750
        k(   38) = (   0.6250000  -1.1250000   0.6250000), wk =   0.0000000
        k(   39) = (   0.6250000   0.1250000   0.8750000), wk =   0.0937500
        k(   40) = (   1.1250000  -0.3750000   1.3750000), wk =   0.0000000
        k(   41) = (  -0.8750000   0.1250000   0.6250000), wk =   0.0937500
        k(   42) = (  -0.3750000  -0.3750000   1.1250000), wk =   0.0000000
        k(   43) = (   0.8750000   0.1250000  -0.6250000), wk =   0.0937500
        k(   44) = (   1.3750000  -0.3750000  -0.1250000), wk =   0.0000000
        k(   45) = (   0.3750000  -0.1250000   0.6250000), wk =   0.0937500
        k(   46) = (   0.8750000  -0.6250000   1.1250000), wk =   0.0000000
        k(   47) = (  -0.6250000  -0.1250000   0.3750000), wk =   0.0937500
        k(   48) = (  -0.1250000  -0.6250000   0.8750000), wk =   0.0000000
        k(   49) = (   0.6250000  -0.1250000  -0.3750000), wk =   0.0937500
        k(   50) = (   1.1250000  -0.6250000   0.1250000), wk =   0.0000000
        k(   51) = (  -0.1250000   0.8750000  -0.1250000), wk =   0.0468750
        k(   52) = (   0.3750000   0.3750000   0.3750000), wk =   0.0000000
        k(   53) = (   0.1250000   0.8750000   0.1250000), wk =   0.0468750
        k(   54) = (   0.6250000   0.3750000   0.6250000), wk =   0.0000000
        k(   55) = (   0.3750000  -0.3750000   0.3750000), wk =   0.0156250
        k(   56) = (   0.8750000  -0.8750000   0.8750000), wk =   0.0000000
        k(   57) = (   0.3750000   0.3750000   1.1250000), wk =   0.0937500
        k(   58) = (   0.8750000  -0.1250000   1.6250000), wk =   0.0000000
        k(   59) = (   1.1250000   0.3750000  -0.3750000), wk =   0.0468750
        k(   60) = (   1.6250000  -0.1250000   0.1250000), wk =   0.0000000

     Dense  grid:    17477 G-vectors     FFT dimensions: (  40,  40,  40)

     Smooth grid:     6183 G-vectors     FFT dimensions: (  25,  25,  25)

     Estimated max dynamical RAM per process >       1.79MB

     Estimated total allocated dynamical RAM >       7.17MB

     The potential is recalculated from file :
     ./_ph0/silicon.10.360.save/charge-density.dat

     Starting wfc are    8 atomic wfcs

     Band Structure Calculation
     Davidson diagonalization with overlap

     ethr =  1.25E-10,  avg # of iterations = 12.2

     total cpu time spent up to now is        2.4 secs

     End of band structure calculation

          k =-0.1250 0.1250 0.1250 (   779 PWs)   bands (ev):

    -5.6658   4.3106   5.6203   5.6203

          k = 0.3750-0.3750 0.6250 (   773 PWs)   bands (ev):

    -3.5183  -0.7287   3.6653   4.3775

          k =-0.3750 0.3750-0.1250 (   781 PWs)   bands (ev):

    -4.6469   1.3317   3.6483   5.1423

          k = 0.1250-0.1250 0.3750 (   781 PWs)   bands (ev):

    -5.1417   2.6983   4.6209   4.6803

          k = 0.3750-0.3750 0.6250 (   773 PWs)   bands (ev):

    -3.5183  -0.7287   3.6653   4.3775

          k = 0.8750-0.8750 1.1250 (   779 PWs)   bands (ev):

    -5.6658   4.3106   5.6203   5.6203

          k = 0.1250-0.1250 0.3750 (   781 PWs)   bands (ev):

    -5.1417   2.6983   4.6209   4.6803

          k = 0.6250-0.6250 0.8750 (   781 PWs)   bands (ev):

    -4.6469   1.3317   3.6483   5.1423

          k =-0.1250 0.6250 0.1250 (   775 PWs)   bands (ev):

    -4.1180   0.9908   3.3042   3.7532

          k = 0.3750 0.1250 0.6250 (   775 PWs)   bands (ev):

    -3.7064   0.1283   2.6658   4.0260

          k = 0.6250-0.1250 0.8750 (   762 PWs)   bands (ev):

    -2.4925  -0.9590   1.9635   3.0308

          k = 1.1250-0.6250 1.3750 (   781 PWs)   bands (ev):

    -4.6469   1.3317   3.6483   5.1423

          k = 0.3750 0.1250 0.6250 (   775 PWs)   bands (ev):

    -3.7064   0.1283   2.6658   4.0260

          k = 0.8750-0.3750 1.1250 (   775 PWs)   bands (ev):

    -4.1180   0.9908   3.3042   3.7532

          k =-0.1250-0.8750 0.1250 (   766 PWs)   bands (ev):

    -2.6570  -0.8634   2.5677   3.2894

          k = 0.3750-1.3750 0.6250 (   773 PWs)   bands (ev):

    -3.5183  -0.7287   3.6653   4.3775

          k =-0.3750 0.3750 0.3750 (   769 PWs)   bands (ev):

    -4.2180   0.0541   4.8378   4.8378

          k = 0.1250-0.1250 0.8750 (   766 PWs)   bands (ev):

    -2.6570  -0.8634   2.5677   3.2894

          k = 0.3750-0.3750 1.1250 (   773 PWs)   bands (ev):

    -3.0261  -0.6524   2.0184   4.0633

          k = 0.8750-0.8750 1.6250 (   775 PWs)   bands (ev):

    -4.1180   0.9908   3.3042   3.7532

          k = 0.1250-0.1250 0.1250 (   779 PWs)   bands (ev):

    -5.6658   4.3106   5.6203   5.6203

          k = 0.6250-0.6250 0.6250 (   769 PWs)   bands (ev):

    -4.2180   0.0541   4.8378   4.8378

          k =-0.3750-0.3750-0.1250 (   781 PWs)   bands (ev):

    -4.6469   1.3317   3.6483   5.1423

          k = 0.1250-0.8750 0.3750 (   762 PWs)   bands (ev):

    -2.4925  -0.9590   1.9635   3.0308

          k =-0.1250-0.3750 0.3750 (   781 PWs)   bands (ev):

    -4.6469   1.3317   3.6483   5.1423

          k = 0.3750-0.8750 0.8750 (   775 PWs)   bands (ev):

    -4.1180   0.9908   3.3042   3.7532

          k = 0.3750 0.3750 0.6250 (   773 PWs)   bands (ev):

    -3.5183  -0.7287   3.6653   4.3775

          k = 0.8750-0.1250 1.1250 (   766 PWs)   bands (ev):

    -2.6570  -0.8634   2.5677   3.2894

          k = 0.6250 0.3750-0.3750 (   773 PWs)   bands (ev):

    -3.5183  -0.7287   3.6653   4.3775

          k = 1.1250-0.1250 0.1250 (   766 PWs)   bands (ev):

    -2.6570  -0.8634   2.5677   3.2894

          k = 0.1250 0.1250 0.3750 (   781 PWs)   bands (ev):

    -5.1417   2.6983   4.6209   4.6803

          k = 0.6250-0.3750 0.8750 (   775 PWs)   bands (ev):

    -3.7064   0.1283   2.6658   4.0260

          k = 0.3750 0.1250-0.1250 (   781 PWs)   bands (ev):

    -5.1417   2.6983   4.6209   4.6803

          k = 0.8750-0.3750 0.3750 (   773 PWs)   bands (ev):

    -3.0261  -0.6524   2.0184   4.0633

          k =-0.1250-0.6250-0.1250 (   775 PWs)   bands (ev):

    -4.1180   0.9908   3.3042   3.7532

          k = 0.3750-1.1250 0.3750 (   773 PWs)   bands (ev):

    -3.0261  -0.6524   2.0184   4.0633

          k = 0.1250-0.6250 0.1250 (   775 PWs)   bands (ev):

    -4.1180   0.9908   3.3042   3.7532

          k = 0.6250-1.1250 0.6250 (   781 PWs)   bands (ev):

    -4.6469   1.3317   3.6483   5.1423

          k = 0.6250 0.1250 0.8750 (   762 PWs)   bands (ev):

    -2.4925  -0.9590   1.9635   3.0308

          k = 1.1250-0.3750 1.3750 (   775 PWs)   bands (ev):

    -3.7064   0.1283   2.6658   4.0260

          k =-0.8750 0.1250 0.6250 (   762 PWs)   bands (ev):

    -2.4925  -0.9590   1.9635   3.0308

          k =-0.3750-0.3750 1.1250 (   773 PWs)   bands (ev):

    -3.0261  -0.6524   2.0184   4.0633

          k = 0.8750 0.1250-0.6250 (   762 PWs)   bands (ev):

    -2.4925  -0.9590   1.9635   3.0308

          k = 1.3750-0.3750-0.1250 (   775 PWs)   bands (ev):

    -3.7064   0.1283   2.6658   4.0260

          k = 0.3750-0.1250 0.6250 (   775 PWs)   bands (ev):

    -3.7064   0.1283   2.6658   4.0260

          k = 0.8750-0.6250 1.1250 (   781 PWs)   bands (ev):

    -5.1417   2.6983   4.6209   4.6803

          k =-0.6250-0.1250 0.3750 (   775 PWs)   bands (ev):

    -3.7064   0.1283   2.6658   4.0260

          k =-0.1250-0.6250 0.8750 (   762 PWs)   bands (ev):

    -2.4925  -0.9590   1.9635   3.0308

          k = 0.6250-0.1250-0.3750 (   775 PWs)   bands (ev):

    -3.7064   0.1283   2.6658   4.0260

          k = 1.1250-0.6250 0.1250 (   762 PWs)   bands (ev):

    -2.4925  -0.9590   1.9635   3.0308

          k =-0.1250 0.8750-0.1250 (   766 PWs)   bands (ev):

    -2.6570  -0.8634   2.5677   3.2894

          k = 0.3750 0.3750 0.3750 (   769 PWs)   bands (ev):

    -4.2180   0.0541   4.8378   4.8378

          k = 0.1250 0.8750 0.1250 (   766 PWs)   bands (ev):

    -2.6570  -0.8634   2.5677   3.2894

          k = 0.6250 0.3750 0.6250 (   773 PWs)   bands (ev):

    -3.5183  -0.7287   3.6653   4.3775

          k = 0.3750-0.3750 0.3750 (   769 PWs)   bands (ev):

    -4.2180   0.0541   4.8378   4.8378

          k = 0.8750-0.8750 0.8750 (   779 PWs)   bands (ev):

    -5.6658   4.3106   5.6203   5.6203

          k = 0.3750 0.3750 1.1250 (   773 PWs)   bands (ev):

    -3.0261  -0.6524   2.0184   4.0633

          k = 0.8750-0.1250 1.6250 (   762 PWs)   bands (ev):

    -2.4925  -0.9590   1.9635   3.0308

          k = 1.1250 0.3750-0.3750 (   773 PWs)   bands (ev):

    -3.0261  -0.6524   2.0184   4.0633

          k = 1.6250-0.1250 0.1250 (   781 PWs)   bands (ev):

    -5.1417   2.6983   4.6209   4.6803

     highest occupied level (ev):     5.6203

     Writing output data file silicon.10.360.save

                                                                                

     bravais-lattice index     =            2
     lattice parameter (alat)  =      10.3600  a.u.
     unit-cell volume          =     277.9837 (a.u.)^3
     number of atoms/cell      =            2
     number of atomic types    =            1
     kinetic-energy cut-off    =      30.0000  Ry
     charge density cut-off    =     240.0000  Ry
     convergence threshold     =      1.0E-12
     beta                      =       0.7000
     number of iterations used =            4
     Exchange-correlation      = SLA  PW   PBE  PBE ( 1  4  3  4 0 0)


     celldm(1)=   10.36000  celldm(2)=    0.00000  celldm(3)=    0.00000
     celldm(4)=    0.00000  celldm(5)=    0.00000  celldm(6)=    0.00000

     crystal axes: (cart. coord. in units of alat)
               a(1) = ( -0.5000  0.0000  0.5000 )  
               a(2) = (  0.0000  0.5000  0.5000 )  
               a(3) = ( -0.5000  0.5000  0.0000 )  

     reciprocal axes: (cart. coord. in units 2 pi/alat)
               b(1) = ( -1.0000 -1.0000  1.0000 )  
               b(2) = (  1.0000  1.0000  1.0000 )  
               b(3) = ( -1.0000  1.0000 -1.0000 )  


     Atoms inside the unit cell: 

     Cartesian axes

     site n.  atom      mass           positions (alat units)
        1     Si  28.0860   tau(    1) = (    0.00000    0.00000    0.00000  )
        2     Si  28.0860   tau(    2) = (    0.25000    0.25000    0.25000  )

     Computing dynamical matrix for 
                    q = (   0.5000000  -0.5000000   0.5000000 )

     13 Sym.Ops. (with q -> -q+G )


     G cutoff =  652.4857  (   4369 G-vectors)     FFT grid: ( 40, 40, 40)
     G cutoff =  326.2429  (   1546 G-vectors)  smooth grid: ( 25, 25, 25)
     number of k points=    60

     PseudoPot. # 1 for Si read from file:
     /home/s1333534/quantum_espresso/qe-6.1/pseudo/si_pbe_v1.uspp.F.UPF.txt
     MD5 check sum: a056efeee980c13900f22a371efd63c1
     Pseudo is Ultrasoft + core correction, Zval =  4.0
     Generated by new atomic code, or converted to UPF format
     Using radial grid of  899 points,  6 beta functions with: 
                l(1) =   0
                l(2) =   0
                l(3) =   1
                l(4) =   1
                l(5) =   2
                l(6) =   2
     Q(r) pseudized with  8 coefficients,  rinner =    0.900   0.900   0.900
                                                       0.900   0.900


     Atomic displacements:
     There are   4 irreducible representations

     Representation     1      1 modes -  To be done

     Representation     2      1 modes -  To be done

     Representation     3      2 modes -  To be done

     Representation     4      2 modes -  To be done



     Alpha used in Ewald sum =   2.5000
     PHONON       :    29.64s CPU        39.13s WALL



     Representation #  1 mode #   1

     Self-consistent Calculation

      iter #   1 total cpu time :    39.4 secs   av.it.:   5.0
      thresh= 1.000E-02 alpha_mix =  0.700 |ddv_scf|^2 =  3.025E-06

      iter #   2 total cpu time :    39.9 secs   av.it.:  10.1
      thresh= 1.739E-04 alpha_mix =  0.700 |ddv_scf|^2 =  2.795E-06

      iter #   3 total cpu time :    40.3 secs   av.it.:   9.4
      thresh= 1.672E-04 alpha_mix =  0.700 |ddv_scf|^2 =  1.653E-09

      iter #   4 total cpu time :    40.8 secs   av.it.:   9.6
      thresh= 4.066E-06 alpha_mix =  0.700 |ddv_scf|^2 =  1.570E-11

      iter #   5 total cpu time :    41.1 secs   av.it.:   9.5
      thresh= 3.963E-07 alpha_mix =  0.700 |ddv_scf|^2 =  2.272E-13

     End of self-consistent calculation

     Convergence has been achieved 


     Representation #  2 mode #   2

     Self-consistent Calculation

      iter #   1 total cpu time :    41.6 secs   av.it.:   6.0
      thresh= 1.000E-02 alpha_mix =  0.700 |ddv_scf|^2 =  4.299E-05

      iter #   2 total cpu time :    42.0 secs   av.it.:  10.0
      thresh= 6.557E-04 alpha_mix =  0.700 |ddv_scf|^2 =  1.341E-04

      iter #   3 total cpu time :    42.4 secs   av.it.:   8.9
      thresh= 1.158E-03 alpha_mix =  0.700 |ddv_scf|^2 =  1.017E-08

      iter #   4 total cpu time :    42.8 secs   av.it.:  10.1
      thresh= 1.008E-05 alpha_mix =  0.700 |ddv_scf|^2 =  5.139E-10

      iter #   5 total cpu time :    43.3 secs   av.it.:  10.4
      thresh= 2.267E-06 alpha_mix =  0.700 |ddv_scf|^2 =  1.514E-11

      iter #   6 total cpu time :    43.7 secs   av.it.:   9.9
      thresh= 3.891E-07 alpha_mix =  0.700 |ddv_scf|^2 =  1.123E-13

     End of self-consistent calculation

     Convergence has been achieved 


     Representation #  3 modes #   3  4

     Self-consistent Calculation

      iter #   1 total cpu time :    44.3 secs   av.it.:   5.1
      thresh= 1.000E-02 alpha_mix =  0.700 |ddv_scf|^2 =  1.952E-08

      iter #   2 total cpu time :    45.2 secs   av.it.:  11.1
      thresh= 1.397E-05 alpha_mix =  0.700 |ddv_scf|^2 =  1.148E-09

      iter #   3 total cpu time :    46.0 secs   av.it.:  10.9
      thresh= 3.388E-06 alpha_mix =  0.700 |ddv_scf|^2 =  3.889E-11

      iter #   4 total cpu time :    46.8 secs   av.it.:  10.8
      thresh= 6.236E-07 alpha_mix =  0.700 |ddv_scf|^2 =  3.174E-13

     End of self-consistent calculation

     Convergence has been achieved 


     Representation #  4 modes #   5  6

     Self-consistent Calculation

      iter #   1 total cpu time :    47.9 secs   av.it.:   5.1
      thresh= 1.000E-02 alpha_mix =  0.700 |ddv_scf|^2 =  1.002E-07

      iter #   2 total cpu time :    48.9 secs   av.it.:  11.2
      thresh= 3.165E-05 alpha_mix =  0.700 |ddv_scf|^2 =  8.051E-09

      iter #   3 total cpu time :    50.0 secs   av.it.:  11.1
      thresh= 8.973E-06 alpha_mix =  0.700 |ddv_scf|^2 =  2.110E-10

      iter #   4 total cpu time :    50.7 secs   av.it.:  10.1
      thresh= 1.453E-06 alpha_mix =  0.700 |ddv_scf|^2 =  3.866E-13

     End of self-consistent calculation

     Convergence has been achieved 

     Number of q in the star =    4
     List of q in the star:
          1   0.500000000  -0.500000000   0.500000000
          2   0.500000000   0.500000000   0.500000000
          3  -0.500000000   0.500000000   0.500000000
          4   0.500000000   0.500000000  -0.500000000

     Diagonalizing the dynamical matrix

     q = (    0.500000000  -0.500000000   0.500000000 ) 

 **************************************************************************
     freq (    1) =       3.343546 [THz] =     111.528681 [cm-1]
     freq (    2) =       3.343546 [THz] =     111.528681 [cm-1]
     freq (    3) =      11.066648 [THz] =     369.143658 [cm-1]
     freq (    4) =      11.817902 [THz] =     394.202771 [cm-1]
     freq (    5) =      14.147437 [THz] =     471.907700 [cm-1]
     freq (    6) =      14.147437 [THz] =     471.907700 [cm-1]
 **************************************************************************

     Calculation of q =    0.0000000   0.5000000   0.0000000

   Info: using nr1, nr2, nr3 values from input

   Info: using nr1, nr2, nr3 values from input

     Parallelization info
     --------------------
     sticks:   dense  smooth     PW     G-vecs:    dense   smooth      PW
     Min         222     109     40                 4369     1545     322
     Max         223     110     42                 4370     1547     323
     Sum         889     439    163                17477     6183    1291



     bravais-lattice index     =            2
     lattice parameter (alat)  =      10.3600  a.u.
     unit-cell volume          =     277.9837 (a.u.)^3
     number of atoms/cell      =            2
     number of atomic types    =            1
     number of electrons       =         8.00
     number of Kohn-Sham states=            4
     kinetic-energy cutoff     =      30.0000  Ry
     charge density cutoff     =     240.0000  Ry
     Exchange-correlation      = SLA  PW   PBE  PBE ( 1  4  3  4 0 0)

     celldm(1)=  10.360000  celldm(2)=   0.000000  celldm(3)=   0.000000
     celldm(4)=   0.000000  celldm(5)=   0.000000  celldm(6)=   0.000000

     crystal axes: (cart. coord. in units of alat)
               a(1) = (  -0.500000   0.000000   0.500000 )  
               a(2) = (   0.000000   0.500000   0.500000 )  
               a(3) = (  -0.500000   0.500000   0.000000 )  

     reciprocal axes: (cart. coord. in units 2 pi/alat)
               b(1) = ( -1.000000 -1.000000  1.000000 )  
               b(2) = (  1.000000  1.000000  1.000000 )  
               b(3) = ( -1.000000  1.000000 -1.000000 )  


     PseudoPot. # 1 for Si read from file:
     /home/s1333534/quantum_espresso/qe-6.1/pseudo/si_pbe_v1.uspp.F.UPF.txt
     MD5 check sum: a056efeee980c13900f22a371efd63c1
     Pseudo is Ultrasoft + core correction, Zval =  4.0
     Generated by new atomic code, or converted to UPF format
     Using radial grid of  899 points,  6 beta functions with: 
                l(1) =   0
                l(2) =   0
                l(3) =   1
                l(4) =   1
                l(5) =   2
                l(6) =   2
     Q(r) pseudized with  8 coefficients,  rinner =    0.900   0.900   0.900
                                                       0.900   0.900

     atomic species   valence    mass     pseudopotential
        Si             4.00    28.08600     Si( 1.00)

     48 Sym. Ops., with inversion, found



   Cartesian axes

     site n.     atom                  positions (alat units)
         1           Si  tau(   1) = (   0.0000000   0.0000000   0.0000000  )
         2           Si  tau(   2) = (   0.2500000   0.2500000   0.2500000  )

     number of k points=    80
                       cart. coord. in units 2pi/alat
        k(    1) = (  -0.1250000   0.1250000   0.1250000), wk =   0.0312500
        k(    2) = (  -0.1250000   0.6250000   0.1250000), wk =   0.0000000
        k(    3) = (  -0.3750000   0.3750000  -0.1250000), wk =   0.0625000
        k(    4) = (  -0.3750000   0.8750000  -0.1250000), wk =   0.0000000
        k(    5) = (   0.3750000  -0.3750000   0.6250000), wk =   0.0625000
        k(    6) = (   0.3750000   0.1250000   0.6250000), wk =   0.0000000
        k(    7) = (   0.1250000  -0.1250000   0.3750000), wk =   0.0625000
        k(    8) = (   0.1250000   0.3750000   0.3750000), wk =   0.0000000
        k(    9) = (  -0.1250000   0.6250000   0.1250000), wk =   0.0312500
        k(   10) = (  -0.1250000   1.1250000   0.1250000), wk =   0.0000000
        k(   11) = (   0.6250000  -0.1250000   0.8750000), wk =   0.0625000
        k(   12) = (   0.6250000   0.3750000   0.8750000), wk =   0.0000000
        k(   13) = (   0.3750000   0.1250000   0.6250000), wk =   0.0625000
        k(   14) = (   0.3750000   0.6250000   0.6250000), wk =   0.0000000
        k(   15) = (  -0.1250000  -0.8750000   0.1250000), wk =   0.0312500
        k(   16) = (  -0.1250000  -0.3750000   0.1250000), wk =   0.0000000
        k(   17) = (  -0.3750000   0.3750000   0.3750000), wk =   0.0312500
        k(   18) = (  -0.3750000   0.8750000   0.3750000), wk =   0.0000000
        k(   19) = (   0.3750000  -0.3750000   1.1250000), wk =   0.0625000
        k(   20) = (   0.3750000   0.1250000   1.1250000), wk =   0.0000000
        k(   21) = (  -0.1250000  -0.1250000   0.1250000), wk =   0.0312500
        k(   22) = (  -0.1250000   0.3750000   0.1250000), wk =   0.0000000
        k(   23) = (   0.1250000  -0.3750000   0.3750000), wk =   0.0625000
        k(   24) = (   0.1250000   0.1250000   0.3750000), wk =   0.0000000
        k(   25) = (   0.3750000  -0.1250000   0.3750000), wk =   0.0312500
        k(   26) = (   0.3750000   0.3750000   0.3750000), wk =   0.0000000
        k(   27) = (   0.3750000   0.1250000   0.3750000), wk =   0.0312500
        k(   28) = (   0.3750000   0.6250000   0.3750000), wk =   0.0000000
        k(   29) = (  -0.6250000   0.3750000  -0.3750000), wk =   0.0625000
        k(   30) = (  -0.6250000   0.8750000  -0.3750000), wk =   0.0000000
        k(   31) = (  -0.3750000   0.6250000  -0.3750000), wk =   0.0312500
        k(   32) = (  -0.3750000   1.1250000  -0.3750000), wk =   0.0000000
        k(   33) = (  -0.3750000  -0.6250000  -0.3750000), wk =   0.0312500
        k(   34) = (  -0.3750000  -0.1250000  -0.3750000), wk =   0.0000000
        k(   35) = (  -0.3750000   0.1250000  -0.1250000), wk =   0.0625000
        k(   36) = (  -0.3750000   0.6250000  -0.1250000), wk =   0.0000000
        k(   37) = (  -0.1250000   0.3750000  -0.1250000), wk =   0.0312500
        k(   38) = (  -0.1250000   0.8750000  -0.1250000), wk =   0.0000000
        k(   39) = (  -0.1250000  -0.3750000  -0.1250000), wk =   0.0312500
        k(   40) = (  -0.1250000   0.1250000  -0.1250000), wk =   0.0000000
        k(   41) = (  -0.1250000  -0.6250000   0.1250000), wk =   0.0312500
        k(   42) = (  -0.1250000  -0.1250000   0.1250000), wk =   0.0000000
        k(   43) = (   0.6250000  -0.1250000  -0.1250000), wk =   0.0625000
        k(   44) = (   0.6250000   0.3750000  -0.1250000), wk =   0.0000000
        k(   45) = (   0.6250000   0.1250000   0.1250000), wk =   0.0625000
        k(   46) = (   0.6250000   0.6250000   0.1250000), wk =   0.0000000
        k(   47) = (  -0.8750000   0.1250000  -0.6250000), wk =   0.0625000
        k(   48) = (  -0.8750000   0.6250000  -0.6250000), wk =   0.0000000
        k(   49) = (  -0.1250000   0.6250000  -0.8750000), wk =   0.0625000
        k(   50) = (  -0.1250000   1.1250000  -0.8750000), wk =   0.0000000
        k(   51) = (  -0.1250000   0.8750000  -0.6250000), wk =   0.0625000
        k(   52) = (  -0.1250000   1.3750000  -0.6250000), wk =   0.0000000
        k(   53) = (  -0.1250000  -0.8750000  -0.6250000), wk =   0.0625000
        k(   54) = (  -0.1250000  -0.3750000  -0.6250000), wk =   0.0000000
        k(   55) = (   0.8750000  -0.6250000   0.1250000), wk =   0.0625000
        k(   56) = (   0.8750000  -0.1250000   0.1250000), wk =   0.0000000
        k(   57) = (  -0.6250000  -0.1250000  -0.3750000), wk =   0.0625000
        k(   58) = (  -0.6250000   0.3750000  -0.3750000), wk =   0.0000000
        k(   59) = (   0.1250000   0.3750000  -0.6250000), wk =   0.0625000
        k(   60) = (   0.1250000   0.8750000  -0.6250000), wk =   0.0000000
        k(   61) = (   0.1250000   0.6250000  -0.3750000), wk =   0.0625000
        k(   62) = (   0.1250000   1.1250000  -0.3750000), wk =   0.0000000
        k(   63) = (   0.1250000  -0.6250000  -0.3750000), wk =   0.0625000
        k(   64) = (   0.1250000  -0.1250000  -0.3750000), wk =   0.0000000
        k(   65) = (   0.6250000  -0.3750000  -0.1250000), wk =   0.0625000
        k(   66) = (   0.6250000   0.1250000  -0.1250000), wk =   0.0000000
        k(   67) = (  -0.1250000   0.8750000   0.1250000), wk =   0.0312500
        k(   68) = (  -0.1250000   1.3750000   0.1250000), wk =   0.0000000
        k(   69) = (  -0.8750000  -0.1250000  -0.1250000), wk =   0.0625000
        k(   70) = (  -0.8750000   0.3750000  -0.1250000), wk =   0.0000000
        k(   71) = (  -0.8750000   0.1250000   0.1250000), wk =   0.0625000
        k(   72) = (  -0.8750000   0.6250000   0.1250000), wk =   0.0000000
        k(   73) = (  -0.3750000  -0.3750000   0.3750000), wk =   0.0312500
        k(   74) = (  -0.3750000   0.1250000   0.3750000), wk =   0.0000000
        k(   75) = (  -1.1250000   0.3750000  -0.3750000), wk =   0.0625000
        k(   76) = (  -1.1250000   0.8750000  -0.3750000), wk =   0.0000000
        k(   77) = (  -0.3750000   1.1250000  -0.3750000), wk =   0.0312500
        k(   78) = (  -0.3750000   1.6250000  -0.3750000), wk =   0.0000000
        k(   79) = (  -0.3750000  -1.1250000  -0.3750000), wk =   0.0312500
        k(   80) = (  -0.3750000  -0.6250000  -0.3750000), wk =   0.0000000

     Dense  grid:    17477 G-vectors     FFT dimensions: (  40,  40,  40)

     Smooth grid:     6183 G-vectors     FFT dimensions: (  25,  25,  25)

     Estimated max dynamical RAM per process >       1.79MB

     Estimated total allocated dynamical RAM >       7.17MB

     The potential is recalculated from file :
     ./_ph0/silicon.10.360.save/charge-density.dat

     Starting wfc are    8 atomic wfcs

     Band Structure Calculation
     Davidson diagonalization with overlap

     ethr =  1.25E-10,  avg # of iterations = 12.2

     total cpu time spent up to now is        3.6 secs

     End of band structure calculation

          k =-0.1250 0.1250 0.1250 (   779 PWs)   bands (ev):

    -5.6658   4.3106   5.6203   5.6203

          k =-0.1250 0.6250 0.1250 (   775 PWs)   bands (ev):

    -4.1180   0.9908   3.3042   3.7532

          k =-0.3750 0.3750-0.1250 (   781 PWs)   bands (ev):

    -4.6469   1.3317   3.6483   5.1423

          k =-0.3750 0.8750-0.1250 (   762 PWs)   bands (ev):

    -2.4925  -0.9590   1.9635   3.0308

          k = 0.3750-0.3750 0.6250 (   773 PWs)   bands (ev):

    -3.5183  -0.7287   3.6653   4.3775

          k = 0.3750 0.1250 0.6250 (   775 PWs)   bands (ev):

    -3.7064   0.1283   2.6658   4.0260

          k = 0.1250-0.1250 0.3750 (   781 PWs)   bands (ev):

    -5.1417   2.6983   4.6209   4.6803

          k = 0.1250 0.3750 0.3750 (   781 PWs)   bands (ev):

    -4.6469   1.3317   3.6483   5.1423

          k =-0.1250 0.6250 0.1250 (   775 PWs)   bands (ev):

    -4.1180   0.9908   3.3042   3.7532

          k =-0.1250 1.1250 0.1250 (   766 PWs)   bands (ev):

    -2.6570  -0.8634   2.5677   3.2894

          k = 0.6250-0.1250 0.8750 (   762 PWs)   bands (ev):

    -2.4925  -0.9590   1.9635   3.0308

          k = 0.6250 0.3750 0.8750 (   775 PWs)   bands (ev):

    -3.7064   0.1283   2.6658   4.0260

          k = 0.3750 0.1250 0.6250 (   775 PWs)   bands (ev):

    -3.7064   0.1283   2.6658   4.0260

          k = 0.3750 0.6250 0.6250 (   773 PWs)   bands (ev):

    -3.5183  -0.7287   3.6653   4.3775

          k =-0.1250-0.8750 0.1250 (   766 PWs)   bands (ev):

    -2.6570  -0.8634   2.5677   3.2894

          k =-0.1250-0.3750 0.1250 (   781 PWs)   bands (ev):

    -5.1417   2.6983   4.6209   4.6803

          k =-0.3750 0.3750 0.3750 (   769 PWs)   bands (ev):

    -4.2180   0.0541   4.8378   4.8378

          k =-0.3750 0.8750 0.3750 (   773 PWs)   bands (ev):

    -3.0261  -0.6524   2.0184   4.0633

          k = 0.3750-0.3750 1.1250 (   773 PWs)   bands (ev):

    -3.0261  -0.6524   2.0184   4.0633

          k = 0.3750 0.1250 1.1250 (   762 PWs)   bands (ev):

    -2.4925  -0.9590   1.9635   3.0308

          k =-0.1250-0.1250 0.1250 (   779 PWs)   bands (ev):

    -5.6658   4.3106   5.6203   5.6203

          k =-0.1250 0.3750 0.1250 (   781 PWs)   bands (ev):

    -5.1417   2.6983   4.6209   4.6803

          k = 0.1250-0.3750 0.3750 (   781 PWs)   bands (ev):

    -4.6469   1.3317   3.6483   5.1423

          k = 0.1250 0.1250 0.3750 (   781 PWs)   bands (ev):

    -5.1417   2.6983   4.6209   4.6803

          k = 0.3750-0.1250 0.3750 (   781 PWs)   bands (ev):

    -4.6469   1.3317   3.6483   5.1423

          k = 0.3750 0.3750 0.3750 (   769 PWs)   bands (ev):

    -4.2180   0.0541   4.8378   4.8378

          k = 0.3750 0.1250 0.3750 (   781 PWs)   bands (ev):

    -4.6469   1.3317   3.6483   5.1423

          k = 0.3750 0.6250 0.3750 (   773 PWs)   bands (ev):

    -3.5183  -0.7287   3.6653   4.3775

          k =-0.6250 0.3750-0.3750 (   773 PWs)   bands (ev):

    -3.5183  -0.7287   3.6653   4.3775

          k =-0.6250 0.8750-0.3750 (   775 PWs)   bands (ev):

    -3.7064   0.1283   2.6658   4.0260

          k =-0.3750 0.6250-0.3750 (   773 PWs)   bands (ev):

    -3.5183  -0.7287   3.6653   4.3775

          k =-0.3750 1.1250-0.3750 (   773 PWs)   bands (ev):

    -3.0261  -0.6524   2.0184   4.0633

          k =-0.3750-0.6250-0.3750 (   773 PWs)   bands (ev):

    -3.5183  -0.7287   3.6653   4.3775

          k =-0.3750-0.1250-0.3750 (   781 PWs)   bands (ev):

    -4.6469   1.3317   3.6483   5.1423

          k =-0.3750 0.1250-0.1250 (   781 PWs)   bands (ev):

    -5.1417   2.6983   4.6209   4.6803

          k =-0.3750 0.6250-0.1250 (   775 PWs)   bands (ev):

    -3.7064   0.1283   2.6658   4.0260

          k =-0.1250 0.3750-0.1250 (   781 PWs)   bands (ev):

    -5.1417   2.6983   4.6209   4.6803

          k =-0.1250 0.8750-0.1250 (   766 PWs)   bands (ev):

    -2.6570  -0.8634   2.5677   3.2894

          k =-0.1250-0.3750-0.1250 (   781 PWs)   bands (ev):

    -5.1417   2.6983   4.6209   4.6803

          k =-0.1250 0.1250-0.1250 (   779 PWs)   bands (ev):

    -5.6658   4.3106   5.6203   5.6203

          k =-0.1250-0.6250 0.1250 (   775 PWs)   bands (ev):

    -4.1180   0.9908   3.3042   3.7532

          k =-0.1250-0.1250 0.1250 (   779 PWs)   bands (ev):

    -5.6658   4.3106   5.6203   5.6203

          k = 0.6250-0.1250-0.1250 (   775 PWs)   bands (ev):

    -4.1180   0.9908   3.3042   3.7532

          k = 0.6250 0.3750-0.1250 (   775 PWs)   bands (ev):

    -3.7064   0.1283   2.6658   4.0260

          k = 0.6250 0.1250 0.1250 (   775 PWs)   bands (ev):

    -4.1180   0.9908   3.3042   3.7532

          k = 0.6250 0.6250 0.1250 (   773 PWs)   bands (ev):

    -3.0261  -0.6524   2.0184   4.0633

          k =-0.8750 0.1250-0.6250 (   762 PWs)   bands (ev):

    -2.4925  -0.9590   1.9635   3.0308

          k =-0.8750 0.6250-0.6250 (   781 PWs)   bands (ev):

    -4.6469   1.3317   3.6483   5.1423

          k =-0.1250 0.6250-0.8750 (   762 PWs)   bands (ev):

    -2.4925  -0.9590   1.9635   3.0308

          k =-0.1250 1.1250-0.8750 (   766 PWs)   bands (ev):

    -2.6570  -0.8634   2.5677   3.2894

          k =-0.1250 0.8750-0.6250 (   762 PWs)   bands (ev):

    -2.4925  -0.9590   1.9635   3.0308

          k =-0.1250 1.3750-0.6250 (   773 PWs)   bands (ev):

    -3.0261  -0.6524   2.0184   4.0633

          k =-0.1250-0.8750-0.6250 (   762 PWs)   bands (ev):

    -2.4925  -0.9590   1.9635   3.0308

          k =-0.1250-0.3750-0.6250 (   775 PWs)   bands (ev):

    -3.7064   0.1283   2.6658   4.0260

          k = 0.8750-0.6250 0.1250 (   762 PWs)   bands (ev):

    -2.4925  -0.9590   1.9635   3.0308

          k = 0.8750-0.1250 0.1250 (   766 PWs)   bands (ev):

    -2.6570  -0.8634   2.5677   3.2894

          k =-0.6250-0.1250-0.3750 (   775 PWs)   bands (ev):

    -3.7064   0.1283   2.6658   4.0260

          k =-0.6250 0.3750-0.3750 (   773 PWs)   bands (ev):

    -3.5183  -0.7287   3.6653   4.3775

          k = 0.1250 0.3750-0.6250 (   775 PWs)   bands (ev):

    -3.7064   0.1283   2.6658   4.0260

          k = 0.1250 0.8750-0.6250 (   762 PWs)   bands (ev):

    -2.4925  -0.9590   1.9635   3.0308

          k = 0.1250 0.6250-0.3750 (   775 PWs)   bands (ev):

    -3.7064   0.1283   2.6658   4.0260

          k = 0.1250 1.1250-0.3750 (   762 PWs)   bands (ev):

    -2.4925  -0.9590   1.9635   3.0308

          k = 0.1250-0.6250-0.3750 (   775 PWs)   bands (ev):

    -3.7064   0.1283   2.6658   4.0260

          k = 0.1250-0.1250-0.3750 (   781 PWs)   bands (ev):

    -5.1417   2.6983   4.6209   4.6803

          k = 0.6250-0.3750-0.1250 (   775 PWs)   bands (ev):

    -3.7064   0.1283   2.6658   4.0260

          k = 0.6250 0.1250-0.1250 (   775 PWs)   bands (ev):

    -4.1180   0.9908   3.3042   3.7532

          k =-0.1250 0.8750 0.1250 (   766 PWs)   bands (ev):

    -2.6570  -0.8634   2.5677   3.2894

          k =-0.1250 1.3750 0.1250 (   775 PWs)   bands (ev):

    -4.1180   0.9908   3.3042   3.7532

          k =-0.8750-0.1250-0.1250 (   766 PWs)   bands (ev):

    -2.6570  -0.8634   2.5677   3.2894

          k =-0.8750 0.3750-0.1250 (   762 PWs)   bands (ev):

    -2.4925  -0.9590   1.9635   3.0308

          k =-0.8750 0.1250 0.1250 (   766 PWs)   bands (ev):

    -2.6570  -0.8634   2.5677   3.2894

          k =-0.8750 0.6250 0.1250 (   762 PWs)   bands (ev):

    -2.4925  -0.9590   1.9635   3.0308

          k =-0.3750-0.3750 0.3750 (   769 PWs)   bands (ev):

    -4.2180   0.0541   4.8378   4.8378

          k =-0.3750 0.1250 0.3750 (   781 PWs)   bands (ev):

    -4.6469   1.3317   3.6483   5.1423

          k =-1.1250 0.3750-0.3750 (   773 PWs)   bands (ev):

    -3.0261  -0.6524   2.0184   4.0633

          k =-1.1250 0.8750-0.3750 (   775 PWs)   bands (ev):

    -4.1180   0.9908   3.3042   3.7532

          k =-0.3750 1.1250-0.3750 (   773 PWs)   bands (ev):

    -3.0261  -0.6524   2.0184   4.0633

          k =-0.3750 1.6250-0.3750 (   769 PWs)   bands (ev):

    -4.2180   0.0541   4.8378   4.8378

          k =-0.3750-1.1250-0.3750 (   773 PWs)   bands (ev):

    -3.0261  -0.6524   2.0184   4.0633

          k =-0.3750-0.6250-0.3750 (   773 PWs)   bands (ev):

    -3.5183  -0.7287   3.6653   4.3775

     highest occupied level (ev):     5.6203

     Writing output data file silicon.10.360.save

                                                                                

     bravais-lattice index     =            2
     lattice parameter (alat)  =      10.3600  a.u.
     unit-cell volume          =     277.9837 (a.u.)^3
     number of atoms/cell      =            2
     number of atomic types    =            1
     kinetic-energy cut-off    =      30.0000  Ry
     charge density cut-off    =     240.0000  Ry
     convergence threshold     =      1.0E-12
     beta                      =       0.7000
     number of iterations used =            4
     Exchange-correlation      = SLA  PW   PBE  PBE ( 1  4  3  4 0 0)


     celldm(1)=   10.36000  celldm(2)=    0.00000  celldm(3)=    0.00000
     celldm(4)=    0.00000  celldm(5)=    0.00000  celldm(6)=    0.00000

     crystal axes: (cart. coord. in units of alat)
               a(1) = ( -0.5000  0.0000  0.5000 )  
               a(2) = (  0.0000  0.5000  0.5000 )  
               a(3) = ( -0.5000  0.5000  0.0000 )  

     reciprocal axes: (cart. coord. in units 2 pi/alat)
               b(1) = ( -1.0000 -1.0000  1.0000 )  
               b(2) = (  1.0000  1.0000  1.0000 )  
               b(3) = ( -1.0000  1.0000 -1.0000 )  


     Atoms inside the unit cell: 

     Cartesian axes

     site n.  atom      mass           positions (alat units)
        1     Si  28.0860   tau(    1) = (    0.00000    0.00000    0.00000  )
        2     Si  28.0860   tau(    2) = (    0.25000    0.25000    0.25000  )

     Computing dynamical matrix for 
                    q = (   0.0000000   0.5000000   0.0000000 )

      8 Sym.Ops. (no q -> -q+G )


     G cutoff =  652.4857  (   4369 G-vectors)     FFT grid: ( 40, 40, 40)
     G cutoff =  326.2429  (   1545 G-vectors)  smooth grid: ( 25, 25, 25)
     number of k points=    80

     PseudoPot. # 1 for Si read from file:
     /home/s1333534/quantum_espresso/qe-6.1/pseudo/si_pbe_v1.uspp.F.UPF.txt
     MD5 check sum: a056efeee980c13900f22a371efd63c1
     Pseudo is Ultrasoft + core correction, Zval =  4.0
     Generated by new atomic code, or converted to UPF format
     Using radial grid of  899 points,  6 beta functions with: 
                l(1) =   0
                l(2) =   0
                l(3) =   1
                l(4) =   1
                l(5) =   2
                l(6) =   2
     Q(r) pseudized with  8 coefficients,  rinner =    0.900   0.900   0.900
                                                       0.900   0.900

     Mode symmetry, C_4v (4mm)  point group:


     Atomic displacements:
     There are   4 irreducible representations

     Representation     1      1 modes -A_1  G_1 D_1  To be done

     Representation     2      1 modes -B_2  G_4 D_2'  To be done

     Representation     3      2 modes -E    G_5 D_5  To be done

     Representation     4      2 modes -E    G_5 D_5  To be done



     Alpha used in Ewald sum =   2.5000
     PHONON       :    39.94s CPU        53.21s WALL



     Representation #  1 mode #   1

     Self-consistent Calculation

      iter #   1 total cpu time :    53.6 secs   av.it.:   6.2
      thresh= 1.000E-02 alpha_mix =  0.700 |ddv_scf|^2 =  3.712E-04

      iter #   2 total cpu time :    54.1 secs   av.it.:   9.5
      thresh= 1.927E-03 alpha_mix =  0.700 |ddv_scf|^2 =  4.946E-03

      iter #   3 total cpu time :    54.6 secs   av.it.:   7.5
      thresh= 7.033E-03 alpha_mix =  0.700 |ddv_scf|^2 =  7.281E-09

      iter #   4 total cpu time :    55.2 secs   av.it.:  10.3
      thresh= 8.533E-06 alpha_mix =  0.700 |ddv_scf|^2 =  7.438E-10

      iter #   5 total cpu time :    55.7 secs   av.it.:   9.8
      thresh= 2.727E-06 alpha_mix =  0.700 |ddv_scf|^2 =  8.005E-11

      iter #   6 total cpu time :    56.2 secs   av.it.:   9.5
      thresh= 8.947E-07 alpha_mix =  0.700 |ddv_scf|^2 =  2.265E-13

     End of self-consistent calculation

     Convergence has been achieved 


     Representation #  2 mode #   2

     Self-consistent Calculation

      iter #   1 total cpu time :    56.7 secs   av.it.:   5.1
      thresh= 1.000E-02 alpha_mix =  0.700 |ddv_scf|^2 =  5.891E-07

      iter #   2 total cpu time :    57.2 secs   av.it.:  10.6
      thresh= 7.675E-05 alpha_mix =  0.700 |ddv_scf|^2 =  1.637E-07

      iter #   3 total cpu time :    57.7 secs   av.it.:  10.2
      thresh= 4.046E-05 alpha_mix =  0.700 |ddv_scf|^2 =  1.678E-09

      iter #   4 total cpu time :    58.3 secs   av.it.:  10.3
      thresh= 4.097E-06 alpha_mix =  0.700 |ddv_scf|^2 =  6.707E-11

      iter #   5 total cpu time :    58.8 secs   av.it.:  10.5
      thresh= 8.190E-07 alpha_mix =  0.700 |ddv_scf|^2 =  3.869E-13

     End of self-consistent calculation

     Convergence has been achieved 


     Representation #  3 modes #   3  4

     Self-consistent Calculation

      iter #   1 total cpu time :    59.5 secs   av.it.:   5.2
      thresh= 1.000E-02 alpha_mix =  0.700 |ddv_scf|^2 =  1.043E-07

      iter #   2 total cpu time :    60.5 secs   av.it.:  11.7
      thresh= 3.229E-05 alpha_mix =  0.700 |ddv_scf|^2 =  1.439E-08

      iter #   3 total cpu time :    61.5 secs   av.it.:  11.3
      thresh= 1.200E-05 alpha_mix =  0.700 |ddv_scf|^2 =  2.423E-10

      iter #   4 total cpu time :    62.3 secs   av.it.:  10.8
      thresh= 1.557E-06 alpha_mix =  0.700 |ddv_scf|^2 =  5.746E-13

     End of self-consistent calculation

     Convergence has been achieved 


     Representation #  4 modes #   5  6

     Self-consistent Calculation

      iter #   1 total cpu time :    63.2 secs   av.it.:   5.3
      thresh= 1.000E-02 alpha_mix =  0.700 |ddv_scf|^2 =  9.558E-08

      iter #   2 total cpu time :    64.5 secs   av.it.:  11.6
      thresh= 3.092E-05 alpha_mix =  0.700 |ddv_scf|^2 =  1.285E-08

      iter #   3 total cpu time :    65.5 secs   av.it.:  11.4
      thresh= 1.134E-05 alpha_mix =  0.700 |ddv_scf|^2 =  2.476E-10

      iter #   4 total cpu time :    66.4 secs   av.it.:  11.1
      thresh= 1.573E-06 alpha_mix =  0.700 |ddv_scf|^2 =  6.140E-13

     End of self-consistent calculation

     Convergence has been achieved 

     Number of q in the star =    6
     List of q in the star:
          1   0.000000000   0.500000000   0.000000000
          2   0.000000000  -0.500000000   0.000000000
          3   0.500000000   0.000000000   0.000000000
          4   0.000000000   0.000000000   0.500000000
          5   0.000000000   0.000000000  -0.500000000
          6  -0.500000000   0.000000000   0.000000000

     Diagonalizing the dynamical matrix

     q = (    0.000000000   0.500000000   0.000000000 ) 

 **************************************************************************
     freq (    1) =       3.787650 [THz] =     126.342415 [cm-1]
     freq (    2) =       3.787650 [THz] =     126.342415 [cm-1]
     freq (    3) =       7.002245 [THz] =     233.569761 [cm-1]
     freq (    4) =      13.686762 [THz] =     456.541237 [cm-1]
     freq (    5) =      13.686762 [THz] =     456.541237 [cm-1]
     freq (    6) =      14.347910 [THz] =     478.594753 [cm-1]
 **************************************************************************

     Mode symmetry, C_4v (4mm)  point group:

     freq (  1 -  2) =        126.3  [cm-1]   --> E    G_5 D_5       
     freq (  3 -  3) =        233.6  [cm-1]   --> A_1  G_1 D_1       
     freq (  4 -  5) =        456.5  [cm-1]   --> E    G_5 D_5       
     freq (  6 -  6) =        478.6  [cm-1]   --> B_2  G_4 D_2'      

     Calculation of q =    0.7500000  -0.2500000   0.7500000

   Info: using nr1, nr2, nr3 values from input

   Info: using nr1, nr2, nr3 values from input

     Parallelization info
     --------------------
     sticks:   dense  smooth     PW     G-vecs:    dense   smooth      PW
     Min         222     109     40                 4369     1545     362
     Max         223     110     41                 4370     1546     366
     Sum         889     439    163                17477     6183    1459



     bravais-lattice index     =            2
     lattice parameter (alat)  =      10.3600  a.u.
     unit-cell volume          =     277.9837 (a.u.)^3
     number of atoms/cell      =            2
     number of atomic types    =            1
     number of electrons       =         8.00
     number of Kohn-Sham states=            4
     kinetic-energy cutoff     =      30.0000  Ry
     charge density cutoff     =     240.0000  Ry
     Exchange-correlation      = SLA  PW   PBE  PBE ( 1  4  3  4 0 0)

     celldm(1)=  10.360000  celldm(2)=   0.000000  celldm(3)=   0.000000
     celldm(4)=   0.000000  celldm(5)=   0.000000  celldm(6)=   0.000000

     crystal axes: (cart. coord. in units of alat)
               a(1) = (  -0.500000   0.000000   0.500000 )  
               a(2) = (   0.000000   0.500000   0.500000 )  
               a(3) = (  -0.500000   0.500000   0.000000 )  

     reciprocal axes: (cart. coord. in units 2 pi/alat)
               b(1) = ( -1.000000 -1.000000  1.000000 )  
               b(2) = (  1.000000  1.000000  1.000000 )  
               b(3) = ( -1.000000  1.000000 -1.000000 )  


     PseudoPot. # 1 for Si read from file:
     /home/s1333534/quantum_espresso/qe-6.1/pseudo/si_pbe_v1.uspp.F.UPF.txt
     MD5 check sum: a056efeee980c13900f22a371efd63c1
     Pseudo is Ultrasoft + core correction, Zval =  4.0
     Generated by new atomic code, or converted to UPF format
     Using radial grid of  899 points,  6 beta functions with: 
                l(1) =   0
                l(2) =   0
                l(3) =   1
                l(4) =   1
                l(5) =   2
                l(6) =   2
     Q(r) pseudized with  8 coefficients,  rinner =    0.900   0.900   0.900
                                                       0.900   0.900

     atomic species   valence    mass     pseudopotential
        Si             4.00    28.08600     Si( 1.00)

     48 Sym. Ops., with inversion, found



   Cartesian axes

     site n.     atom                  positions (alat units)
         1           Si  tau(   1) = (   0.0000000   0.0000000   0.0000000  )
         2           Si  tau(   2) = (   0.2500000   0.2500000   0.2500000  )

     number of k points=   288

     Number of k-points >= 100: set verbosity='high' to print them.

     Dense  grid:    17477 G-vectors     FFT dimensions: (  40,  40,  40)

     Smooth grid:     6183 G-vectors     FFT dimensions: (  25,  25,  25)

     Estimated max dynamical RAM per process >       1.79MB

     Estimated total allocated dynamical RAM >       7.17MB

     The potential is recalculated from file :
     ./_ph0/silicon.10.360.save/charge-density.dat

     Starting wfc are    8 atomic wfcs

     Band Structure Calculation
     Davidson diagonalization with overlap

     ethr =  1.25E-10,  avg # of iterations = 12.1

     total cpu time spent up to now is        6.8 secs

     End of band structure calculation

     Number of k-points >= 100: set verbosity='high' to print the bands.

     highest occupied level (ev):     5.6203

     Writing output data file silicon.10.360.save

                                                                                

     bravais-lattice index     =            2
     lattice parameter (alat)  =      10.3600  a.u.
     unit-cell volume          =     277.9837 (a.u.)^3
     number of atoms/cell      =            2
     number of atomic types    =            1
     kinetic-energy cut-off    =      30.0000  Ry
     charge density cut-off    =     240.0000  Ry
     convergence threshold     =      1.0E-12
     beta                      =       0.7000
     number of iterations used =            4
     Exchange-correlation      = SLA  PW   PBE  PBE ( 1  4  3  4 0 0)


     celldm(1)=   10.36000  celldm(2)=    0.00000  celldm(3)=    0.00000
     celldm(4)=    0.00000  celldm(5)=    0.00000  celldm(6)=    0.00000

     crystal axes: (cart. coord. in units of alat)
               a(1) = ( -0.5000  0.0000  0.5000 )  
               a(2) = (  0.0000  0.5000  0.5000 )  
               a(3) = ( -0.5000  0.5000  0.0000 )  

     reciprocal axes: (cart. coord. in units 2 pi/alat)
               b(1) = ( -1.0000 -1.0000  1.0000 )  
               b(2) = (  1.0000  1.0000  1.0000 )  
               b(3) = ( -1.0000  1.0000 -1.0000 )  


     Atoms inside the unit cell: 

     Cartesian axes

     site n.  atom      mass           positions (alat units)
        1     Si  28.0860   tau(    1) = (    0.00000    0.00000    0.00000  )
        2     Si  28.0860   tau(    2) = (    0.25000    0.25000    0.25000  )

     Computing dynamical matrix for 
                    q = (   0.7500000  -0.2500000   0.7500000 )

      2 Sym.Ops. (no q -> -q+G )


     G cutoff =  652.4857  (   4369 G-vectors)     FFT grid: ( 40, 40, 40)
     G cutoff =  326.2429  (   1546 G-vectors)  smooth grid: ( 25, 25, 25)
     number of k points=   288

     PseudoPot. # 1 for Si read from file:
     /home/s1333534/quantum_espresso/qe-6.1/pseudo/si_pbe_v1.uspp.F.UPF.txt
     MD5 check sum: a056efeee980c13900f22a371efd63c1
     Pseudo is Ultrasoft + core correction, Zval =  4.0
     Generated by new atomic code, or converted to UPF format
     Using radial grid of  899 points,  6 beta functions with: 
                l(1) =   0
                l(2) =   0
                l(3) =   1
                l(4) =   1
                l(5) =   2
                l(6) =   2
     Q(r) pseudized with  8 coefficients,  rinner =    0.900   0.900   0.900
                                                       0.900   0.900

     Mode symmetry, C_s (m)     point group:


     Atomic displacements:
     There are   6 irreducible representations

     Representation     1      1 modes -A'  To be done

     Representation     2      1 modes -A'  To be done

     Representation     3      1 modes -A'  To be done

     Representation     4      1 modes -A'  To be done

     Representation     5      1 modes -A''  To be done

     Representation     6      1 modes -A''  To be done



     Alpha used in Ewald sum =   2.5000
     PHONON       :  0m54.65s CPU     1m11.96s WALL



     Representation #  1 mode #   1

     Self-consistent Calculation

      iter #   1 total cpu time :    72.9 secs   av.it.:   5.7
      thresh= 1.000E-02 alpha_mix =  0.700 |ddv_scf|^2 =  7.577E-06

      iter #   2 total cpu time :    74.3 secs   av.it.:  10.7
      thresh= 2.753E-04 alpha_mix =  0.700 |ddv_scf|^2 =  2.034E-05

      iter #   3 total cpu time :    75.6 secs   av.it.:   9.4
      thresh= 4.510E-04 alpha_mix =  0.700 |ddv_scf|^2 =  1.362E-07

      iter #   4 total cpu time :    76.9 secs   av.it.:  10.1
      thresh= 3.690E-05 alpha_mix =  0.700 |ddv_scf|^2 =  2.741E-09

      iter #   5 total cpu time :    78.2 secs   av.it.:  10.6
      thresh= 5.236E-06 alpha_mix =  0.700 |ddv_scf|^2 =  4.658E-10

      iter #   6 total cpu time :    79.7 secs   av.it.:  10.6
      thresh= 2.158E-06 alpha_mix =  0.700 |ddv_scf|^2 =  7.401E-12

      iter #   7 total cpu time :    81.0 secs   av.it.:  10.7
      thresh= 2.720E-07 alpha_mix =  0.700 |ddv_scf|^2 =  2.837E-13

     End of self-consistent calculation

     Convergence has been achieved 


     Representation #  2 mode #   2

     Self-consistent Calculation

      iter #   1 total cpu time :    82.1 secs   av.it.:   5.8
      thresh= 1.000E-02 alpha_mix =  0.700 |ddv_scf|^2 =  1.355E-05

      iter #   2 total cpu time :    83.5 secs   av.it.:  10.6
      thresh= 3.681E-04 alpha_mix =  0.700 |ddv_scf|^2 =  3.941E-05

      iter #   3 total cpu time :    84.8 secs   av.it.:   9.2
      thresh= 6.277E-04 alpha_mix =  0.700 |ddv_scf|^2 =  9.295E-08

      iter #   4 total cpu time :    86.1 secs   av.it.:  10.4
      thresh= 3.049E-05 alpha_mix =  0.700 |ddv_scf|^2 =  3.101E-09

      iter #   5 total cpu time :    87.6 secs   av.it.:  10.6
      thresh= 5.569E-06 alpha_mix =  0.700 |ddv_scf|^2 =  6.311E-10

      iter #   6 total cpu time :    88.9 secs   av.it.:  10.5
      thresh= 2.512E-06 alpha_mix =  0.700 |ddv_scf|^2 =  6.612E-12

      iter #   7 total cpu time :    90.2 secs   av.it.:  10.8
      thresh= 2.571E-07 alpha_mix =  0.700 |ddv_scf|^2 =  2.382E-13

     End of self-consistent calculation

     Convergence has been achieved 


     Representation #  3 mode #   3

     Self-consistent Calculation

      iter #   1 total cpu time :    91.3 secs   av.it.:   5.7
      thresh= 1.000E-02 alpha_mix =  0.700 |ddv_scf|^2 =  1.061E-05

      iter #   2 total cpu time :    92.7 secs   av.it.:  10.7
      thresh= 3.257E-04 alpha_mix =  0.700 |ddv_scf|^2 =  2.897E-05

      iter #   3 total cpu time :    93.9 secs   av.it.:   9.2
      thresh= 5.382E-04 alpha_mix =  0.700 |ddv_scf|^2 =  1.618E-07

      iter #   4 total cpu time :    95.3 secs   av.it.:  10.1
      thresh= 4.023E-05 alpha_mix =  0.700 |ddv_scf|^2 =  3.159E-09

      iter #   5 total cpu time :    96.7 secs   av.it.:  10.7
      thresh= 5.621E-06 alpha_mix =  0.700 |ddv_scf|^2 =  6.193E-10

      iter #   6 total cpu time :    98.1 secs   av.it.:  10.5
      thresh= 2.489E-06 alpha_mix =  0.700 |ddv_scf|^2 =  4.606E-12

      iter #   7 total cpu time :    99.4 secs   av.it.:  10.7
      thresh= 2.146E-07 alpha_mix =  0.700 |ddv_scf|^2 =  1.363E-13

     End of self-consistent calculation

     Convergence has been achieved 


     Representation #  4 mode #   4

     Self-consistent Calculation

      iter #   1 total cpu time :   100.5 secs   av.it.:   5.5
      thresh= 1.000E-02 alpha_mix =  0.700 |ddv_scf|^2 =  4.637E-06

      iter #   2 total cpu time :   102.0 secs   av.it.:  10.9
      thresh= 2.153E-04 alpha_mix =  0.700 |ddv_scf|^2 =  9.881E-06

      iter #   3 total cpu time :   103.3 secs   av.it.:   9.6
      thresh= 3.143E-04 alpha_mix =  0.700 |ddv_scf|^2 =  2.137E-07

      iter #   4 total cpu time :   104.6 secs   av.it.:  10.0
      thresh= 4.623E-05 alpha_mix =  0.700 |ddv_scf|^2 =  2.709E-09

      iter #   5 total cpu time :   106.0 secs   av.it.:  10.7
      thresh= 5.205E-06 alpha_mix =  0.700 |ddv_scf|^2 =  5.063E-10

      iter #   6 total cpu time :   107.6 secs   av.it.:  10.5
      thresh= 2.250E-06 alpha_mix =  0.700 |ddv_scf|^2 =  3.101E-12

      iter #   7 total cpu time :   108.9 secs   av.it.:  10.8
      thresh= 1.761E-07 alpha_mix =  0.700 |ddv_scf|^2 =  1.446E-13

     End of self-consistent calculation

     Convergence has been achieved 


     Representation #  5 mode #   5

     Self-consistent Calculation

      iter #   1 total cpu time :   109.9 secs   av.it.:   5.2
      thresh= 1.000E-02 alpha_mix =  0.700 |ddv_scf|^2 =  4.818E-07

      iter #   2 total cpu time :   111.3 secs   av.it.:  10.4
      thresh= 6.941E-05 alpha_mix =  0.700 |ddv_scf|^2 =  7.868E-08

      iter #   3 total cpu time :   112.6 secs   av.it.:  10.2
      thresh= 2.805E-05 alpha_mix =  0.700 |ddv_scf|^2 =  1.049E-09

      iter #   4 total cpu time :   113.9 secs   av.it.:   9.8
      thresh= 3.238E-06 alpha_mix =  0.700 |ddv_scf|^2 =  2.470E-12

      iter #   5 total cpu time :   115.2 secs   av.it.:  10.3
      thresh= 1.572E-07 alpha_mix =  0.700 |ddv_scf|^2 =  7.014E-14

     End of self-consistent calculation

     Convergence has been achieved 


     Representation #  6 mode #   6

     Self-consistent Calculation

      iter #   1 total cpu time :   116.3 secs   av.it.:   5.2
      thresh= 1.000E-02 alpha_mix =  0.700 |ddv_scf|^2 =  4.818E-07

      iter #   2 total cpu time :   117.7 secs   av.it.:  10.4
[...]
        k(   59) = (  -0.8750000   0.1250000  -0.1250000), wk =   0.0625000
        k(   60) = (  -1.3750000  -0.8750000  -0.1250000), wk =   0.0000000
        k(   61) = (  -1.1250000   0.3750000  -0.3750000), wk =   0.0625000
        k(   62) = (  -1.6250000  -0.6250000  -0.3750000), wk =   0.0000000
        k(   63) = (  -0.3750000   0.3750000   1.1250000), wk =   0.0625000
        k(   64) = (  -0.8750000  -0.6250000   1.1250000), wk =   0.0000000

     Dense  grid:    17477 G-vectors     FFT dimensions: (  40,  40,  40)

     Smooth grid:     6183 G-vectors     FFT dimensions: (  25,  25,  25)

     Estimated max dynamical RAM per process >       1.79MB

     Estimated total allocated dynamical RAM >       7.17MB

     The potential is recalculated from file :
     ./_ph0/silicon.10.360.save/charge-density.dat

     Starting wfc are    8 atomic wfcs

     Band Structure Calculation
     Davidson diagonalization with overlap

     ethr =  1.25E-10,  avg # of iterations = 12.1

     total cpu time spent up to now is       10.9 secs

     End of band structure calculation

          k =-0.1250 0.1250 0.1250 (   779 PWs)   bands (ev):

    -5.6658   4.3106   5.6203   5.6203

          k =-0.6250-0.8750 0.1250 (   762 PWs)   bands (ev):

    -2.4925  -0.9590   1.9635   3.0308

          k =-0.3750 0.3750-0.1250 (   781 PWs)   bands (ev):

    -4.6469   1.3317   3.6483   5.1423

          k =-0.8750-0.6250-0.1250 (   762 PWs)   bands (ev):

    -2.4925  -0.9590   1.9635   3.0308

          k = 0.3750-0.3750 0.6250 (   773 PWs)   bands (ev):

    -3.5183  -0.7287   3.6653   4.3775

          k =-0.1250-1.3750 0.6250 (   773 PWs)   bands (ev):

    -3.0261  -0.6524   2.0184   4.0633

          k = 0.1250-0.1250 0.3750 (   781 PWs)   bands (ev):

    -5.1417   2.6983   4.6209   4.6803

          k =-0.3750-1.1250 0.3750 (   773 PWs)   bands (ev):

    -3.0261  -0.6524   2.0184   4.0633

          k =-0.1250 0.6250 0.1250 (   775 PWs)   bands (ev):

    -4.1180   0.9908   3.3042   3.7532

          k =-0.6250-0.3750 0.1250 (   775 PWs)   bands (ev):

    -3.7064   0.1283   2.6658   4.0260

          k = 0.6250-0.1250 0.8750 (   762 PWs)   bands (ev):

    -2.4925  -0.9590   1.9635   3.0308

          k = 0.1250-1.1250 0.8750 (   766 PWs)   bands (ev):

    -2.6570  -0.8634   2.5677   3.2894

          k = 0.3750 0.1250 0.6250 (   775 PWs)   bands (ev):

    -3.7064   0.1283   2.6658   4.0260

          k =-0.1250-0.8750 0.6250 (   762 PWs)   bands (ev):

    -2.4925  -0.9590   1.9635   3.0308

          k =-0.1250-0.8750 0.1250 (   766 PWs)   bands (ev):

    -2.6570  -0.8634   2.5677   3.2894

          k =-0.6250-1.8750 0.1250 (   775 PWs)   bands (ev):

    -4.1180   0.9908   3.3042   3.7532

          k =-0.3750 0.3750 0.3750 (   769 PWs)   bands (ev):

    -4.2180   0.0541   4.8378   4.8378

          k =-0.8750-0.6250 0.3750 (   775 PWs)   bands (ev):

    -3.7064   0.1283   2.6658   4.0260

          k = 0.3750-0.3750 1.1250 (   773 PWs)   bands (ev):

    -3.0261  -0.6524   2.0184   4.0633

          k =-0.1250-1.3750 1.1250 (   762 PWs)   bands (ev):

    -2.4925  -0.9590   1.9635   3.0308

          k = 0.1250-0.3750 0.3750 (   781 PWs)   bands (ev):

    -4.6469   1.3317   3.6483   5.1423

          k =-0.3750-1.3750 0.3750 (   773 PWs)   bands (ev):

    -3.5183  -0.7287   3.6653   4.3775

          k = 0.3750-0.3750-0.1250 (   781 PWs)   bands (ev):

    -4.6469   1.3317   3.6483   5.1423

          k =-0.1250-1.3750-0.1250 (   775 PWs)   bands (ev):

    -4.1180   0.9908   3.3042   3.7532

          k =-0.6250 0.3750-0.3750 (   773 PWs)   bands (ev):

    -3.5183  -0.7287   3.6653   4.3775

          k =-1.1250-0.6250-0.3750 (   775 PWs)   bands (ev):

    -3.7064   0.1283   2.6658   4.0260

          k =-0.3750 0.3750 0.6250 (   773 PWs)   bands (ev):

    -3.5183  -0.7287   3.6653   4.3775

          k =-0.8750-0.6250 0.6250 (   781 PWs)   bands (ev):

    -4.6469   1.3317   3.6483   5.1423

          k =-0.3750 0.1250-0.1250 (   781 PWs)   bands (ev):

    -5.1417   2.6983   4.6209   4.6803

          k =-0.8750-0.8750-0.1250 (   766 PWs)   bands (ev):

    -2.6570  -0.8634   2.5677   3.2894

          k =-0.1250 0.1250 0.3750 (   781 PWs)   bands (ev):

    -5.1417   2.6983   4.6209   4.6803

          k =-0.6250-0.8750 0.3750 (   775 PWs)   bands (ev):

    -3.7064   0.1283   2.6658   4.0260

          k = 0.1250 0.6250-0.1250 (   775 PWs)   bands (ev):

    -4.1180   0.9908   3.3042   3.7532

          k =-0.3750-0.3750-0.1250 (   781 PWs)   bands (ev):

    -4.6469   1.3317   3.6483   5.1423

          k = 0.6250 0.1250-0.1250 (   775 PWs)   bands (ev):

    -4.1180   0.9908   3.3042   3.7532

          k = 0.1250-0.8750-0.1250 (   766 PWs)   bands (ev):

    -2.6570  -0.8634   2.5677   3.2894

          k =-0.8750 0.1250-0.6250 (   762 PWs)   bands (ev):

    -2.4925  -0.9590   1.9635   3.0308

          k =-1.3750-0.8750-0.6250 (   781 PWs)   bands (ev):

    -4.6469   1.3317   3.6483   5.1423

          k = 0.8750-0.1250 0.6250 (   762 PWs)   bands (ev):

    -2.4925  -0.9590   1.9635   3.0308

          k = 0.3750-1.1250 0.6250 (   775 PWs)   bands (ev):

    -3.7064   0.1283   2.6658   4.0260

          k =-0.6250 0.1250 0.8750 (   762 PWs)   bands (ev):

    -2.4925  -0.9590   1.9635   3.0308

          k =-1.1250-0.8750 0.8750 (   779 PWs)   bands (ev):

    -5.6658   4.3106   5.6203   5.6203

          k =-0.1250 0.8750 0.6250 (   762 PWs)   bands (ev):

    -2.4925  -0.9590   1.9635   3.0308

          k =-0.6250-0.1250 0.6250 (   773 PWs)   bands (ev):

    -3.0261  -0.6524   2.0184   4.0633

          k = 0.1250 0.8750-0.6250 (   762 PWs)   bands (ev):

    -2.4925  -0.9590   1.9635   3.0308

          k =-0.3750-0.1250-0.6250 (   775 PWs)   bands (ev):

    -3.7064   0.1283   2.6658   4.0260

          k =-0.6250-0.1250-0.3750 (   775 PWs)   bands (ev):

    -3.7064   0.1283   2.6658   4.0260

          k =-1.1250-1.1250-0.3750 (   775 PWs)   bands (ev):

    -4.1180   0.9908   3.3042   3.7532

          k = 0.6250 0.1250 0.3750 (   775 PWs)   bands (ev):

    -3.7064   0.1283   2.6658   4.0260

          k = 0.1250-0.8750 0.3750 (   762 PWs)   bands (ev):

    -2.4925  -0.9590   1.9635   3.0308

          k =-0.3750-0.1250 0.6250 (   775 PWs)   bands (ev):

    -3.7064   0.1283   2.6658   4.0260

          k =-0.8750-1.1250 0.6250 (   781 PWs)   bands (ev):

    -5.1417   2.6983   4.6209   4.6803

          k = 0.1250 0.6250 0.3750 (   775 PWs)   bands (ev):

    -3.7064   0.1283   2.6658   4.0260

          k =-0.3750-0.3750 0.3750 (   769 PWs)   bands (ev):

    -4.2180   0.0541   4.8378   4.8378

          k =-0.1250 0.6250-0.3750 (   775 PWs)   bands (ev):

    -3.7064   0.1283   2.6658   4.0260

          k =-0.6250-0.3750-0.3750 (   773 PWs)   bands (ev):

    -3.5183  -0.7287   3.6653   4.3775

          k = 0.1250-0.8750-0.1250 (   766 PWs)   bands (ev):

    -2.6570  -0.8634   2.5677   3.2894

          k =-0.3750-1.8750-0.1250 (   781 PWs)   bands (ev):

    -5.1417   2.6983   4.6209   4.6803

          k =-0.8750 0.1250-0.1250 (   766 PWs)   bands (ev):

    -2.6570  -0.8634   2.5677   3.2894

          k =-1.3750-0.8750-0.1250 (   762 PWs)   bands (ev):

    -2.4925  -0.9590   1.9635   3.0308

          k =-1.1250 0.3750-0.3750 (   773 PWs)   bands (ev):

    -3.0261  -0.6524   2.0184   4.0633

          k =-1.6250-0.6250-0.3750 (   773 PWs)   bands (ev):

    -3.5183  -0.7287   3.6653   4.3775

          k =-0.3750 0.3750 1.1250 (   773 PWs)   bands (ev):

    -3.0261  -0.6524   2.0184   4.0633

          k =-0.8750-0.6250 1.1250 (   781 PWs)   bands (ev):

    -5.1417   2.6983   4.6209   4.6803

     highest occupied level (ev):     5.6203

     Writing output data file silicon.10.360.save

                                                                                

     bravais-lattice index     =            2
     lattice parameter (alat)  =      10.3600  a.u.
     unit-cell volume          =     277.9837 (a.u.)^3
     number of atoms/cell      =            2
     number of atomic types    =            1
     kinetic-energy cut-off    =      30.0000  Ry
     charge density cut-off    =     240.0000  Ry
     convergence threshold     =      1.0E-12
     beta                      =       0.7000
     number of iterations used =            4
     Exchange-correlation      = SLA  PW   PBE  PBE ( 1  4  3  4 0 0)


     celldm(1)=   10.36000  celldm(2)=    0.00000  celldm(3)=    0.00000
     celldm(4)=    0.00000  celldm(5)=    0.00000  celldm(6)=    0.00000

     crystal axes: (cart. coord. in units of alat)
               a(1) = ( -0.5000  0.0000  0.5000 )  
               a(2) = (  0.0000  0.5000  0.5000 )  
               a(3) = ( -0.5000  0.5000  0.0000 )  

     reciprocal axes: (cart. coord. in units 2 pi/alat)
               b(1) = ( -1.0000 -1.0000  1.0000 )  
               b(2) = (  1.0000  1.0000  1.0000 )  
               b(3) = ( -1.0000  1.0000 -1.0000 )  


     Atoms inside the unit cell: 

     Cartesian axes

     site n.  atom      mass           positions (alat units)
        1     Si  28.0860   tau(    1) = (    0.00000    0.00000    0.00000  )
        2     Si  28.0860   tau(    2) = (    0.25000    0.25000    0.25000  )

     Computing dynamical matrix for 
                    q = (  -0.5000000  -1.0000000   0.0000000 )

      8 Sym.Ops. (no q -> -q+G )


     G cutoff =  652.4857  (   4369 G-vectors)     FFT grid: ( 40, 40, 40)
     G cutoff =  326.2429  (   1546 G-vectors)  smooth grid: ( 25, 25, 25)
     number of k points=    64

     PseudoPot. # 1 for Si read from file:
     /home/s1333534/quantum_espresso/qe-6.1/pseudo/si_pbe_v1.uspp.F.UPF.txt
     MD5 check sum: a056efeee980c13900f22a371efd63c1
     Pseudo is Ultrasoft + core correction, Zval =  4.0
     Generated by new atomic code, or converted to UPF format
     Using radial grid of  899 points,  6 beta functions with: 
                l(1) =   0
                l(2) =   0
                l(3) =   1
                l(4) =   1
                l(5) =   2
                l(6) =   2
     Q(r) pseudized with  8 coefficients,  rinner =    0.900   0.900   0.900
                                                       0.900   0.900


     Atomic displacements:
     There are   3 irreducible representations

     Representation     1      2 modes -  To be done

     Representation     2      2 modes -  To be done

     Representation     3      2 modes -  To be done



     Alpha used in Ewald sum =   2.5000
     PHONON       :  2m 8.25s CPU     2m44.28s WALL



     Representation #  1 modes #   1  2

     Self-consistent Calculation

      iter #   1 total cpu time :   165.1 secs   av.it.:   5.7
      thresh= 1.000E-02 alpha_mix =  0.700 |ddv_scf|^2 =  7.821E-07

      iter #   2 total cpu time :   166.0 secs   av.it.:  11.8
      thresh= 8.844E-05 alpha_mix =  0.700 |ddv_scf|^2 =  4.421E-07

      iter #   3 total cpu time :   166.9 secs   av.it.:  11.3
      thresh= 6.649E-05 alpha_mix =  0.700 |ddv_scf|^2 =  4.275E-10

      iter #   4 total cpu time :   167.7 secs   av.it.:  11.1
      thresh= 2.068E-06 alpha_mix =  0.700 |ddv_scf|^2 =  1.929E-12

      iter #   5 total cpu time :   168.5 secs   av.it.:  11.3
      thresh= 1.389E-07 alpha_mix =  0.700 |ddv_scf|^2 =  5.059E-14

     End of self-consistent calculation

     Convergence has been achieved 


     Representation #  2 modes #   3  4

     Self-consistent Calculation

      iter #   1 total cpu time :   169.2 secs   av.it.:   5.6
      thresh= 1.000E-02 alpha_mix =  0.700 |ddv_scf|^2 =  1.217E-06

      iter #   2 total cpu time :   170.1 secs   av.it.:  11.8
      thresh= 1.103E-04 alpha_mix =  0.700 |ddv_scf|^2 =  1.665E-06

      iter #   3 total cpu time :   170.9 secs   av.it.:  11.0
      thresh= 1.290E-04 alpha_mix =  0.700 |ddv_scf|^2 =  5.106E-10

      iter #   4 total cpu time :   171.9 secs   av.it.:  11.1
      thresh= 2.260E-06 alpha_mix =  0.700 |ddv_scf|^2 =  8.308E-12

      iter #   5 total cpu time :   172.6 secs   av.it.:  11.3
      thresh= 2.882E-07 alpha_mix =  0.700 |ddv_scf|^2 =  1.338E-13

     End of self-consistent calculation

     Convergence has been achieved 


     Representation #  3 modes #   5  6

     Self-consistent Calculation

      iter #   1 total cpu time :   173.5 secs   av.it.:   5.3
      thresh= 1.000E-02 alpha_mix =  0.700 |ddv_scf|^2 =  3.179E-07

      iter #   2 total cpu time :   174.4 secs   av.it.:  11.9
      thresh= 5.638E-05 alpha_mix =  0.700 |ddv_scf|^2 =  1.855E-07

      iter #   3 total cpu time :   175.9 secs   av.it.:  11.2
      thresh= 4.307E-05 alpha_mix =  0.700 |ddv_scf|^2 =  3.701E-10

      iter #   4 total cpu time :   177.3 secs   av.it.:  11.1
      thresh= 1.924E-06 alpha_mix =  0.700 |ddv_scf|^2 =  4.435E-12

      iter #   5 total cpu time :   178.1 secs   av.it.:  11.2
      thresh= 2.106E-07 alpha_mix =  0.700 |ddv_scf|^2 =  6.056E-14

     End of self-consistent calculation

     Convergence has been achieved 

     Number of q in the star =    6
     List of q in the star:
          1  -0.500000000  -1.000000000   0.000000000
          2   0.000000000   1.000000000   0.500000000
          3   0.000000000  -1.000000000  -0.500000000
          4   0.500000000   1.000000000   0.000000000
          5  -1.000000000  -0.500000000   0.000000000
          6   0.000000000  -0.500000000  -1.000000000

     Diagonalizing the dynamical matrix

     q = (   -0.500000000  -1.000000000   0.000000000 ) 

 **************************************************************************
     freq (    1) =       6.040843 [THz] =     201.500845 [cm-1]
     freq (    2) =       6.040843 [THz] =     201.500845 [cm-1]
     freq (    3) =      10.232377 [THz] =     341.315348 [cm-1]
     freq (    4) =      10.232377 [THz] =     341.315348 [cm-1]
     freq (    5) =      13.402221 [THz] =     447.049983 [cm-1]
     freq (    6) =      13.402221 [THz] =     447.049983 [cm-1]
 **************************************************************************

     init_run     :      1.27s CPU      1.32s WALL (       7 calls)
     electrons    :      7.40s CPU      8.01s WALL (       7 calls)

     Called by init_run:
     wfcinit      :      0.00s CPU      0.03s WALL (       7 calls)
     potinit      :      0.10s CPU      0.11s WALL (       7 calls)

     Called by electrons:
     c_bands      :      7.40s CPU      8.00s WALL (       7 calls)
     v_of_rho     :      0.09s CPU      0.09s WALL (       8 calls)
     newd         :      0.12s CPU      0.12s WALL (       8 calls)

     Called by c_bands:
     init_us_2    :      1.64s CPU      1.57s WALL (   15896 calls)
     cegterg      :      6.17s CPU      6.68s WALL (     796 calls)

     Called by sum_band:

     Called by *egterg:
     h_psi        :     71.04s CPU     76.22s WALL (  154798 calls)
     s_psi        :      5.81s CPU      7.02s WALL (  311854 calls)
     g_psi        :      0.05s CPU      0.07s WALL (    9666 calls)
     cdiaghg      :      0.57s CPU      0.56s WALL (   10462 calls)

     Called by h_psi:
     h_psi:pot    :     70.61s CPU     75.70s WALL (  154798 calls)
     h_psi:calbec :      3.46s CPU      4.06s WALL (  154798 calls)
     vloc_psi     :     62.40s CPU     67.41s WALL (  154798 calls)
     add_vuspsi   :      4.37s CPU      3.75s WALL (  154798 calls)

     General routines
     calbec       :      8.15s CPU      8.63s WALL (  346162 calls)
     fft          :      1.81s CPU      1.87s WALL (    5233 calls)
     ffts         :      0.21s CPU      0.22s WALL (    3316 calls)
     fftw         :     63.80s CPU     67.90s WALL ( 1385026 calls)
     interpolate  :      0.31s CPU      0.32s WALL (     568 calls)
     davcio       :      0.33s CPU      1.14s WALL (   69130 calls)

     Parallel routines
     fft_scatter  :     14.74s CPU     19.30s WALL ( 1393575 calls)

     PHONON       :  2m17.99s CPU     2m58.59s WALL

     INITIALIZATION: 
     phq_setup    :      0.30s CPU      0.52s WALL (       8 calls)
     phq_init     :      6.98s CPU      7.34s WALL (       8 calls)

     phq_init     :      6.98s CPU      7.34s WALL (       8 calls)
     set_drhoc    :      1.87s CPU      1.88s WALL (      24 calls)
     init_vloc    :      0.03s CPU      0.03s WALL (       8 calls)
     init_us_1    :      0.97s CPU      0.98s WALL (       8 calls)
     newd         :      0.12s CPU      0.12s WALL (       8 calls)
     dvanqq       :      1.19s CPU      1.20s WALL (       8 calls)
     drho         :      2.63s CPU      2.72s WALL (       8 calls)

     DYNAMICAL MATRIX:
     dynmat0      :      1.75s CPU      1.93s WALL (       8 calls)
     phqscf       :    116.69s CPU    150.90s WALL (       8 calls)
     dynmatrix    :      0.01s CPU      0.42s WALL (       8 calls)

     phqscf       :    116.69s CPU    150.90s WALL (       8 calls)
     solve_linter :    115.81s CPU    148.14s WALL (      32 calls)
     drhodv       :      0.60s CPU      0.62s WALL (      32 calls)

     dynmat0      :      1.75s CPU      1.93s WALL (       8 calls)
     dynmat_us    :      0.39s CPU      0.40s WALL (       8 calls)
     d2ionq       :      0.04s CPU      0.04s WALL (       8 calls)
     dynmatcc     :      1.31s CPU      1.32s WALL (       8 calls)

     dynmat_us    :      0.39s CPU      0.40s WALL (       8 calls)
     addusdynmat  :      0.00s CPU      0.00s WALL (       8 calls)

     phqscf       :    116.69s CPU    150.90s WALL (       8 calls)
     solve_linter :    115.81s CPU    148.14s WALL (      32 calls)

     solve_linter :    115.81s CPU    148.14s WALL (      32 calls)
     dvqpsi_us    :      2.18s CPU      2.31s WALL (    2508 calls)
     ortho        :      0.93s CPU      1.07s WALL (   13486 calls)
     cgsolve      :     78.47s CPU     85.42s WALL (   13486 calls)
     incdrhoscf   :      6.20s CPU      6.77s WALL (   13486 calls)
     addusddens   :      7.14s CPU      7.20s WALL (     200 calls)
     vpsifft      :      4.44s CPU      4.86s WALL (   10858 calls)
     dv_of_drho   :      1.70s CPU      1.74s WALL (     254 calls)
     mix_pot      :      0.34s CPU     13.15s WALL (     173 calls)
     psymdvscf    :      5.84s CPU      5.91s WALL (     168 calls)
     newdq        :      7.76s CPU      7.78s WALL (     173 calls)
     adddvscf     :      0.44s CPU      0.42s WALL (   10978 calls)
     drhodvus     :      0.02s CPU      0.02s WALL (      32 calls)

     dvqpsi_us    :      2.18s CPU      2.31s WALL (    2508 calls)
     dvqpsi_us_on :      0.94s CPU      0.97s WALL (    2508 calls)

     cgsolve      :     78.47s CPU     85.42s WALL (   13486 calls)
     ch_psi       :     77.37s CPU     83.65s WALL (  143540 calls)

     ch_psi       :     77.37s CPU     83.65s WALL (  143540 calls)
     h_psi        :     71.04s CPU     76.22s WALL (  154798 calls)
     last         :      9.06s CPU      9.21s WALL (  143540 calls)

     h_psi        :     71.04s CPU     76.22s WALL (  154798 calls)
     add_vuspsi   :      4.37s CPU      3.75s WALL (  154798 calls)

     incdrhoscf   :      6.20s CPU      6.77s WALL (   13486 calls)
     addusdbec    :      0.48s CPU      0.52s WALL (   15934 calls)

     drhodvus     :      0.02s CPU      0.02s WALL (      32 calls)

      General routines
     calbec       :      8.15s CPU      8.63s WALL (  346162 calls)
     fft          :      1.81s CPU      1.87s WALL (    5233 calls)
     ffts         :      0.21s CPU      0.22s WALL (    3316 calls)
     fftw         :     63.80s CPU     67.90s WALL ( 1385026 calls)
     davcio       :      0.33s CPU      1.14s WALL (   69130 calls)
     write_rec    :      0.22s CPU     12.96s WALL (     205 calls)


     PHONON       :  2m17.99s CPU     2m58.60s WALL


   This run was terminated on:  15:33:28  10Nov2017            

=------------------------------------------------------------------------------=
   JOB DONE.
=------------------------------------------------------------------------------=
