
     Program PWSCF v.6.1 (svn rev. 13369) starts on 10Nov2017 at 10: 3:43 

     This program is part of the open-source Quantum ESPRESSO suite
     for quantum simulation of materials; please cite
         "P. Giannozzi et al., J. Phys.:Condens. Matter 21 395502 (2009);
          URL http://www.quantum-espresso.org", 
     in publications or presentations arising from this work. More details at
     http://www.quantum-espresso.org/quote

     Parallel version (MPI), running on     4 processors
     R & G space division:  proc/nbgrp/npool/nimage =       4
     Waiting for input...
     Reading input from standard input
     Message from routine read_cards :
     DEPRECATED: no units specified in ATOMIC_POSITIONS card
     Message from routine read_cards :
     ATOMIC_POSITIONS: units set to alat

     Current dimensions of program PWSCF are:
     Max number of different atomic species (ntypx) = 10
     Max number of k-points (npk) =  40000
     Max angular momentum in pseudopotentials (lmaxx) =  3

     Subspace diagonalization in iterative solution of the eigenvalue problem:
     a serial algorithm will be used


     Parallelization info
     --------------------
     sticks:   dense  smooth     PW     G-vecs:    dense   smooth      PW
     Min         133      66     22                 2024      722     152
     Max         134      67     23                 2025      724     153
     Sum         535     265     91                 8099     2891     609



     bravais-lattice index     =            2
     lattice parameter (alat)  =      10.4040  a.u.
     unit-cell volume          =     281.5406 (a.u.)^3
     number of atoms/cell      =            2
     number of atomic types    =            1
     number of electrons       =         8.00
     number of Kohn-Sham states=            4
     kinetic-energy cutoff     =      18.0000  Ry
     charge density cutoff     =     144.0000  Ry
     convergence threshold     =      1.0E-08
     mixing beta               =       0.7000
     number of iterations used =            8  plain     mixing
     Exchange-correlation      = SLA  PW   PBE  PBE ( 1  4  3  4 0 0)

     celldm(1)=  10.404000  celldm(2)=   0.000000  celldm(3)=   0.000000
     celldm(4)=   0.000000  celldm(5)=   0.000000  celldm(6)=   0.000000

     crystal axes: (cart. coord. in units of alat)
               a(1) = (  -0.500000   0.000000   0.500000 )  
               a(2) = (   0.000000   0.500000   0.500000 )  
               a(3) = (  -0.500000   0.500000   0.000000 )  

     reciprocal axes: (cart. coord. in units 2 pi/alat)
               b(1) = ( -1.000000 -1.000000  1.000000 )  
               b(2) = (  1.000000  1.000000  1.000000 )  
               b(3) = ( -1.000000  1.000000 -1.000000 )  


     PseudoPot. # 1 for Si read from file:
     /home/max/quantum_espresso/qe-6.1/pseudo/si_pbe_v1.uspp.F.UPF.txt
     MD5 check sum: a056efeee980c13900f22a371efd63c1
     Pseudo is Ultrasoft + core correction, Zval =  4.0
     Generated by new atomic code, or converted to UPF format
     Using radial grid of  899 points,  6 beta functions with: 
                l(1) =   0
                l(2) =   0
                l(3) =   1
                l(4) =   1
                l(5) =   2
                l(6) =   2
     Q(r) pseudized with  8 coefficients,  rinner =    0.900   0.900   0.900
                                                       0.900   0.900

     atomic species   valence    mass     pseudopotential
        Si             4.00    28.08600     Si( 1.00)

     24 Sym. Ops. (no inversion) found
          (note: 24 additional sym.ops. were found but ignored
           their fractional translations are incommensurate with FFT grid)


   Cartesian axes

     site n.     atom                  positions (alat units)
         1           Si  tau(   1) = (   0.0000000   0.0000000   0.0000000  )
         2           Si  tau(   2) = (   0.2500000   0.2500000   0.2500000  )

     number of k points=    60
                       cart. coord. in units 2pi/alat
        k(    1) = (  -0.0625000   0.0625000   0.0625000), wk =   0.0078125
        k(    2) = (  -0.1875000   0.1875000  -0.0625000), wk =   0.0234375
        k(    3) = (  -0.3125000   0.3125000  -0.1875000), wk =   0.0234375
        k(    4) = (  -0.4375000   0.4375000  -0.3125000), wk =   0.0234375
        k(    5) = (   0.4375000  -0.4375000   0.5625000), wk =   0.0234375
        k(    6) = (   0.3125000  -0.3125000   0.4375000), wk =   0.0234375
        k(    7) = (   0.1875000  -0.1875000   0.3125000), wk =   0.0234375
        k(    8) = (   0.0625000  -0.0625000   0.1875000), wk =   0.0234375
        k(    9) = (  -0.0625000   0.3125000   0.0625000), wk =   0.0234375
        k(   10) = (  -0.1875000   0.4375000  -0.0625000), wk =   0.0468750
        k(   11) = (  -0.3125000   0.5625000  -0.1875000), wk =   0.0468750
        k(   12) = (   0.5625000  -0.3125000   0.6875000), wk =   0.0468750
        k(   13) = (   0.4375000  -0.1875000   0.5625000), wk =   0.0468750
        k(   14) = (   0.3125000  -0.0625000   0.4375000), wk =   0.0468750
        k(   15) = (   0.1875000   0.0625000   0.3125000), wk =   0.0468750
        k(   16) = (  -0.0625000   0.5625000   0.0625000), wk =   0.0234375
        k(   17) = (  -0.1875000   0.6875000  -0.0625000), wk =   0.0468750
        k(   18) = (   0.6875000  -0.1875000   0.8125000), wk =   0.0468750
        k(   19) = (   0.5625000  -0.0625000   0.6875000), wk =   0.0468750
        k(   20) = (   0.4375000   0.0625000   0.5625000), wk =   0.0468750
        k(   21) = (   0.3125000   0.1875000   0.4375000), wk =   0.0468750
        k(   22) = (  -0.0625000   0.8125000   0.0625000), wk =   0.0234375
        k(   23) = (   0.8125000  -0.0625000   0.9375000), wk =   0.0468750
        k(   24) = (   0.6875000   0.0625000   0.8125000), wk =   0.0468750
        k(   25) = (   0.5625000   0.1875000   0.6875000), wk =   0.0468750
        k(   26) = (   0.4375000   0.3125000   0.5625000), wk =   0.0468750
        k(   27) = (  -0.0625000  -0.9375000   0.0625000), wk =   0.0234375
        k(   28) = (  -0.1875000  -0.8125000  -0.0625000), wk =   0.0468750
        k(   29) = (  -0.3125000  -0.6875000  -0.1875000), wk =   0.0468750
        k(   30) = (  -0.0625000  -0.6875000   0.0625000), wk =   0.0234375
        k(   31) = (  -0.1875000  -0.5625000  -0.0625000), wk =   0.0468750
        k(   32) = (  -0.0625000  -0.4375000   0.0625000), wk =   0.0234375
        k(   33) = (  -0.1875000   0.1875000   0.1875000), wk =   0.0078125
        k(   34) = (  -0.3125000   0.3125000   0.0625000), wk =   0.0234375
        k(   35) = (  -0.4375000   0.4375000  -0.0625000), wk =   0.0234375
        k(   36) = (   0.4375000  -0.4375000   0.8125000), wk =   0.0234375
        k(   37) = (   0.3125000  -0.3125000   0.6875000), wk =   0.0234375
        k(   38) = (   0.1875000  -0.1875000   0.5625000), wk =   0.0234375
        k(   39) = (  -0.1875000   0.4375000   0.1875000), wk =   0.0234375
        k(   40) = (  -0.3125000   0.5625000   0.0625000), wk =   0.0468750
        k(   41) = (   0.5625000  -0.3125000   0.9375000), wk =   0.0468750
        k(   42) = (   0.4375000  -0.1875000   0.8125000), wk =   0.0468750
        k(   43) = (   0.3125000  -0.0625000   0.6875000), wk =   0.0468750
        k(   44) = (  -0.1875000   0.6875000   0.1875000), wk =   0.0234375
        k(   45) = (   0.6875000  -0.1875000   1.0625000), wk =   0.0468750
        k(   46) = (   0.5625000  -0.0625000   0.9375000), wk =   0.0468750
        k(   47) = (   0.4375000   0.0625000   0.8125000), wk =   0.0468750
        k(   48) = (  -0.1875000  -1.0625000   0.1875000), wk =   0.0234375
        k(   49) = (  -0.3125000  -0.9375000   0.0625000), wk =   0.0468750
        k(   50) = (  -0.1875000  -0.8125000   0.1875000), wk =   0.0234375
        k(   51) = (  -0.3125000   0.3125000   0.3125000), wk =   0.0078125
        k(   52) = (  -0.4375000   0.4375000   0.1875000), wk =   0.0234375
        k(   53) = (   0.4375000  -0.4375000   1.0625000), wk =   0.0234375
        k(   54) = (   0.3125000  -0.3125000   0.9375000), wk =   0.0234375
        k(   55) = (  -0.3125000   0.5625000   0.3125000), wk =   0.0234375
        k(   56) = (   0.5625000  -0.3125000   1.1875000), wk =   0.0468750
        k(   57) = (   0.4375000  -0.1875000   1.0625000), wk =   0.0468750
        k(   58) = (  -0.3125000  -1.1875000   0.3125000), wk =   0.0234375
        k(   59) = (  -0.4375000   0.4375000   0.4375000), wk =   0.0078125
        k(   60) = (   0.4375000  -0.4375000   1.3125000), wk =   0.0234375

     Dense  grid:     8099 G-vectors     FFT dimensions: (  30,  30,  30)

     Smooth grid:     2891 G-vectors     FFT dimensions: (  20,  20,  20)

     Estimated max dynamical RAM per process >       1.73MB

     Estimated total allocated dynamical RAM >       6.94MB

     Initial potential from superposition of free atoms

     starting charge    7.99866, renormalised to    8.00000
     Starting wfc are    8 randomized atomic wfcs

     total cpu time spent up to now is        0.4 secs

     per-process dynamical memory:     8.6 Mb

     Self-consistent Calculation

     iteration #  1     ecut=    18.00 Ry     beta=0.70
     Davidson diagonalization with overlap
     ethr =  1.00E-02,  avg # of iterations =  2.0

     Threshold (ethr) on eigenvalues was too large:
     Diagonalizing with lowered threshold

     Davidson diagonalization with overlap
     ethr =  6.53E-04,  avg # of iterations =  1.0

     total cpu time spent up to now is        1.2 secs

     total energy              =     -19.18910113 Ry
     Harris-Foulkes estimate   =     -19.20069021 Ry
     estimated scf accuracy    <       0.05197417 Ry

     iteration #  2     ecut=    18.00 Ry     beta=0.70
     Davidson diagonalization with overlap
     ethr =  6.50E-04,  avg # of iterations =  1.0

     total cpu time spent up to now is        1.4 secs

     total energy              =     -19.19068573 Ry
     Harris-Foulkes estimate   =     -19.19085578 Ry
     estimated scf accuracy    <       0.00245409 Ry

     iteration #  3     ecut=    18.00 Ry     beta=0.70
     Davidson diagonalization with overlap
     ethr =  3.07E-05,  avg # of iterations =  1.9

     total cpu time spent up to now is        1.6 secs

     total energy              =     -19.19094786 Ry
     Harris-Foulkes estimate   =     -19.19095991 Ry
     estimated scf accuracy    <       0.00003857 Ry

     iteration #  4     ecut=    18.00 Ry     beta=0.70
     Davidson diagonalization with overlap
     ethr =  4.82E-07,  avg # of iterations =  2.8

     total cpu time spent up to now is        1.8 secs

     total energy              =     -19.19097117 Ry
     Harris-Foulkes estimate   =     -19.19097161 Ry
     estimated scf accuracy    <       0.00000197 Ry

     iteration #  5     ecut=    18.00 Ry     beta=0.70
     Davidson diagonalization with overlap
     ethr =  2.46E-08,  avg # of iterations =  2.2

     total cpu time spent up to now is        2.0 secs

     total energy              =     -19.19097159 Ry
     Harris-Foulkes estimate   =     -19.19097160 Ry
     estimated scf accuracy    <       0.00000005 Ry

     iteration #  6     ecut=    18.00 Ry     beta=0.70
     Davidson diagonalization with overlap
     ethr =  5.76E-10,  avg # of iterations =  2.8

     total cpu time spent up to now is        2.2 secs

     End of self-consistent calculation

          k =-0.0625 0.0625 0.0625 (   338 PWs)   bands (ev):

    -5.8569   5.2407   5.6931   5.6931

          k =-0.1875 0.1875-0.0625 (   355 PWs)   bands (ev):

    -5.5960   3.7463   4.9079   5.5753

          k =-0.3125 0.3125-0.1875 (   356 PWs)   bands (ev):

    -4.9652   1.5668   4.4267   5.1231

          k =-0.4375 0.4375-0.3125 (   360 PWs)   bands (ev):

    -4.0893  -0.2735   4.2114   4.7248

          k = 0.4375-0.4375 0.5625 (   364 PWs)   bands (ev):

    -3.6578  -0.9527   4.2578   4.5127

          k = 0.3125-0.3125 0.4375 (   357 PWs)   bands (ev):

    -4.3885   0.2698   4.5349   4.5376

          k = 0.1875-0.1875 0.3125 (   357 PWs)   bands (ev):

    -5.2125   2.2806   4.8073   4.9928

          k = 0.0625-0.0625 0.1875 (   346 PWs)   bands (ev):

    -5.7256   4.4889   5.2793   5.4280

          k =-0.0625 0.3125 0.0625 (   354 PWs)   bands (ev):

    -5.4640   3.5941   4.7355   4.8099

          k =-0.1875 0.4375-0.0625 (   357 PWs)   bands (ev):

    -4.9527   2.1188   3.7884   4.5575

          k =-0.3125 0.5625-0.1875 (   364 PWs)   bands (ev):

    -4.1310   0.3094   3.2954   4.1599

          k = 0.5625-0.3125 0.6875 (   368 PWs)   bands (ev):

    -3.3950  -0.8632   3.0099   4.0700

          k = 0.4375-0.1875 0.5625 (   364 PWs)   bands (ev):

    -3.8366  -0.1950   2.9429   4.3459

          k = 0.3125-0.0625 0.4375 (   361 PWs)   bands (ev):

    -4.7115   1.4851   3.2469   4.8395

          k = 0.1875 0.0625 0.3125 (   359 PWs)   bands (ev):

    -5.3373   2.9378   4.3449   5.2027

          k =-0.0625 0.5625 0.0625 (   357 PWs)   bands (ev):

    -4.5616   1.6090   3.6499   3.7682

          k =-0.1875 0.6875-0.0625 (   359 PWs)   bands (ev):

    -3.8287   0.3982   2.8853   3.4312

          k = 0.6875-0.1875 0.8125 (   367 PWs)   bands (ev):

    -2.9580  -0.7657   2.0674   3.4002

          k = 0.5625-0.0625 0.6875 (   369 PWs)   bands (ev):

    -3.0289  -0.6735   1.7266   3.7346

          k = 0.4375 0.0625 0.5625 (   365 PWs)   bands (ev):

    -3.8992   0.2638   2.3109   4.3034

          k = 0.3125 0.1875 0.4375 (   361 PWs)   bands (ev):

    -4.6017   0.9051   3.8938   4.7419

          k =-0.0625 0.8125 0.0625 (   364 PWs)   bands (ev):

    -3.1904  -0.4482   2.9789   3.1879

          k = 0.8125-0.0625 0.9375 (   363 PWs)   bands (ev):

    -2.3043  -1.4151   2.4404   2.9531

          k = 0.6875 0.0625 0.8125 (   369 PWs)   bands (ev):

    -2.4051  -1.2499   1.7346   3.2601

          k = 0.5625 0.1875 0.6875 (   367 PWs)   bands (ev):

    -3.1447  -0.8295   2.2569   3.8452

          k = 0.4375 0.3125 0.5625 (   365 PWs)   bands (ev):

    -3.7373  -0.6680   3.7180   4.4156

          k =-0.0625-0.9375 0.0625 (   362 PWs)   bands (ev):

    -2.3530  -1.4309   2.8445   3.0692

          k =-0.1875-0.8125-0.0625 (   361 PWs)   bands (ev):

    -3.1079  -0.5105   2.5927   3.1092

          k =-0.3125-0.6875-0.1875 (   364 PWs)   bands (ev):

    -3.5705  -0.2367   2.6425   3.6926

          k =-0.0625-0.6875 0.0625 (   358 PWs)   bands (ev):

    -3.9308   0.5754   3.2479   3.4227

          k =-0.1875-0.5625-0.0625 (   356 PWs)   bands (ev):

    -4.4474   1.2775   3.2929   3.9259

          k =-0.0625-0.4375 0.0625 (   353 PWs)   bands (ev):

    -5.0746   2.6252   4.1798   4.2136

          k =-0.1875 0.1875 0.1875 (   359 PWs)   bands (ev):

    -5.4676   3.0388   5.2615   5.2615

          k =-0.3125 0.3125 0.0625 (   362 PWs)   bands (ev):

    -5.0852   2.2033   3.7865   5.2758

          k =-0.4375 0.4375-0.0625 (   362 PWs)   bands (ev):

    -4.3569   0.8566   2.7319   4.7833

          k = 0.4375-0.4375 0.8125 (   367 PWs)   bands (ev):

    -3.4887  -0.5901   2.5744   4.2658

          k = 0.3125-0.3125 0.6875 (   368 PWs)   bands (ev):

    -3.4735  -0.6180   2.8639   3.9563

          k = 0.1875-0.1875 0.5625 (   358 PWs)   bands (ev):

    -4.3396   0.8535   3.4645   3.9348

          k =-0.1875 0.4375 0.1875 (   362 PWs)   bands (ev):

    -4.8347   1.5538   4.2684   4.3436

          k =-0.3125 0.5625 0.0625 (   361 PWs)   bands (ev):

    -4.2235   0.7860   2.7874   4.1516

          k = 0.5625-0.3125 0.9375 (   367 PWs)   bands (ev):

    -3.3564  -0.2972   2.0198   3.6008

          k = 0.4375-0.1875 0.8125 (   369 PWs)   bands (ev):

    -2.8837  -0.8924   2.0190   3.2975

          k = 0.3125-0.0625 0.6875 (   365 PWs)   bands (ev):

    -3.6323   0.0831   2.4341   3.4712

          k =-0.1875 0.6875 0.1875 (   362 PWs)   bands (ev):

    -3.7384   0.1426   2.7570   3.6113

          k = 0.6875-0.1875 1.0625 (   363 PWs)   bands (ev):

    -2.9550  -0.6471   2.1993   2.9499

          k = 0.5625-0.0625 0.9375 (   370 PWs)   bands (ev):

    -2.1698  -1.3885   1.8929   2.4635

          k = 0.4375 0.0625 0.8125 (   367 PWs)   bands (ev):

    -2.7572  -0.8485   1.8822   2.9258

          k =-0.1875-1.0625 0.1875 (   364 PWs)   bands (ev):

    -2.3271  -1.3645   1.9939   3.2764

          k =-0.3125-0.9375 0.0625 (   366 PWs)   bands (ev):

    -2.2290  -1.3967   2.0853   2.6704

          k =-0.1875-0.8125 0.1875 (   362 PWs)   bands (ev):

    -3.0494  -0.6081   2.2509   3.3892

          k =-0.3125 0.3125 0.3125 (   359 PWs)   bands (ev):

    -4.7304   0.8803   4.8553   4.8553

          k =-0.4375 0.4375 0.1875 (   362 PWs)   bands (ev):

    -4.2632   0.3096   3.4207   4.7686

          k = 0.4375-0.4375 1.0625 (   367 PWs)   bands (ev):

    -3.4915  -0.2295   1.9413   4.2036

          k = 0.3125-0.3125 0.9375 (   366 PWs)   bands (ev):

    -2.6926  -0.9997   1.6163   3.6708

          k =-0.3125 0.5625 0.3125 (   368 PWs)   bands (ev):

    -3.9583  -0.2347   3.7431   4.2208

          k = 0.5625-0.3125 1.1875 (   368 PWs)   bands (ev):

    -3.3547  -0.5966   2.4715   3.7608

          k = 0.4375-0.1875 1.0625 (   370 PWs)   bands (ev):

    -2.5575  -1.0676   1.7063   3.0676

          k =-0.3125-1.1875 0.3125 (   363 PWs)   bands (ev):

    -3.0058  -0.8736   2.0939   3.7684

          k =-0.4375 0.4375 0.4375 (   356 PWs)   bands (ev):

    -3.8673  -0.7231   4.6379   4.6379

          k = 0.4375-0.4375 1.3125 (   365 PWs)   bands (ev):

    -3.5267  -0.8985   3.4350   4.3773

     highest occupied level (ev):     5.6931

!    total energy              =     -19.19097161 Ry
     Harris-Foulkes estimate   =     -19.19097162 Ry
     estimated scf accuracy    <          6.5E-09 Ry

     The total energy is the sum of the following terms:

     one-electron contribution =       4.79775544 Ry
     hartree contribution      =       1.15133937 Ry
     xc contribution           =      -8.57167563 Ry
     ewald contribution        =     -16.56839079 Ry

     convergence has been achieved in   6 iterations

     Writing output data file silicon.10.404.save

     init_run     :      0.28s CPU      0.35s WALL (       1 calls)
     electrons    :      1.16s CPU      1.75s WALL (       1 calls)

     Called by init_run:
     wfcinit      :      0.07s CPU      0.08s WALL (       1 calls)
     potinit      :      0.04s CPU      0.06s WALL (       1 calls)

     Called by electrons:
     c_bands      :      0.79s CPU      1.21s WALL (       7 calls)
     sum_band     :      0.23s CPU      0.38s WALL (       7 calls)
     v_of_rho     :      0.08s CPU      0.11s WALL (       7 calls)
     newd         :      0.09s CPU      0.10s WALL (       7 calls)
     mix_rho      :      0.00s CPU      0.01s WALL (       7 calls)

     Called by c_bands:
     init_us_2    :      0.05s CPU      0.06s WALL (     900 calls)
     cegterg      :      0.67s CPU      1.05s WALL (     420 calls)

     Called by sum_band:
     sum_band:bec :      0.00s CPU      0.01s WALL (     420 calls)
     addusdens    :      0.08s CPU      0.11s WALL (       7 calls)

     Called by *egterg:
     h_psi        :      0.50s CPU      0.77s WALL (    1301 calls)
     s_psi        :      0.05s CPU      0.06s WALL (    1301 calls)
     g_psi        :      0.00s CPU      0.00s WALL (     821 calls)
     cdiaghg      :      0.07s CPU      0.11s WALL (    1181 calls)

     Called by h_psi:
     h_psi:pot    :      0.49s CPU      0.77s WALL (    1301 calls)
     h_psi:calbec :      0.09s CPU      0.15s WALL (    1301 calls)
     vloc_psi     :      0.35s CPU      0.55s WALL (    1301 calls)
     add_vuspsi   :      0.05s CPU      0.06s WALL (    1301 calls)

     General routines
     calbec       :      0.11s CPU      0.22s WALL (    1721 calls)
     fft          :      0.09s CPU      0.15s WALL (     112 calls)
     ffts         :      0.00s CPU      0.00s WALL (      14 calls)
     fftw         :      0.34s CPU      0.59s WALL (   11626 calls)
     interpolate  :      0.01s CPU      0.02s WALL (      14 calls)
     davcio       :      0.00s CPU      0.00s WALL (      60 calls)

     Parallel routines
     fft_scatter  :      0.24s CPU      0.51s WALL (   11752 calls)

     PWSCF        :     1.71s CPU         2.38s WALL


   This run was terminated on:  10: 3:45  10Nov2017            

=------------------------------------------------------------------------------=
   JOB DONE.
=------------------------------------------------------------------------------=
