
     Program PHONON v.6.1 (svn rev. 13369) starts on  9Nov2017 at 13: 9:48 

     This program is part of the open-source Quantum ESPRESSO suite
     for quantum simulation of materials; please cite
         "P. Giannozzi et al., J. Phys.:Condens. Matter 21 395502 (2009);
          URL http://www.quantum-espresso.org", 
     in publications or presentations arising from this work. More details at
     http://www.quantum-espresso.org/quote

     Parallel version (MPI), running on     4 processors
     R & G space division:  proc/nbgrp/npool/nimage =       4

     Reading data from directory:
     ./silicon.10.358.save

   Info: using nr1, nr2, nr3 values from input

   Info: using nr1, nr2, nr3 values from input

     IMPORTANT: XC functional enforced from input :
     Exchange-correlation      = SLA  PW   PBE  PBE ( 1  4  3  4 0 0)
     Any further DFT definition will be discarded
     Please, verify this is what you really want


     Parallelization info
     --------------------
     sticks:   dense  smooth     PW     G-vecs:    dense   smooth      PW
     Min          64      64     22                  709      709     140
     Max          67      67     23                  710      710     141
     Sum         265     265     91                 2837     2837     561


     Check: negative/imaginary core charge=   -0.000006    0.000000


     Dynamical matrices for ( 4, 4, 4)  uniform grid of q-points
     (   8q-points):
       N         xq(1)         xq(2)         xq(3) 
       1   0.000000000   0.000000000   0.000000000
       2  -0.250000000   0.250000000  -0.250000000
       3   0.500000000  -0.500000000   0.500000000
       4   0.000000000   0.500000000   0.000000000
       5   0.750000000  -0.250000000   0.750000000
       6   0.500000000   0.000000000   0.500000000
       7   0.000000000  -1.000000000   0.000000000
       8  -0.500000000  -1.000000000   0.000000000

     Calculation of q =    0.0000000   0.0000000   0.0000000

                                                                                

     bravais-lattice index     =            2
     lattice parameter (alat)  =      10.3580  a.u.
     unit-cell volume          =     277.8227 (a.u.)^3
     number of atoms/cell      =            2
     number of atomic types    =            1
     kinetic-energy cut-off    =      18.0000  Ry
     charge density cut-off    =      72.0000  Ry
     convergence threshold     =      1.0E-12
     beta                      =       0.7000
     number of iterations used =            4
     Exchange-correlation      = SLA  PW   PBE  PBE ( 1  4  3  4 0 0)


     celldm(1)=   10.35800  celldm(2)=    0.00000  celldm(3)=    0.00000
     celldm(4)=    0.00000  celldm(5)=    0.00000  celldm(6)=    0.00000

     crystal axes: (cart. coord. in units of alat)
               a(1) = ( -0.5000  0.0000  0.5000 )  
               a(2) = (  0.0000  0.5000  0.5000 )  
               a(3) = ( -0.5000  0.5000  0.0000 )  

     reciprocal axes: (cart. coord. in units 2 pi/alat)
               b(1) = ( -1.0000 -1.0000  1.0000 )  
               b(2) = (  1.0000  1.0000  1.0000 )  
               b(3) = ( -1.0000  1.0000 -1.0000 )  


     Atoms inside the unit cell: 

     Cartesian axes

     site n.  atom      mass           positions (alat units)
        1     Si  28.0860   tau(    1) = (    0.00000    0.00000    0.00000  )
        2     Si  28.0860   tau(    2) = (    0.25000    0.25000    0.25000  )

     Computing dynamical matrix for 
                    q = (   0.0000000   0.0000000   0.0000000 )

     49 Sym.Ops. (with q -> -q+G )


     G cutoff =  195.6701  (    710 G-vectors)     FFT grid: ( 20, 20, 20)
     number of k points=    10

     PseudoPot. # 1 for Si read from file:
     /home/max/quantum_espresso/qe-6.1/pseudo/si_pbe_v1.uspp.F.UPF.txt
     MD5 check sum: a056efeee980c13900f22a371efd63c1
     Pseudo is Ultrasoft + core correction, Zval =  4.0
     Generated by new atomic code, or converted to UPF format
     Using radial grid of  899 points,  6 beta functions with: 
                l(1) =   0
                l(2) =   0
                l(3) =   1
                l(4) =   1
                l(5) =   2
                l(6) =   2
     Q(r) pseudized with  8 coefficients,  rinner =    0.900   0.900   0.900
                                                       0.900   0.900

     Mode symmetry, O_h (m-3m)  point group:


     Electric field:
     Dielectric constant
     Born effective charges in two ways 


     Atomic displacements:
     There are   2 irreducible representations

     Representation     1      3 modes -T_2g G_25' G_5+  To be done

     Representation     2      3 modes -T_1u G_15  G_4-  To be done



     Alpha used in Ewald sum =   0.7000
     PHONON       :     0.46s CPU         0.50s WALL


     Electric Fields Calculation

      iter #   1 total cpu time :     1.0 secs   av.it.:   5.6
      thresh= 1.000E-02 alpha_mix =  0.700 |ddv_scf|^2 =  9.407E-07

      iter #   2 total cpu time :     1.2 secs   av.it.:   9.9
      thresh= 9.699E-05 alpha_mix =  0.700 |ddv_scf|^2 =  6.026E-08

      iter #   3 total cpu time :     1.4 secs   av.it.:   9.8
      thresh= 2.455E-05 alpha_mix =  0.700 |ddv_scf|^2 =  4.751E-09

      iter #   4 total cpu time :     1.6 secs   av.it.:   9.0
      thresh= 6.893E-06 alpha_mix =  0.700 |ddv_scf|^2 =  2.854E-11

      iter #   5 total cpu time :     1.8 secs   av.it.:   9.1
      thresh= 5.342E-07 alpha_mix =  0.700 |ddv_scf|^2 =  1.474E-14

     End of electric fields calculation

          Dielectric constant in cartesian axis 

          (      13.922713450       0.000000000       0.000000000 )
          (       0.000000000      13.922713450      -0.000000000 )
          (      -0.000000000      -0.000000000      13.922713450 )

          Effective charges (d Force / dE) in cartesian axis

           atom      1   Si 
      Ex  (       -0.03522        0.00000        0.00000 )
      Ey  (        0.00000       -0.03522       -0.00000 )
      Ez  (        0.00000       -0.00000       -0.03522 )
           atom      2   Si 
      Ex  (       -0.03522        0.00000        0.00000 )
      Ey  (        0.00000       -0.03522       -0.00000 )
      Ez  (        0.00000        0.00000       -0.03522 )


     Representation #  1 modes #   1  2  3

     Self-consistent Calculation

      iter #   1 total cpu time :     2.2 secs   av.it.:   5.0
      thresh= 1.000E-02 alpha_mix =  0.700 |ddv_scf|^2 =  2.246E-07

      iter #   2 total cpu time :     2.5 secs   av.it.:   9.8
      thresh= 4.739E-05 alpha_mix =  0.700 |ddv_scf|^2 =  1.395E-08

      iter #   3 total cpu time :     2.8 secs   av.it.:   9.3
      thresh= 1.181E-05 alpha_mix =  0.700 |ddv_scf|^2 =  8.641E-10

      iter #   4 total cpu time :     3.0 secs   av.it.:   8.9
      thresh= 2.939E-06 alpha_mix =  0.700 |ddv_scf|^2 =  1.917E-12

      iter #   5 total cpu time :     3.2 secs   av.it.:   9.5
      thresh= 1.385E-07 alpha_mix =  0.700 |ddv_scf|^2 =  1.356E-14

     End of self-consistent calculation

     Convergence has been achieved 


     Representation #  2 modes #   4  5  6

     Self-consistent Calculation

      iter #   1 total cpu time :     3.4 secs   av.it.:   5.0
      thresh= 1.000E-02 alpha_mix =  0.700 |ddv_scf|^2 =  1.864E-07

      iter #   2 total cpu time :     3.6 secs   av.it.:   9.6
      thresh= 4.318E-05 alpha_mix =  0.700 |ddv_scf|^2 =  1.518E-08

      iter #   3 total cpu time :     3.8 secs   av.it.:   9.3
      thresh= 1.232E-05 alpha_mix =  0.700 |ddv_scf|^2 =  9.208E-10

      iter #   4 total cpu time :     4.0 secs   av.it.:   9.5
      thresh= 3.035E-06 alpha_mix =  0.700 |ddv_scf|^2 =  5.378E-12

      iter #   5 total cpu time :     4.2 secs   av.it.:   9.0
      thresh= 2.319E-07 alpha_mix =  0.700 |ddv_scf|^2 =  4.740E-15

     End of self-consistent calculation

     Convergence has been achieved 

     Number of q in the star =    1
     List of q in the star:
          1   0.000000000   0.000000000   0.000000000

          Dielectric constant in cartesian axis 

          (      13.922713450       0.000000000       0.000000000 )
          (       0.000000000      13.922713450      -0.000000000 )
          (      -0.000000000      -0.000000000      13.922713450 )

          Effective charges (d Force / dE) in cartesian axis

           atom      1   Si 
      Ex  (       -0.03522        0.00000        0.00000 )
      Ey  (        0.00000       -0.03522       -0.00000 )
      Ez  (        0.00000       -0.00000       -0.03522 )
           atom      2   Si 
      Ex  (       -0.03522        0.00000        0.00000 )
      Ey  (        0.00000       -0.03522       -0.00000 )
      Ez  (        0.00000        0.00000       -0.03522 )

          Effective charges (d P / du) in cartesian axis 

           atom      1   Si 
      Px  (       -0.07542        0.00000        0.00000 )
      Py  (        0.00000       -0.07542        0.00000 )
      Pz  (        0.00000        0.00000       -0.07542 )
           atom      2   Si 
      Px  (       -0.07542       -0.00000       -0.00000 )
      Py  (       -0.00000       -0.07542        0.00000 )
      Pz  (       -0.00000        0.00000       -0.07542 )

     Diagonalizing the dynamical matrix

     q = (    0.000000000   0.000000000   0.000000000 ) 

 **************************************************************************
     freq (    1) =       1.883413 [THz] =      62.823885 [cm-1]
     freq (    2) =       1.883413 [THz] =      62.823885 [cm-1]
     freq (    3) =       1.883413 [THz] =      62.823885 [cm-1]
     freq (    4) =      15.286761 [THz] =     509.911476 [cm-1]
     freq (    5) =      15.286761 [THz] =     509.911476 [cm-1]
     freq (    6) =      15.286761 [THz] =     509.911476 [cm-1]
 **************************************************************************

     Mode symmetry, O_h (m-3m)  point group:

     freq (  1 -  3) =         62.8  [cm-1]   --> T_1u G_15  G_4- I  
     freq (  4 -  6) =        509.9  [cm-1]   --> T_2g G_25' G_5+ R  

     Calculation of q =   -0.2500000   0.2500000  -0.2500000

   Info: using nr1, nr2, nr3 values from input

   Info: using nr1, nr2, nr3 values from input

     Parallelization info
     --------------------
     sticks:   dense  smooth     PW     G-vecs:    dense   smooth      PW
     Min          64      64     24                  709      709     161
     Max          67      67     25                  710      710     162
     Sum         265     265     97                 2837     2837     645



     bravais-lattice index     =            2
     lattice parameter (alat)  =      10.3580  a.u.
     unit-cell volume          =     277.8227 (a.u.)^3
     number of atoms/cell      =            2
     number of atomic types    =            1
     number of electrons       =         8.00
     number of Kohn-Sham states=            4
     kinetic-energy cutoff     =      18.0000  Ry
     charge density cutoff     =      72.0000  Ry
     Exchange-correlation      = SLA  PW   PBE  PBE ( 1  4  3  4 0 0)

     celldm(1)=  10.358000  celldm(2)=   0.000000  celldm(3)=   0.000000
     celldm(4)=   0.000000  celldm(5)=   0.000000  celldm(6)=   0.000000

     crystal axes: (cart. coord. in units of alat)
               a(1) = (  -0.500000   0.000000   0.500000 )  
               a(2) = (   0.000000   0.500000   0.500000 )  
               a(3) = (  -0.500000   0.500000   0.000000 )  

     reciprocal axes: (cart. coord. in units 2 pi/alat)
               b(1) = ( -1.000000 -1.000000  1.000000 )  
               b(2) = (  1.000000  1.000000  1.000000 )  
               b(3) = ( -1.000000  1.000000 -1.000000 )  


     PseudoPot. # 1 for Si read from file:
     /home/max/quantum_espresso/qe-6.1/pseudo/si_pbe_v1.uspp.F.UPF.txt
     MD5 check sum: a056efeee980c13900f22a371efd63c1
     Pseudo is Ultrasoft + core correction, Zval =  4.0
     Generated by new atomic code, or converted to UPF format
     Using radial grid of  899 points,  6 beta functions with: 
                l(1) =   0
                l(2) =   0
                l(3) =   1
                l(4) =   1
                l(5) =   2
                l(6) =   2
     Q(r) pseudized with  8 coefficients,  rinner =    0.900   0.900   0.900
                                                       0.900   0.900

     atomic species   valence    mass     pseudopotential
        Si             4.00    28.08600     Si( 1.00)

     48 Sym. Ops., with inversion, found



   Cartesian axes

     site n.     atom                  positions (alat units)
         1           Si  tau(   1) = (   0.0000000   0.0000000   0.0000000  )
         2           Si  tau(   2) = (   0.2500000   0.2500000   0.2500000  )

     number of k points=   120

     Number of k-points >= 100: set verbosity='high' to print them.

     Dense  grid:     2837 G-vectors     FFT dimensions: (  20,  20,  20)

     Estimated max dynamical RAM per process >       0.33MB

     Estimated total allocated dynamical RAM >       1.32MB

     Check: negative/imaginary core charge=   -0.000006    0.000000

     The potential is recalculated from file :
     ./_ph0/silicon.10.358.save/charge-density.dat

     Starting wfc are    8 atomic wfcs

     Band Structure Calculation
     Davidson diagonalization with overlap

     ethr =  1.25E-10,  avg # of iterations = 11.7

     total cpu time spent up to now is        1.1 secs

     End of band structure calculation

     Number of k-points >= 100: set verbosity='high' to print the bands.

     highest occupied level (ev):     5.6297

     Writing output data file silicon.10.358.save

                                                                                

     bravais-lattice index     =            2
     lattice parameter (alat)  =      10.3580  a.u.
     unit-cell volume          =     277.8227 (a.u.)^3
     number of atoms/cell      =            2
     number of atomic types    =            1
     kinetic-energy cut-off    =      18.0000  Ry
     charge density cut-off    =      72.0000  Ry
     convergence threshold     =      1.0E-12
     beta                      =       0.7000
     number of iterations used =            4
     Exchange-correlation      = SLA  PW   PBE  PBE ( 1  4  3  4 0 0)


     celldm(1)=   10.35800  celldm(2)=    0.00000  celldm(3)=    0.00000
     celldm(4)=    0.00000  celldm(5)=    0.00000  celldm(6)=    0.00000

     crystal axes: (cart. coord. in units of alat)
               a(1) = ( -0.5000  0.0000  0.5000 )  
               a(2) = (  0.0000  0.5000  0.5000 )  
               a(3) = ( -0.5000  0.5000  0.0000 )  

     reciprocal axes: (cart. coord. in units 2 pi/alat)
               b(1) = ( -1.0000 -1.0000  1.0000 )  
               b(2) = (  1.0000  1.0000  1.0000 )  
               b(3) = ( -1.0000  1.0000 -1.0000 )  


     Atoms inside the unit cell: 

     Cartesian axes

     site n.  atom      mass           positions (alat units)
        1     Si  28.0860   tau(    1) = (    0.00000    0.00000    0.00000  )
        2     Si  28.0860   tau(    2) = (    0.25000    0.25000    0.25000  )

     Computing dynamical matrix for 
                    q = (  -0.2500000   0.2500000  -0.2500000 )

      6 Sym.Ops. (no q -> -q+G )


     G cutoff =  195.6701  (    710 G-vectors)     FFT grid: ( 20, 20, 20)
     number of k points=   120

     PseudoPot. # 1 for Si read from file:
     /home/max/quantum_espresso/qe-6.1/pseudo/si_pbe_v1.uspp.F.UPF.txt
     MD5 check sum: a056efeee980c13900f22a371efd63c1
     Pseudo is Ultrasoft + core correction, Zval =  4.0
     Generated by new atomic code, or converted to UPF format
     Using radial grid of  899 points,  6 beta functions with: 
                l(1) =   0
                l(2) =   0
                l(3) =   1
                l(4) =   1
                l(5) =   2
                l(6) =   2
     Q(r) pseudized with  8 coefficients,  rinner =    0.900   0.900   0.900
                                                       0.900   0.900

     Mode symmetry, C_3v (3m)   point group:


     Atomic displacements:
     There are   4 irreducible representations

     Representation     1      1 modes -A_1  L_1  To be done

     Representation     2      1 modes -A_1  L_1  To be done

     Representation     3      2 modes -E    L_3  To be done

     Representation     4      2 modes -E    L_3  To be done



     Alpha used in Ewald sum =   0.7000
     PHONON       :     5.32s CPU         5.80s WALL



     Representation #  1 mode #   1

     Self-consistent Calculation

      iter #   1 total cpu time :     6.1 secs   av.it.:   5.5
      thresh= 1.000E-02 alpha_mix =  0.700 |ddv_scf|^2 =  2.455E-03

      iter #   2 total cpu time :     6.3 secs   av.it.:   7.5
      thresh= 4.955E-03 alpha_mix =  0.700 |ddv_scf|^2 =  3.715E-02

      iter #   3 total cpu time :     6.8 secs   av.it.:   6.3
      thresh= 1.000E-02 alpha_mix =  0.700 |ddv_scf|^2 =  1.710E-06

      iter #   4 total cpu time :     7.1 secs   av.it.:   8.2
      thresh= 1.308E-04 alpha_mix =  0.700 |ddv_scf|^2 =  1.161E-07

      iter #   5 total cpu time :     7.4 secs   av.it.:   8.1
      thresh= 3.407E-05 alpha_mix =  0.700 |ddv_scf|^2 =  4.769E-09

      iter #   6 total cpu time :     7.7 secs   av.it.:   8.0
      thresh= 6.906E-06 alpha_mix =  0.700 |ddv_scf|^2 =  4.001E-09

      iter #   7 total cpu time :     7.9 secs   av.it.:   6.2
      thresh= 6.326E-06 alpha_mix =  0.700 |ddv_scf|^2 =  5.371E-10

      iter #   8 total cpu time :     8.2 secs   av.it.:   7.2
      thresh= 2.318E-06 alpha_mix =  0.700 |ddv_scf|^2 =  4.104E-12

      iter #   9 total cpu time :     8.7 secs   av.it.:   7.2
      thresh= 2.026E-07 alpha_mix =  0.700 |ddv_scf|^2 =  1.767E-13

     End of self-consistent calculation

     Convergence has been achieved 


     Representation #  2 mode #   2

     Self-consistent Calculation

      iter #   1 total cpu time :     8.9 secs   av.it.:   5.5
      thresh= 1.000E-02 alpha_mix =  0.700 |ddv_scf|^2 =  2.455E-03

      iter #   2 total cpu time :     9.2 secs   av.it.:   7.5
      thresh= 4.955E-03 alpha_mix =  0.700 |ddv_scf|^2 =  3.715E-02

      iter #   3 total cpu time :     9.5 secs   av.it.:   6.3
      thresh= 1.000E-02 alpha_mix =  0.700 |ddv_scf|^2 =  1.710E-06

      iter #   4 total cpu time :     9.8 secs   av.it.:   8.2
      thresh= 1.308E-04 alpha_mix =  0.700 |ddv_scf|^2 =  1.161E-07

      iter #   5 total cpu time :    10.1 secs   av.it.:   8.1
      thresh= 3.407E-05 alpha_mix =  0.700 |ddv_scf|^2 =  4.769E-09

      iter #   6 total cpu time :    10.4 secs   av.it.:   8.0
      thresh= 6.906E-06 alpha_mix =  0.700 |ddv_scf|^2 =  4.001E-09

      iter #   7 total cpu time :    10.8 secs   av.it.:   6.2
      thresh= 6.326E-06 alpha_mix =  0.700 |ddv_scf|^2 =  5.371E-10

      iter #   8 total cpu time :    11.1 secs   av.it.:   7.2
      thresh= 2.318E-06 alpha_mix =  0.700 |ddv_scf|^2 =  4.104E-12

      iter #   9 total cpu time :    11.3 secs   av.it.:   7.2
      thresh= 2.026E-07 alpha_mix =  0.700 |ddv_scf|^2 =  1.767E-13

     End of self-consistent calculation

     Convergence has been achieved 


     Representation #  3 modes #   3  4

     Self-consistent Calculation

      iter #   1 total cpu time :    11.8 secs   av.it.:   5.0
      thresh= 1.000E-02 alpha_mix =  0.700 |ddv_scf|^2 =  5.737E-07

      iter #   2 total cpu time :    12.7 secs   av.it.:   9.5
      thresh= 7.574E-05 alpha_mix =  0.700 |ddv_scf|^2 =  4.324E-08

      iter #   3 total cpu time :    13.4 secs   av.it.:   9.2
      thresh= 2.079E-05 alpha_mix =  0.700 |ddv_scf|^2 =  3.750E-09

      iter #   4 total cpu time :    14.0 secs   av.it.:   8.9
      thresh= 6.123E-06 alpha_mix =  0.700 |ddv_scf|^2 =  1.126E-11

      iter #   5 total cpu time :    14.8 secs   av.it.:   9.2
      thresh= 3.356E-07 alpha_mix =  0.700 |ddv_scf|^2 =  5.005E-13

     End of self-consistent calculation

     Convergence has been achieved 


     Representation #  4 modes #   5  6

     Self-consistent Calculation

      iter #   1 total cpu time :    15.3 secs   av.it.:   5.0
      thresh= 1.000E-02 alpha_mix =  0.700 |ddv_scf|^2 =  5.736E-07

      iter #   2 total cpu time :    16.0 secs   av.it.:   9.6
      thresh= 7.574E-05 alpha_mix =  0.700 |ddv_scf|^2 =  4.320E-08

      iter #   3 total cpu time :    16.8 secs   av.it.:   9.4
      thresh= 2.079E-05 alpha_mix =  0.700 |ddv_scf|^2 =  3.747E-09

      iter #   4 total cpu time :    17.5 secs   av.it.:   9.1
      thresh= 6.121E-06 alpha_mix =  0.700 |ddv_scf|^2 =  1.126E-11

      iter #   5 total cpu time :    18.1 secs   av.it.:   9.3
      thresh= 3.356E-07 alpha_mix =  0.700 |ddv_scf|^2 =  5.008E-13

     End of self-consistent calculation

     Convergence has been achieved 

     Number of q in the star =    8
     List of q in the star:
          1  -0.250000000   0.250000000  -0.250000000
          2   0.250000000  -0.250000000  -0.250000000
          3   0.250000000  -0.250000000   0.250000000
          4   0.250000000   0.250000000   0.250000000
          5  -0.250000000  -0.250000000  -0.250000000
          6  -0.250000000  -0.250000000   0.250000000
          7  -0.250000000   0.250000000   0.250000000
          8   0.250000000   0.250000000  -0.250000000

     Diagonalizing the dynamical matrix

     q = (   -0.250000000   0.250000000  -0.250000000 ) 

 **************************************************************************
     freq (    1) =       3.399508 [THz] =     113.395368 [cm-1]
     freq (    2) =       3.399508 [THz] =     113.395368 [cm-1]
     freq (    3) =       6.890867 [THz] =     229.854572 [cm-1]
     freq (    4) =      14.368056 [THz] =     479.266750 [cm-1]
     freq (    5) =      14.668831 [THz] =     489.299532 [cm-1]
     freq (    6) =      14.668831 [THz] =     489.299532 [cm-1]
 **************************************************************************

     Mode symmetry, C_3v (3m)   point group:

     freq (  1 -  2) =        113.4  [cm-1]   --> E    L_3           
     freq (  3 -  3) =        229.9  [cm-1]   --> A_1  L_1           
     freq (  4 -  4) =        479.3  [cm-1]   --> A_1  L_1           
     freq (  5 -  6) =        489.3  [cm-1]   --> E    L_3           

     Calculation of q =    0.5000000  -0.5000000   0.5000000

   Info: using nr1, nr2, nr3 values from input

   Info: using nr1, nr2, nr3 values from input

     Parallelization info
     --------------------
     sticks:   dense  smooth     PW     G-vecs:    dense   smooth      PW
     Min          64      64     27                  709      709     186
     Max          67      67     28                  710      710     189
     Sum         265     265    109                 2837     2837     749



     bravais-lattice index     =            2
     lattice parameter (alat)  =      10.3580  a.u.
     unit-cell volume          =     277.8227 (a.u.)^3
     number of atoms/cell      =            2
     number of atomic types    =            1
     number of electrons       =         8.00
     number of Kohn-Sham states=            4
     kinetic-energy cutoff     =      18.0000  Ry
     charge density cutoff     =      72.0000  Ry
     Exchange-correlation      = SLA  PW   PBE  PBE ( 1  4  3  4 0 0)

     celldm(1)=  10.358000  celldm(2)=   0.000000  celldm(3)=   0.000000
     celldm(4)=   0.000000  celldm(5)=   0.000000  celldm(6)=   0.000000

     crystal axes: (cart. coord. in units of alat)
               a(1) = (  -0.500000   0.000000   0.500000 )  
               a(2) = (   0.000000   0.500000   0.500000 )  
               a(3) = (  -0.500000   0.500000   0.000000 )  

     reciprocal axes: (cart. coord. in units 2 pi/alat)
               b(1) = ( -1.000000 -1.000000  1.000000 )  
               b(2) = (  1.000000  1.000000  1.000000 )  
               b(3) = ( -1.000000  1.000000 -1.000000 )  


     PseudoPot. # 1 for Si read from file:
     /home/max/quantum_espresso/qe-6.1/pseudo/si_pbe_v1.uspp.F.UPF.txt
     MD5 check sum: a056efeee980c13900f22a371efd63c1
     Pseudo is Ultrasoft + core correction, Zval =  4.0
     Generated by new atomic code, or converted to UPF format
     Using radial grid of  899 points,  6 beta functions with: 
                l(1) =   0
                l(2) =   0
                l(3) =   1
                l(4) =   1
                l(5) =   2
                l(6) =   2
     Q(r) pseudized with  8 coefficients,  rinner =    0.900   0.900   0.900
                                                       0.900   0.900

     atomic species   valence    mass     pseudopotential
        Si             4.00    28.08600     Si( 1.00)

     48 Sym. Ops., with inversion, found



   Cartesian axes

     site n.     atom                  positions (alat units)
         1           Si  tau(   1) = (   0.0000000   0.0000000   0.0000000  )
         2           Si  tau(   2) = (   0.2500000   0.2500000   0.2500000  )

     number of k points=    60
                       cart. coord. in units 2pi/alat
        k(    1) = (  -0.1250000   0.1250000   0.1250000), wk =   0.0468750
        k(    2) = (   0.3750000  -0.3750000   0.6250000), wk =   0.0000000
        k(    3) = (  -0.3750000   0.3750000  -0.1250000), wk =   0.0468750
        k(    4) = (   0.1250000  -0.1250000   0.3750000), wk =   0.0000000
        k(    5) = (   0.3750000  -0.3750000   0.6250000), wk =   0.0468750
        k(    6) = (   0.8750000  -0.8750000   1.1250000), wk =   0.0000000
        k(    7) = (   0.1250000  -0.1250000   0.3750000), wk =   0.0468750
        k(    8) = (   0.6250000  -0.6250000   0.8750000), wk =   0.0000000
        k(    9) = (  -0.1250000   0.6250000   0.1250000), wk =   0.0937500
        k(   10) = (   0.3750000   0.1250000   0.6250000), wk =   0.0000000
        k(   11) = (   0.6250000  -0.1250000   0.8750000), wk =   0.0937500
        k(   12) = (   1.1250000  -0.6250000   1.3750000), wk =   0.0000000
        k(   13) = (   0.3750000   0.1250000   0.6250000), wk =   0.0937500
        k(   14) = (   0.8750000  -0.3750000   1.1250000), wk =   0.0000000
        k(   15) = (  -0.1250000  -0.8750000   0.1250000), wk =   0.0937500
        k(   16) = (   0.3750000  -1.3750000   0.6250000), wk =   0.0000000
        k(   17) = (  -0.3750000   0.3750000   0.3750000), wk =   0.0468750
        k(   18) = (   0.1250000  -0.1250000   0.8750000), wk =   0.0000000
        k(   19) = (   0.3750000  -0.3750000   1.1250000), wk =   0.0468750
        k(   20) = (   0.8750000  -0.8750000   1.6250000), wk =   0.0000000
        k(   21) = (   0.1250000  -0.1250000   0.1250000), wk =   0.0156250
        k(   22) = (   0.6250000  -0.6250000   0.6250000), wk =   0.0000000
        k(   23) = (  -0.3750000  -0.3750000  -0.1250000), wk =   0.0937500
        k(   24) = (   0.1250000  -0.8750000   0.3750000), wk =   0.0000000
        k(   25) = (  -0.1250000  -0.3750000   0.3750000), wk =   0.0468750
        k(   26) = (   0.3750000  -0.8750000   0.8750000), wk =   0.0000000
        k(   27) = (   0.3750000   0.3750000   0.6250000), wk =   0.0937500
        k(   28) = (   0.8750000  -0.1250000   1.1250000), wk =   0.0000000
        k(   29) = (   0.6250000   0.3750000  -0.3750000), wk =   0.0468750
        k(   30) = (   1.1250000  -0.1250000   0.1250000), wk =   0.0000000
        k(   31) = (   0.1250000   0.1250000   0.3750000), wk =   0.0937500
        k(   32) = (   0.6250000  -0.3750000   0.8750000), wk =   0.0000000
        k(   33) = (   0.3750000   0.1250000  -0.1250000), wk =   0.0468750
        k(   34) = (   0.8750000  -0.3750000   0.3750000), wk =   0.0000000
        k(   35) = (  -0.1250000  -0.6250000  -0.1250000), wk =   0.0468750
        k(   36) = (   0.3750000  -1.1250000   0.3750000), wk =   0.0000000
        k(   37) = (   0.1250000  -0.6250000   0.1250000), wk =   0.0468750
        k(   38) = (   0.6250000  -1.1250000   0.6250000), wk =   0.0000000
        k(   39) = (   0.6250000   0.1250000   0.8750000), wk =   0.0937500
        k(   40) = (   1.1250000  -0.3750000   1.3750000), wk =   0.0000000
        k(   41) = (  -0.8750000   0.1250000   0.6250000), wk =   0.0937500
        k(   42) = (  -0.3750000  -0.3750000   1.1250000), wk =   0.0000000
        k(   43) = (   0.8750000   0.1250000  -0.6250000), wk =   0.0937500
        k(   44) = (   1.3750000  -0.3750000  -0.1250000), wk =   0.0000000
        k(   45) = (   0.3750000  -0.1250000   0.6250000), wk =   0.0937500
        k(   46) = (   0.8750000  -0.6250000   1.1250000), wk =   0.0000000
        k(   47) = (  -0.6250000  -0.1250000   0.3750000), wk =   0.0937500
        k(   48) = (  -0.1250000  -0.6250000   0.8750000), wk =   0.0000000
        k(   49) = (   0.6250000  -0.1250000  -0.3750000), wk =   0.0937500
        k(   50) = (   1.1250000  -0.6250000   0.1250000), wk =   0.0000000
        k(   51) = (  -0.1250000   0.8750000  -0.1250000), wk =   0.0468750
        k(   52) = (   0.3750000   0.3750000   0.3750000), wk =   0.0000000
        k(   53) = (   0.1250000   0.8750000   0.1250000), wk =   0.0468750
        k(   54) = (   0.6250000   0.3750000   0.6250000), wk =   0.0000000
        k(   55) = (   0.3750000  -0.3750000   0.3750000), wk =   0.0156250
        k(   56) = (   0.8750000  -0.8750000   0.8750000), wk =   0.0000000
        k(   57) = (   0.3750000   0.3750000   1.1250000), wk =   0.0937500
        k(   58) = (   0.8750000  -0.1250000   1.6250000), wk =   0.0000000
        k(   59) = (   1.1250000   0.3750000  -0.3750000), wk =   0.0468750
        k(   60) = (   1.6250000  -0.1250000   0.1250000), wk =   0.0000000

     Dense  grid:     2837 G-vectors     FFT dimensions: (  20,  20,  20)

     Estimated max dynamical RAM per process >       0.33MB

     Estimated total allocated dynamical RAM >       1.32MB

     Check: negative/imaginary core charge=   -0.000006    0.000000

     The potential is recalculated from file :
     ./_ph0/silicon.10.358.save/charge-density.dat

     Starting wfc are    8 atomic wfcs

     Band Structure Calculation
     Davidson diagonalization with overlap

     ethr =  1.25E-10,  avg # of iterations = 11.7

     total cpu time spent up to now is        1.8 secs

     End of band structure calculation

          k =-0.1250 0.1250 0.1250 (   344 PWs)   bands (ev):

    -5.6563   4.3203   5.6297   5.6297

          k = 0.3750-0.3750 0.6250 (   361 PWs)   bands (ev):

    -3.5132  -0.7169   3.6761   4.3856

          k =-0.3750 0.3750-0.1250 (   355 PWs)   bands (ev):

    -4.6389   1.3400   3.6608   5.1495

          k = 0.1250-0.1250 0.3750 (   353 PWs)   bands (ev):

    -5.1330   2.7055   4.6304   4.6899

          k = 0.3750-0.3750 0.6250 (   361 PWs)   bands (ev):

    -3.5132  -0.7169   3.6761   4.3856

          k = 0.8750-0.8750 1.1250 (   344 PWs)   bands (ev):

    -5.6563   4.3203   5.6297   5.6297

          k = 0.1250-0.1250 0.3750 (   353 PWs)   bands (ev):

    -5.1330   2.7055   4.6304   4.6899

          k = 0.6250-0.6250 0.8750 (   355 PWs)   bands (ev):

    -4.6389   1.3400   3.6608   5.1495

          k =-0.1250 0.6250 0.1250 (   351 PWs)   bands (ev):

    -4.1104   0.9957   3.3176   3.7628

          k = 0.3750 0.1250 0.6250 (   360 PWs)   bands (ev):

    -3.7000   0.1355   2.6806   4.0366

          k = 0.6250-0.1250 0.8750 (   361 PWs)   bands (ev):

    -2.4874  -0.9547   1.9816   3.0447

          k = 1.1250-0.6250 1.3750 (   355 PWs)   bands (ev):

    -4.6389   1.3400   3.6608   5.1495

          k = 0.3750 0.1250 0.6250 (   360 PWs)   bands (ev):

    -3.7000   0.1355   2.6806   4.0366

          k = 0.8750-0.3750 1.1250 (   351 PWs)   bands (ev):

    -4.1104   0.9957   3.3176   3.7628

          k =-0.1250-0.8750 0.1250 (   360 PWs)   bands (ev):

    -2.6511  -0.8592   2.5826   3.2990

          k = 0.3750-1.3750 0.6250 (   361 PWs)   bands (ev):

    -3.5132  -0.7169   3.6761   4.3856

          k =-0.3750 0.3750 0.3750 (   353 PWs)   bands (ev):

    -4.2114   0.0657   4.8455   4.8455

          k = 0.1250-0.1250 0.8750 (   360 PWs)   bands (ev):

    -2.6511  -0.8592   2.5826   3.2990

          k = 0.3750-0.3750 1.1250 (   363 PWs)   bands (ev):

    -3.0214  -0.6449   2.0354   4.0723

          k = 0.8750-0.8750 1.6250 (   351 PWs)   bands (ev):

    -4.1104   0.9957   3.3176   3.7628

          k = 0.1250-0.1250 0.1250 (   344 PWs)   bands (ev):

    -5.6563   4.3203   5.6297   5.6297

          k = 0.6250-0.6250 0.6250 (   353 PWs)   bands (ev):

    -4.2114   0.0657   4.8455   4.8455

          k =-0.3750-0.3750-0.1250 (   355 PWs)   bands (ev):

    -4.6389   1.3400   3.6608   5.1495

          k = 0.1250-0.8750 0.3750 (   361 PWs)   bands (ev):

    -2.4874  -0.9547   1.9816   3.0447

          k =-0.1250-0.3750 0.3750 (   355 PWs)   bands (ev):

    -4.6389   1.3400   3.6608   5.1495

          k = 0.3750-0.8750 0.8750 (   351 PWs)   bands (ev):

    -4.1104   0.9957   3.3176   3.7628

          k = 0.3750 0.3750 0.6250 (   361 PWs)   bands (ev):

    -3.5132  -0.7169   3.6761   4.3856

          k = 0.8750-0.1250 1.1250 (   360 PWs)   bands (ev):

    -2.6511  -0.8592   2.5826   3.2990

          k = 0.6250 0.3750-0.3750 (   361 PWs)   bands (ev):

    -3.5132  -0.7169   3.6761   4.3856

          k = 1.1250-0.1250 0.1250 (   360 PWs)   bands (ev):

    -2.6511  -0.8592   2.5826   3.2990

          k = 0.1250 0.1250 0.3750 (   353 PWs)   bands (ev):

    -5.1330   2.7055   4.6304   4.6899

          k = 0.6250-0.3750 0.8750 (   360 PWs)   bands (ev):

    -3.7000   0.1355   2.6806   4.0366

          k = 0.3750 0.1250-0.1250 (   353 PWs)   bands (ev):

    -5.1330   2.7055   4.6304   4.6899

          k = 0.8750-0.3750 0.3750 (   363 PWs)   bands (ev):

    -3.0214  -0.6449   2.0354   4.0723

          k =-0.1250-0.6250-0.1250 (   351 PWs)   bands (ev):

    -4.1104   0.9957   3.3176   3.7628

          k = 0.3750-1.1250 0.3750 (   363 PWs)   bands (ev):

    -3.0214  -0.6449   2.0354   4.0723

          k = 0.1250-0.6250 0.1250 (   351 PWs)   bands (ev):

    -4.1104   0.9957   3.3176   3.7628

          k = 0.6250-1.1250 0.6250 (   355 PWs)   bands (ev):

    -4.6389   1.3400   3.6608   5.1495

          k = 0.6250 0.1250 0.8750 (   361 PWs)   bands (ev):

    -2.4874  -0.9547   1.9816   3.0447

          k = 1.1250-0.3750 1.3750 (   360 PWs)   bands (ev):

    -3.7000   0.1355   2.6806   4.0366

          k =-0.8750 0.1250 0.6250 (   361 PWs)   bands (ev):

    -2.4874  -0.9547   1.9816   3.0447

          k =-0.3750-0.3750 1.1250 (   363 PWs)   bands (ev):

    -3.0214  -0.6449   2.0354   4.0723

          k = 0.8750 0.1250-0.6250 (   361 PWs)   bands (ev):

    -2.4874  -0.9547   1.9816   3.0447

          k = 1.3750-0.3750-0.1250 (   360 PWs)   bands (ev):

    -3.7000   0.1355   2.6806   4.0366

          k = 0.3750-0.1250 0.6250 (   360 PWs)   bands (ev):

    -3.7000   0.1355   2.6806   4.0366

          k = 0.8750-0.6250 1.1250 (   353 PWs)   bands (ev):

    -5.1330   2.7055   4.6304   4.6899

          k =-0.6250-0.1250 0.3750 (   360 PWs)   bands (ev):

    -3.7000   0.1355   2.6806   4.0366

          k =-0.1250-0.6250 0.8750 (   361 PWs)   bands (ev):

    -2.4874  -0.9547   1.9816   3.0447

          k = 0.6250-0.1250-0.3750 (   360 PWs)   bands (ev):

    -3.7000   0.1355   2.6806   4.0366

          k = 1.1250-0.6250 0.1250 (   361 PWs)   bands (ev):

    -2.4874  -0.9547   1.9816   3.0447

          k =-0.1250 0.8750-0.1250 (   360 PWs)   bands (ev):

    -2.6511  -0.8592   2.5826   3.2990

          k = 0.3750 0.3750 0.3750 (   353 PWs)   bands (ev):

    -4.2114   0.0657   4.8455   4.8455

          k = 0.1250 0.8750 0.1250 (   360 PWs)   bands (ev):

    -2.6511  -0.8592   2.5826   3.2990

          k = 0.6250 0.3750 0.6250 (   361 PWs)   bands (ev):

    -3.5132  -0.7169   3.6761   4.3856

          k = 0.3750-0.3750 0.3750 (   353 PWs)   bands (ev):

    -4.2114   0.0657   4.8455   4.8455

          k = 0.8750-0.8750 0.8750 (   344 PWs)   bands (ev):

    -5.6563   4.3203   5.6297   5.6297

          k = 0.3750 0.3750 1.1250 (   363 PWs)   bands (ev):

    -3.0214  -0.6449   2.0354   4.0723

          k = 0.8750-0.1250 1.6250 (   361 PWs)   bands (ev):

    -2.4874  -0.9547   1.9816   3.0447

          k = 1.1250 0.3750-0.3750 (   363 PWs)   bands (ev):

    -3.0214  -0.6449   2.0354   4.0723

          k = 1.6250-0.1250 0.1250 (   353 PWs)   bands (ev):

    -5.1330   2.7055   4.6304   4.6899

     highest occupied level (ev):     5.6297

     Writing output data file silicon.10.358.save

                                                                                

     bravais-lattice index     =            2
     lattice parameter (alat)  =      10.3580  a.u.
     unit-cell volume          =     277.8227 (a.u.)^3
     number of atoms/cell      =            2
     number of atomic types    =            1
     kinetic-energy cut-off    =      18.0000  Ry
     charge density cut-off    =      72.0000  Ry
     convergence threshold     =      1.0E-12
     beta                      =       0.7000
     number of iterations used =            4
     Exchange-correlation      = SLA  PW   PBE  PBE ( 1  4  3  4 0 0)


     celldm(1)=   10.35800  celldm(2)=    0.00000  celldm(3)=    0.00000
     celldm(4)=    0.00000  celldm(5)=    0.00000  celldm(6)=    0.00000

     crystal axes: (cart. coord. in units of alat)
               a(1) = ( -0.5000  0.0000  0.5000 )  
               a(2) = (  0.0000  0.5000  0.5000 )  
               a(3) = ( -0.5000  0.5000  0.0000 )  

     reciprocal axes: (cart. coord. in units 2 pi/alat)
               b(1) = ( -1.0000 -1.0000  1.0000 )  
               b(2) = (  1.0000  1.0000  1.0000 )  
               b(3) = ( -1.0000  1.0000 -1.0000 )  


     Atoms inside the unit cell: 

     Cartesian axes

     site n.  atom      mass           positions (alat units)
        1     Si  28.0860   tau(    1) = (    0.00000    0.00000    0.00000  )
        2     Si  28.0860   tau(    2) = (    0.25000    0.25000    0.25000  )

     Computing dynamical matrix for 
                    q = (   0.5000000  -0.5000000   0.5000000 )

     13 Sym.Ops. (with q -> -q+G )


     G cutoff =  195.6701  (    710 G-vectors)     FFT grid: ( 20, 20, 20)
     number of k points=    60

     PseudoPot. # 1 for Si read from file:
     /home/max/quantum_espresso/qe-6.1/pseudo/si_pbe_v1.uspp.F.UPF.txt
     MD5 check sum: a056efeee980c13900f22a371efd63c1
     Pseudo is Ultrasoft + core correction, Zval =  4.0
     Generated by new atomic code, or converted to UPF format
     Using radial grid of  899 points,  6 beta functions with: 
                l(1) =   0
                l(2) =   0
                l(3) =   1
                l(4) =   1
                l(5) =   2
                l(6) =   2
     Q(r) pseudized with  8 coefficients,  rinner =    0.900   0.900   0.900
                                                       0.900   0.900


     Atomic displacements:
     There are   4 irreducible representations

     Representation     1      1 modes -  To be done

     Representation     2      1 modes -  To be done

     Representation     3      2 modes -  To be done

     Representation     4      2 modes -  To be done



     Alpha used in Ewald sum =   0.7000
     PHONON       :    17.24s CPU        19.12s WALL



     Representation #  1 mode #   1

     Self-consistent Calculation

      iter #   1 total cpu time :    19.3 secs   av.it.:   4.8
      thresh= 1.000E-02 alpha_mix =  0.700 |ddv_scf|^2 =  2.476E-05

      iter #   2 total cpu time :    19.4 secs   av.it.:   8.3
      thresh= 4.975E-04 alpha_mix =  0.700 |ddv_scf|^2 =  2.214E-05

      iter #   3 total cpu time :    19.6 secs   av.it.:   7.5
      thresh= 4.706E-04 alpha_mix =  0.700 |ddv_scf|^2 =  4.401E-08

      iter #   4 total cpu time :    19.7 secs   av.it.:   7.4
      thresh= 2.098E-05 alpha_mix =  0.700 |ddv_scf|^2 =  1.336E-10

      iter #   5 total cpu time :    19.9 secs   av.it.:   8.0
      thresh= 1.156E-06 alpha_mix =  0.700 |ddv_scf|^2 =  3.569E-12

      iter #   6 total cpu time :    20.1 secs   av.it.:   7.9
      thresh= 1.889E-07 alpha_mix =  0.700 |ddv_scf|^2 =  4.338E-14

     End of self-consistent calculation

     Convergence has been achieved 


     Representation #  2 mode #   2

     Self-consistent Calculation

      iter #   1 total cpu time :    20.2 secs   av.it.:   5.6
      thresh= 1.000E-02 alpha_mix =  0.700 |ddv_scf|^2 =  3.435E-04

      iter #   2 total cpu time :    20.4 secs   av.it.:   8.3
      thresh= 1.853E-03 alpha_mix =  0.700 |ddv_scf|^2 =  1.060E-03

      iter #   3 total cpu time :    20.7 secs   av.it.:   7.1
      thresh= 3.255E-03 alpha_mix =  0.700 |ddv_scf|^2 =  1.330E-07

      iter #   4 total cpu time :    20.9 secs   av.it.:   8.1
      thresh= 3.646E-05 alpha_mix =  0.700 |ddv_scf|^2 =  8.668E-09

      iter #   5 total cpu time :    21.1 secs   av.it.:   8.5
      thresh= 9.310E-06 alpha_mix =  0.700 |ddv_scf|^2 =  1.360E-10

      iter #   6 total cpu time :    21.3 secs   av.it.:   8.2
      thresh= 1.166E-06 alpha_mix =  0.700 |ddv_scf|^2 =  2.552E-12

      iter #   7 total cpu time :    21.4 secs   av.it.:   7.8
      thresh= 1.597E-07 alpha_mix =  0.700 |ddv_scf|^2 =  5.005E-15

     End of self-consistent calculation

     Convergence has been achieved 


     Representation #  3 modes #   3  4

     Self-consistent Calculation

      iter #   1 total cpu time :    21.7 secs   av.it.:   4.7
      thresh= 1.000E-02 alpha_mix =  0.700 |ddv_scf|^2 =  3.350E-07

      iter #   2 total cpu time :    22.0 secs   av.it.:   9.0
      thresh= 5.788E-05 alpha_mix =  0.700 |ddv_scf|^2 =  2.845E-08

      iter #   3 total cpu time :    22.4 secs   av.it.:   8.3
      thresh= 1.687E-05 alpha_mix =  0.700 |ddv_scf|^2 =  5.026E-10

      iter #   4 total cpu time :    22.9 secs   av.it.:   8.9
      thresh= 2.242E-06 alpha_mix =  0.700 |ddv_scf|^2 =  6.239E-12

      iter #   5 total cpu time :    23.2 secs   av.it.:   8.7
      thresh= 2.498E-07 alpha_mix =  0.700 |ddv_scf|^2 =  3.140E-14

     End of self-consistent calculation

     Convergence has been achieved 


     Representation #  4 modes #   5  6

     Self-consistent Calculation

      iter #   1 total cpu time :    23.5 secs   av.it.:   4.9
      thresh= 1.000E-02 alpha_mix =  0.700 |ddv_scf|^2 =  9.874E-07

      iter #   2 total cpu time :    23.9 secs   av.it.:   9.4
      thresh= 9.937E-05 alpha_mix =  0.700 |ddv_scf|^2 =  7.760E-08

      iter #   3 total cpu time :    24.2 secs   av.it.:   9.3
      thresh= 2.786E-05 alpha_mix =  0.700 |ddv_scf|^2 =  5.062E-09

      iter #   4 total cpu time :    24.8 secs   av.it.:   8.5
      thresh= 7.115E-06 alpha_mix =  0.700 |ddv_scf|^2 =  6.512E-12

      iter #   5 total cpu time :    25.1 secs   av.it.:   8.9
      thresh= 2.552E-07 alpha_mix =  0.700 |ddv_scf|^2 =  2.363E-14

     End of self-consistent calculation

     Convergence has been achieved 

     Number of q in the star =    4
     List of q in the star:
          1   0.500000000  -0.500000000   0.500000000
          2   0.500000000   0.500000000   0.500000000
          3  -0.500000000   0.500000000   0.500000000
          4   0.500000000   0.500000000  -0.500000000

     Diagonalizing the dynamical matrix

     q = (    0.500000000  -0.500000000   0.500000000 ) 

 **************************************************************************
     freq (    1) =       4.817586 [THz] =     160.697386 [cm-1]
     freq (    2) =       4.817586 [THz] =     160.697386 [cm-1]
     freq (    3) =      11.808172 [THz] =     393.878235 [cm-1]
     freq (    4) =      12.057094 [THz] =     402.181353 [cm-1]
     freq (    5) =      14.593346 [THz] =     486.781625 [cm-1]
     freq (    6) =      14.593346 [THz] =     486.781625 [cm-1]
 **************************************************************************

     Calculation of q =    0.0000000   0.5000000   0.0000000

   Info: using nr1, nr2, nr3 values from input

   Info: using nr1, nr2, nr3 values from input

     Parallelization info
     --------------------
     sticks:   dense  smooth     PW     G-vecs:    dense   smooth      PW
     Min          64      64     27                  709      709     175
     Max          67      67     28                  710      710     176
     Sum         265     265    109                 2837     2837     701



     bravais-lattice index     =            2
     lattice parameter (alat)  =      10.3580  a.u.
     unit-cell volume          =     277.8227 (a.u.)^3
     number of atoms/cell      =            2
     number of atomic types    =            1
     number of electrons       =         8.00
     number of Kohn-Sham states=            4
     kinetic-energy cutoff     =      18.0000  Ry
     charge density cutoff     =      72.0000  Ry
     Exchange-correlation      = SLA  PW   PBE  PBE ( 1  4  3  4 0 0)

     celldm(1)=  10.358000  celldm(2)=   0.000000  celldm(3)=   0.000000
     celldm(4)=   0.000000  celldm(5)=   0.000000  celldm(6)=   0.000000

     crystal axes: (cart. coord. in units of alat)
               a(1) = (  -0.500000   0.000000   0.500000 )  
               a(2) = (   0.000000   0.500000   0.500000 )  
               a(3) = (  -0.500000   0.500000   0.000000 )  

     reciprocal axes: (cart. coord. in units 2 pi/alat)
               b(1) = ( -1.000000 -1.000000  1.000000 )  
               b(2) = (  1.000000  1.000000  1.000000 )  
               b(3) = ( -1.000000  1.000000 -1.000000 )  


     PseudoPot. # 1 for Si read from file:
     /home/max/quantum_espresso/qe-6.1/pseudo/si_pbe_v1.uspp.F.UPF.txt
     MD5 check sum: a056efeee980c13900f22a371efd63c1
     Pseudo is Ultrasoft + core correction, Zval =  4.0
     Generated by new atomic code, or converted to UPF format
     Using radial grid of  899 points,  6 beta functions with: 
                l(1) =   0
                l(2) =   0
                l(3) =   1
                l(4) =   1
                l(5) =   2
                l(6) =   2
     Q(r) pseudized with  8 coefficients,  rinner =    0.900   0.900   0.900
                                                       0.900   0.900

     atomic species   valence    mass     pseudopotential
        Si             4.00    28.08600     Si( 1.00)

     48 Sym. Ops., with inversion, found



   Cartesian axes

     site n.     atom                  positions (alat units)
         1           Si  tau(   1) = (   0.0000000   0.0000000   0.0000000  )
         2           Si  tau(   2) = (   0.2500000   0.2500000   0.2500000  )

     number of k points=    80
                       cart. coord. in units 2pi/alat
        k(    1) = (  -0.1250000   0.1250000   0.1250000), wk =   0.0312500
        k(    2) = (  -0.1250000   0.6250000   0.1250000), wk =   0.0000000
        k(    3) = (  -0.3750000   0.3750000  -0.1250000), wk =   0.0625000
        k(    4) = (  -0.3750000   0.8750000  -0.1250000), wk =   0.0000000
        k(    5) = (   0.3750000  -0.3750000   0.6250000), wk =   0.0625000
        k(    6) = (   0.3750000   0.1250000   0.6250000), wk =   0.0000000
        k(    7) = (   0.1250000  -0.1250000   0.3750000), wk =   0.0625000
        k(    8) = (   0.1250000   0.3750000   0.3750000), wk =   0.0000000
        k(    9) = (  -0.1250000   0.6250000   0.1250000), wk =   0.0312500
        k(   10) = (  -0.1250000   1.1250000   0.1250000), wk =   0.0000000
        k(   11) = (   0.6250000  -0.1250000   0.8750000), wk =   0.0625000
        k(   12) = (   0.6250000   0.3750000   0.8750000), wk =   0.0000000
        k(   13) = (   0.3750000   0.1250000   0.6250000), wk =   0.0625000
        k(   14) = (   0.3750000   0.6250000   0.6250000), wk =   0.0000000
        k(   15) = (  -0.1250000  -0.8750000   0.1250000), wk =   0.0312500
        k(   16) = (  -0.1250000  -0.3750000   0.1250000), wk =   0.0000000
        k(   17) = (  -0.3750000   0.3750000   0.3750000), wk =   0.0312500
        k(   18) = (  -0.3750000   0.8750000   0.3750000), wk =   0.0000000
        k(   19) = (   0.3750000  -0.3750000   1.1250000), wk =   0.0625000
        k(   20) = (   0.3750000   0.1250000   1.1250000), wk =   0.0000000
        k(   21) = (  -0.1250000  -0.1250000   0.1250000), wk =   0.0312500
        k(   22) = (  -0.1250000   0.3750000   0.1250000), wk =   0.0000000
        k(   23) = (   0.1250000  -0.3750000   0.3750000), wk =   0.0625000
        k(   24) = (   0.1250000   0.1250000   0.3750000), wk =   0.0000000
        k(   25) = (   0.3750000  -0.1250000   0.3750000), wk =   0.0312500
        k(   26) = (   0.3750000   0.3750000   0.3750000), wk =   0.0000000
        k(   27) = (   0.3750000   0.1250000   0.3750000), wk =   0.0312500
        k(   28) = (   0.3750000   0.6250000   0.3750000), wk =   0.0000000
        k(   29) = (  -0.6250000   0.3750000  -0.3750000), wk =   0.0625000
        k(   30) = (  -0.6250000   0.8750000  -0.3750000), wk =   0.0000000
        k(   31) = (  -0.3750000   0.6250000  -0.3750000), wk =   0.0312500
        k(   32) = (  -0.3750000   1.1250000  -0.3750000), wk =   0.0000000
        k(   33) = (  -0.3750000  -0.6250000  -0.3750000), wk =   0.0312500
        k(   34) = (  -0.3750000  -0.1250000  -0.3750000), wk =   0.0000000
        k(   35) = (  -0.3750000   0.1250000  -0.1250000), wk =   0.0625000
        k(   36) = (  -0.3750000   0.6250000  -0.1250000), wk =   0.0000000
        k(   37) = (  -0.1250000   0.3750000  -0.1250000), wk =   0.0312500
        k(   38) = (  -0.1250000   0.8750000  -0.1250000), wk =   0.0000000
        k(   39) = (  -0.1250000  -0.3750000  -0.1250000), wk =   0.0312500
        k(   40) = (  -0.1250000   0.1250000  -0.1250000), wk =   0.0000000
        k(   41) = (  -0.1250000  -0.6250000   0.1250000), wk =   0.0312500
        k(   42) = (  -0.1250000  -0.1250000   0.1250000), wk =   0.0000000
        k(   43) = (   0.6250000  -0.1250000  -0.1250000), wk =   0.0625000
        k(   44) = (   0.6250000   0.3750000  -0.1250000), wk =   0.0000000
        k(   45) = (   0.6250000   0.1250000   0.1250000), wk =   0.0625000
        k(   46) = (   0.6250000   0.6250000   0.1250000), wk =   0.0000000
        k(   47) = (  -0.8750000   0.1250000  -0.6250000), wk =   0.0625000
        k(   48) = (  -0.8750000   0.6250000  -0.6250000), wk =   0.0000000
        k(   49) = (  -0.1250000   0.6250000  -0.8750000), wk =   0.0625000
        k(   50) = (  -0.1250000   1.1250000  -0.8750000), wk =   0.0000000
        k(   51) = (  -0.1250000   0.8750000  -0.6250000), wk =   0.0625000
        k(   52) = (  -0.1250000   1.3750000  -0.6250000), wk =   0.0000000
        k(   53) = (  -0.1250000  -0.8750000  -0.6250000), wk =   0.0625000
        k(   54) = (  -0.1250000  -0.3750000  -0.6250000), wk =   0.0000000
        k(   55) = (   0.8750000  -0.6250000   0.1250000), wk =   0.0625000
        k(   56) = (   0.8750000  -0.1250000   0.1250000), wk =   0.0000000
        k(   57) = (  -0.6250000  -0.1250000  -0.3750000), wk =   0.0625000
        k(   58) = (  -0.6250000   0.3750000  -0.3750000), wk =   0.0000000
        k(   59) = (   0.1250000   0.3750000  -0.6250000), wk =   0.0625000
        k(   60) = (   0.1250000   0.8750000  -0.6250000), wk =   0.0000000
        k(   61) = (   0.1250000   0.6250000  -0.3750000), wk =   0.0625000
        k(   62) = (   0.1250000   1.1250000  -0.3750000), wk =   0.0000000
        k(   63) = (   0.1250000  -0.6250000  -0.3750000), wk =   0.0625000
        k(   64) = (   0.1250000  -0.1250000  -0.3750000), wk =   0.0000000
        k(   65) = (   0.6250000  -0.3750000  -0.1250000), wk =   0.0625000
        k(   66) = (   0.6250000   0.1250000  -0.1250000), wk =   0.0000000
        k(   67) = (  -0.1250000   0.8750000   0.1250000), wk =   0.0312500
        k(   68) = (  -0.1250000   1.3750000   0.1250000), wk =   0.0000000
        k(   69) = (  -0.8750000  -0.1250000  -0.1250000), wk =   0.0625000
        k(   70) = (  -0.8750000   0.3750000  -0.1250000), wk =   0.0000000
        k(   71) = (  -0.8750000   0.1250000   0.1250000), wk =   0.0625000
        k(   72) = (  -0.8750000   0.6250000   0.1250000), wk =   0.0000000
        k(   73) = (  -0.3750000  -0.3750000   0.3750000), wk =   0.0312500
        k(   74) = (  -0.3750000   0.1250000   0.3750000), wk =   0.0000000
        k(   75) = (  -1.1250000   0.3750000  -0.3750000), wk =   0.0625000
        k(   76) = (  -1.1250000   0.8750000  -0.3750000), wk =   0.0000000
        k(   77) = (  -0.3750000   1.1250000  -0.3750000), wk =   0.0312500
        k(   78) = (  -0.3750000   1.6250000  -0.3750000), wk =   0.0000000
        k(   79) = (  -0.3750000  -1.1250000  -0.3750000), wk =   0.0312500
        k(   80) = (  -0.3750000  -0.6250000  -0.3750000), wk =   0.0000000

     Dense  grid:     2837 G-vectors     FFT dimensions: (  20,  20,  20)

     Estimated max dynamical RAM per process >       0.33MB

     Estimated total allocated dynamical RAM >       1.32MB

     Check: negative/imaginary core charge=   -0.000006    0.000000

     The potential is recalculated from file :
     ./_ph0/silicon.10.358.save/charge-density.dat

     Starting wfc are    8 atomic wfcs

     Band Structure Calculation
     Davidson diagonalization with overlap

     ethr =  1.25E-10,  avg # of iterations = 11.7

     total cpu time spent up to now is        2.5 secs

     End of band structure calculation

          k =-0.1250 0.1250 0.1250 (   344 PWs)   bands (ev):

    -5.6563   4.3203   5.6297   5.6297

          k =-0.1250 0.6250 0.1250 (   351 PWs)   bands (ev):

    -4.1104   0.9957   3.3176   3.7628

          k =-0.3750 0.3750-0.1250 (   355 PWs)   bands (ev):

    -4.6389   1.3400   3.6608   5.1495

          k =-0.3750 0.8750-0.1250 (   361 PWs)   bands (ev):

    -2.4874  -0.9547   1.9816   3.0447

          k = 0.3750-0.3750 0.6250 (   361 PWs)   bands (ev):

    -3.5132  -0.7169   3.6761   4.3856

          k = 0.3750 0.1250 0.6250 (   360 PWs)   bands (ev):

    -3.7000   0.1355   2.6806   4.0366

          k = 0.1250-0.1250 0.3750 (   353 PWs)   bands (ev):

    -5.1330   2.7055   4.6304   4.6899

          k = 0.1250 0.3750 0.3750 (   355 PWs)   bands (ev):

    -4.6389   1.3400   3.6608   5.1495

          k =-0.1250 0.6250 0.1250 (   351 PWs)   bands (ev):

    -4.1104   0.9957   3.3176   3.7628

          k =-0.1250 1.1250 0.1250 (   360 PWs)   bands (ev):

    -2.6511  -0.8592   2.5826   3.2990

          k = 0.6250-0.1250 0.8750 (   361 PWs)   bands (ev):

    -2.4874  -0.9547   1.9816   3.0447

          k = 0.6250 0.3750 0.8750 (   360 PWs)   bands (ev):

    -3.7000   0.1355   2.6806   4.0366

          k = 0.3750 0.1250 0.6250 (   360 PWs)   bands (ev):

    -3.7000   0.1355   2.6806   4.0366

          k = 0.3750 0.6250 0.6250 (   361 PWs)   bands (ev):

    -3.5132  -0.7169   3.6761   4.3856

          k =-0.1250-0.8750 0.1250 (   360 PWs)   bands (ev):

    -2.6511  -0.8592   2.5826   3.2990

          k =-0.1250-0.3750 0.1250 (   353 PWs)   bands (ev):

    -5.1330   2.7055   4.6304   4.6899

          k =-0.3750 0.3750 0.3750 (   353 PWs)   bands (ev):

    -4.2114   0.0657   4.8455   4.8455

          k =-0.3750 0.8750 0.3750 (   363 PWs)   bands (ev):

    -3.0214  -0.6449   2.0354   4.0723

          k = 0.3750-0.3750 1.1250 (   363 PWs)   bands (ev):

    -3.0214  -0.6449   2.0354   4.0723

          k = 0.3750 0.1250 1.1250 (   361 PWs)   bands (ev):

    -2.4874  -0.9547   1.9816   3.0447

          k =-0.1250-0.1250 0.1250 (   344 PWs)   bands (ev):

    -5.6563   4.3203   5.6297   5.6297

          k =-0.1250 0.3750 0.1250 (   353 PWs)   bands (ev):

    -5.1330   2.7055   4.6304   4.6899

          k = 0.1250-0.3750 0.3750 (   355 PWs)   bands (ev):

    -4.6389   1.3400   3.6608   5.1495

          k = 0.1250 0.1250 0.3750 (   353 PWs)   bands (ev):

    -5.1330   2.7055   4.6304   4.6899

          k = 0.3750-0.1250 0.3750 (   355 PWs)   bands (ev):

    -4.6389   1.3400   3.6608   5.1495

          k = 0.3750 0.3750 0.3750 (   353 PWs)   bands (ev):

    -4.2114   0.0657   4.8455   4.8455

          k = 0.3750 0.1250 0.3750 (   355 PWs)   bands (ev):

    -4.6389   1.3400   3.6608   5.1495

          k = 0.3750 0.6250 0.3750 (   361 PWs)   bands (ev):

    -3.5132  -0.7169   3.6761   4.3856

          k =-0.6250 0.3750-0.3750 (   361 PWs)   bands (ev):

    -3.5132  -0.7169   3.6761   4.3856

          k =-0.6250 0.8750-0.3750 (   360 PWs)   bands (ev):

    -3.7000   0.1355   2.6806   4.0366

          k =-0.3750 0.6250-0.3750 (   361 PWs)   bands (ev):

    -3.5132  -0.7169   3.6761   4.3856

          k =-0.3750 1.1250-0.3750 (   363 PWs)   bands (ev):

    -3.0214  -0.6449   2.0354   4.0723

          k =-0.3750-0.6250-0.3750 (   361 PWs)   bands (ev):

    -3.5132  -0.7169   3.6761   4.3856

          k =-0.3750-0.1250-0.3750 (   355 PWs)   bands (ev):

    -4.6389   1.3400   3.6608   5.1495

          k =-0.3750 0.1250-0.1250 (   353 PWs)   bands (ev):

    -5.1330   2.7055   4.6304   4.6899

          k =-0.3750 0.6250-0.1250 (   360 PWs)   bands (ev):

    -3.7000   0.1355   2.6806   4.0366

          k =-0.1250 0.3750-0.1250 (   353 PWs)   bands (ev):

    -5.1330   2.7055   4.6304   4.6899

          k =-0.1250 0.8750-0.1250 (   360 PWs)   bands (ev):

    -2.6511  -0.8592   2.5826   3.2990

          k =-0.1250-0.3750-0.1250 (   353 PWs)   bands (ev):

    -5.1330   2.7055   4.6304   4.6899

          k =-0.1250 0.1250-0.1250 (   344 PWs)   bands (ev):

    -5.6563   4.3203   5.6297   5.6297

          k =-0.1250-0.6250 0.1250 (   351 PWs)   bands (ev):

    -4.1104   0.9957   3.3176   3.7628

          k =-0.1250-0.1250 0.1250 (   344 PWs)   bands (ev):

    -5.6563   4.3203   5.6297   5.6297

          k = 0.6250-0.1250-0.1250 (   351 PWs)   bands (ev):

    -4.1104   0.9957   3.3176   3.7628

          k = 0.6250 0.3750-0.1250 (   360 PWs)   bands (ev):

    -3.7000   0.1355   2.6806   4.0366

          k = 0.6250 0.1250 0.1250 (   351 PWs)   bands (ev):

    -4.1104   0.9957   3.3176   3.7628

          k = 0.6250 0.6250 0.1250 (   363 PWs)   bands (ev):

    -3.0214  -0.6449   2.0354   4.0723

          k =-0.8750 0.1250-0.6250 (   361 PWs)   bands (ev):

    -2.4874  -0.9547   1.9816   3.0447

          k =-0.8750 0.6250-0.6250 (   355 PWs)   bands (ev):

    -4.6389   1.3400   3.6608   5.1495

          k =-0.1250 0.6250-0.8750 (   361 PWs)   bands (ev):

    -2.4874  -0.9547   1.9816   3.0447

          k =-0.1250 1.1250-0.8750 (   360 PWs)   bands (ev):

    -2.6511  -0.8592   2.5826   3.2990

          k =-0.1250 0.8750-0.6250 (   361 PWs)   bands (ev):

    -2.4874  -0.9547   1.9816   3.0447

          k =-0.1250 1.3750-0.6250 (   363 PWs)   bands (ev):

    -3.0214  -0.6449   2.0354   4.0723

          k =-0.1250-0.8750-0.6250 (   361 PWs)   bands (ev):

    -2.4874  -0.9547   1.9816   3.0447

          k =-0.1250-0.3750-0.6250 (   360 PWs)   bands (ev):

    -3.7000   0.1355   2.6806   4.0366

          k = 0.8750-0.6250 0.1250 (   361 PWs)   bands (ev):

    -2.4874  -0.9547   1.9816   3.0447

          k = 0.8750-0.1250 0.1250 (   360 PWs)   bands (ev):

    -2.6511  -0.8592   2.5826   3.2990

          k =-0.6250-0.1250-0.3750 (   360 PWs)   bands (ev):

    -3.7000   0.1355   2.6806   4.0366

          k =-0.6250 0.3750-0.3750 (   361 PWs)   bands (ev):

    -3.5132  -0.7169   3.6761   4.3856

          k = 0.1250 0.3750-0.6250 (   360 PWs)   bands (ev):

    -3.7000   0.1355   2.6806   4.0366

          k = 0.1250 0.8750-0.6250 (   361 PWs)   bands (ev):

    -2.4874  -0.9547   1.9816   3.0447

          k = 0.1250 0.6250-0.3750 (   360 PWs)   bands (ev):

    -3.7000   0.1355   2.6806   4.0366

          k = 0.1250 1.1250-0.3750 (   361 PWs)   bands (ev):

    -2.4874  -0.9547   1.9816   3.0447

          k = 0.1250-0.6250-0.3750 (   360 PWs)   bands (ev):

    -3.7000   0.1355   2.6806   4.0366

          k = 0.1250-0.1250-0.3750 (   353 PWs)   bands (ev):

    -5.1330   2.7055   4.6304   4.6899

          k = 0.6250-0.3750-0.1250 (   360 PWs)   bands (ev):

    -3.7000   0.1355   2.6806   4.0366

          k = 0.6250 0.1250-0.1250 (   351 PWs)   bands (ev):

    -4.1104   0.9957   3.3176   3.7628

          k =-0.1250 0.8750 0.1250 (   360 PWs)   bands (ev):

    -2.6511  -0.8592   2.5826   3.2990

          k =-0.1250 1.3750 0.1250 (   351 PWs)   bands (ev):

    -4.1104   0.9957   3.3176   3.7628

          k =-0.8750-0.1250-0.1250 (   360 PWs)   bands (ev):

    -2.6511  -0.8592   2.5826   3.2990

          k =-0.8750 0.3750-0.1250 (   361 PWs)   bands (ev):

    -2.4874  -0.9547   1.9816   3.0447

          k =-0.8750 0.1250 0.1250 (   360 PWs)   bands (ev):

    -2.6511  -0.8592   2.5826   3.2990

          k =-0.8750 0.6250 0.1250 (   361 PWs)   bands (ev):

    -2.4874  -0.9547   1.9816   3.0447

          k =-0.3750-0.3750 0.3750 (   353 PWs)   bands (ev):

    -4.2114   0.0657   4.8455   4.8455

          k =-0.3750 0.1250 0.3750 (   355 PWs)   bands (ev):

    -4.6389   1.3400   3.6608   5.1495

          k =-1.1250 0.3750-0.3750 (   363 PWs)   bands (ev):

    -3.0214  -0.6449   2.0354   4.0723

          k =-1.1250 0.8750-0.3750 (   351 PWs)   bands (ev):

    -4.1104   0.9957   3.3176   3.7628

          k =-0.3750 1.1250-0.3750 (   363 PWs)   bands (ev):

    -3.0214  -0.6449   2.0354   4.0723

          k =-0.3750 1.6250-0.3750 (   353 PWs)   bands (ev):

    -4.2114   0.0657   4.8455   4.8455

          k =-0.3750-1.1250-0.3750 (   363 PWs)   bands (ev):

    -3.0214  -0.6449   2.0354   4.0723

          k =-0.3750-0.6250-0.3750 (   361 PWs)   bands (ev):

    -3.5132  -0.7169   3.6761   4.3856

     highest occupied level (ev):     5.6297

     Writing output data file silicon.10.358.save

                                                                                

     bravais-lattice index     =            2
     lattice parameter (alat)  =      10.3580  a.u.
     unit-cell volume          =     277.8227 (a.u.)^3
     number of atoms/cell      =            2
     number of atomic types    =            1
     kinetic-energy cut-off    =      18.0000  Ry
     charge density cut-off    =      72.0000  Ry
     convergence threshold     =      1.0E-12
     beta                      =       0.7000
     number of iterations used =            4
     Exchange-correlation      = SLA  PW   PBE  PBE ( 1  4  3  4 0 0)


     celldm(1)=   10.35800  celldm(2)=    0.00000  celldm(3)=    0.00000
     celldm(4)=    0.00000  celldm(5)=    0.00000  celldm(6)=    0.00000

     crystal axes: (cart. coord. in units of alat)
               a(1) = ( -0.5000  0.0000  0.5000 )  
               a(2) = (  0.0000  0.5000  0.5000 )  
               a(3) = ( -0.5000  0.5000  0.0000 )  

     reciprocal axes: (cart. coord. in units 2 pi/alat)
               b(1) = ( -1.0000 -1.0000  1.0000 )  
               b(2) = (  1.0000  1.0000  1.0000 )  
               b(3) = ( -1.0000  1.0000 -1.0000 )  


     Atoms inside the unit cell: 

     Cartesian axes

     site n.  atom      mass           positions (alat units)
        1     Si  28.0860   tau(    1) = (    0.00000    0.00000    0.00000  )
        2     Si  28.0860   tau(    2) = (    0.25000    0.25000    0.25000  )

     Computing dynamical matrix for 
                    q = (   0.0000000   0.5000000   0.0000000 )

      8 Sym.Ops. (no q -> -q+G )


     G cutoff =  195.6701  (    710 G-vectors)     FFT grid: ( 20, 20, 20)
     number of k points=    80

     PseudoPot. # 1 for Si read from file:
     /home/max/quantum_espresso/qe-6.1/pseudo/si_pbe_v1.uspp.F.UPF.txt
     MD5 check sum: a056efeee980c13900f22a371efd63c1
     Pseudo is Ultrasoft + core correction, Zval =  4.0
     Generated by new atomic code, or converted to UPF format
     Using radial grid of  899 points,  6 beta functions with: 
                l(1) =   0
                l(2) =   0
                l(3) =   1
                l(4) =   1
                l(5) =   2
                l(6) =   2
     Q(r) pseudized with  8 coefficients,  rinner =    0.900   0.900   0.900
                                                       0.900   0.900

     Mode symmetry, C_4v (4mm)  point group:


     Atomic displacements:
     There are   4 irreducible representations

     Representation     1      1 modes -A_1  G_1 D_1  To be done

     Representation     2      1 modes -B_2  G_4 D_2'  To be done

     Representation     3      2 modes -E    G_5 D_5  To be done

     Representation     4      2 modes -E    G_5 D_5  To be done



     Alpha used in Ewald sum =   0.7000
     PHONON       :    23.87s CPU        26.13s WALL



     Representation #  1 mode #   1

     Self-consistent Calculation

      iter #   1 total cpu time :    26.3 secs   av.it.:   5.8
      thresh= 1.000E-02 alpha_mix =  0.700 |ddv_scf|^2 =  2.954E-03

      iter #   2 total cpu time :    26.7 secs   av.it.:   7.6
      thresh= 5.435E-03 alpha_mix =  0.700 |ddv_scf|^2 =  3.899E-02

      iter #   3 total cpu time :    26.9 secs   av.it.:   6.7
      thresh= 1.000E-02 alpha_mix =  0.700 |ddv_scf|^2 =  1.496E-07

      iter #   4 total cpu time :    27.1 secs   av.it.:   8.1
      thresh= 3.868E-05 alpha_mix =  0.700 |ddv_scf|^2 =  1.446E-08

      iter #   5 total cpu time :    27.3 secs   av.it.:   7.7
      thresh= 1.202E-05 alpha_mix =  0.700 |ddv_scf|^2 =  7.174E-10

      iter #   6 total cpu time :    27.5 secs   av.it.:   7.8
      thresh= 2.679E-06 alpha_mix =  0.700 |ddv_scf|^2 =  2.905E-12

      iter #   7 total cpu time :    27.7 secs   av.it.:   7.9
      thresh= 1.704E-07 alpha_mix =  0.700 |ddv_scf|^2 =  5.538E-13

     End of self-consistent calculation

     Convergence has been achieved 


     Representation #  2 mode #   2

     Self-consistent Calculation

      iter #   1 total cpu time :    27.9 secs   av.it.:   4.9
      thresh= 1.000E-02 alpha_mix =  0.700 |ddv_scf|^2 =  5.515E-06

      iter #   2 total cpu time :    28.2 secs   av.it.:   8.7
      thresh= 2.348E-04 alpha_mix =  0.700 |ddv_scf|^2 =  1.350E-06

      iter #   3 total cpu time :    28.4 secs   av.it.:   8.5
      thresh= 1.162E-04 alpha_mix =  0.700 |ddv_scf|^2 =  4.355E-08

      iter #   4 total cpu time :    28.8 secs   av.it.:   8.2
      thresh= 2.087E-05 alpha_mix =  0.700 |ddv_scf|^2 =  7.378E-10

      iter #   5 total cpu time :    29.0 secs   av.it.:   8.6
      thresh= 2.716E-06 alpha_mix =  0.700 |ddv_scf|^2 =  6.984E-12

      iter #   6 total cpu time :    29.2 secs   av.it.:   7.9
      thresh= 2.643E-07 alpha_mix =  0.700 |ddv_scf|^2 =  7.542E-14

     End of self-consistent calculation

     Convergence has been achieved 


     Representation #  3 modes #   3  4

     Self-consistent Calculation

      iter #   1 total cpu time :    29.5 secs   av.it.:   5.0
      thresh= 1.000E-02 alpha_mix =  0.700 |ddv_scf|^2 =  1.024E-06

      iter #   2 total cpu time :    30.0 secs   av.it.:   9.7
      thresh= 1.012E-04 alpha_mix =  0.700 |ddv_scf|^2 =  1.269E-07

      iter #   3 total cpu time :    30.7 secs   av.it.:   9.5
      thresh= 3.563E-05 alpha_mix =  0.700 |ddv_scf|^2 =  6.786E-09

      iter #   4 total cpu time :    31.1 secs   av.it.:   8.8
      thresh= 8.238E-06 alpha_mix =  0.700 |ddv_scf|^2 =  9.637E-12

      iter #   5 total cpu time :    31.6 secs   av.it.:   9.2
      thresh= 3.104E-07 alpha_mix =  0.700 |ddv_scf|^2 =  3.029E-13

     End of self-consistent calculation

     Convergence has been achieved 


     Representation #  4 modes #   5  6

     Self-consistent Calculation

      iter #   1 total cpu time :    31.9 secs   av.it.:   5.0
      thresh= 1.000E-02 alpha_mix =  0.700 |ddv_scf|^2 =  9.401E-07

      iter #   2 total cpu time :    32.4 secs   av.it.:   9.8
      thresh= 9.696E-05 alpha_mix =  0.700 |ddv_scf|^2 =  1.190E-07

      iter #   3 total cpu time :    33.0 secs   av.it.:   9.4
      thresh= 3.450E-05 alpha_mix =  0.700 |ddv_scf|^2 =  7.118E-09

      iter #   4 total cpu time :    33.4 secs   av.it.:   8.9
      thresh= 8.437E-06 alpha_mix =  0.700 |ddv_scf|^2 =  1.497E-11

      iter #   5 total cpu time :    33.9 secs   av.it.:   9.2
      thresh= 3.869E-07 alpha_mix =  0.700 |ddv_scf|^2 =  4.469E-14

     End of self-consistent calculation

     Convergence has been achieved 

     Number of q in the star =    6
     List of q in the star:
          1   0.000000000   0.500000000   0.000000000
          2   0.000000000  -0.500000000   0.000000000
          3   0.500000000   0.000000000   0.000000000
          4   0.000000000   0.000000000   0.500000000
          5   0.000000000   0.000000000  -0.500000000
          6  -0.500000000   0.000000000   0.000000000

     Diagonalizing the dynamical matrix

     q = (    0.000000000   0.500000000   0.000000000 ) 

 **************************************************************************
     freq (    1) =       4.303058 [THz] =     143.534558 [cm-1]
     freq (    2) =       4.303058 [THz] =     143.534558 [cm-1]
     freq (    3) =       7.113098 [THz] =     237.267413 [cm-1]
     freq (    4) =      13.963993 [THz] =     465.788671 [cm-1]
     freq (    5) =      13.963993 [THz] =     465.788671 [cm-1]
     freq (    6) =      14.609260 [THz] =     487.312444 [cm-1]
 **************************************************************************

     Mode symmetry, C_4v (4mm)  point group:

     freq (  1 -  2) =        143.5  [cm-1]   --> E    G_5 D_5       
     freq (  3 -  3) =        237.3  [cm-1]   --> A_1  G_1 D_1       
     freq (  4 -  5) =        465.8  [cm-1]   --> E    G_5 D_5       
     freq (  6 -  6) =        487.3  [cm-1]   --> B_2  G_4 D_2'      

     Calculation of q =    0.7500000  -0.2500000   0.7500000

   Info: using nr1, nr2, nr3 values from input

   Info: using nr1, nr2, nr3 values from input

     Parallelization info
     --------------------
     sticks:   dense  smooth     PW     G-vecs:    dense   smooth      PW
     Min          64      64     30                  709      709     216
     Max          67      67     31                  710      710     218
     Sum         265     265    121                 2837     2837     869



     bravais-lattice index     =            2
     lattice parameter (alat)  =      10.3580  a.u.
     unit-cell volume          =     277.8227 (a.u.)^3
     number of atoms/cell      =            2
     number of atomic types    =            1
     number of electrons       =         8.00
     number of Kohn-Sham states=            4
     kinetic-energy cutoff     =      18.0000  Ry
     charge density cutoff     =      72.0000  Ry
     Exchange-correlation      = SLA  PW   PBE  PBE ( 1  4  3  4 0 0)

     celldm(1)=  10.358000  celldm(2)=   0.000000  celldm(3)=   0.000000
     celldm(4)=   0.000000  celldm(5)=   0.000000  celldm(6)=   0.000000

     crystal axes: (cart. coord. in units of alat)
               a(1) = (  -0.500000   0.000000   0.500000 )  
               a(2) = (   0.000000   0.500000   0.500000 )  
               a(3) = (  -0.500000   0.500000   0.000000 )  

     reciprocal axes: (cart. coord. in units 2 pi/alat)
               b(1) = ( -1.000000 -1.000000  1.000000 )  
               b(2) = (  1.000000  1.000000  1.000000 )  
               b(3) = ( -1.000000  1.000000 -1.000000 )  


     PseudoPot. # 1 for Si read from file:
     /home/max/quantum_espresso/qe-6.1/pseudo/si_pbe_v1.uspp.F.UPF.txt
     MD5 check sum: a056efeee980c13900f22a371efd63c1
     Pseudo is Ultrasoft + core correction, Zval =  4.0
     Generated by new atomic code, or converted to UPF format
     Using radial grid of  899 points,  6 beta functions with: 
                l(1) =   0
                l(2) =   0
                l(3) =   1
                l(4) =   1
                l(5) =   2
                l(6) =   2
     Q(r) pseudized with  8 coefficients,  rinner =    0.900   0.900   0.900
                                                       0.900   0.900

     atomic species   valence    mass     pseudopotential
        Si             4.00    28.08600     Si( 1.00)

     48 Sym. Ops., with inversion, found



   Cartesian axes

     site n.     atom                  positions (alat units)
         1           Si  tau(   1) = (   0.0000000   0.0000000   0.0000000  )
         2           Si  tau(   2) = (   0.2500000   0.2500000   0.2500000  )

     number of k points=   288

     Number of k-points >= 100: set verbosity='high' to print them.

     Dense  grid:     2837 G-vectors     FFT dimensions: (  20,  20,  20)

     Estimated max dynamical RAM per process >       0.33MB

     Estimated total allocated dynamical RAM >       1.32MB

     Check: negative/imaginary core charge=   -0.000006    0.000000

     The potential is recalculated from file :
     ./_ph0/silicon.10.358.save/charge-density.dat

     Starting wfc are    8 atomic wfcs

     Band Structure Calculation
     Davidson diagonalization with overlap

     ethr =  1.25E-10,  avg # of iterations = 11.6

     total cpu time spent up to now is        4.9 secs

     End of band structure calculation

     Number of k-points >= 100: set verbosity='high' to print the bands.

     highest occupied level (ev):     5.6297

     Writing output data file silicon.10.358.save

                                                                                

     bravais-lattice index     =            2
     lattice parameter (alat)  =      10.3580  a.u.
     unit-cell volume          =     277.8227 (a.u.)^3
     number of atoms/cell      =            2
     number of atomic types    =            1
     kinetic-energy cut-off    =      18.0000  Ry
     charge density cut-off    =      72.0000  Ry
     convergence threshold     =      1.0E-12
     beta                      =       0.7000
     number of iterations used =            4
     Exchange-correlation      = SLA  PW   PBE  PBE ( 1  4  3  4 0 0)


     celldm(1)=   10.35800  celldm(2)=    0.00000  celldm(3)=    0.00000
     celldm(4)=    0.00000  celldm(5)=    0.00000  celldm(6)=    0.00000

     crystal axes: (cart. coord. in units of alat)
               a(1) = ( -0.5000  0.0000  0.5000 )  
               a(2) = (  0.0000  0.5000  0.5000 )  
               a(3) = ( -0.5000  0.5000  0.0000 )  

     reciprocal axes: (cart. coord. in units 2 pi/alat)
               b(1) = ( -1.0000 -1.0000  1.0000 )  
               b(2) = (  1.0000  1.0000  1.0000 )  
               b(3) = ( -1.0000  1.0000 -1.0000 )  


     Atoms inside the unit cell: 

     Cartesian axes

     site n.  atom      mass           positions (alat units)
        1     Si  28.0860   tau(    1) = (    0.00000    0.00000    0.00000  )
        2     Si  28.0860   tau(    2) = (    0.25000    0.25000    0.25000  )

     Computing dynamical matrix for 
                    q = (   0.7500000  -0.2500000   0.7500000 )

      2 Sym.Ops. (no q -> -q+G )


     G cutoff =  195.6701  (    710 G-vectors)     FFT grid: ( 20, 20, 20)
     number of k points=   288

     PseudoPot. # 1 for Si read from file:
     /home/max/quantum_espresso/qe-6.1/pseudo/si_pbe_v1.uspp.F.UPF.txt
     MD5 check sum: a056efeee980c13900f22a371efd63c1
     Pseudo is Ultrasoft + core correction, Zval =  4.0
     Generated by new atomic code, or converted to UPF format
     Using radial grid of  899 points,  6 beta functions with: 
                l(1) =   0
                l(2) =   0
                l(3) =   1
                l(4) =   1
                l(5) =   2
                l(6) =   2
     Q(r) pseudized with  8 coefficients,  rinner =    0.900   0.900   0.900
                                                       0.900   0.900

     Mode symmetry, C_s (m)     point group:


     Atomic displacements:
     There are   6 irreducible representations

     Representation     1      1 modes -A'  To be done

     Representation     2      1 modes -A'  To be done

     Representation     3      1 modes -A'  To be done

     Representation     4      1 modes -A'  To be done

     Representation     5      1 modes -A''  To be done

     Representation     6      1 modes -A''  To be done



     Alpha used in Ewald sum =   0.7000
     PHONON       :    33.23s CPU        37.17s WALL



     Representation #  1 mode #   1

     Self-consistent Calculation

      iter #   1 total cpu time :    37.7 secs   av.it.:   5.3
      thresh= 1.000E-02 alpha_mix =  0.700 |ddv_scf|^2 =  6.102E-05

      iter #   2 total cpu time :    38.7 secs   av.it.:   8.9
      thresh= 7.811E-04 alpha_mix =  0.700 |ddv_scf|^2 =  1.602E-04

      iter #   3 total cpu time :    39.4 secs   av.it.:   7.6
      thresh= 1.266E-03 alpha_mix =  0.700 |ddv_scf|^2 =  1.147E-06

      iter #   4 total cpu time :    40.1 secs   av.it.:   8.4
      thresh= 1.071E-04 alpha_mix =  0.700 |ddv_scf|^2 =  6.291E-08

      iter #   5 total cpu time :    41.0 secs   av.it.:   8.3
      thresh= 2.508E-05 alpha_mix =  0.700 |ddv_scf|^2 =  7.601E-09

      iter #   6 total cpu time :    41.8 secs   av.it.:   8.5
      thresh= 8.718E-06 alpha_mix =  0.700 |ddv_scf|^2 =  8.553E-11

      iter #   7 total cpu time :    42.7 secs   av.it.:   8.8
      thresh= 9.248E-07 alpha_mix =  0.700 |ddv_scf|^2 =  3.084E-12

      iter #   8 total cpu time :    43.5 secs   av.it.:   8.6
      thresh= 1.756E-07 alpha_mix =  0.700 |ddv_scf|^2 =  1.950E-13

     End of self-consistent calculation

     Convergence has been achieved 


     Representation #  2 mode #   2

     Self-consistent Calculation

      iter #   1 total cpu time :    44.1 secs   av.it.:   5.4
      thresh= 1.000E-02 alpha_mix =  0.700 |ddv_scf|^2 =  1.085E-04

      iter #   2 total cpu time :    45.1 secs   av.it.:   8.7
      thresh= 1.042E-03 alpha_mix =  0.700 |ddv_scf|^2 =  3.100E-04

      iter #   3 total cpu time :    45.7 secs   av.it.:   7.4
      thresh= 1.761E-03 alpha_mix =  0.700 |ddv_scf|^2 =  7.981E-07

      iter #   4 total cpu time :    46.7 secs   av.it.:   8.5
      thresh= 8.934E-05 alpha_mix =  0.700 |ddv_scf|^2 =  6.116E-08

      iter #   5 total cpu time :    47.4 secs   av.it.:   8.2
      thresh= 2.473E-05 alpha_mix =  0.700 |ddv_scf|^2 =  1.089E-08

      iter #   6 total cpu time :    48.2 secs   av.it.:   8.5
      thresh= 1.044E-05 alpha_mix =  0.700 |ddv_scf|^2 =  8.499E-11

      iter #   7 total cpu time :    49.1 secs   av.it.:   8.7
      thresh= 9.219E-07 alpha_mix =  0.700 |ddv_scf|^2 =  2.779E-12

      iter #   8 total cpu time :    49.9 secs   av.it.:   8.6
      thresh= 1.667E-07 alpha_mix =  0.700 |ddv_scf|^2 =  8.138E-13

     End of self-consistent calculation

     Convergence has been achieved 


     Representation #  3 mode #   3

     Self-consistent Calculation

      iter #   1 total cpu time :    50.7 secs   av.it.:   5.3
      thresh= 1.000E-02 alpha_mix =  0.700 |ddv_scf|^2 =  8.513E-05

      iter #   2 total cpu time :    51.5 secs   av.it.:   8.8
      thresh= 9.227E-04 alpha_mix =  0.700 |ddv_scf|^2 =  2.273E-04

      iter #   3 total cpu time :    52.2 secs   av.it.:   7.4
      thresh= 1.508E-03 alpha_mix =  0.700 |ddv_scf|^2 =  1.358E-06

      iter #   4 total cpu time :    53.1 secs   av.it.:   8.2
      thresh= 1.165E-04 alpha_mix =  0.700 |ddv_scf|^2 =  6.279E-08

      iter #   5 total cpu time :    53.8 secs   av.it.:   8.4
      thresh= 2.506E-05 alpha_mix =  0.700 |ddv_scf|^2 =  1.123E-08

      iter #   6 total cpu time :    54.7 secs   av.it.:   8.5
      thresh= 1.060E-05 alpha_mix =  0.700 |ddv_scf|^2 =  4.835E-11

      iter #   7 total cpu time :    55.5 secs   av.it.:   8.7
      thresh= 6.954E-07 alpha_mix =  0.700 |ddv_scf|^2 =  1.745E-12

      iter #   8 total cpu time :    56.3 secs   av.it.:   8.8
      thresh= 1.321E-07 alpha_mix =  0.700 |ddv_scf|^2 =  2.936E-13

     End of self-consistent calculation

     Convergence has been achieved 


     Representation #  4 mode #   4

     Self-consistent Calculation

      iter #   1 total cpu time :    57.1 secs   av.it.:   5.2
      thresh= 1.000E-02 alpha_mix =  0.700 |ddv_scf|^2 =  3.765E-05

      iter #   2 total cpu time :    57.9 secs   av.it.:   8.9
[...]
        k(   59) = (  -0.8750000   0.1250000  -0.1250000), wk =   0.0625000
        k(   60) = (  -1.3750000  -0.8750000  -0.1250000), wk =   0.0000000
        k(   61) = (  -1.1250000   0.3750000  -0.3750000), wk =   0.0625000
        k(   62) = (  -1.6250000  -0.6250000  -0.3750000), wk =   0.0000000
        k(   63) = (  -0.3750000   0.3750000   1.1250000), wk =   0.0625000
        k(   64) = (  -0.8750000  -0.6250000   1.1250000), wk =   0.0000000

     Dense  grid:     2837 G-vectors     FFT dimensions: (  20,  20,  20)

     Estimated max dynamical RAM per process >       0.33MB

     Estimated total allocated dynamical RAM >       1.32MB

     Check: negative/imaginary core charge=   -0.000006    0.000000

     The potential is recalculated from file :
     ./_ph0/silicon.10.358.save/charge-density.dat

     Starting wfc are    8 atomic wfcs

     Band Structure Calculation
     Davidson diagonalization with overlap

     ethr =  1.25E-10,  avg # of iterations = 11.6

     total cpu time spent up to now is        7.6 secs

     End of band structure calculation

          k =-0.1250 0.1250 0.1250 (   344 PWs)   bands (ev):

    -5.6563   4.3203   5.6297   5.6297

          k =-0.6250-0.8750 0.1250 (   361 PWs)   bands (ev):

    -2.4874  -0.9547   1.9816   3.0447

          k =-0.3750 0.3750-0.1250 (   355 PWs)   bands (ev):

    -4.6389   1.3400   3.6608   5.1495

          k =-0.8750-0.6250-0.1250 (   361 PWs)   bands (ev):

    -2.4874  -0.9547   1.9816   3.0447

          k = 0.3750-0.3750 0.6250 (   361 PWs)   bands (ev):

    -3.5132  -0.7169   3.6761   4.3856

          k =-0.1250-1.3750 0.6250 (   363 PWs)   bands (ev):

    -3.0214  -0.6449   2.0354   4.0723

          k = 0.1250-0.1250 0.3750 (   353 PWs)   bands (ev):

    -5.1330   2.7055   4.6304   4.6899

          k =-0.3750-1.1250 0.3750 (   363 PWs)   bands (ev):

    -3.0214  -0.6449   2.0354   4.0723

          k =-0.1250 0.6250 0.1250 (   351 PWs)   bands (ev):

    -4.1104   0.9957   3.3176   3.7628

          k =-0.6250-0.3750 0.1250 (   360 PWs)   bands (ev):

    -3.7000   0.1355   2.6806   4.0366

          k = 0.6250-0.1250 0.8750 (   361 PWs)   bands (ev):

    -2.4874  -0.9547   1.9816   3.0447

          k = 0.1250-1.1250 0.8750 (   360 PWs)   bands (ev):

    -2.6511  -0.8592   2.5826   3.2990

          k = 0.3750 0.1250 0.6250 (   360 PWs)   bands (ev):

    -3.7000   0.1355   2.6806   4.0366

          k =-0.1250-0.8750 0.6250 (   361 PWs)   bands (ev):

    -2.4874  -0.9547   1.9816   3.0447

          k =-0.1250-0.8750 0.1250 (   360 PWs)   bands (ev):

    -2.6511  -0.8592   2.5826   3.2990

          k =-0.6250-1.8750 0.1250 (   351 PWs)   bands (ev):

    -4.1104   0.9957   3.3176   3.7628

          k =-0.3750 0.3750 0.3750 (   353 PWs)   bands (ev):

    -4.2114   0.0657   4.8455   4.8455

          k =-0.8750-0.6250 0.3750 (   360 PWs)   bands (ev):

    -3.7000   0.1355   2.6806   4.0366

          k = 0.3750-0.3750 1.1250 (   363 PWs)   bands (ev):

    -3.0214  -0.6449   2.0354   4.0723

          k =-0.1250-1.3750 1.1250 (   361 PWs)   bands (ev):

    -2.4874  -0.9547   1.9816   3.0447

          k = 0.1250-0.3750 0.3750 (   355 PWs)   bands (ev):

    -4.6389   1.3400   3.6608   5.1495

          k =-0.3750-1.3750 0.3750 (   361 PWs)   bands (ev):

    -3.5132  -0.7169   3.6761   4.3856

          k = 0.3750-0.3750-0.1250 (   355 PWs)   bands (ev):

    -4.6389   1.3400   3.6608   5.1495

          k =-0.1250-1.3750-0.1250 (   351 PWs)   bands (ev):

    -4.1104   0.9957   3.3176   3.7628

          k =-0.6250 0.3750-0.3750 (   361 PWs)   bands (ev):

    -3.5132  -0.7169   3.6761   4.3856

          k =-1.1250-0.6250-0.3750 (   360 PWs)   bands (ev):

    -3.7000   0.1355   2.6806   4.0366

          k =-0.3750 0.3750 0.6250 (   361 PWs)   bands (ev):

    -3.5132  -0.7169   3.6761   4.3856

          k =-0.8750-0.6250 0.6250 (   355 PWs)   bands (ev):

    -4.6389   1.3400   3.6608   5.1495

          k =-0.3750 0.1250-0.1250 (   353 PWs)   bands (ev):

    -5.1330   2.7055   4.6304   4.6899

          k =-0.8750-0.8750-0.1250 (   360 PWs)   bands (ev):

    -2.6511  -0.8592   2.5826   3.2990

          k =-0.1250 0.1250 0.3750 (   353 PWs)   bands (ev):

    -5.1330   2.7055   4.6304   4.6899

          k =-0.6250-0.8750 0.3750 (   360 PWs)   bands (ev):

    -3.7000   0.1355   2.6806   4.0366

          k = 0.1250 0.6250-0.1250 (   351 PWs)   bands (ev):

    -4.1104   0.9957   3.3176   3.7628

          k =-0.3750-0.3750-0.1250 (   355 PWs)   bands (ev):

    -4.6389   1.3400   3.6608   5.1495

          k = 0.6250 0.1250-0.1250 (   351 PWs)   bands (ev):

    -4.1104   0.9957   3.3176   3.7628

          k = 0.1250-0.8750-0.1250 (   360 PWs)   bands (ev):

    -2.6511  -0.8592   2.5826   3.2990

          k =-0.8750 0.1250-0.6250 (   361 PWs)   bands (ev):

    -2.4874  -0.9547   1.9816   3.0447

          k =-1.3750-0.8750-0.6250 (   355 PWs)   bands (ev):

    -4.6389   1.3400   3.6608   5.1495

          k = 0.8750-0.1250 0.6250 (   361 PWs)   bands (ev):

    -2.4874  -0.9547   1.9816   3.0447

          k = 0.3750-1.1250 0.6250 (   360 PWs)   bands (ev):

    -3.7000   0.1355   2.6806   4.0366

          k =-0.6250 0.1250 0.8750 (   361 PWs)   bands (ev):

    -2.4874  -0.9547   1.9816   3.0447

          k =-1.1250-0.8750 0.8750 (   344 PWs)   bands (ev):

    -5.6563   4.3203   5.6297   5.6297

          k =-0.1250 0.8750 0.6250 (   361 PWs)   bands (ev):

    -2.4874  -0.9547   1.9816   3.0447

          k =-0.6250-0.1250 0.6250 (   363 PWs)   bands (ev):

    -3.0214  -0.6449   2.0354   4.0723

          k = 0.1250 0.8750-0.6250 (   361 PWs)   bands (ev):

    -2.4874  -0.9547   1.9816   3.0447

          k =-0.3750-0.1250-0.6250 (   360 PWs)   bands (ev):

    -3.7000   0.1355   2.6806   4.0366

          k =-0.6250-0.1250-0.3750 (   360 PWs)   bands (ev):

    -3.7000   0.1355   2.6806   4.0366

          k =-1.1250-1.1250-0.3750 (   351 PWs)   bands (ev):

    -4.1104   0.9957   3.3176   3.7628

          k = 0.6250 0.1250 0.3750 (   360 PWs)   bands (ev):

    -3.7000   0.1355   2.6806   4.0366

          k = 0.1250-0.8750 0.3750 (   361 PWs)   bands (ev):

    -2.4874  -0.9547   1.9816   3.0447

          k =-0.3750-0.1250 0.6250 (   360 PWs)   bands (ev):

    -3.7000   0.1355   2.6806   4.0366

          k =-0.8750-1.1250 0.6250 (   353 PWs)   bands (ev):

    -5.1330   2.7055   4.6304   4.6899

          k = 0.1250 0.6250 0.3750 (   360 PWs)   bands (ev):

    -3.7000   0.1355   2.6806   4.0366

          k =-0.3750-0.3750 0.3750 (   353 PWs)   bands (ev):

    -4.2114   0.0657   4.8455   4.8455

          k =-0.1250 0.6250-0.3750 (   360 PWs)   bands (ev):

    -3.7000   0.1355   2.6806   4.0366

          k =-0.6250-0.3750-0.3750 (   361 PWs)   bands (ev):

    -3.5132  -0.7169   3.6761   4.3856

          k = 0.1250-0.8750-0.1250 (   360 PWs)   bands (ev):

    -2.6511  -0.8592   2.5826   3.2990

          k =-0.3750-1.8750-0.1250 (   353 PWs)   bands (ev):

    -5.1330   2.7055   4.6304   4.6899

          k =-0.8750 0.1250-0.1250 (   360 PWs)   bands (ev):

    -2.6511  -0.8592   2.5826   3.2990

          k =-1.3750-0.8750-0.1250 (   361 PWs)   bands (ev):

    -2.4874  -0.9547   1.9816   3.0447

          k =-1.1250 0.3750-0.3750 (   363 PWs)   bands (ev):

    -3.0214  -0.6449   2.0354   4.0723

          k =-1.6250-0.6250-0.3750 (   361 PWs)   bands (ev):

    -3.5132  -0.7169   3.6761   4.3856

          k =-0.3750 0.3750 1.1250 (   363 PWs)   bands (ev):

    -3.0214  -0.6449   2.0354   4.0723

          k =-0.8750-0.6250 1.1250 (   353 PWs)   bands (ev):

    -5.1330   2.7055   4.6304   4.6899

     highest occupied level (ev):     5.6297

     Writing output data file silicon.10.358.save

                                                                                

     bravais-lattice index     =            2
     lattice parameter (alat)  =      10.3580  a.u.
     unit-cell volume          =     277.8227 (a.u.)^3
     number of atoms/cell      =            2
     number of atomic types    =            1
     kinetic-energy cut-off    =      18.0000  Ry
     charge density cut-off    =      72.0000  Ry
     convergence threshold     =      1.0E-12
     beta                      =       0.7000
     number of iterations used =            4
     Exchange-correlation      = SLA  PW   PBE  PBE ( 1  4  3  4 0 0)


     celldm(1)=   10.35800  celldm(2)=    0.00000  celldm(3)=    0.00000
     celldm(4)=    0.00000  celldm(5)=    0.00000  celldm(6)=    0.00000

     crystal axes: (cart. coord. in units of alat)
               a(1) = ( -0.5000  0.0000  0.5000 )  
               a(2) = (  0.0000  0.5000  0.5000 )  
               a(3) = ( -0.5000  0.5000  0.0000 )  

     reciprocal axes: (cart. coord. in units 2 pi/alat)
               b(1) = ( -1.0000 -1.0000  1.0000 )  
               b(2) = (  1.0000  1.0000  1.0000 )  
               b(3) = ( -1.0000  1.0000 -1.0000 )  


     Atoms inside the unit cell: 

     Cartesian axes

     site n.  atom      mass           positions (alat units)
        1     Si  28.0860   tau(    1) = (    0.00000    0.00000    0.00000  )
        2     Si  28.0860   tau(    2) = (    0.25000    0.25000    0.25000  )

     Computing dynamical matrix for 
                    q = (  -0.5000000  -1.0000000   0.0000000 )

      8 Sym.Ops. (no q -> -q+G )


     G cutoff =  195.6701  (    710 G-vectors)     FFT grid: ( 20, 20, 20)
     number of k points=    64

     PseudoPot. # 1 for Si read from file:
     /home/max/quantum_espresso/qe-6.1/pseudo/si_pbe_v1.uspp.F.UPF.txt
     MD5 check sum: a056efeee980c13900f22a371efd63c1
     Pseudo is Ultrasoft + core correction, Zval =  4.0
     Generated by new atomic code, or converted to UPF format
     Using radial grid of  899 points,  6 beta functions with: 
                l(1) =   0
                l(2) =   0
                l(3) =   1
                l(4) =   1
                l(5) =   2
                l(6) =   2
     Q(r) pseudized with  8 coefficients,  rinner =    0.900   0.900   0.900
                                                       0.900   0.900


     Atomic displacements:
     There are   3 irreducible representations

     Representation     1      2 modes -  To be done

     Representation     2      2 modes -  To be done

     Representation     3      2 modes -  To be done



     Alpha used in Ewald sum =   0.7000
     PHONON       :  1m23.63s CPU     1m33.05s WALL



     Representation #  1 modes #   1  2

     Self-consistent Calculation

      iter #   1 total cpu time :    93.3 secs   av.it.:   5.3
      thresh= 1.000E-02 alpha_mix =  0.700 |ddv_scf|^2 =  6.338E-06

      iter #   2 total cpu time :    93.7 secs   av.it.:   9.9
      thresh= 2.518E-04 alpha_mix =  0.700 |ddv_scf|^2 =  3.415E-06

      iter #   3 total cpu time :    94.1 secs   av.it.:   9.3
      thresh= 1.848E-04 alpha_mix =  0.700 |ddv_scf|^2 =  9.151E-09

      iter #   4 total cpu time :    94.5 secs   av.it.:   9.0
      thresh= 9.566E-06 alpha_mix =  0.700 |ddv_scf|^2 =  1.969E-11

      iter #   5 total cpu time :    95.0 secs   av.it.:   9.2
      thresh= 4.437E-07 alpha_mix =  0.700 |ddv_scf|^2 =  5.803E-13

     End of self-consistent calculation

     Convergence has been achieved 


     Representation #  2 modes #   3  4

     Self-consistent Calculation

      iter #   1 total cpu time :    95.3 secs   av.it.:   5.2
      thresh= 1.000E-02 alpha_mix =  0.700 |ddv_scf|^2 =  9.783E-06

      iter #   2 total cpu time :    95.7 secs   av.it.:   9.9
      thresh= 3.128E-04 alpha_mix =  0.700 |ddv_scf|^2 =  1.311E-05

      iter #   3 total cpu time :    96.0 secs   av.it.:   9.1
      thresh= 3.621E-04 alpha_mix =  0.700 |ddv_scf|^2 =  1.067E-08

      iter #   4 total cpu time :    96.4 secs   av.it.:   8.8
      thresh= 1.033E-05 alpha_mix =  0.700 |ddv_scf|^2 =  8.752E-11

      iter #   5 total cpu time :    96.9 secs   av.it.:   9.4
      thresh= 9.355E-07 alpha_mix =  0.700 |ddv_scf|^2 =  1.840E-12

      iter #   6 total cpu time :    97.3 secs   av.it.:   9.1
      thresh= 1.356E-07 alpha_mix =  0.700 |ddv_scf|^2 =  1.501E-14

     End of self-consistent calculation

     Convergence has been achieved 


     Representation #  3 modes #   5  6

     Self-consistent Calculation

      iter #   1 total cpu time :    97.6 secs   av.it.:   5.1
      thresh= 1.000E-02 alpha_mix =  0.700 |ddv_scf|^2 =  2.659E-06

      iter #   2 total cpu time :    98.0 secs   av.it.:   9.7
      thresh= 1.630E-04 alpha_mix =  0.700 |ddv_scf|^2 =  1.443E-06

      iter #   3 total cpu time :    98.3 secs   av.it.:   9.0
      thresh= 1.201E-04 alpha_mix =  0.700 |ddv_scf|^2 =  8.855E-09

      iter #   4 total cpu time :    98.9 secs   av.it.:   8.7
      thresh= 9.410E-06 alpha_mix =  0.700 |ddv_scf|^2 =  4.413E-11

      iter #   5 total cpu time :    99.2 secs   av.it.:   9.0
      thresh= 6.643E-07 alpha_mix =  0.700 |ddv_scf|^2 =  6.930E-13

     End of self-consistent calculation

     Convergence has been achieved 

     Number of q in the star =    6
     List of q in the star:
          1  -0.500000000  -1.000000000   0.000000000
          2   0.000000000   1.000000000   0.500000000
          3   0.000000000  -1.000000000  -0.500000000
          4   0.500000000   1.000000000   0.000000000
          5  -1.000000000  -0.500000000   0.000000000
          6   0.000000000  -0.500000000  -1.000000000

     Diagonalizing the dynamical matrix

     q = (   -0.500000000  -1.000000000   0.000000000 ) 

 **************************************************************************
     freq (    1) =       7.367024 [THz] =     245.737456 [cm-1]
     freq (    2) =       7.367024 [THz] =     245.737456 [cm-1]
     freq (    3) =      10.912734 [THz] =     364.009610 [cm-1]
     freq (    4) =      10.912734 [THz] =     364.009610 [cm-1]
     freq (    5) =      13.793756 [THz] =     460.110175 [cm-1]
     freq (    6) =      13.793756 [THz] =     460.110175 [cm-1]
 **************************************************************************

     init_run     :      0.66s CPU      0.69s WALL (       7 calls)
     electrons    :      5.38s CPU      6.05s WALL (       7 calls)

     Called by init_run:
     wfcinit      :      0.00s CPU      0.00s WALL (       7 calls)
     potinit      :      0.02s CPU      0.02s WALL (       7 calls)

     Called by electrons:
     c_bands      :      5.38s CPU      6.05s WALL (       7 calls)
     v_of_rho     :      0.01s CPU      0.01s WALL (       8 calls)
     newd         :      0.03s CPU      0.03s WALL (       8 calls)

     Called by c_bands:
     init_us_2    :      0.69s CPU      0.76s WALL (   17588 calls)
     cegterg      :      4.49s CPU      5.07s WALL (     796 calls)

     Called by sum_band:

     Called by *egterg:
     h_psi        :     49.18s CPU     54.64s WALL (  152122 calls)
     s_psi        :      5.92s CPU      6.53s WALL (  308964 calls)
     g_psi        :      0.03s CPU      0.03s WALL (    9268 calls)
     cdiaghg      :      0.50s CPU      0.58s WALL (   10064 calls)

     Called by h_psi:
     h_psi:pot    :     48.99s CPU     54.42s WALL (  152122 calls)
     h_psi:calbec :      5.31s CPU      5.95s WALL (  152122 calls)
     vloc_psi     :     40.49s CPU     44.96s WALL (  152122 calls)
     add_vuspsi   :      2.96s CPU      3.26s WALL (  152122 calls)

     General routines
     calbec       :     11.50s CPU     12.84s WALL (  345336 calls)
     fft          :      0.62s CPU      0.69s WALL (    5239 calls)
     ffts         :      0.15s CPU      0.17s WALL (    2748 calls)
     fftw         :     47.24s CPU     52.49s WALL ( 1377606 calls)
     davcio       :      0.31s CPU      0.35s WALL (   79045 calls)

     Parallel routines
     fft_scatter  :     14.78s CPU     16.69s WALL ( 1385593 calls)

     PHONON       :  1m29.39s CPU     1m39.23s WALL

     INITIALIZATION: 
     phq_setup    :      0.06s CPU      0.06s WALL (       8 calls)
     phq_init     :      2.28s CPU      2.45s WALL (       8 calls)

     phq_init     :      2.28s CPU      2.45s WALL (       8 calls)
     set_drhoc    :      0.30s CPU      0.31s WALL (      24 calls)
     init_vloc    :      0.01s CPU      0.01s WALL (       8 calls)
     init_us_1    :      0.60s CPU      0.62s WALL (       8 calls)
     newd         :      0.03s CPU      0.03s WALL (       8 calls)
     dvanqq       :      0.26s CPU      0.27s WALL (       8 calls)
     drho         :      1.11s CPU      1.20s WALL (       8 calls)

     DYNAMICAL MATRIX:
     dynmat0      :      0.56s CPU      0.59s WALL (       8 calls)
     phqscf       :     78.43s CPU     87.19s WALL (       8 calls)
     dynmatrix    :      0.02s CPU      0.02s WALL (       8 calls)

     phqscf       :     78.43s CPU     87.19s WALL (       8 calls)
     solve_linter :     77.60s CPU     86.30s WALL (      32 calls)
     drhodv       :      0.61s CPU      0.65s WALL (      32 calls)

     dynmat0      :      0.56s CPU      0.59s WALL (       8 calls)
     dynmat_us    :      0.30s CPU      0.31s WALL (       8 calls)
     d2ionq       :      0.01s CPU      0.01s WALL (       8 calls)
     dynmatcc     :      0.23s CPU      0.24s WALL (       8 calls)

     dynmat_us    :      0.30s CPU      0.31s WALL (       8 calls)
     addusdynmat  :      0.00s CPU      0.00s WALL (       8 calls)

     phqscf       :     78.43s CPU     87.19s WALL (       8 calls)
     solve_linter :     77.60s CPU     86.30s WALL (      32 calls)

     solve_linter :     77.60s CPU     86.30s WALL (      32 calls)
     dvqpsi_us    :      1.75s CPU      1.96s WALL (    2508 calls)
     ortho        :      1.34s CPU      1.48s WALL (   15550 calls)
     cgsolve      :     60.93s CPU     67.78s WALL (   15550 calls)
     incdrhoscf   :      5.32s CPU      5.93s WALL (   15550 calls)
     addusddens   :      1.24s CPU      1.33s WALL (     228 calls)
     vpsifft      :      3.94s CPU      4.39s WALL (   12922 calls)
     dv_of_drho   :      0.27s CPU      0.30s WALL (     295 calls)
     mix_pot      :      0.06s CPU      0.07s WALL (     201 calls)
     psymdvscf    :      0.80s CPU      0.86s WALL (     196 calls)
     newdq        :      1.29s CPU      1.41s WALL (     201 calls)
     adddvscf     :      0.47s CPU      0.54s WALL (   13042 calls)
     drhodvus     :      0.00s CPU      0.00s WALL (      32 calls)

     dvqpsi_us    :      1.75s CPU      1.96s WALL (    2508 calls)
     dvqpsi_us_on :      0.84s CPU      0.93s WALL (    2508 calls)

     cgsolve      :     60.93s CPU     67.78s WALL (   15550 calls)
     ch_psi       :     58.42s CPU     64.85s WALL (  141262 calls)

     ch_psi       :     58.42s CPU     64.85s WALL (  141262 calls)
     h_psi        :     49.18s CPU     54.64s WALL (  152122 calls)
     last         :      9.81s CPU     10.94s WALL (  141262 calls)

     h_psi        :     49.18s CPU     54.64s WALL (  152122 calls)
     add_vuspsi   :      2.96s CPU      3.26s WALL (  152122 calls)

     incdrhoscf   :      5.32s CPU      5.93s WALL (   15550 calls)
     addusdbec    :      0.79s CPU      0.88s WALL (   17998 calls)

     drhodvus     :      0.00s CPU      0.00s WALL (      32 calls)

      General routines
     calbec       :     11.50s CPU     12.84s WALL (  345336 calls)
     fft          :      0.62s CPU      0.69s WALL (    5239 calls)
     ffts         :      0.15s CPU      0.17s WALL (    2748 calls)
     fftw         :     47.24s CPU     52.49s WALL ( 1377606 calls)
     davcio       :      0.31s CPU      0.35s WALL (   79045 calls)
     write_rec    :      0.22s CPU      0.24s WALL (     233 calls)


     PHONON       :  1m29.39s CPU     1m39.23s WALL


   This run was terminated on:  13:11:27   9Nov2017            

=------------------------------------------------------------------------------=
   JOB DONE.
=------------------------------------------------------------------------------=
