
     Program PHONON v.6.1 (svn rev. 13369) starts on 10Nov2017 at 15:50:28 

     This program is part of the open-source Quantum ESPRESSO suite
     for quantum simulation of materials; please cite
         "P. Giannozzi et al., J. Phys.:Condens. Matter 21 395502 (2009);
          URL http://www.quantum-espresso.org", 
     in publications or presentations arising from this work. More details at
     http://www.quantum-espresso.org/quote

     Parallel version (MPI), running on     4 processors
     R & G space division:  proc/nbgrp/npool/nimage =       4

     Reading data from directory:
     ./silicon.10.324.save

   Info: using nr1, nr2, nr3 values from input

   Info: using nr1, nr2, nr3 values from input

     IMPORTANT: XC functional enforced from input :
     Exchange-correlation      = SLA  PW   PBE  PBE ( 1  4  3  4 0 0)
     Any further DFT definition will be discarded
     Please, verify this is what you really want


     Parallelization info
     --------------------
     sticks:   dense  smooth     PW     G-vecs:    dense   smooth      PW
     Min         217     109     37                 4288     1520     284
     Max         219     111     38                 4289     1521     285
     Sum         871     439    151                17153     6081    1139



     Dynamical matrices for ( 4, 4, 4)  uniform grid of q-points
     (   8q-points):
       N         xq(1)         xq(2)         xq(3) 
       1   0.000000000   0.000000000   0.000000000
       2  -0.250000000   0.250000000  -0.250000000
       3   0.500000000  -0.500000000   0.500000000
       4   0.000000000   0.500000000   0.000000000
       5   0.750000000  -0.250000000   0.750000000
       6   0.500000000   0.000000000   0.500000000
       7   0.000000000  -1.000000000   0.000000000
       8  -0.500000000  -1.000000000   0.000000000

     Calculation of q =    0.0000000   0.0000000   0.0000000

                                                                                

     bravais-lattice index     =            2
     lattice parameter (alat)  =      10.3240  a.u.
     unit-cell volume          =     275.0958 (a.u.)^3
     number of atoms/cell      =            2
     number of atomic types    =            1
     kinetic-energy cut-off    =      30.0000  Ry
     charge density cut-off    =     240.0000  Ry
     convergence threshold     =      1.0E-12
     beta                      =       0.7000
     number of iterations used =            4
     Exchange-correlation      = SLA  PW   PBE  PBE ( 1  4  3  4 0 0)


     celldm(1)=   10.32400  celldm(2)=    0.00000  celldm(3)=    0.00000
     celldm(4)=    0.00000  celldm(5)=    0.00000  celldm(6)=    0.00000

     crystal axes: (cart. coord. in units of alat)
               a(1) = ( -0.5000  0.0000  0.5000 )  
               a(2) = (  0.0000  0.5000  0.5000 )  
               a(3) = ( -0.5000  0.5000  0.0000 )  

     reciprocal axes: (cart. coord. in units 2 pi/alat)
               b(1) = ( -1.0000 -1.0000  1.0000 )  
               b(2) = (  1.0000  1.0000  1.0000 )  
               b(3) = ( -1.0000  1.0000 -1.0000 )  


     Atoms inside the unit cell: 

     Cartesian axes

     site n.  atom      mass           positions (alat units)
        1     Si  28.0860   tau(    1) = (    0.00000    0.00000    0.00000  )
        2     Si  28.0860   tau(    2) = (    0.25000    0.25000    0.25000  )

     Computing dynamical matrix for 
                    q = (   0.0000000   0.0000000   0.0000000 )

     49 Sym.Ops. (with q -> -q+G )


     G cutoff =  647.9590  (   4288 G-vectors)     FFT grid: ( 36, 36, 36)
     G cutoff =  323.9795  (   1520 G-vectors)  smooth grid: ( 25, 25, 25)
     number of k points=    10

     PseudoPot. # 1 for Si read from file:
     /home/s1333534/quantum_espresso/qe-6.1/pseudo/si_pbe_v1.uspp.F.UPF.txt
     MD5 check sum: a056efeee980c13900f22a371efd63c1
     Pseudo is Ultrasoft + core correction, Zval =  4.0
     Generated by new atomic code, or converted to UPF format
     Using radial grid of  899 points,  6 beta functions with: 
                l(1) =   0
                l(2) =   0
                l(3) =   1
                l(4) =   1
                l(5) =   2
                l(6) =   2
     Q(r) pseudized with  8 coefficients,  rinner =    0.900   0.900   0.900
                                                       0.900   0.900

     Mode symmetry, O_h (m-3m)  point group:


     Electric field:
     Dielectric constant
     Born effective charges in two ways 


     Atomic displacements:
     There are   2 irreducible representations

     Representation     1      3 modes -T_2g G_25' G_5+  To be done

     Representation     2      3 modes -T_1u G_15  G_4-  To be done



     Alpha used in Ewald sum =   2.5000
     PHONON       :     0.94s CPU         1.36s WALL


     Electric Fields Calculation

      iter #   1 total cpu time :     2.4 secs   av.it.:   5.7
      thresh= 1.000E-02 alpha_mix =  0.700 |ddv_scf|^2 =  1.332E-07

      iter #   2 total cpu time :     3.2 secs   av.it.:  11.8
      thresh= 3.650E-05 alpha_mix =  0.700 |ddv_scf|^2 =  7.818E-09

      iter #   3 total cpu time :     3.8 secs   av.it.:  11.5
      thresh= 8.842E-06 alpha_mix =  0.700 |ddv_scf|^2 =  5.202E-10

      iter #   4 total cpu time :     4.5 secs   av.it.:  10.2
      thresh= 2.281E-06 alpha_mix =  0.700 |ddv_scf|^2 =  3.407E-12

      iter #   5 total cpu time :     5.1 secs   av.it.:  11.1
      thresh= 1.846E-07 alpha_mix =  0.700 |ddv_scf|^2 =  3.403E-15

     End of electric fields calculation

          Dielectric constant in cartesian axis 

          (      13.947079522      -0.000000000       0.000000000 )
          (       0.000000000      13.947079522       0.000000000 )
          (       0.000000000       0.000000000      13.947079522 )

          Effective charges (d Force / dE) in cartesian axis

           atom      1   Si 
      Ex  (       -0.03869        0.00000        0.00000 )
      Ey  (        0.00000       -0.03869       -0.00000 )
      Ez  (        0.00000       -0.00000       -0.03869 )
           atom      2   Si 
      Ex  (       -0.03869       -0.00000       -0.00000 )
      Ey  (       -0.00000       -0.03869        0.00000 )
      Ez  (       -0.00000        0.00000       -0.03869 )


     Representation #  1 modes #   1  2  3

     Self-consistent Calculation

      iter #   1 total cpu time :     6.2 secs   av.it.:   5.1
      thresh= 1.000E-02 alpha_mix =  0.700 |ddv_scf|^2 =  2.352E-08

      iter #   2 total cpu time :     6.9 secs   av.it.:  11.6
      thresh= 1.534E-05 alpha_mix =  0.700 |ddv_scf|^2 =  9.632E-10

      iter #   3 total cpu time :     7.6 secs   av.it.:  11.1
      thresh= 3.104E-06 alpha_mix =  0.700 |ddv_scf|^2 =  6.552E-11

      iter #   4 total cpu time :     8.1 secs   av.it.:  10.1
      thresh= 8.094E-07 alpha_mix =  0.700 |ddv_scf|^2 =  1.610E-13

     End of self-consistent calculation

     Convergence has been achieved 


     Representation #  2 modes #   4  5  6

     Self-consistent Calculation

      iter #   1 total cpu time :     9.0 secs   av.it.:   5.2
      thresh= 1.000E-02 alpha_mix =  0.700 |ddv_scf|^2 =  1.856E-08

      iter #   2 total cpu time :     9.7 secs   av.it.:  11.6
      thresh= 1.362E-05 alpha_mix =  0.700 |ddv_scf|^2 =  1.092E-09

      iter #   3 total cpu time :    10.4 secs   av.it.:  11.2
      thresh= 3.305E-06 alpha_mix =  0.700 |ddv_scf|^2 =  6.776E-11

      iter #   4 total cpu time :    11.0 secs   av.it.:  11.3
      thresh= 8.232E-07 alpha_mix =  0.700 |ddv_scf|^2 =  2.641E-13

     End of self-consistent calculation

     Convergence has been achieved 

     Number of q in the star =    1
     List of q in the star:
          1   0.000000000   0.000000000   0.000000000

          Dielectric constant in cartesian axis 

          (      13.947079522      -0.000000000       0.000000000 )
          (       0.000000000      13.947079522       0.000000000 )
          (       0.000000000       0.000000000      13.947079522 )

          Effective charges (d Force / dE) in cartesian axis

           atom      1   Si 
      Ex  (       -0.03869        0.00000        0.00000 )
      Ey  (        0.00000       -0.03869       -0.00000 )
      Ez  (        0.00000       -0.00000       -0.03869 )
           atom      2   Si 
      Ex  (       -0.03869       -0.00000       -0.00000 )
      Ey  (       -0.00000       -0.03869        0.00000 )
      Ez  (       -0.00000        0.00000       -0.03869 )

          Effective charges (d P / du) in cartesian axis 

           atom      1   Si 
      Px  (       -0.07237        0.00000       -0.00000 )
      Py  (       -0.00000       -0.07237        0.00000 )
      Pz  (       -0.00000        0.00000       -0.07237 )
           atom      2   Si 
      Px  (       -0.07237        0.00000        0.00000 )
      Py  (        0.00000       -0.07237        0.00000 )
      Pz  (        0.00000        0.00000       -0.07237 )

     Diagonalizing the dynamical matrix

     q = (    0.000000000   0.000000000   0.000000000 ) 

 **************************************************************************
     freq (    1) =      -0.474312 [THz] =     -15.821342 [cm-1]
     freq (    2) =      -0.474312 [THz] =     -15.821342 [cm-1]
     freq (    3) =      -0.474312 [THz] =     -15.821342 [cm-1]
     freq (    4) =      15.109106 [THz] =     503.985534 [cm-1]
     freq (    5) =      15.109106 [THz] =     503.985534 [cm-1]
     freq (    6) =      15.109106 [THz] =     503.985534 [cm-1]
 **************************************************************************

     Mode symmetry, O_h (m-3m)  point group:

     freq (  1 -  3) =        -15.8  [cm-1]   --> T_1u G_15  G_4- I  
     freq (  4 -  6) =        504.0  [cm-1]   --> T_2g G_25' G_5+ R  

     Calculation of q =   -0.2500000   0.2500000  -0.2500000

   Info: using nr1, nr2, nr3 values from input

   Info: using nr1, nr2, nr3 values from input

     Parallelization info
     --------------------
     sticks:   dense  smooth     PW     G-vecs:    dense   smooth      PW
     Min         217     109     37                 4288     1520     309
     Max         218     111     38                 4289     1521     312
     Sum         871     439    151                17153     6081    1243



     bravais-lattice index     =            2
     lattice parameter (alat)  =      10.3240  a.u.
     unit-cell volume          =     275.0958 (a.u.)^3
     number of atoms/cell      =            2
     number of atomic types    =            1
     number of electrons       =         8.00
     number of Kohn-Sham states=            4
     kinetic-energy cutoff     =      30.0000  Ry
     charge density cutoff     =     240.0000  Ry
     Exchange-correlation      = SLA  PW   PBE  PBE ( 1  4  3  4 0 0)

     celldm(1)=  10.324000  celldm(2)=   0.000000  celldm(3)=   0.000000
     celldm(4)=   0.000000  celldm(5)=   0.000000  celldm(6)=   0.000000

     crystal axes: (cart. coord. in units of alat)
               a(1) = (  -0.500000   0.000000   0.500000 )  
               a(2) = (   0.000000   0.500000   0.500000 )  
               a(3) = (  -0.500000   0.500000   0.000000 )  

     reciprocal axes: (cart. coord. in units 2 pi/alat)
               b(1) = ( -1.000000 -1.000000  1.000000 )  
               b(2) = (  1.000000  1.000000  1.000000 )  
               b(3) = ( -1.000000  1.000000 -1.000000 )  


     PseudoPot. # 1 for Si read from file:
     /home/s1333534/quantum_espresso/qe-6.1/pseudo/si_pbe_v1.uspp.F.UPF.txt
     MD5 check sum: a056efeee980c13900f22a371efd63c1
     Pseudo is Ultrasoft + core correction, Zval =  4.0
     Generated by new atomic code, or converted to UPF format
     Using radial grid of  899 points,  6 beta functions with: 
                l(1) =   0
                l(2) =   0
                l(3) =   1
                l(4) =   1
                l(5) =   2
                l(6) =   2
     Q(r) pseudized with  8 coefficients,  rinner =    0.900   0.900   0.900
                                                       0.900   0.900

     atomic species   valence    mass     pseudopotential
        Si             4.00    28.08600     Si( 1.00)

     48 Sym. Ops., with inversion, found



   Cartesian axes

     site n.     atom                  positions (alat units)
         1           Si  tau(   1) = (   0.0000000   0.0000000   0.0000000  )
         2           Si  tau(   2) = (   0.2500000   0.2500000   0.2500000  )

     number of k points=   120

     Number of k-points >= 100: set verbosity='high' to print them.

     Dense  grid:    17153 G-vectors     FFT dimensions: (  36,  36,  36)

     Smooth grid:     6081 G-vectors     FFT dimensions: (  25,  25,  25)

     Estimated max dynamical RAM per process >       1.51MB

     Estimated total allocated dynamical RAM >       6.06MB

     The potential is recalculated from file :
     ./_ph0/silicon.10.324.save/charge-density.dat

     Starting wfc are    8 atomic wfcs

     Band Structure Calculation
     Davidson diagonalization with overlap

     ethr =  1.25E-10,  avg # of iterations = 12.2

     total cpu time spent up to now is        1.3 secs

     End of band structure calculation

     Number of k-points >= 100: set verbosity='high' to print the bands.

     highest occupied level (ev):     5.7239

     Writing output data file silicon.10.324.save

                                                                                

     bravais-lattice index     =            2
     lattice parameter (alat)  =      10.3240  a.u.
     unit-cell volume          =     275.0958 (a.u.)^3
     number of atoms/cell      =            2
     number of atomic types    =            1
     kinetic-energy cut-off    =      30.0000  Ry
     charge density cut-off    =     240.0000  Ry
     convergence threshold     =      1.0E-12
     beta                      =       0.7000
     number of iterations used =            4
     Exchange-correlation      = SLA  PW   PBE  PBE ( 1  4  3  4 0 0)


     celldm(1)=   10.32400  celldm(2)=    0.00000  celldm(3)=    0.00000
     celldm(4)=    0.00000  celldm(5)=    0.00000  celldm(6)=    0.00000

     crystal axes: (cart. coord. in units of alat)
               a(1) = ( -0.5000  0.0000  0.5000 )  
               a(2) = (  0.0000  0.5000  0.5000 )  
               a(3) = ( -0.5000  0.5000  0.0000 )  

     reciprocal axes: (cart. coord. in units 2 pi/alat)
               b(1) = ( -1.0000 -1.0000  1.0000 )  
               b(2) = (  1.0000  1.0000  1.0000 )  
               b(3) = ( -1.0000  1.0000 -1.0000 )  


     Atoms inside the unit cell: 

     Cartesian axes

     site n.  atom      mass           positions (alat units)
        1     Si  28.0860   tau(    1) = (    0.00000    0.00000    0.00000  )
        2     Si  28.0860   tau(    2) = (    0.25000    0.25000    0.25000  )

     Computing dynamical matrix for 
                    q = (  -0.2500000   0.2500000  -0.2500000 )

      6 Sym.Ops. (no q -> -q+G )


     G cutoff =  647.9590  (   4288 G-vectors)     FFT grid: ( 36, 36, 36)
     G cutoff =  323.9795  (   1520 G-vectors)  smooth grid: ( 25, 25, 25)
     number of k points=   120

     PseudoPot. # 1 for Si read from file:
     /home/s1333534/quantum_espresso/qe-6.1/pseudo/si_pbe_v1.uspp.F.UPF.txt
     MD5 check sum: a056efeee980c13900f22a371efd63c1
     Pseudo is Ultrasoft + core correction, Zval =  4.0
     Generated by new atomic code, or converted to UPF format
     Using radial grid of  899 points,  6 beta functions with: 
                l(1) =   0
                l(2) =   0
                l(3) =   1
                l(4) =   1
                l(5) =   2
                l(6) =   2
     Q(r) pseudized with  8 coefficients,  rinner =    0.900   0.900   0.900
                                                       0.900   0.900

     Mode symmetry, C_3v (3m)   point group:


     Atomic displacements:
     There are   4 irreducible representations

     Representation     1      1 modes -A_1  L_1  To be done

     Representation     2      1 modes -A_1  L_1  To be done

     Representation     3      2 modes -E    L_3  To be done

     Representation     4      2 modes -E    L_3  To be done



     Alpha used in Ewald sum =   2.5000
     PHONON       :    10.59s CPU        14.42s WALL



     Representation #  1 mode #   1

     Self-consistent Calculation

      iter #   1 total cpu time :    14.9 secs   av.it.:   5.9
      thresh= 1.000E-02 alpha_mix =  0.700 |ddv_scf|^2 =  4.274E-04

      iter #   2 total cpu time :    15.4 secs   av.it.:   9.1
      thresh= 2.067E-03 alpha_mix =  0.700 |ddv_scf|^2 =  6.507E-03

      iter #   3 total cpu time :    15.9 secs   av.it.:   6.9
      thresh= 8.066E-03 alpha_mix =  0.700 |ddv_scf|^2 =  2.712E-07

      iter #   4 total cpu time :    16.5 secs   av.it.:   9.6
      thresh= 5.207E-05 alpha_mix =  0.700 |ddv_scf|^2 =  1.794E-08

      iter #   5 total cpu time :    17.1 secs   av.it.:   9.6
      thresh= 1.339E-05 alpha_mix =  0.700 |ddv_scf|^2 =  3.397E-10

      iter #   6 total cpu time :    17.7 secs   av.it.:   9.7
      thresh= 1.843E-06 alpha_mix =  0.700 |ddv_scf|^2 =  1.187E-09

      iter #   7 total cpu time :    18.3 secs   av.it.:   7.6
      thresh= 3.445E-06 alpha_mix =  0.700 |ddv_scf|^2 =  3.835E-11

      iter #   8 total cpu time :    18.9 secs   av.it.:   9.3
      thresh= 6.193E-07 alpha_mix =  0.700 |ddv_scf|^2 =  4.713E-13

     End of self-consistent calculation

     Convergence has been achieved 


     Representation #  2 mode #   2

     Self-consistent Calculation

      iter #   1 total cpu time :    19.4 secs   av.it.:   5.9
      thresh= 1.000E-02 alpha_mix =  0.700 |ddv_scf|^2 =  4.274E-04

      iter #   2 total cpu time :    20.0 secs   av.it.:   9.1
      thresh= 2.067E-03 alpha_mix =  0.700 |ddv_scf|^2 =  6.507E-03

      iter #   3 total cpu time :    20.5 secs   av.it.:   6.9
      thresh= 8.066E-03 alpha_mix =  0.700 |ddv_scf|^2 =  2.712E-07

      iter #   4 total cpu time :    21.2 secs   av.it.:   9.6
      thresh= 5.207E-05 alpha_mix =  0.700 |ddv_scf|^2 =  1.794E-08

      iter #   5 total cpu time :    21.8 secs   av.it.:   9.6
      thresh= 1.339E-05 alpha_mix =  0.700 |ddv_scf|^2 =  3.397E-10

      iter #   6 total cpu time :    22.4 secs   av.it.:   9.7
      thresh= 1.843E-06 alpha_mix =  0.700 |ddv_scf|^2 =  1.187E-09

      iter #   7 total cpu time :    23.0 secs   av.it.:   7.6
      thresh= 3.445E-06 alpha_mix =  0.700 |ddv_scf|^2 =  3.835E-11

      iter #   8 total cpu time :    23.5 secs   av.it.:   9.3
      thresh= 6.193E-07 alpha_mix =  0.700 |ddv_scf|^2 =  4.713E-13

     End of self-consistent calculation

     Convergence has been achieved 


     Representation #  3 modes #   3  4

     Self-consistent Calculation

      iter #   1 total cpu time :    24.4 secs   av.it.:   5.2
      thresh= 1.000E-02 alpha_mix =  0.700 |ddv_scf|^2 =  6.620E-08

      iter #   2 total cpu time :    25.7 secs   av.it.:  11.4
      thresh= 2.573E-05 alpha_mix =  0.700 |ddv_scf|^2 =  4.254E-09

      iter #   3 total cpu time :    26.9 secs   av.it.:  11.1
      thresh= 6.522E-06 alpha_mix =  0.700 |ddv_scf|^2 =  2.251E-10

      iter #   4 total cpu time :    28.1 secs   av.it.:  11.0
      thresh= 1.500E-06 alpha_mix =  0.700 |ddv_scf|^2 =  8.592E-13

     End of self-consistent calculation

     Convergence has been achieved 


     Representation #  4 modes #   5  6

     Self-consistent Calculation

      iter #   1 total cpu time :    29.1 secs   av.it.:   5.2
      thresh= 1.000E-02 alpha_mix =  0.700 |ddv_scf|^2 =  6.621E-08

      iter #   2 total cpu time :    30.4 secs   av.it.:  11.4
      thresh= 2.573E-05 alpha_mix =  0.700 |ddv_scf|^2 =  4.254E-09

      iter #   3 total cpu time :    31.6 secs   av.it.:  11.2
      thresh= 6.522E-06 alpha_mix =  0.700 |ddv_scf|^2 =  2.250E-10

      iter #   4 total cpu time :    32.8 secs   av.it.:  11.0
      thresh= 1.500E-06 alpha_mix =  0.700 |ddv_scf|^2 =  8.639E-13

     End of self-consistent calculation

     Convergence has been achieved 

     Number of q in the star =    8
     List of q in the star:
          1  -0.250000000   0.250000000  -0.250000000
          2   0.250000000  -0.250000000  -0.250000000
          3   0.250000000  -0.250000000   0.250000000
          4   0.250000000   0.250000000   0.250000000
          5  -0.250000000  -0.250000000  -0.250000000
          6  -0.250000000  -0.250000000   0.250000000
          7  -0.250000000   0.250000000   0.250000000
          8   0.250000000   0.250000000  -0.250000000

     Diagonalizing the dynamical matrix

     q = (   -0.250000000   0.250000000  -0.250000000 ) 

 **************************************************************************
     freq (    1) =       2.780581 [THz] =      92.750186 [cm-1]
     freq (    2) =       2.780581 [THz] =      92.750186 [cm-1]
     freq (    3) =       6.751119 [THz] =     225.193103 [cm-1]
     freq (    4) =      14.259824 [THz] =     475.656536 [cm-1]
     freq (    5) =      14.537538 [THz] =     484.920056 [cm-1]
     freq (    6) =      14.537538 [THz] =     484.920056 [cm-1]
 **************************************************************************

     Mode symmetry, C_3v (3m)   point group:

     freq (  1 -  2) =         92.8  [cm-1]   --> E    L_3           
     freq (  3 -  3) =        225.2  [cm-1]   --> A_1  L_1           
     freq (  4 -  4) =        475.7  [cm-1]   --> A_1  L_1           
     freq (  5 -  6) =        484.9  [cm-1]   --> E    L_3           

     Calculation of q =    0.5000000  -0.5000000   0.5000000

   Info: using nr1, nr2, nr3 values from input

   Info: using nr1, nr2, nr3 values from input

     Parallelization info
     --------------------
     sticks:   dense  smooth     PW     G-vecs:    dense   smooth      PW
     Min         217     109     40                 4288     1520     351
     Max         219     111     41                 4289     1521     354
     Sum         871     439    163                17153     6081    1411



     bravais-lattice index     =            2
     lattice parameter (alat)  =      10.3240  a.u.
     unit-cell volume          =     275.0958 (a.u.)^3
     number of atoms/cell      =            2
     number of atomic types    =            1
     number of electrons       =         8.00
     number of Kohn-Sham states=            4
     kinetic-energy cutoff     =      30.0000  Ry
     charge density cutoff     =     240.0000  Ry
     Exchange-correlation      = SLA  PW   PBE  PBE ( 1  4  3  4 0 0)

     celldm(1)=  10.324000  celldm(2)=   0.000000  celldm(3)=   0.000000
     celldm(4)=   0.000000  celldm(5)=   0.000000  celldm(6)=   0.000000

     crystal axes: (cart. coord. in units of alat)
               a(1) = (  -0.500000   0.000000   0.500000 )  
               a(2) = (   0.000000   0.500000   0.500000 )  
               a(3) = (  -0.500000   0.500000   0.000000 )  

     reciprocal axes: (cart. coord. in units 2 pi/alat)
               b(1) = ( -1.000000 -1.000000  1.000000 )  
               b(2) = (  1.000000  1.000000  1.000000 )  
               b(3) = ( -1.000000  1.000000 -1.000000 )  


     PseudoPot. # 1 for Si read from file:
     /home/s1333534/quantum_espresso/qe-6.1/pseudo/si_pbe_v1.uspp.F.UPF.txt
     MD5 check sum: a056efeee980c13900f22a371efd63c1
     Pseudo is Ultrasoft + core correction, Zval =  4.0
     Generated by new atomic code, or converted to UPF format
     Using radial grid of  899 points,  6 beta functions with: 
                l(1) =   0
                l(2) =   0
                l(3) =   1
                l(4) =   1
                l(5) =   2
                l(6) =   2
     Q(r) pseudized with  8 coefficients,  rinner =    0.900   0.900   0.900
                                                       0.900   0.900

     atomic species   valence    mass     pseudopotential
        Si             4.00    28.08600     Si( 1.00)

     48 Sym. Ops., with inversion, found



   Cartesian axes

     site n.     atom                  positions (alat units)
         1           Si  tau(   1) = (   0.0000000   0.0000000   0.0000000  )
         2           Si  tau(   2) = (   0.2500000   0.2500000   0.2500000  )

     number of k points=    60
                       cart. coord. in units 2pi/alat
        k(    1) = (  -0.1250000   0.1250000   0.1250000), wk =   0.0468750
        k(    2) = (   0.3750000  -0.3750000   0.6250000), wk =   0.0000000
        k(    3) = (  -0.3750000   0.3750000  -0.1250000), wk =   0.0468750
        k(    4) = (   0.1250000  -0.1250000   0.3750000), wk =   0.0000000
        k(    5) = (   0.3750000  -0.3750000   0.6250000), wk =   0.0468750
        k(    6) = (   0.8750000  -0.8750000   1.1250000), wk =   0.0000000
        k(    7) = (   0.1250000  -0.1250000   0.3750000), wk =   0.0468750
        k(    8) = (   0.6250000  -0.6250000   0.8750000), wk =   0.0000000
        k(    9) = (  -0.1250000   0.6250000   0.1250000), wk =   0.0937500
        k(   10) = (   0.3750000   0.1250000   0.6250000), wk =   0.0000000
        k(   11) = (   0.6250000  -0.1250000   0.8750000), wk =   0.0937500
        k(   12) = (   1.1250000  -0.6250000   1.3750000), wk =   0.0000000
        k(   13) = (   0.3750000   0.1250000   0.6250000), wk =   0.0937500
        k(   14) = (   0.8750000  -0.3750000   1.1250000), wk =   0.0000000
        k(   15) = (  -0.1250000  -0.8750000   0.1250000), wk =   0.0937500
        k(   16) = (   0.3750000  -1.3750000   0.6250000), wk =   0.0000000
        k(   17) = (  -0.3750000   0.3750000   0.3750000), wk =   0.0468750
        k(   18) = (   0.1250000  -0.1250000   0.8750000), wk =   0.0000000
        k(   19) = (   0.3750000  -0.3750000   1.1250000), wk =   0.0468750
        k(   20) = (   0.8750000  -0.8750000   1.6250000), wk =   0.0000000
        k(   21) = (   0.1250000  -0.1250000   0.1250000), wk =   0.0156250
        k(   22) = (   0.6250000  -0.6250000   0.6250000), wk =   0.0000000
        k(   23) = (  -0.3750000  -0.3750000  -0.1250000), wk =   0.0937500
        k(   24) = (   0.1250000  -0.8750000   0.3750000), wk =   0.0000000
        k(   25) = (  -0.1250000  -0.3750000   0.3750000), wk =   0.0468750
        k(   26) = (   0.3750000  -0.8750000   0.8750000), wk =   0.0000000
        k(   27) = (   0.3750000   0.3750000   0.6250000), wk =   0.0937500
        k(   28) = (   0.8750000  -0.1250000   1.1250000), wk =   0.0000000
        k(   29) = (   0.6250000   0.3750000  -0.3750000), wk =   0.0468750
        k(   30) = (   1.1250000  -0.1250000   0.1250000), wk =   0.0000000
        k(   31) = (   0.1250000   0.1250000   0.3750000), wk =   0.0937500
        k(   32) = (   0.6250000  -0.3750000   0.8750000), wk =   0.0000000
        k(   33) = (   0.3750000   0.1250000  -0.1250000), wk =   0.0468750
        k(   34) = (   0.8750000  -0.3750000   0.3750000), wk =   0.0000000
        k(   35) = (  -0.1250000  -0.6250000  -0.1250000), wk =   0.0468750
        k(   36) = (   0.3750000  -1.1250000   0.3750000), wk =   0.0000000
        k(   37) = (   0.1250000  -0.6250000   0.1250000), wk =   0.0468750
        k(   38) = (   0.6250000  -1.1250000   0.6250000), wk =   0.0000000
        k(   39) = (   0.6250000   0.1250000   0.8750000), wk =   0.0937500
        k(   40) = (   1.1250000  -0.3750000   1.3750000), wk =   0.0000000
        k(   41) = (  -0.8750000   0.1250000   0.6250000), wk =   0.0937500
        k(   42) = (  -0.3750000  -0.3750000   1.1250000), wk =   0.0000000
        k(   43) = (   0.8750000   0.1250000  -0.6250000), wk =   0.0937500
        k(   44) = (   1.3750000  -0.3750000  -0.1250000), wk =   0.0000000
        k(   45) = (   0.3750000  -0.1250000   0.6250000), wk =   0.0937500
        k(   46) = (   0.8750000  -0.6250000   1.1250000), wk =   0.0000000
        k(   47) = (  -0.6250000  -0.1250000   0.3750000), wk =   0.0937500
        k(   48) = (  -0.1250000  -0.6250000   0.8750000), wk =   0.0000000
        k(   49) = (   0.6250000  -0.1250000  -0.3750000), wk =   0.0937500
        k(   50) = (   1.1250000  -0.6250000   0.1250000), wk =   0.0000000
        k(   51) = (  -0.1250000   0.8750000  -0.1250000), wk =   0.0468750
        k(   52) = (   0.3750000   0.3750000   0.3750000), wk =   0.0000000
        k(   53) = (   0.1250000   0.8750000   0.1250000), wk =   0.0468750
        k(   54) = (   0.6250000   0.3750000   0.6250000), wk =   0.0000000
        k(   55) = (   0.3750000  -0.3750000   0.3750000), wk =   0.0156250
        k(   56) = (   0.8750000  -0.8750000   0.8750000), wk =   0.0000000
        k(   57) = (   0.3750000   0.3750000   1.1250000), wk =   0.0937500
        k(   58) = (   0.8750000  -0.1250000   1.6250000), wk =   0.0000000
        k(   59) = (   1.1250000   0.3750000  -0.3750000), wk =   0.0468750
        k(   60) = (   1.6250000  -0.1250000   0.1250000), wk =   0.0000000

     Dense  grid:    17153 G-vectors     FFT dimensions: (  36,  36,  36)

     Smooth grid:     6081 G-vectors     FFT dimensions: (  25,  25,  25)

     Estimated max dynamical RAM per process >       1.51MB

     Estimated total allocated dynamical RAM >       6.06MB

     The potential is recalculated from file :
     ./_ph0/silicon.10.324.save/charge-density.dat

     Starting wfc are    8 atomic wfcs

     Band Structure Calculation
     Davidson diagonalization with overlap

     ethr =  1.25E-10,  avg # of iterations = 12.2

     total cpu time spent up to now is        2.4 secs

     End of band structure calculation

          k =-0.1250 0.1250 0.1250 (   764 PWs)   bands (ev):

    -5.6278   4.4148   5.7239   5.7239

          k = 0.3750-0.3750 0.6250 (   763 PWs)   bands (ev):

    -3.4564  -0.6643   3.7561   4.4701

          k =-0.3750 0.3750-0.1250 (   767 PWs)   bands (ev):

    -4.5991   1.4185   3.7342   5.2432

          k = 0.1250-0.1250 0.3750 (   768 PWs)   bands (ev):

    -5.0989   2.7977   4.7137   4.7791

          k = 0.3750-0.3750 0.6250 (   763 PWs)   bands (ev):

    -3.4564  -0.6643   3.7561   4.4701

          k = 0.8750-0.8750 1.1250 (   764 PWs)   bands (ev):

    -5.6278   4.4148   5.7239   5.7239

          k = 0.1250-0.1250 0.3750 (   768 PWs)   bands (ev):

    -5.0989   2.7977   4.7137   4.7791

          k = 0.6250-0.6250 0.8750 (   767 PWs)   bands (ev):

    -4.5991   1.4185   3.7342   5.2432

          k =-0.1250 0.6250 0.1250 (   766 PWs)   bands (ev):

    -4.0655   1.0867   3.3844   3.8381

          k = 0.3750 0.1250 0.6250 (   766 PWs)   bands (ev):

    -3.6489   0.2105   2.7417   4.1132

          k = 0.6250-0.1250 0.8750 (   755 PWs)   bands (ev):

    -2.4219  -0.8783   2.0263   3.1054

          k = 1.1250-0.6250 1.3750 (   767 PWs)   bands (ev):

    -4.5991   1.4185   3.7342   5.2432

          k = 0.3750 0.1250 0.6250 (   766 PWs)   bands (ev):

    -3.6489   0.2105   2.7417   4.1132

          k = 0.8750-0.3750 1.1250 (   766 PWs)   bands (ev):

    -4.0655   1.0867   3.3844   3.8381

          k =-0.1250-0.8750 0.1250 (   762 PWs)   bands (ev):

    -2.5905  -0.7804   2.6378   3.3704

          k = 0.3750-1.3750 0.6250 (   763 PWs)   bands (ev):

    -3.4564  -0.6643   3.7561   4.4701

          k =-0.3750 0.3750 0.3750 (   763 PWs)   bands (ev):

    -4.1650   0.1250   4.9357   4.9357

          k = 0.1250-0.1250 0.8750 (   762 PWs)   bands (ev):

    -2.5905  -0.7804   2.6378   3.3704

          k = 0.3750-0.3750 1.1250 (   763 PWs)   bands (ev):

    -2.9598  -0.5771   2.0856   4.1523

          k = 0.8750-0.8750 1.6250 (   766 PWs)   bands (ev):

    -4.0655   1.0867   3.3844   3.8381

          k = 0.1250-0.1250 0.1250 (   764 PWs)   bands (ev):

    -5.6278   4.4148   5.7239   5.7239

          k = 0.6250-0.6250 0.6250 (   763 PWs)   bands (ev):

    -4.1650   0.1250   4.9357   4.9357

          k =-0.3750-0.3750-0.1250 (   767 PWs)   bands (ev):

    -4.5991   1.4185   3.7342   5.2432

          k = 0.1250-0.8750 0.3750 (   755 PWs)   bands (ev):

    -2.4219  -0.8783   2.0263   3.1054

          k =-0.1250-0.3750 0.3750 (   767 PWs)   bands (ev):

    -4.5991   1.4185   3.7342   5.2432

          k = 0.3750-0.8750 0.8750 (   766 PWs)   bands (ev):

    -4.0655   1.0867   3.3844   3.8381

          k = 0.3750 0.3750 0.6250 (   763 PWs)   bands (ev):

    -3.4564  -0.6643   3.7561   4.4701

          k = 0.8750-0.1250 1.1250 (   762 PWs)   bands (ev):

    -2.5905  -0.7804   2.6378   3.3704

          k = 0.6250 0.3750-0.3750 (   763 PWs)   bands (ev):

    -3.4564  -0.6643   3.7561   4.4701

          k = 1.1250-0.1250 0.1250 (   762 PWs)   bands (ev):

    -2.5905  -0.7804   2.6378   3.3704

          k = 0.1250 0.1250 0.3750 (   768 PWs)   bands (ev):

    -5.0989   2.7977   4.7137   4.7791

          k = 0.6250-0.3750 0.8750 (   766 PWs)   bands (ev):

    -3.6489   0.2105   2.7417   4.1132

          k = 0.3750 0.1250-0.1250 (   768 PWs)   bands (ev):

    -5.0989   2.7977   4.7137   4.7791

          k = 0.8750-0.3750 0.3750 (   763 PWs)   bands (ev):

    -2.9598  -0.5771   2.0856   4.1523

          k =-0.1250-0.6250-0.1250 (   766 PWs)   bands (ev):

    -4.0655   1.0867   3.3844   3.8381

          k = 0.3750-1.1250 0.3750 (   763 PWs)   bands (ev):

    -2.9598  -0.5771   2.0856   4.1523

          k = 0.1250-0.6250 0.1250 (   766 PWs)   bands (ev):

    -4.0655   1.0867   3.3844   3.8381

          k = 0.6250-1.1250 0.6250 (   767 PWs)   bands (ev):

    -4.5991   1.4185   3.7342   5.2432

          k = 0.6250 0.1250 0.8750 (   755 PWs)   bands (ev):

    -2.4219  -0.8783   2.0263   3.1054

          k = 1.1250-0.3750 1.3750 (   766 PWs)   bands (ev):

    -3.6489   0.2105   2.7417   4.1132

          k =-0.8750 0.1250 0.6250 (   755 PWs)   bands (ev):

    -2.4219  -0.8783   2.0263   3.1054

          k =-0.3750-0.3750 1.1250 (   763 PWs)   bands (ev):

    -2.9598  -0.5771   2.0856   4.1523

          k = 0.8750 0.1250-0.6250 (   755 PWs)   bands (ev):

    -2.4219  -0.8783   2.0263   3.1054

          k = 1.3750-0.3750-0.1250 (   766 PWs)   bands (ev):

    -3.6489   0.2105   2.7417   4.1132

          k = 0.3750-0.1250 0.6250 (   766 PWs)   bands (ev):

    -3.6489   0.2105   2.7417   4.1132

          k = 0.8750-0.6250 1.1250 (   768 PWs)   bands (ev):

    -5.0989   2.7977   4.7137   4.7791

          k =-0.6250-0.1250 0.3750 (   766 PWs)   bands (ev):

    -3.6489   0.2105   2.7417   4.1132

          k =-0.1250-0.6250 0.8750 (   755 PWs)   bands (ev):

    -2.4219  -0.8783   2.0263   3.1054

          k = 0.6250-0.1250-0.3750 (   766 PWs)   bands (ev):

    -3.6489   0.2105   2.7417   4.1132

          k = 1.1250-0.6250 0.1250 (   755 PWs)   bands (ev):

    -2.4219  -0.8783   2.0263   3.1054

          k =-0.1250 0.8750-0.1250 (   762 PWs)   bands (ev):

    -2.5905  -0.7804   2.6378   3.3704

          k = 0.3750 0.3750 0.3750 (   763 PWs)   bands (ev):

    -4.1650   0.1250   4.9357   4.9357

          k = 0.1250 0.8750 0.1250 (   762 PWs)   bands (ev):

    -2.5905  -0.7804   2.6378   3.3704

          k = 0.6250 0.3750 0.6250 (   763 PWs)   bands (ev):

    -3.4564  -0.6643   3.7561   4.4701

          k = 0.3750-0.3750 0.3750 (   763 PWs)   bands (ev):

    -4.1650   0.1250   4.9357   4.9357

          k = 0.8750-0.8750 0.8750 (   764 PWs)   bands (ev):

    -5.6278   4.4148   5.7239   5.7239

          k = 0.3750 0.3750 1.1250 (   763 PWs)   bands (ev):

    -2.9598  -0.5771   2.0856   4.1523

          k = 0.8750-0.1250 1.6250 (   755 PWs)   bands (ev):

    -2.4219  -0.8783   2.0263   3.1054

          k = 1.1250 0.3750-0.3750 (   763 PWs)   bands (ev):

    -2.9598  -0.5771   2.0856   4.1523

          k = 1.6250-0.1250 0.1250 (   768 PWs)   bands (ev):

    -5.0989   2.7977   4.7137   4.7791

     highest occupied level (ev):     5.7239

     Writing output data file silicon.10.324.save

                                                                                

     bravais-lattice index     =            2
     lattice parameter (alat)  =      10.3240  a.u.
     unit-cell volume          =     275.0958 (a.u.)^3
     number of atoms/cell      =            2
     number of atomic types    =            1
     kinetic-energy cut-off    =      30.0000  Ry
     charge density cut-off    =     240.0000  Ry
     convergence threshold     =      1.0E-12
     beta                      =       0.7000
     number of iterations used =            4
     Exchange-correlation      = SLA  PW   PBE  PBE ( 1  4  3  4 0 0)


     celldm(1)=   10.32400  celldm(2)=    0.00000  celldm(3)=    0.00000
     celldm(4)=    0.00000  celldm(5)=    0.00000  celldm(6)=    0.00000

     crystal axes: (cart. coord. in units of alat)
               a(1) = ( -0.5000  0.0000  0.5000 )  
               a(2) = (  0.0000  0.5000  0.5000 )  
               a(3) = ( -0.5000  0.5000  0.0000 )  

     reciprocal axes: (cart. coord. in units 2 pi/alat)
               b(1) = ( -1.0000 -1.0000  1.0000 )  
               b(2) = (  1.0000  1.0000  1.0000 )  
               b(3) = ( -1.0000  1.0000 -1.0000 )  


     Atoms inside the unit cell: 

     Cartesian axes

     site n.  atom      mass           positions (alat units)
        1     Si  28.0860   tau(    1) = (    0.00000    0.00000    0.00000  )
        2     Si  28.0860   tau(    2) = (    0.25000    0.25000    0.25000  )

     Computing dynamical matrix for 
                    q = (   0.5000000  -0.5000000   0.5000000 )

     13 Sym.Ops. (with q -> -q+G )


     G cutoff =  647.9590  (   4288 G-vectors)     FFT grid: ( 36, 36, 36)
     G cutoff =  323.9795  (   1520 G-vectors)  smooth grid: ( 25, 25, 25)
     number of k points=    60

     PseudoPot. # 1 for Si read from file:
     /home/s1333534/quantum_espresso/qe-6.1/pseudo/si_pbe_v1.uspp.F.UPF.txt
     MD5 check sum: a056efeee980c13900f22a371efd63c1
     Pseudo is Ultrasoft + core correction, Zval =  4.0
     Generated by new atomic code, or converted to UPF format
     Using radial grid of  899 points,  6 beta functions with: 
                l(1) =   0
                l(2) =   0
                l(3) =   1
                l(4) =   1
                l(5) =   2
                l(6) =   2
     Q(r) pseudized with  8 coefficients,  rinner =    0.900   0.900   0.900
                                                       0.900   0.900


     Atomic displacements:
     There are   4 irreducible representations

     Representation     1      1 modes -  To be done

     Representation     2      1 modes -  To be done

     Representation     3      2 modes -  To be done

     Representation     4      2 modes -  To be done



     Alpha used in Ewald sum =   2.5000
     PHONON       :    27.43s CPU        35.07s WALL



     Representation #  1 mode #   1

     Self-consistent Calculation

      iter #   1 total cpu time :    35.3 secs   av.it.:   5.0
      thresh= 1.000E-02 alpha_mix =  0.700 |ddv_scf|^2 =  4.192E-06

      iter #   2 total cpu time :    35.8 secs   av.it.:   9.8
      thresh= 2.047E-04 alpha_mix =  0.700 |ddv_scf|^2 =  3.839E-06

      iter #   3 total cpu time :    36.2 secs   av.it.:   9.2
      thresh= 1.959E-04 alpha_mix =  0.700 |ddv_scf|^2 =  2.305E-09

      iter #   4 total cpu time :    36.6 secs   av.it.:   9.4
      thresh= 4.801E-06 alpha_mix =  0.700 |ddv_scf|^2 =  2.214E-11

      iter #   5 total cpu time :    36.9 secs   av.it.:   9.3
      thresh= 4.706E-07 alpha_mix =  0.700 |ddv_scf|^2 =  3.106E-13

     End of self-consistent calculation

     Convergence has been achieved 


     Representation #  2 mode #   2

     Self-consistent Calculation

      iter #   1 total cpu time :    37.4 secs   av.it.:   6.0
      thresh= 1.000E-02 alpha_mix =  0.700 |ddv_scf|^2 =  5.962E-05

      iter #   2 total cpu time :    37.8 secs   av.it.:   9.8
      thresh= 7.721E-04 alpha_mix =  0.700 |ddv_scf|^2 =  1.854E-04

      iter #   3 total cpu time :    38.2 secs   av.it.:   8.6
      thresh= 1.362E-03 alpha_mix =  0.700 |ddv_scf|^2 =  1.327E-08

      iter #   4 total cpu time :    38.6 secs   av.it.:   9.8
      thresh= 1.152E-05 alpha_mix =  0.700 |ddv_scf|^2 =  6.752E-10

      iter #   5 total cpu time :    39.0 secs   av.it.:  10.2
      thresh= 2.598E-06 alpha_mix =  0.700 |ddv_scf|^2 =  2.049E-11

      iter #   6 total cpu time :    39.4 secs   av.it.:   9.7
      thresh= 4.526E-07 alpha_mix =  0.700 |ddv_scf|^2 =  1.536E-13

     End of self-consistent calculation

     Convergence has been achieved 


     Representation #  3 modes #   3  4

     Self-consistent Calculation

      iter #   1 total cpu time :    40.0 secs   av.it.:   5.1
      thresh= 1.000E-02 alpha_mix =  0.700 |ddv_scf|^2 =  2.694E-08

      iter #   2 total cpu time :    40.7 secs   av.it.:  10.9
      thresh= 1.641E-05 alpha_mix =  0.700 |ddv_scf|^2 =  1.589E-09

      iter #   3 total cpu time :    41.5 secs   av.it.:  10.7
      thresh= 3.986E-06 alpha_mix =  0.700 |ddv_scf|^2 =  5.306E-11

      iter #   4 total cpu time :    42.2 secs   av.it.:  10.7
      thresh= 7.284E-07 alpha_mix =  0.700 |ddv_scf|^2 =  4.347E-13

     End of self-consistent calculation

     Convergence has been achieved 


     Representation #  4 modes #   5  6

     Self-consistent Calculation

      iter #   1 total cpu time :    42.8 secs   av.it.:   5.1
      thresh= 1.000E-02 alpha_mix =  0.700 |ddv_scf|^2 =  1.379E-07

      iter #   2 total cpu time :    43.6 secs   av.it.:  11.1
      thresh= 3.713E-05 alpha_mix =  0.700 |ddv_scf|^2 =  1.106E-08

      iter #   3 total cpu time :    44.3 secs   av.it.:  10.9
      thresh= 1.052E-05 alpha_mix =  0.700 |ddv_scf|^2 =  2.910E-10

      iter #   4 total cpu time :    45.0 secs   av.it.:   9.8
      thresh= 1.706E-06 alpha_mix =  0.700 |ddv_scf|^2 =  5.268E-13

     End of self-consistent calculation

     Convergence has been achieved 

     Number of q in the star =    4
     List of q in the star:
          1   0.500000000  -0.500000000   0.500000000
          2   0.500000000   0.500000000   0.500000000
          3  -0.500000000   0.500000000   0.500000000
          4   0.500000000   0.500000000  -0.500000000

     Diagonalizing the dynamical matrix

     q = (    0.500000000  -0.500000000   0.500000000 ) 

 **************************************************************************
     freq (    1) =       3.288320 [THz] =     109.686537 [cm-1]
     freq (    2) =       3.288320 [THz] =     109.686537 [cm-1]
     freq (    3) =      11.108402 [THz] =     370.536416 [cm-1]
     freq (    4) =      12.020124 [THz] =     400.948178 [cm-1]
     freq (    5) =      14.330173 [THz] =     478.003109 [cm-1]
     freq (    6) =      14.330173 [THz] =     478.003109 [cm-1]
 **************************************************************************

     Calculation of q =    0.0000000   0.5000000   0.0000000

   Info: using nr1, nr2, nr3 values from input

   Info: using nr1, nr2, nr3 values from input

     Parallelization info
     --------------------
     sticks:   dense  smooth     PW     G-vecs:    dense   smooth      PW
     Min         217     109     37                 4288     1520     309
     Max         218     111     38                 4289     1521     312
     Sum         871     439    151                17153     6081    1243



     bravais-lattice index     =            2
     lattice parameter (alat)  =      10.3240  a.u.
     unit-cell volume          =     275.0958 (a.u.)^3
     number of atoms/cell      =            2
     number of atomic types    =            1
     number of electrons       =         8.00
     number of Kohn-Sham states=            4
     kinetic-energy cutoff     =      30.0000  Ry
     charge density cutoff     =     240.0000  Ry
     Exchange-correlation      = SLA  PW   PBE  PBE ( 1  4  3  4 0 0)

     celldm(1)=  10.324000  celldm(2)=   0.000000  celldm(3)=   0.000000
     celldm(4)=   0.000000  celldm(5)=   0.000000  celldm(6)=   0.000000

     crystal axes: (cart. coord. in units of alat)
               a(1) = (  -0.500000   0.000000   0.500000 )  
               a(2) = (   0.000000   0.500000   0.500000 )  
               a(3) = (  -0.500000   0.500000   0.000000 )  

     reciprocal axes: (cart. coord. in units 2 pi/alat)
               b(1) = ( -1.000000 -1.000000  1.000000 )  
               b(2) = (  1.000000  1.000000  1.000000 )  
               b(3) = ( -1.000000  1.000000 -1.000000 )  


     PseudoPot. # 1 for Si read from file:
     /home/s1333534/quantum_espresso/qe-6.1/pseudo/si_pbe_v1.uspp.F.UPF.txt
     MD5 check sum: a056efeee980c13900f22a371efd63c1
     Pseudo is Ultrasoft + core correction, Zval =  4.0
     Generated by new atomic code, or converted to UPF format
     Using radial grid of  899 points,  6 beta functions with: 
                l(1) =   0
                l(2) =   0
                l(3) =   1
                l(4) =   1
                l(5) =   2
                l(6) =   2
     Q(r) pseudized with  8 coefficients,  rinner =    0.900   0.900   0.900
                                                       0.900   0.900

     atomic species   valence    mass     pseudopotential
        Si             4.00    28.08600     Si( 1.00)

     48 Sym. Ops., with inversion, found



   Cartesian axes

     site n.     atom                  positions (alat units)
         1           Si  tau(   1) = (   0.0000000   0.0000000   0.0000000  )
         2           Si  tau(   2) = (   0.2500000   0.2500000   0.2500000  )

     number of k points=    80
                       cart. coord. in units 2pi/alat
        k(    1) = (  -0.1250000   0.1250000   0.1250000), wk =   0.0312500
        k(    2) = (  -0.1250000   0.6250000   0.1250000), wk =   0.0000000
        k(    3) = (  -0.3750000   0.3750000  -0.1250000), wk =   0.0625000
        k(    4) = (  -0.3750000   0.8750000  -0.1250000), wk =   0.0000000
        k(    5) = (   0.3750000  -0.3750000   0.6250000), wk =   0.0625000
        k(    6) = (   0.3750000   0.1250000   0.6250000), wk =   0.0000000
        k(    7) = (   0.1250000  -0.1250000   0.3750000), wk =   0.0625000
        k(    8) = (   0.1250000   0.3750000   0.3750000), wk =   0.0000000
        k(    9) = (  -0.1250000   0.6250000   0.1250000), wk =   0.0312500
        k(   10) = (  -0.1250000   1.1250000   0.1250000), wk =   0.0000000
        k(   11) = (   0.6250000  -0.1250000   0.8750000), wk =   0.0625000
        k(   12) = (   0.6250000   0.3750000   0.8750000), wk =   0.0000000
        k(   13) = (   0.3750000   0.1250000   0.6250000), wk =   0.0625000
        k(   14) = (   0.3750000   0.6250000   0.6250000), wk =   0.0000000
        k(   15) = (  -0.1250000  -0.8750000   0.1250000), wk =   0.0312500
        k(   16) = (  -0.1250000  -0.3750000   0.1250000), wk =   0.0000000
        k(   17) = (  -0.3750000   0.3750000   0.3750000), wk =   0.0312500
        k(   18) = (  -0.3750000   0.8750000   0.3750000), wk =   0.0000000
        k(   19) = (   0.3750000  -0.3750000   1.1250000), wk =   0.0625000
        k(   20) = (   0.3750000   0.1250000   1.1250000), wk =   0.0000000
        k(   21) = (  -0.1250000  -0.1250000   0.1250000), wk =   0.0312500
        k(   22) = (  -0.1250000   0.3750000   0.1250000), wk =   0.0000000
        k(   23) = (   0.1250000  -0.3750000   0.3750000), wk =   0.0625000
        k(   24) = (   0.1250000   0.1250000   0.3750000), wk =   0.0000000
        k(   25) = (   0.3750000  -0.1250000   0.3750000), wk =   0.0312500
        k(   26) = (   0.3750000   0.3750000   0.3750000), wk =   0.0000000
        k(   27) = (   0.3750000   0.1250000   0.3750000), wk =   0.0312500
        k(   28) = (   0.3750000   0.6250000   0.3750000), wk =   0.0000000
        k(   29) = (  -0.6250000   0.3750000  -0.3750000), wk =   0.0625000
        k(   30) = (  -0.6250000   0.8750000  -0.3750000), wk =   0.0000000
        k(   31) = (  -0.3750000   0.6250000  -0.3750000), wk =   0.0312500
        k(   32) = (  -0.3750000   1.1250000  -0.3750000), wk =   0.0000000
        k(   33) = (  -0.3750000  -0.6250000  -0.3750000), wk =   0.0312500
        k(   34) = (  -0.3750000  -0.1250000  -0.3750000), wk =   0.0000000
        k(   35) = (  -0.3750000   0.1250000  -0.1250000), wk =   0.0625000
        k(   36) = (  -0.3750000   0.6250000  -0.1250000), wk =   0.0000000
        k(   37) = (  -0.1250000   0.3750000  -0.1250000), wk =   0.0312500
        k(   38) = (  -0.1250000   0.8750000  -0.1250000), wk =   0.0000000
        k(   39) = (  -0.1250000  -0.3750000  -0.1250000), wk =   0.0312500
        k(   40) = (  -0.1250000   0.1250000  -0.1250000), wk =   0.0000000
        k(   41) = (  -0.1250000  -0.6250000   0.1250000), wk =   0.0312500
        k(   42) = (  -0.1250000  -0.1250000   0.1250000), wk =   0.0000000
        k(   43) = (   0.6250000  -0.1250000  -0.1250000), wk =   0.0625000
        k(   44) = (   0.6250000   0.3750000  -0.1250000), wk =   0.0000000
        k(   45) = (   0.6250000   0.1250000   0.1250000), wk =   0.0625000
        k(   46) = (   0.6250000   0.6250000   0.1250000), wk =   0.0000000
        k(   47) = (  -0.8750000   0.1250000  -0.6250000), wk =   0.0625000
        k(   48) = (  -0.8750000   0.6250000  -0.6250000), wk =   0.0000000
        k(   49) = (  -0.1250000   0.6250000  -0.8750000), wk =   0.0625000
        k(   50) = (  -0.1250000   1.1250000  -0.8750000), wk =   0.0000000
        k(   51) = (  -0.1250000   0.8750000  -0.6250000), wk =   0.0625000
        k(   52) = (  -0.1250000   1.3750000  -0.6250000), wk =   0.0000000
        k(   53) = (  -0.1250000  -0.8750000  -0.6250000), wk =   0.0625000
        k(   54) = (  -0.1250000  -0.3750000  -0.6250000), wk =   0.0000000
        k(   55) = (   0.8750000  -0.6250000   0.1250000), wk =   0.0625000
        k(   56) = (   0.8750000  -0.1250000   0.1250000), wk =   0.0000000
        k(   57) = (  -0.6250000  -0.1250000  -0.3750000), wk =   0.0625000
        k(   58) = (  -0.6250000   0.3750000  -0.3750000), wk =   0.0000000
        k(   59) = (   0.1250000   0.3750000  -0.6250000), wk =   0.0625000
        k(   60) = (   0.1250000   0.8750000  -0.6250000), wk =   0.0000000
        k(   61) = (   0.1250000   0.6250000  -0.3750000), wk =   0.0625000
        k(   62) = (   0.1250000   1.1250000  -0.3750000), wk =   0.0000000
        k(   63) = (   0.1250000  -0.6250000  -0.3750000), wk =   0.0625000
        k(   64) = (   0.1250000  -0.1250000  -0.3750000), wk =   0.0000000
        k(   65) = (   0.6250000  -0.3750000  -0.1250000), wk =   0.0625000
        k(   66) = (   0.6250000   0.1250000  -0.1250000), wk =   0.0000000
        k(   67) = (  -0.1250000   0.8750000   0.1250000), wk =   0.0312500
        k(   68) = (  -0.1250000   1.3750000   0.1250000), wk =   0.0000000
        k(   69) = (  -0.8750000  -0.1250000  -0.1250000), wk =   0.0625000
        k(   70) = (  -0.8750000   0.3750000  -0.1250000), wk =   0.0000000
        k(   71) = (  -0.8750000   0.1250000   0.1250000), wk =   0.0625000
        k(   72) = (  -0.8750000   0.6250000   0.1250000), wk =   0.0000000
        k(   73) = (  -0.3750000  -0.3750000   0.3750000), wk =   0.0312500
        k(   74) = (  -0.3750000   0.1250000   0.3750000), wk =   0.0000000
        k(   75) = (  -1.1250000   0.3750000  -0.3750000), wk =   0.0625000
        k(   76) = (  -1.1250000   0.8750000  -0.3750000), wk =   0.0000000
        k(   77) = (  -0.3750000   1.1250000  -0.3750000), wk =   0.0312500
        k(   78) = (  -0.3750000   1.6250000  -0.3750000), wk =   0.0000000
        k(   79) = (  -0.3750000  -1.1250000  -0.3750000), wk =   0.0312500
        k(   80) = (  -0.3750000  -0.6250000  -0.3750000), wk =   0.0000000

     Dense  grid:    17153 G-vectors     FFT dimensions: (  36,  36,  36)

     Smooth grid:     6081 G-vectors     FFT dimensions: (  25,  25,  25)

     Estimated max dynamical RAM per process >       1.51MB

     Estimated total allocated dynamical RAM >       6.06MB

     The potential is recalculated from file :
     ./_ph0/silicon.10.324.save/charge-density.dat

     Starting wfc are    8 atomic wfcs

     Band Structure Calculation
     Davidson diagonalization with overlap

     ethr =  1.25E-10,  avg # of iterations = 12.2

     total cpu time spent up to now is        3.5 secs

     End of band structure calculation

          k =-0.1250 0.1250 0.1250 (   764 PWs)   bands (ev):

    -5.6278   4.4148   5.7239   5.7239

          k =-0.1250 0.6250 0.1250 (   766 PWs)   bands (ev):

    -4.0655   1.0867   3.3844   3.8381

          k =-0.3750 0.3750-0.1250 (   767 PWs)   bands (ev):

    -4.5991   1.4185   3.7342   5.2432

          k =-0.3750 0.8750-0.1250 (   755 PWs)   bands (ev):

    -2.4219  -0.8783   2.0263   3.1054

          k = 0.3750-0.3750 0.6250 (   763 PWs)   bands (ev):

    -3.4564  -0.6643   3.7561   4.4701

          k = 0.3750 0.1250 0.6250 (   766 PWs)   bands (ev):

    -3.6489   0.2105   2.7417   4.1132

          k = 0.1250-0.1250 0.3750 (   768 PWs)   bands (ev):

    -5.0989   2.7977   4.7137   4.7791

          k = 0.1250 0.3750 0.3750 (   767 PWs)   bands (ev):

    -4.5991   1.4185   3.7342   5.2432

          k =-0.1250 0.6250 0.1250 (   766 PWs)   bands (ev):

    -4.0655   1.0867   3.3844   3.8381

          k =-0.1250 1.1250 0.1250 (   762 PWs)   bands (ev):

    -2.5905  -0.7804   2.6378   3.3704

          k = 0.6250-0.1250 0.8750 (   755 PWs)   bands (ev):

    -2.4219  -0.8783   2.0263   3.1054

          k = 0.6250 0.3750 0.8750 (   766 PWs)   bands (ev):

    -3.6489   0.2105   2.7417   4.1132

          k = 0.3750 0.1250 0.6250 (   766 PWs)   bands (ev):

    -3.6489   0.2105   2.7417   4.1132

          k = 0.3750 0.6250 0.6250 (   763 PWs)   bands (ev):

    -3.4564  -0.6643   3.7561   4.4701

          k =-0.1250-0.8750 0.1250 (   762 PWs)   bands (ev):

    -2.5905  -0.7804   2.6378   3.3704

          k =-0.1250-0.3750 0.1250 (   768 PWs)   bands (ev):

    -5.0989   2.7977   4.7137   4.7791

          k =-0.3750 0.3750 0.3750 (   763 PWs)   bands (ev):

    -4.1650   0.1250   4.9357   4.9357

          k =-0.3750 0.8750 0.3750 (   763 PWs)   bands (ev):

    -2.9598  -0.5771   2.0856   4.1523

          k = 0.3750-0.3750 1.1250 (   763 PWs)   bands (ev):

    -2.9598  -0.5771   2.0856   4.1523

          k = 0.3750 0.1250 1.1250 (   755 PWs)   bands (ev):

    -2.4219  -0.8783   2.0263   3.1054

          k =-0.1250-0.1250 0.1250 (   764 PWs)   bands (ev):

    -5.6278   4.4148   5.7239   5.7239

          k =-0.1250 0.3750 0.1250 (   768 PWs)   bands (ev):

    -5.0989   2.7977   4.7137   4.7791

          k = 0.1250-0.3750 0.3750 (   767 PWs)   bands (ev):

    -4.5991   1.4185   3.7342   5.2432

          k = 0.1250 0.1250 0.3750 (   768 PWs)   bands (ev):

    -5.0989   2.7977   4.7137   4.7791

          k = 0.3750-0.1250 0.3750 (   767 PWs)   bands (ev):

    -4.5991   1.4185   3.7342   5.2432

          k = 0.3750 0.3750 0.3750 (   763 PWs)   bands (ev):

    -4.1650   0.1250   4.9357   4.9357

          k = 0.3750 0.1250 0.3750 (   767 PWs)   bands (ev):

    -4.5991   1.4185   3.7342   5.2432

          k = 0.3750 0.6250 0.3750 (   763 PWs)   bands (ev):

    -3.4564  -0.6643   3.7561   4.4701

          k =-0.6250 0.3750-0.3750 (   763 PWs)   bands (ev):

    -3.4564  -0.6643   3.7561   4.4701

          k =-0.6250 0.8750-0.3750 (   766 PWs)   bands (ev):

    -3.6489   0.2105   2.7417   4.1132

          k =-0.3750 0.6250-0.3750 (   763 PWs)   bands (ev):

    -3.4564  -0.6643   3.7561   4.4701

          k =-0.3750 1.1250-0.3750 (   763 PWs)   bands (ev):

    -2.9598  -0.5771   2.0856   4.1523

          k =-0.3750-0.6250-0.3750 (   763 PWs)   bands (ev):

    -3.4564  -0.6643   3.7561   4.4701

          k =-0.3750-0.1250-0.3750 (   767 PWs)   bands (ev):

    -4.5991   1.4185   3.7342   5.2432

          k =-0.3750 0.1250-0.1250 (   768 PWs)   bands (ev):

    -5.0989   2.7977   4.7137   4.7791

          k =-0.3750 0.6250-0.1250 (   766 PWs)   bands (ev):

    -3.6489   0.2105   2.7417   4.1132

          k =-0.1250 0.3750-0.1250 (   768 PWs)   bands (ev):

    -5.0989   2.7977   4.7137   4.7791

          k =-0.1250 0.8750-0.1250 (   762 PWs)   bands (ev):

    -2.5905  -0.7804   2.6378   3.3704

          k =-0.1250-0.3750-0.1250 (   768 PWs)   bands (ev):

    -5.0989   2.7977   4.7137   4.7791

          k =-0.1250 0.1250-0.1250 (   764 PWs)   bands (ev):

    -5.6278   4.4148   5.7239   5.7239

          k =-0.1250-0.6250 0.1250 (   766 PWs)   bands (ev):

    -4.0655   1.0867   3.3844   3.8381

          k =-0.1250-0.1250 0.1250 (   764 PWs)   bands (ev):

    -5.6278   4.4148   5.7239   5.7239

          k = 0.6250-0.1250-0.1250 (   766 PWs)   bands (ev):

    -4.0655   1.0867   3.3844   3.8381

          k = 0.6250 0.3750-0.1250 (   766 PWs)   bands (ev):

    -3.6489   0.2105   2.7417   4.1132

          k = 0.6250 0.1250 0.1250 (   766 PWs)   bands (ev):

    -4.0655   1.0867   3.3844   3.8381

          k = 0.6250 0.6250 0.1250 (   763 PWs)   bands (ev):

    -2.9598  -0.5771   2.0856   4.1523

          k =-0.8750 0.1250-0.6250 (   755 PWs)   bands (ev):

    -2.4219  -0.8783   2.0263   3.1054

          k =-0.8750 0.6250-0.6250 (   767 PWs)   bands (ev):

    -4.5991   1.4185   3.7342   5.2432

          k =-0.1250 0.6250-0.8750 (   755 PWs)   bands (ev):

    -2.4219  -0.8783   2.0263   3.1054

          k =-0.1250 1.1250-0.8750 (   762 PWs)   bands (ev):

    -2.5905  -0.7804   2.6378   3.3704

          k =-0.1250 0.8750-0.6250 (   755 PWs)   bands (ev):

    -2.4219  -0.8783   2.0263   3.1054

          k =-0.1250 1.3750-0.6250 (   763 PWs)   bands (ev):

    -2.9598  -0.5771   2.0856   4.1523

          k =-0.1250-0.8750-0.6250 (   755 PWs)   bands (ev):

    -2.4219  -0.8783   2.0263   3.1054

          k =-0.1250-0.3750-0.6250 (   766 PWs)   bands (ev):

    -3.6489   0.2105   2.7417   4.1132

          k = 0.8750-0.6250 0.1250 (   755 PWs)   bands (ev):

    -2.4219  -0.8783   2.0263   3.1054

          k = 0.8750-0.1250 0.1250 (   762 PWs)   bands (ev):

    -2.5905  -0.7804   2.6378   3.3704

          k =-0.6250-0.1250-0.3750 (   766 PWs)   bands (ev):

    -3.6489   0.2105   2.7417   4.1132

          k =-0.6250 0.3750-0.3750 (   763 PWs)   bands (ev):

    -3.4564  -0.6643   3.7561   4.4701

          k = 0.1250 0.3750-0.6250 (   766 PWs)   bands (ev):

    -3.6489   0.2105   2.7417   4.1132

          k = 0.1250 0.8750-0.6250 (   755 PWs)   bands (ev):

    -2.4219  -0.8783   2.0263   3.1054

          k = 0.1250 0.6250-0.3750 (   766 PWs)   bands (ev):

    -3.6489   0.2105   2.7417   4.1132

          k = 0.1250 1.1250-0.3750 (   755 PWs)   bands (ev):

    -2.4219  -0.8783   2.0263   3.1054

          k = 0.1250-0.6250-0.3750 (   766 PWs)   bands (ev):

    -3.6489   0.2105   2.7417   4.1132

          k = 0.1250-0.1250-0.3750 (   768 PWs)   bands (ev):

    -5.0989   2.7977   4.7137   4.7791

          k = 0.6250-0.3750-0.1250 (   766 PWs)   bands (ev):

    -3.6489   0.2105   2.7417   4.1132

          k = 0.6250 0.1250-0.1250 (   766 PWs)   bands (ev):

    -4.0655   1.0867   3.3844   3.8381

          k =-0.1250 0.8750 0.1250 (   762 PWs)   bands (ev):

    -2.5905  -0.7804   2.6378   3.3704

          k =-0.1250 1.3750 0.1250 (   766 PWs)   bands (ev):

    -4.0655   1.0867   3.3844   3.8381

          k =-0.8750-0.1250-0.1250 (   762 PWs)   bands (ev):

    -2.5905  -0.7804   2.6378   3.3704

          k =-0.8750 0.3750-0.1250 (   755 PWs)   bands (ev):

    -2.4219  -0.8783   2.0263   3.1054

          k =-0.8750 0.1250 0.1250 (   762 PWs)   bands (ev):

    -2.5905  -0.7804   2.6378   3.3704

          k =-0.8750 0.6250 0.1250 (   755 PWs)   bands (ev):

    -2.4219  -0.8783   2.0263   3.1054

          k =-0.3750-0.3750 0.3750 (   763 PWs)   bands (ev):

    -4.1650   0.1250   4.9357   4.9357

          k =-0.3750 0.1250 0.3750 (   767 PWs)   bands (ev):

    -4.5991   1.4185   3.7342   5.2432

          k =-1.1250 0.3750-0.3750 (   763 PWs)   bands (ev):

    -2.9598  -0.5771   2.0856   4.1523

          k =-1.1250 0.8750-0.3750 (   766 PWs)   bands (ev):

    -4.0655   1.0867   3.3844   3.8381

          k =-0.3750 1.1250-0.3750 (   763 PWs)   bands (ev):

    -2.9598  -0.5771   2.0856   4.1523

          k =-0.3750 1.6250-0.3750 (   763 PWs)   bands (ev):

    -4.1650   0.1250   4.9357   4.9357

          k =-0.3750-1.1250-0.3750 (   763 PWs)   bands (ev):

    -2.9598  -0.5771   2.0856   4.1523

          k =-0.3750-0.6250-0.3750 (   763 PWs)   bands (ev):

    -3.4564  -0.6643   3.7561   4.4701

     highest occupied level (ev):     5.7239

     Writing output data file silicon.10.324.save

                                                                                

     bravais-lattice index     =            2
     lattice parameter (alat)  =      10.3240  a.u.
     unit-cell volume          =     275.0958 (a.u.)^3
     number of atoms/cell      =            2
     number of atomic types    =            1
     kinetic-energy cut-off    =      30.0000  Ry
     charge density cut-off    =     240.0000  Ry
     convergence threshold     =      1.0E-12
     beta                      =       0.7000
     number of iterations used =            4
     Exchange-correlation      = SLA  PW   PBE  PBE ( 1  4  3  4 0 0)


     celldm(1)=   10.32400  celldm(2)=    0.00000  celldm(3)=    0.00000
     celldm(4)=    0.00000  celldm(5)=    0.00000  celldm(6)=    0.00000

     crystal axes: (cart. coord. in units of alat)
               a(1) = ( -0.5000  0.0000  0.5000 )  
               a(2) = (  0.0000  0.5000  0.5000 )  
               a(3) = ( -0.5000  0.5000  0.0000 )  

     reciprocal axes: (cart. coord. in units 2 pi/alat)
               b(1) = ( -1.0000 -1.0000  1.0000 )  
               b(2) = (  1.0000  1.0000  1.0000 )  
               b(3) = ( -1.0000  1.0000 -1.0000 )  


     Atoms inside the unit cell: 

     Cartesian axes

     site n.  atom      mass           positions (alat units)
        1     Si  28.0860   tau(    1) = (    0.00000    0.00000    0.00000  )
        2     Si  28.0860   tau(    2) = (    0.25000    0.25000    0.25000  )

     Computing dynamical matrix for 
                    q = (   0.0000000   0.5000000   0.0000000 )

      8 Sym.Ops. (no q -> -q+G )


     G cutoff =  647.9590  (   4288 G-vectors)     FFT grid: ( 36, 36, 36)
     G cutoff =  323.9795  (   1520 G-vectors)  smooth grid: ( 25, 25, 25)
     number of k points=    80

     PseudoPot. # 1 for Si read from file:
     /home/s1333534/quantum_espresso/qe-6.1/pseudo/si_pbe_v1.uspp.F.UPF.txt
     MD5 check sum: a056efeee980c13900f22a371efd63c1
     Pseudo is Ultrasoft + core correction, Zval =  4.0
     Generated by new atomic code, or converted to UPF format
     Using radial grid of  899 points,  6 beta functions with: 
                l(1) =   0
                l(2) =   0
                l(3) =   1
                l(4) =   1
                l(5) =   2
                l(6) =   2
     Q(r) pseudized with  8 coefficients,  rinner =    0.900   0.900   0.900
                                                       0.900   0.900

     Mode symmetry, C_4v (4mm)  point group:


     Atomic displacements:
     There are   4 irreducible representations

     Representation     1      1 modes -A_1  G_1 D_1  To be done

     Representation     2      1 modes -B_2  G_4 D_2'  To be done

     Representation     3      2 modes -E    G_5 D_5  To be done

     Representation     4      2 modes -E    G_5 D_5  To be done



     Alpha used in Ewald sum =   2.5000
     PHONON       :    37.13s CPU        47.35s WALL



     Representation #  1 mode #   1

     Self-consistent Calculation

      iter #   1 total cpu time :    47.7 secs   av.it.:   6.2
      thresh= 1.000E-02 alpha_mix =  0.700 |ddv_scf|^2 =  5.140E-04

      iter #   2 total cpu time :    48.2 secs   av.it.:   9.2
      thresh= 2.267E-03 alpha_mix =  0.700 |ddv_scf|^2 =  6.814E-03

      iter #   3 total cpu time :    48.5 secs   av.it.:   7.3
      thresh= 8.255E-03 alpha_mix =  0.700 |ddv_scf|^2 =  1.020E-08

      iter #   4 total cpu time :    49.0 secs   av.it.:  10.2
      thresh= 1.010E-05 alpha_mix =  0.700 |ddv_scf|^2 =  1.031E-09

      iter #   5 total cpu time :    49.5 secs   av.it.:   9.6
      thresh= 3.211E-06 alpha_mix =  0.700 |ddv_scf|^2 =  1.145E-10

      iter #   6 total cpu time :    49.9 secs   av.it.:   9.3
      thresh= 1.070E-06 alpha_mix =  0.700 |ddv_scf|^2 =  2.943E-13

     End of self-consistent calculation

     Convergence has been achieved 


     Representation #  2 mode #   2

     Self-consistent Calculation

      iter #   1 total cpu time :    50.3 secs   av.it.:   5.1
      thresh= 1.000E-02 alpha_mix =  0.700 |ddv_scf|^2 =  8.115E-07

      iter #   2 total cpu time :    50.8 secs   av.it.:  10.4
      thresh= 9.008E-05 alpha_mix =  0.700 |ddv_scf|^2 =  2.216E-07

      iter #   3 total cpu time :    51.3 secs   av.it.:   9.9
      thresh= 4.708E-05 alpha_mix =  0.700 |ddv_scf|^2 =  2.256E-09

      iter #   4 total cpu time :    51.7 secs   av.it.:  10.1
      thresh= 4.750E-06 alpha_mix =  0.700 |ddv_scf|^2 =  8.819E-11

      iter #   5 total cpu time :    52.2 secs   av.it.:  10.3
      thresh= 9.391E-07 alpha_mix =  0.700 |ddv_scf|^2 =  5.237E-13

     End of self-consistent calculation

     Convergence has been achieved 


     Representation #  3 modes #   3  4

     Self-consistent Calculation

      iter #   1 total cpu time :    52.9 secs   av.it.:   5.2
      thresh= 1.000E-02 alpha_mix =  0.700 |ddv_scf|^2 =  1.438E-07

      iter #   2 total cpu time :    53.8 secs   av.it.:  11.5
      thresh= 3.793E-05 alpha_mix =  0.700 |ddv_scf|^2 =  1.983E-08

      iter #   3 total cpu time :    54.7 secs   av.it.:  11.1
      thresh= 1.408E-05 alpha_mix =  0.700 |ddv_scf|^2 =  3.339E-10

      iter #   4 total cpu time :    55.6 secs   av.it.:  10.7
      thresh= 1.827E-06 alpha_mix =  0.700 |ddv_scf|^2 =  7.844E-13

     End of self-consistent calculation

     Convergence has been achieved 


     Representation #  4 modes #   5  6

     Self-consistent Calculation

      iter #   1 total cpu time :    56.4 secs   av.it.:   5.3
      thresh= 1.000E-02 alpha_mix =  0.700 |ddv_scf|^2 =  1.319E-07

      iter #   2 total cpu time :    57.4 secs   av.it.:  11.4
      thresh= 3.632E-05 alpha_mix =  0.700 |ddv_scf|^2 =  1.770E-08

      iter #   3 total cpu time :    58.3 secs   av.it.:  11.2
      thresh= 1.330E-05 alpha_mix =  0.700 |ddv_scf|^2 =  3.419E-10

      iter #   4 total cpu time :    59.1 secs   av.it.:  11.0
      thresh= 1.849E-06 alpha_mix =  0.700 |ddv_scf|^2 =  8.450E-13

     End of self-consistent calculation

     Convergence has been achieved 

     Number of q in the star =    6
     List of q in the star:
          1   0.000000000   0.500000000   0.000000000
          2   0.000000000  -0.500000000   0.000000000
          3   0.500000000   0.000000000   0.000000000
          4   0.000000000   0.000000000   0.500000000
          5   0.000000000   0.000000000  -0.500000000
          6  -0.500000000   0.000000000   0.000000000

     Diagonalizing the dynamical matrix

     q = (    0.000000000   0.500000000   0.000000000 ) 

 **************************************************************************
     freq (    1) =       3.763635 [THz] =     125.541334 [cm-1]
     freq (    2) =       3.763635 [THz] =     125.541334 [cm-1]
     freq (    3) =       7.079299 [THz] =     236.140001 [cm-1]
     freq (    4) =      13.869785 [THz] =     462.646218 [cm-1]
     freq (    5) =      13.869785 [THz] =     462.646218 [cm-1]
     freq (    6) =      14.495261 [THz] =     483.509856 [cm-1]
 **************************************************************************

     Mode symmetry, C_4v (4mm)  point group:

     freq (  1 -  2) =        125.5  [cm-1]   --> E    G_5 D_5       
     freq (  3 -  3) =        236.1  [cm-1]   --> A_1  G_1 D_1       
     freq (  4 -  5) =        462.6  [cm-1]   --> E    G_5 D_5       
     freq (  6 -  6) =        483.5  [cm-1]   --> B_2  G_4 D_2'      

     Calculation of q =    0.7500000  -0.2500000   0.7500000

   Info: using nr1, nr2, nr3 values from input

   Info: using nr1, nr2, nr3 values from input

     Parallelization info
     --------------------
     sticks:   dense  smooth     PW     G-vecs:    dense   smooth      PW
     Min         217     109     40                 4288     1520     362
     Max         219     111     41                 4289     1521     366
     Sum         871     439    163                17153     6081    1459



     bravais-lattice index     =            2
     lattice parameter (alat)  =      10.3240  a.u.
     unit-cell volume          =     275.0958 (a.u.)^3
     number of atoms/cell      =            2
     number of atomic types    =            1
     number of electrons       =         8.00
     number of Kohn-Sham states=            4
     kinetic-energy cutoff     =      30.0000  Ry
     charge density cutoff     =     240.0000  Ry
     Exchange-correlation      = SLA  PW   PBE  PBE ( 1  4  3  4 0 0)

     celldm(1)=  10.324000  celldm(2)=   0.000000  celldm(3)=   0.000000
     celldm(4)=   0.000000  celldm(5)=   0.000000  celldm(6)=   0.000000

     crystal axes: (cart. coord. in units of alat)
               a(1) = (  -0.500000   0.000000   0.500000 )  
               a(2) = (   0.000000   0.500000   0.500000 )  
               a(3) = (  -0.500000   0.500000   0.000000 )  

     reciprocal axes: (cart. coord. in units 2 pi/alat)
               b(1) = ( -1.000000 -1.000000  1.000000 )  
               b(2) = (  1.000000  1.000000  1.000000 )  
               b(3) = ( -1.000000  1.000000 -1.000000 )  


     PseudoPot. # 1 for Si read from file:
     /home/s1333534/quantum_espresso/qe-6.1/pseudo/si_pbe_v1.uspp.F.UPF.txt
     MD5 check sum: a056efeee980c13900f22a371efd63c1
     Pseudo is Ultrasoft + core correction, Zval =  4.0
     Generated by new atomic code, or converted to UPF format
     Using radial grid of  899 points,  6 beta functions with: 
                l(1) =   0
                l(2) =   0
                l(3) =   1
                l(4) =   1
                l(5) =   2
                l(6) =   2
     Q(r) pseudized with  8 coefficients,  rinner =    0.900   0.900   0.900
                                                       0.900   0.900

     atomic species   valence    mass     pseudopotential
        Si             4.00    28.08600     Si( 1.00)

     48 Sym. Ops., with inversion, found



   Cartesian axes

     site n.     atom                  positions (alat units)
         1           Si  tau(   1) = (   0.0000000   0.0000000   0.0000000  )
         2           Si  tau(   2) = (   0.2500000   0.2500000   0.2500000  )

     number of k points=   288

     Number of k-points >= 100: set verbosity='high' to print them.

     Dense  grid:    17153 G-vectors     FFT dimensions: (  36,  36,  36)

     Smooth grid:     6081 G-vectors     FFT dimensions: (  25,  25,  25)

     Estimated max dynamical RAM per process >       1.51MB

     Estimated total allocated dynamical RAM >       6.06MB

     The potential is recalculated from file :
     ./_ph0/silicon.10.324.save/charge-density.dat

     Starting wfc are    8 atomic wfcs

     Band Structure Calculation
     Davidson diagonalization with overlap

     ethr =  1.25E-10,  avg # of iterations = 12.1

     total cpu time spent up to now is        6.7 secs

     End of band structure calculation

     Number of k-points >= 100: set verbosity='high' to print the bands.

     highest occupied level (ev):     5.7239

     Writing output data file silicon.10.324.save

                                                                                

     bravais-lattice index     =            2
     lattice parameter (alat)  =      10.3240  a.u.
     unit-cell volume          =     275.0958 (a.u.)^3
     number of atoms/cell      =            2
     number of atomic types    =            1
     kinetic-energy cut-off    =      30.0000  Ry
     charge density cut-off    =     240.0000  Ry
     convergence threshold     =      1.0E-12
     beta                      =       0.7000
     number of iterations used =            4
     Exchange-correlation      = SLA  PW   PBE  PBE ( 1  4  3  4 0 0)


     celldm(1)=   10.32400  celldm(2)=    0.00000  celldm(3)=    0.00000
     celldm(4)=    0.00000  celldm(5)=    0.00000  celldm(6)=    0.00000

     crystal axes: (cart. coord. in units of alat)
               a(1) = ( -0.5000  0.0000  0.5000 )  
               a(2) = (  0.0000  0.5000  0.5000 )  
               a(3) = ( -0.5000  0.5000  0.0000 )  

     reciprocal axes: (cart. coord. in units 2 pi/alat)
               b(1) = ( -1.0000 -1.0000  1.0000 )  
               b(2) = (  1.0000  1.0000  1.0000 )  
               b(3) = ( -1.0000  1.0000 -1.0000 )  


     Atoms inside the unit cell: 

     Cartesian axes

     site n.  atom      mass           positions (alat units)
        1     Si  28.0860   tau(    1) = (    0.00000    0.00000    0.00000  )
        2     Si  28.0860   tau(    2) = (    0.25000    0.25000    0.25000  )

     Computing dynamical matrix for 
                    q = (   0.7500000  -0.2500000   0.7500000 )

      2 Sym.Ops. (no q -> -q+G )


     G cutoff =  647.9590  (   4288 G-vectors)     FFT grid: ( 36, 36, 36)
     G cutoff =  323.9795  (   1520 G-vectors)  smooth grid: ( 25, 25, 25)
     number of k points=   288

     PseudoPot. # 1 for Si read from file:
     /home/s1333534/quantum_espresso/qe-6.1/pseudo/si_pbe_v1.uspp.F.UPF.txt
     MD5 check sum: a056efeee980c13900f22a371efd63c1
     Pseudo is Ultrasoft + core correction, Zval =  4.0
     Generated by new atomic code, or converted to UPF format
     Using radial grid of  899 points,  6 beta functions with: 
                l(1) =   0
                l(2) =   0
                l(3) =   1
                l(4) =   1
                l(5) =   2
                l(6) =   2
     Q(r) pseudized with  8 coefficients,  rinner =    0.900   0.900   0.900
                                                       0.900   0.900

     Mode symmetry, C_s (m)     point group:


     Atomic displacements:
     There are   6 irreducible representations

     Representation     1      1 modes -A'  To be done

     Representation     2      1 modes -A'  To be done

     Representation     3      1 modes -A'  To be done

     Representation     4      1 modes -A'  To be done

     Representation     5      1 modes -A''  To be done

     Representation     6      1 modes -A''  To be done



     Alpha used in Ewald sum =   2.5000
     PHONON       :  0m50.96s CPU     1m 4.37s WALL



     Representation #  1 mode #   1

     Self-consistent Calculation

      iter #   1 total cpu time :    65.2 secs   av.it.:   5.6
      thresh= 1.000E-02 alpha_mix =  0.700 |ddv_scf|^2 =  1.048E-05

      iter #   2 total cpu time :    66.5 secs   av.it.:  10.6
      thresh= 3.238E-04 alpha_mix =  0.700 |ddv_scf|^2 =  2.797E-05

      iter #   3 total cpu time :    67.7 secs   av.it.:   9.2
      thresh= 5.288E-04 alpha_mix =  0.700 |ddv_scf|^2 =  1.876E-07

      iter #   4 total cpu time :    69.0 secs   av.it.:   9.9
      thresh= 4.331E-05 alpha_mix =  0.700 |ddv_scf|^2 =  3.719E-09

      iter #   5 total cpu time :    70.3 secs   av.it.:  10.4
      thresh= 6.098E-06 alpha_mix =  0.700 |ddv_scf|^2 =  6.400E-10

      iter #   6 total cpu time :    71.7 secs   av.it.:  10.3
      thresh= 2.530E-06 alpha_mix =  0.700 |ddv_scf|^2 =  9.669E-12

      iter #   7 total cpu time :    73.0 secs   av.it.:  10.6
      thresh= 3.109E-07 alpha_mix =  0.700 |ddv_scf|^2 =  3.646E-13

     End of self-consistent calculation

     Convergence has been achieved 


     Representation #  2 mode #   2

     Self-consistent Calculation

      iter #   1 total cpu time :    74.0 secs   av.it.:   5.8
      thresh= 1.000E-02 alpha_mix =  0.700 |ddv_scf|^2 =  1.878E-05

      iter #   2 total cpu time :    75.5 secs   av.it.:  10.4
      thresh= 4.333E-04 alpha_mix =  0.700 |ddv_scf|^2 =  5.440E-05

      iter #   3 total cpu time :    76.7 secs   av.it.:   9.0
      thresh= 7.375E-04 alpha_mix =  0.700 |ddv_scf|^2 =  1.263E-07

      iter #   4 total cpu time :    78.0 secs   av.it.:  10.2
      thresh= 3.554E-05 alpha_mix =  0.700 |ddv_scf|^2 =  4.203E-09

      iter #   5 total cpu time :    79.3 secs   av.it.:  10.4
      thresh= 6.483E-06 alpha_mix =  0.700 |ddv_scf|^2 =  8.562E-10

      iter #   6 total cpu time :    80.6 secs   av.it.:  10.3
      thresh= 2.926E-06 alpha_mix =  0.700 |ddv_scf|^2 =  8.880E-12

      iter #   7 total cpu time :    81.9 secs   av.it.:  10.6
      thresh= 2.980E-07 alpha_mix =  0.700 |ddv_scf|^2 =  3.128E-13

     End of self-consistent calculation

     Convergence has been achieved 


     Representation #  3 mode #   3

     Self-consistent Calculation

      iter #   1 total cpu time :    82.9 secs   av.it.:   5.7
      thresh= 1.000E-02 alpha_mix =  0.700 |ddv_scf|^2 =  1.471E-05

      iter #   2 total cpu time :    84.2 secs   av.it.:  10.4
      thresh= 3.836E-04 alpha_mix =  0.700 |ddv_scf|^2 =  4.003E-05

      iter #   3 total cpu time :    85.4 secs   av.it.:   9.0
      thresh= 6.327E-04 alpha_mix =  0.700 |ddv_scf|^2 =  2.206E-07

      iter #   4 total cpu time :    86.6 secs   av.it.:  10.0
      thresh= 4.696E-05 alpha_mix =  0.700 |ddv_scf|^2 =  4.284E-09

      iter #   5 total cpu time :    88.0 secs   av.it.:  10.4
      thresh= 6.545E-06 alpha_mix =  0.700 |ddv_scf|^2 =  8.364E-10

      iter #   6 total cpu time :    89.3 secs   av.it.:  10.3
      thresh= 2.892E-06 alpha_mix =  0.700 |ddv_scf|^2 =  6.197E-12

      iter #   7 total cpu time :    90.5 secs   av.it.:  10.5
      thresh= 2.489E-07 alpha_mix =  0.700 |ddv_scf|^2 =  1.809E-13

     End of self-consistent calculation

     Convergence has been achieved 


     Representation #  4 mode #   4

     Self-consistent Calculation

      iter #   1 total cpu time :    91.5 secs   av.it.:   5.5
      thresh= 1.000E-02 alpha_mix =  0.700 |ddv_scf|^2 =  6.414E-06

      iter #   2 total cpu time :    92.9 secs   av.it.:  10.7
      thresh= 2.533E-04 alpha_mix =  0.700 |ddv_scf|^2 =  1.359E-05

      iter #   3 total cpu time :    94.1 secs   av.it.:   9.5
      thresh= 3.686E-04 alpha_mix =  0.700 |ddv_scf|^2 =  2.941E-07

      iter #   4 total cpu time :    95.6 secs   av.it.:   9.8
      thresh= 5.423E-05 alpha_mix =  0.700 |ddv_scf|^2 =  3.671E-09

      iter #   5 total cpu time :    97.0 secs   av.it.:  10.5
      thresh= 6.059E-06 alpha_mix =  0.700 |ddv_scf|^2 =  6.867E-10

      iter #   6 total cpu time :    98.3 secs   av.it.:  10.4
      thresh= 2.620E-06 alpha_mix =  0.700 |ddv_scf|^2 =  4.081E-12

      iter #   7 total cpu time :    99.6 secs   av.it.:  10.7
      thresh= 2.020E-07 alpha_mix =  0.700 |ddv_scf|^2 =  1.848E-13

     End of self-consistent calculation

     Convergence has been achieved 


     Representation #  5 mode #   5

     Self-consistent Calculation

      iter #   1 total cpu time :   100.6 secs   av.it.:   5.2
      thresh= 1.000E-02 alpha_mix =  0.700 |ddv_scf|^2 =  6.649E-07

      iter #   2 total cpu time :   101.9 secs   av.it.:  10.4
      thresh= 8.154E-05 alpha_mix =  0.700 |ddv_scf|^2 =  1.084E-07

      iter #   3 total cpu time :   103.1 secs   av.it.:  10.1
      thresh= 3.293E-05 alpha_mix =  0.700 |ddv_scf|^2 =  1.447E-09

      iter #   4 total cpu time :   104.4 secs   av.it.:   9.6
      thresh= 3.803E-06 alpha_mix =  0.700 |ddv_scf|^2 =  3.385E-12

      iter #   5 total cpu time :   105.6 secs   av.it.:  10.0
      thresh= 1.840E-07 alpha_mix =  0.700 |ddv_scf|^2 =  9.512E-14

     End of self-consistent calculation

     Convergence has been achieved 


     Representation #  6 mode #   6

     Self-consistent Calculation

      iter #   1 total cpu time :   106.6 secs   av.it.:   5.2
      thresh= 1.000E-02 alpha_mix =  0.700 |ddv_scf|^2 =  6.649E-07

      iter #   2 total cpu time :   108.0 secs   av.it.:  10.4
[...]
        k(   59) = (  -0.8750000   0.1250000  -0.1250000), wk =   0.0625000
        k(   60) = (  -1.3750000  -0.8750000  -0.1250000), wk =   0.0000000
        k(   61) = (  -1.1250000   0.3750000  -0.3750000), wk =   0.0625000
        k(   62) = (  -1.6250000  -0.6250000  -0.3750000), wk =   0.0000000
        k(   63) = (  -0.3750000   0.3750000   1.1250000), wk =   0.0625000
        k(   64) = (  -0.8750000  -0.6250000   1.1250000), wk =   0.0000000

     Dense  grid:    17153 G-vectors     FFT dimensions: (  36,  36,  36)

     Smooth grid:     6081 G-vectors     FFT dimensions: (  25,  25,  25)

     Estimated max dynamical RAM per process >       1.51MB

     Estimated total allocated dynamical RAM >       6.06MB

     The potential is recalculated from file :
     ./_ph0/silicon.10.324.save/charge-density.dat

     Starting wfc are    8 atomic wfcs

     Band Structure Calculation
     Davidson diagonalization with overlap

     ethr =  1.25E-10,  avg # of iterations = 12.1

     total cpu time spent up to now is       10.5 secs

     End of band structure calculation

          k =-0.1250 0.1250 0.1250 (   764 PWs)   bands (ev):

    -5.6278   4.4148   5.7239   5.7239

          k =-0.6250-0.8750 0.1250 (   755 PWs)   bands (ev):

    -2.4219  -0.8783   2.0263   3.1054

          k =-0.3750 0.3750-0.1250 (   767 PWs)   bands (ev):

    -4.5991   1.4185   3.7342   5.2432

          k =-0.8750-0.6250-0.1250 (   755 PWs)   bands (ev):

    -2.4219  -0.8783   2.0263   3.1054

          k = 0.3750-0.3750 0.6250 (   763 PWs)   bands (ev):

    -3.4564  -0.6643   3.7561   4.4701

          k =-0.1250-1.3750 0.6250 (   763 PWs)   bands (ev):

    -2.9598  -0.5771   2.0856   4.1523

          k = 0.1250-0.1250 0.3750 (   768 PWs)   bands (ev):

    -5.0989   2.7977   4.7137   4.7791

          k =-0.3750-1.1250 0.3750 (   763 PWs)   bands (ev):

    -2.9598  -0.5771   2.0856   4.1523

          k =-0.1250 0.6250 0.1250 (   766 PWs)   bands (ev):

    -4.0655   1.0867   3.3844   3.8381

          k =-0.6250-0.3750 0.1250 (   766 PWs)   bands (ev):

    -3.6489   0.2105   2.7417   4.1132

          k = 0.6250-0.1250 0.8750 (   755 PWs)   bands (ev):

    -2.4219  -0.8783   2.0263   3.1054

          k = 0.1250-1.1250 0.8750 (   762 PWs)   bands (ev):

    -2.5905  -0.7804   2.6378   3.3704

          k = 0.3750 0.1250 0.6250 (   766 PWs)   bands (ev):

    -3.6489   0.2105   2.7417   4.1132

          k =-0.1250-0.8750 0.6250 (   755 PWs)   bands (ev):

    -2.4219  -0.8783   2.0263   3.1054

          k =-0.1250-0.8750 0.1250 (   762 PWs)   bands (ev):

    -2.5905  -0.7804   2.6378   3.3704

          k =-0.6250-1.8750 0.1250 (   766 PWs)   bands (ev):

    -4.0655   1.0867   3.3844   3.8381

          k =-0.3750 0.3750 0.3750 (   763 PWs)   bands (ev):

    -4.1650   0.1250   4.9357   4.9357

          k =-0.8750-0.6250 0.3750 (   766 PWs)   bands (ev):

    -3.6489   0.2105   2.7417   4.1132

          k = 0.3750-0.3750 1.1250 (   763 PWs)   bands (ev):

    -2.9598  -0.5771   2.0856   4.1523

          k =-0.1250-1.3750 1.1250 (   755 PWs)   bands (ev):

    -2.4219  -0.8783   2.0263   3.1054

          k = 0.1250-0.3750 0.3750 (   767 PWs)   bands (ev):

    -4.5991   1.4185   3.7342   5.2432

          k =-0.3750-1.3750 0.3750 (   763 PWs)   bands (ev):

    -3.4564  -0.6643   3.7561   4.4701

          k = 0.3750-0.3750-0.1250 (   767 PWs)   bands (ev):

    -4.5991   1.4185   3.7342   5.2432

          k =-0.1250-1.3750-0.1250 (   766 PWs)   bands (ev):

    -4.0655   1.0867   3.3844   3.8381

          k =-0.6250 0.3750-0.3750 (   763 PWs)   bands (ev):

    -3.4564  -0.6643   3.7561   4.4701

          k =-1.1250-0.6250-0.3750 (   766 PWs)   bands (ev):

    -3.6489   0.2105   2.7417   4.1132

          k =-0.3750 0.3750 0.6250 (   763 PWs)   bands (ev):

    -3.4564  -0.6643   3.7561   4.4701

          k =-0.8750-0.6250 0.6250 (   767 PWs)   bands (ev):

    -4.5991   1.4185   3.7342   5.2432

          k =-0.3750 0.1250-0.1250 (   768 PWs)   bands (ev):

    -5.0989   2.7977   4.7137   4.7791

          k =-0.8750-0.8750-0.1250 (   762 PWs)   bands (ev):

    -2.5905  -0.7804   2.6378   3.3704

          k =-0.1250 0.1250 0.3750 (   768 PWs)   bands (ev):

    -5.0989   2.7977   4.7137   4.7791

          k =-0.6250-0.8750 0.3750 (   766 PWs)   bands (ev):

    -3.6489   0.2105   2.7417   4.1132

          k = 0.1250 0.6250-0.1250 (   766 PWs)   bands (ev):

    -4.0655   1.0867   3.3844   3.8381

          k =-0.3750-0.3750-0.1250 (   767 PWs)   bands (ev):

    -4.5991   1.4185   3.7342   5.2432

          k = 0.6250 0.1250-0.1250 (   766 PWs)   bands (ev):

    -4.0655   1.0867   3.3844   3.8381

          k = 0.1250-0.8750-0.1250 (   762 PWs)   bands (ev):

    -2.5905  -0.7804   2.6378   3.3704

          k =-0.8750 0.1250-0.6250 (   755 PWs)   bands (ev):

    -2.4219  -0.8783   2.0263   3.1054

          k =-1.3750-0.8750-0.6250 (   767 PWs)   bands (ev):

    -4.5991   1.4185   3.7342   5.2432

          k = 0.8750-0.1250 0.6250 (   755 PWs)   bands (ev):

    -2.4219  -0.8783   2.0263   3.1054

          k = 0.3750-1.1250 0.6250 (   766 PWs)   bands (ev):

    -3.6489   0.2105   2.7417   4.1132

          k =-0.6250 0.1250 0.8750 (   755 PWs)   bands (ev):

    -2.4219  -0.8783   2.0263   3.1054

          k =-1.1250-0.8750 0.8750 (   764 PWs)   bands (ev):

    -5.6278   4.4148   5.7239   5.7239

          k =-0.1250 0.8750 0.6250 (   755 PWs)   bands (ev):

    -2.4219  -0.8783   2.0263   3.1054

          k =-0.6250-0.1250 0.6250 (   763 PWs)   bands (ev):

    -2.9598  -0.5771   2.0856   4.1523

          k = 0.1250 0.8750-0.6250 (   755 PWs)   bands (ev):

    -2.4219  -0.8783   2.0263   3.1054

          k =-0.3750-0.1250-0.6250 (   766 PWs)   bands (ev):

    -3.6489   0.2105   2.7417   4.1132

          k =-0.6250-0.1250-0.3750 (   766 PWs)   bands (ev):

    -3.6489   0.2105   2.7417   4.1132

          k =-1.1250-1.1250-0.3750 (   766 PWs)   bands (ev):

    -4.0655   1.0867   3.3844   3.8381

          k = 0.6250 0.1250 0.3750 (   766 PWs)   bands (ev):

    -3.6489   0.2105   2.7417   4.1132

          k = 0.1250-0.8750 0.3750 (   755 PWs)   bands (ev):

    -2.4219  -0.8783   2.0263   3.1054

          k =-0.3750-0.1250 0.6250 (   766 PWs)   bands (ev):

    -3.6489   0.2105   2.7417   4.1132

          k =-0.8750-1.1250 0.6250 (   768 PWs)   bands (ev):

    -5.0989   2.7977   4.7137   4.7791

          k = 0.1250 0.6250 0.3750 (   766 PWs)   bands (ev):

    -3.6489   0.2105   2.7417   4.1132

          k =-0.3750-0.3750 0.3750 (   763 PWs)   bands (ev):

    -4.1650   0.1250   4.9357   4.9357

          k =-0.1250 0.6250-0.3750 (   766 PWs)   bands (ev):

    -3.6489   0.2105   2.7417   4.1132

          k =-0.6250-0.3750-0.3750 (   763 PWs)   bands (ev):

    -3.4564  -0.6643   3.7561   4.4701

          k = 0.1250-0.8750-0.1250 (   762 PWs)   bands (ev):

    -2.5905  -0.7804   2.6378   3.3704

          k =-0.3750-1.8750-0.1250 (   768 PWs)   bands (ev):

    -5.0989   2.7977   4.7137   4.7791

          k =-0.8750 0.1250-0.1250 (   762 PWs)   bands (ev):

    -2.5905  -0.7804   2.6378   3.3704

          k =-1.3750-0.8750-0.1250 (   755 PWs)   bands (ev):

    -2.4219  -0.8783   2.0263   3.1054

          k =-1.1250 0.3750-0.3750 (   763 PWs)   bands (ev):

    -2.9598  -0.5771   2.0856   4.1523

          k =-1.6250-0.6250-0.3750 (   763 PWs)   bands (ev):

    -3.4564  -0.6643   3.7561   4.4701

          k =-0.3750 0.3750 1.1250 (   763 PWs)   bands (ev):

    -2.9598  -0.5771   2.0856   4.1523

          k =-0.8750-0.6250 1.1250 (   768 PWs)   bands (ev):

    -5.0989   2.7977   4.7137   4.7791

     highest occupied level (ev):     5.7239

     Writing output data file silicon.10.324.save

                                                                                

     bravais-lattice index     =            2
     lattice parameter (alat)  =      10.3240  a.u.
     unit-cell volume          =     275.0958 (a.u.)^3
     number of atoms/cell      =            2
     number of atomic types    =            1
     kinetic-energy cut-off    =      30.0000  Ry
     charge density cut-off    =     240.0000  Ry
     convergence threshold     =      1.0E-12
     beta                      =       0.7000
     number of iterations used =            4
     Exchange-correlation      = SLA  PW   PBE  PBE ( 1  4  3  4 0 0)


     celldm(1)=   10.32400  celldm(2)=    0.00000  celldm(3)=    0.00000
     celldm(4)=    0.00000  celldm(5)=    0.00000  celldm(6)=    0.00000

     crystal axes: (cart. coord. in units of alat)
               a(1) = ( -0.5000  0.0000  0.5000 )  
               a(2) = (  0.0000  0.5000  0.5000 )  
               a(3) = ( -0.5000  0.5000  0.0000 )  

     reciprocal axes: (cart. coord. in units 2 pi/alat)
               b(1) = ( -1.0000 -1.0000  1.0000 )  
               b(2) = (  1.0000  1.0000  1.0000 )  
               b(3) = ( -1.0000  1.0000 -1.0000 )  


     Atoms inside the unit cell: 

     Cartesian axes

     site n.  atom      mass           positions (alat units)
        1     Si  28.0860   tau(    1) = (    0.00000    0.00000    0.00000  )
        2     Si  28.0860   tau(    2) = (    0.25000    0.25000    0.25000  )

     Computing dynamical matrix for 
                    q = (  -0.5000000  -1.0000000   0.0000000 )

      8 Sym.Ops. (no q -> -q+G )


     G cutoff =  647.9590  (   4288 G-vectors)     FFT grid: ( 36, 36, 36)
     G cutoff =  323.9795  (   1520 G-vectors)  smooth grid: ( 25, 25, 25)
     number of k points=    64

     PseudoPot. # 1 for Si read from file:
     /home/s1333534/quantum_espresso/qe-6.1/pseudo/si_pbe_v1.uspp.F.UPF.txt
     MD5 check sum: a056efeee980c13900f22a371efd63c1
     Pseudo is Ultrasoft + core correction, Zval =  4.0
     Generated by new atomic code, or converted to UPF format
     Using radial grid of  899 points,  6 beta functions with: 
                l(1) =   0
                l(2) =   0
                l(3) =   1
                l(4) =   1
                l(5) =   2
                l(6) =   2
     Q(r) pseudized with  8 coefficients,  rinner =    0.900   0.900   0.900
                                                       0.900   0.900


     Atomic displacements:
     There are   3 irreducible representations

     Representation     1      2 modes -  To be done

     Representation     2      2 modes -  To be done

     Representation     3      2 modes -  To be done



     Alpha used in Ewald sum =   2.5000
     PHONON       :  2m 2.42s CPU     2m30.26s WALL



     Representation #  1 modes #   1  2

     Self-consistent Calculation

      iter #   1 total cpu time :   151.2 secs   av.it.:   5.7
      thresh= 1.000E-02 alpha_mix =  0.700 |ddv_scf|^2 =  1.084E-06

      iter #   2 total cpu time :   152.3 secs   av.it.:  11.6
      thresh= 1.041E-04 alpha_mix =  0.700 |ddv_scf|^2 =  6.140E-07

      iter #   3 total cpu time :   153.1 secs   av.it.:  11.1
      thresh= 7.836E-05 alpha_mix =  0.700 |ddv_scf|^2 =  5.899E-10

      iter #   4 total cpu time :   153.9 secs   av.it.:  11.0
      thresh= 2.429E-06 alpha_mix =  0.700 |ddv_scf|^2 =  2.624E-12

      iter #   5 total cpu time :   154.6 secs   av.it.:  11.2
      thresh= 1.620E-07 alpha_mix =  0.700 |ddv_scf|^2 =  6.932E-14

     End of self-consistent calculation

     Convergence has been achieved 


     Representation #  2 modes #   3  4

     Self-consistent Calculation

      iter #   1 total cpu time :   155.3 secs   av.it.:   5.7
      thresh= 1.000E-02 alpha_mix =  0.700 |ddv_scf|^2 =  1.681E-06

      iter #   2 total cpu time :   156.1 secs   av.it.:  11.6
      thresh= 1.296E-04 alpha_mix =  0.700 |ddv_scf|^2 =  2.274E-06

      iter #   3 total cpu time :   156.9 secs   av.it.:  10.9
      thresh= 1.508E-04 alpha_mix =  0.700 |ddv_scf|^2 =  6.986E-10

      iter #   4 total cpu time :   157.6 secs   av.it.:  11.0
      thresh= 2.643E-06 alpha_mix =  0.700 |ddv_scf|^2 =  1.070E-11

      iter #   5 total cpu time :   158.4 secs   av.it.:  11.1
      thresh= 3.271E-07 alpha_mix =  0.700 |ddv_scf|^2 =  1.780E-13

     End of self-consistent calculation

     Convergence has been achieved 


     Representation #  3 modes #   5  6

     Self-consistent Calculation

      iter #   1 total cpu time :   159.0 secs   av.it.:   5.3
      thresh= 1.000E-02 alpha_mix =  0.700 |ddv_scf|^2 =  4.405E-07

      iter #   2 total cpu time :   159.9 secs   av.it.:  11.6
      thresh= 6.637E-05 alpha_mix =  0.700 |ddv_scf|^2 =  2.574E-07

      iter #   3 total cpu time :   160.8 secs   av.it.:  11.1
      thresh= 5.073E-05 alpha_mix =  0.700 |ddv_scf|^2 =  5.123E-10

      iter #   4 total cpu time :   161.7 secs   av.it.:  11.1
      thresh= 2.264E-06 alpha_mix =  0.700 |ddv_scf|^2 =  6.017E-12

      iter #   5 total cpu time :   162.4 secs   av.it.:  11.1
      thresh= 2.453E-07 alpha_mix =  0.700 |ddv_scf|^2 =  8.321E-14

     End of self-consistent calculation

     Convergence has been achieved 

     Number of q in the star =    6
     List of q in the star:
          1  -0.500000000  -1.000000000   0.000000000
          2   0.000000000   1.000000000   0.500000000
          3   0.000000000  -1.000000000  -0.500000000
          4   0.500000000   1.000000000   0.000000000
          5  -1.000000000  -0.500000000   0.000000000
          6   0.000000000  -0.500000000  -1.000000000

     Diagonalizing the dynamical matrix

     q = (   -0.500000000  -1.000000000   0.000000000 ) 

 **************************************************************************
     freq (    1) =       6.012382 [THz] =     200.551468 [cm-1]
     freq (    2) =       6.012382 [THz] =     200.551468 [cm-1]
     freq (    3) =      10.357968 [THz] =     345.504636 [cm-1]
     freq (    4) =      10.357968 [THz] =     345.504636 [cm-1]
     freq (    5) =      13.611857 [THz] =     454.042690 [cm-1]
     freq (    6) =      13.611857 [THz] =     454.042690 [cm-1]
 **************************************************************************

     init_run     :      1.23s CPU      1.28s WALL (       7 calls)
     electrons    :      7.18s CPU      7.77s WALL (       7 calls)

     Called by init_run:
     wfcinit      :      0.00s CPU      0.03s WALL (       7 calls)
     potinit      :      0.07s CPU      0.09s WALL (       7 calls)

     Called by electrons:
     c_bands      :      7.18s CPU      7.77s WALL (       7 calls)
     v_of_rho     :      0.06s CPU      0.07s WALL (       8 calls)
     newd         :      0.12s CPU      0.12s WALL (       8 calls)

     Called by c_bands:
     init_us_2    :      1.65s CPU      1.58s WALL (   16040 calls)
     cegterg      :      6.01s CPU      6.49s WALL (     796 calls)

     Called by sum_band:

     Called by *egterg:
     h_psi        :     68.91s CPU     73.85s WALL (  154484 calls)
     s_psi        :      5.64s CPU      6.97s WALL (  311370 calls)
     g_psi        :      0.05s CPU      0.07s WALL (    9666 calls)
     cdiaghg      :      0.57s CPU      0.56s WALL (   10462 calls)

     Called by h_psi:
     h_psi:pot    :     68.50s CPU     73.34s WALL (  154484 calls)
     h_psi:calbec :      3.46s CPU      3.97s WALL (  154484 calls)
     vloc_psi     :     60.39s CPU     65.22s WALL (  154484 calls)
     add_vuspsi   :      4.30s CPU      3.67s WALL (  154484 calls)

     General routines
     calbec       :      8.07s CPU      8.41s WALL (  345822 calls)
     fft          :      1.35s CPU      1.43s WALL (    5265 calls)
     ffts         :      0.21s CPU      0.22s WALL (    3320 calls)
     fftw         :     63.43s CPU     67.72s WALL ( 1383988 calls)
     interpolate  :      0.21s CPU      0.22s WALL (     572 calls)
     davcio       :      0.31s CPU      1.06s WALL (   69876 calls)

     Parallel routines
     fft_scatter  :     15.84s CPU     19.35s WALL ( 1392573 calls)

     PHONON       :  2m11.58s CPU     2m42.77s WALL

     INITIALIZATION: 
     phq_setup    :      0.22s CPU      0.41s WALL (       8 calls)
     phq_init     :      6.74s CPU      6.96s WALL (       8 calls)

     phq_init     :      6.74s CPU      6.96s WALL (       8 calls)
     set_drhoc    :      1.82s CPU      1.83s WALL (      24 calls)
     init_vloc    :      0.03s CPU      0.03s WALL (       8 calls)
     init_us_1    :      0.96s CPU      0.97s WALL (       8 calls)
     newd         :      0.12s CPU      0.12s WALL (       8 calls)
     dvanqq       :      1.17s CPU      1.17s WALL (       8 calls)
     drho         :      2.60s CPU      2.67s WALL (       8 calls)

     DYNAMICAL MATRIX:
     dynmat0      :      1.70s CPU      1.80s WALL (       8 calls)
     phqscf       :    111.56s CPU    137.18s WALL (       8 calls)
     dynmatrix    :      0.01s CPU      0.18s WALL (       8 calls)

     phqscf       :    111.56s CPU    137.18s WALL (       8 calls)
     solve_linter :    110.64s CPU    134.74s WALL (      32 calls)
     drhodv       :      0.60s CPU      0.62s WALL (      32 calls)

     dynmat0      :      1.70s CPU      1.80s WALL (       8 calls)
     dynmat_us    :      0.38s CPU      0.38s WALL (       8 calls)
     d2ionq       :      0.03s CPU      0.04s WALL (       8 calls)
     dynmatcc     :      1.27s CPU      1.28s WALL (       8 calls)

     dynmat_us    :      0.38s CPU      0.38s WALL (       8 calls)
     addusdynmat  :      0.00s CPU      0.00s WALL (       8 calls)

     phqscf       :    111.56s CPU    137.18s WALL (       8 calls)
     solve_linter :    110.64s CPU    134.74s WALL (      32 calls)

     solve_linter :    110.64s CPU    134.74s WALL (      32 calls)
     dvqpsi_us    :      2.12s CPU      2.26s WALL (    2508 calls)
     ortho        :      0.92s CPU      1.05s WALL (   13630 calls)
     cgsolve      :     76.39s CPU     83.05s WALL (   13630 calls)
     incdrhoscf   :      6.21s CPU      6.77s WALL (   13630 calls)
     addusddens   :      7.06s CPU      7.09s WALL (     202 calls)
     vpsifft      :      4.44s CPU      4.86s WALL (   11002 calls)
     dv_of_drho   :      1.20s CPU      1.26s WALL (     256 calls)
     mix_pot      :      0.32s CPU      8.22s WALL (     175 calls)
     psymdvscf    :      4.09s CPU      4.14s WALL (     170 calls)
     newdq        :      7.61s CPU      7.63s WALL (     175 calls)
     adddvscf     :      0.47s CPU      0.45s WALL (   11122 calls)
     drhodvus     :      0.01s CPU      0.02s WALL (      32 calls)

     dvqpsi_us    :      2.12s CPU      2.26s WALL (    2508 calls)
     dvqpsi_us_on :      0.92s CPU      0.94s WALL (    2508 calls)

     cgsolve      :     76.39s CPU     83.05s WALL (   13630 calls)
     ch_psi       :     75.28s CPU     81.34s WALL (  143226 calls)

     ch_psi       :     75.28s CPU     81.34s WALL (  143226 calls)
     h_psi        :     68.91s CPU     73.85s WALL (  154484 calls)
     last         :      8.95s CPU      9.10s WALL (  143226 calls)

     h_psi        :     68.91s CPU     73.85s WALL (  154484 calls)
     add_vuspsi   :      4.30s CPU      3.67s WALL (  154484 calls)

     incdrhoscf   :      6.21s CPU      6.77s WALL (   13630 calls)
     addusdbec    :      0.49s CPU      0.52s WALL (   16078 calls)

     drhodvus     :      0.01s CPU      0.02s WALL (      32 calls)

      General routines
     calbec       :      8.07s CPU      8.41s WALL (  345822 calls)
     fft          :      1.35s CPU      1.43s WALL (    5265 calls)
     ffts         :      0.21s CPU      0.22s WALL (    3320 calls)
     fftw         :     63.43s CPU     67.72s WALL ( 1383988 calls)
     davcio       :      0.31s CPU      1.06s WALL (   69876 calls)
     write_rec    :      0.24s CPU      9.82s WALL (     207 calls)


     PHONON       :  2m11.58s CPU     2m42.77s WALL


   This run was terminated on:  15:53:11  10Nov2017            

=------------------------------------------------------------------------------=
   JOB DONE.
=------------------------------------------------------------------------------=
