
     Program PWSCF v.6.1 (svn rev. 13369) starts on 10Nov2017 at 10: 3:23 

     This program is part of the open-source Quantum ESPRESSO suite
     for quantum simulation of materials; please cite
         "P. Giannozzi et al., J. Phys.:Condens. Matter 21 395502 (2009);
          URL http://www.quantum-espresso.org", 
     in publications or presentations arising from this work. More details at
     http://www.quantum-espresso.org/quote

     Parallel version (MPI), running on     4 processors
     R & G space division:  proc/nbgrp/npool/nimage =       4
     Waiting for input...
     Reading input from standard input
     Message from routine read_cards :
     DEPRECATED: no units specified in ATOMIC_POSITIONS card
     Message from routine read_cards :
     ATOMIC_POSITIONS: units set to alat

     Current dimensions of program PWSCF are:
     Max number of different atomic species (ntypx) = 10
     Max number of k-points (npk) =  40000
     Max angular momentum in pseudopotentials (lmaxx) =  3

     Subspace diagonalization in iterative solution of the eigenvalue problem:
     a serial algorithm will be used


     Parallelization info
     --------------------
     sticks:   dense  smooth     PW     G-vecs:    dense   smooth      PW
     Min         133      66     22                 2024      722     152
     Max         134      67     23                 2025      724     153
     Sum         535     265     91                 8099     2891     609



     bravais-lattice index     =            2
     lattice parameter (alat)  =      10.3960  a.u.
     unit-cell volume          =     280.8916 (a.u.)^3
     number of atoms/cell      =            2
     number of atomic types    =            1
     number of electrons       =         8.00
     number of Kohn-Sham states=            4
     kinetic-energy cutoff     =      18.0000  Ry
     charge density cutoff     =     144.0000  Ry
     convergence threshold     =      1.0E-08
     mixing beta               =       0.7000
     number of iterations used =            8  plain     mixing
     Exchange-correlation      = SLA  PW   PBE  PBE ( 1  4  3  4 0 0)

     celldm(1)=  10.396000  celldm(2)=   0.000000  celldm(3)=   0.000000
     celldm(4)=   0.000000  celldm(5)=   0.000000  celldm(6)=   0.000000

     crystal axes: (cart. coord. in units of alat)
               a(1) = (  -0.500000   0.000000   0.500000 )  
               a(2) = (   0.000000   0.500000   0.500000 )  
               a(3) = (  -0.500000   0.500000   0.000000 )  

     reciprocal axes: (cart. coord. in units 2 pi/alat)
               b(1) = ( -1.000000 -1.000000  1.000000 )  
               b(2) = (  1.000000  1.000000  1.000000 )  
               b(3) = ( -1.000000  1.000000 -1.000000 )  


     PseudoPot. # 1 for Si read from file:
     /home/max/quantum_espresso/qe-6.1/pseudo/si_pbe_v1.uspp.F.UPF.txt
     MD5 check sum: a056efeee980c13900f22a371efd63c1
     Pseudo is Ultrasoft + core correction, Zval =  4.0
     Generated by new atomic code, or converted to UPF format
     Using radial grid of  899 points,  6 beta functions with: 
                l(1) =   0
                l(2) =   0
                l(3) =   1
                l(4) =   1
                l(5) =   2
                l(6) =   2
     Q(r) pseudized with  8 coefficients,  rinner =    0.900   0.900   0.900
                                                       0.900   0.900

     atomic species   valence    mass     pseudopotential
        Si             4.00    28.08600     Si( 1.00)

     24 Sym. Ops. (no inversion) found
          (note: 24 additional sym.ops. were found but ignored
           their fractional translations are incommensurate with FFT grid)


   Cartesian axes

     site n.     atom                  positions (alat units)
         1           Si  tau(   1) = (   0.0000000   0.0000000   0.0000000  )
         2           Si  tau(   2) = (   0.2500000   0.2500000   0.2500000  )

     number of k points=    60
                       cart. coord. in units 2pi/alat
        k(    1) = (  -0.0625000   0.0625000   0.0625000), wk =   0.0078125
        k(    2) = (  -0.1875000   0.1875000  -0.0625000), wk =   0.0234375
        k(    3) = (  -0.3125000   0.3125000  -0.1875000), wk =   0.0234375
        k(    4) = (  -0.4375000   0.4375000  -0.3125000), wk =   0.0234375
        k(    5) = (   0.4375000  -0.4375000   0.5625000), wk =   0.0234375
        k(    6) = (   0.3125000  -0.3125000   0.4375000), wk =   0.0234375
        k(    7) = (   0.1875000  -0.1875000   0.3125000), wk =   0.0234375
        k(    8) = (   0.0625000  -0.0625000   0.1875000), wk =   0.0234375
        k(    9) = (  -0.0625000   0.3125000   0.0625000), wk =   0.0234375
        k(   10) = (  -0.1875000   0.4375000  -0.0625000), wk =   0.0468750
        k(   11) = (  -0.3125000   0.5625000  -0.1875000), wk =   0.0468750
        k(   12) = (   0.5625000  -0.3125000   0.6875000), wk =   0.0468750
        k(   13) = (   0.4375000  -0.1875000   0.5625000), wk =   0.0468750
        k(   14) = (   0.3125000  -0.0625000   0.4375000), wk =   0.0468750
        k(   15) = (   0.1875000   0.0625000   0.3125000), wk =   0.0468750
        k(   16) = (  -0.0625000   0.5625000   0.0625000), wk =   0.0234375
        k(   17) = (  -0.1875000   0.6875000  -0.0625000), wk =   0.0468750
        k(   18) = (   0.6875000  -0.1875000   0.8125000), wk =   0.0468750
        k(   19) = (   0.5625000  -0.0625000   0.6875000), wk =   0.0468750
        k(   20) = (   0.4375000   0.0625000   0.5625000), wk =   0.0468750
        k(   21) = (   0.3125000   0.1875000   0.4375000), wk =   0.0468750
        k(   22) = (  -0.0625000   0.8125000   0.0625000), wk =   0.0234375
        k(   23) = (   0.8125000  -0.0625000   0.9375000), wk =   0.0468750
        k(   24) = (   0.6875000   0.0625000   0.8125000), wk =   0.0468750
        k(   25) = (   0.5625000   0.1875000   0.6875000), wk =   0.0468750
        k(   26) = (   0.4375000   0.3125000   0.5625000), wk =   0.0468750
        k(   27) = (  -0.0625000  -0.9375000   0.0625000), wk =   0.0234375
        k(   28) = (  -0.1875000  -0.8125000  -0.0625000), wk =   0.0468750
        k(   29) = (  -0.3125000  -0.6875000  -0.1875000), wk =   0.0468750
        k(   30) = (  -0.0625000  -0.6875000   0.0625000), wk =   0.0234375
        k(   31) = (  -0.1875000  -0.5625000  -0.0625000), wk =   0.0468750
        k(   32) = (  -0.0625000  -0.4375000   0.0625000), wk =   0.0234375
        k(   33) = (  -0.1875000   0.1875000   0.1875000), wk =   0.0078125
        k(   34) = (  -0.3125000   0.3125000   0.0625000), wk =   0.0234375
        k(   35) = (  -0.4375000   0.4375000  -0.0625000), wk =   0.0234375
        k(   36) = (   0.4375000  -0.4375000   0.8125000), wk =   0.0234375
        k(   37) = (   0.3125000  -0.3125000   0.6875000), wk =   0.0234375
        k(   38) = (   0.1875000  -0.1875000   0.5625000), wk =   0.0234375
        k(   39) = (  -0.1875000   0.4375000   0.1875000), wk =   0.0234375
        k(   40) = (  -0.3125000   0.5625000   0.0625000), wk =   0.0468750
        k(   41) = (   0.5625000  -0.3125000   0.9375000), wk =   0.0468750
        k(   42) = (   0.4375000  -0.1875000   0.8125000), wk =   0.0468750
        k(   43) = (   0.3125000  -0.0625000   0.6875000), wk =   0.0468750
        k(   44) = (  -0.1875000   0.6875000   0.1875000), wk =   0.0234375
        k(   45) = (   0.6875000  -0.1875000   1.0625000), wk =   0.0468750
        k(   46) = (   0.5625000  -0.0625000   0.9375000), wk =   0.0468750
        k(   47) = (   0.4375000   0.0625000   0.8125000), wk =   0.0468750
        k(   48) = (  -0.1875000  -1.0625000   0.1875000), wk =   0.0234375
        k(   49) = (  -0.3125000  -0.9375000   0.0625000), wk =   0.0468750
        k(   50) = (  -0.1875000  -0.8125000   0.1875000), wk =   0.0234375
        k(   51) = (  -0.3125000   0.3125000   0.3125000), wk =   0.0078125
        k(   52) = (  -0.4375000   0.4375000   0.1875000), wk =   0.0234375
        k(   53) = (   0.4375000  -0.4375000   1.0625000), wk =   0.0234375
        k(   54) = (   0.3125000  -0.3125000   0.9375000), wk =   0.0234375
        k(   55) = (  -0.3125000   0.5625000   0.3125000), wk =   0.0234375
        k(   56) = (   0.5625000  -0.3125000   1.1875000), wk =   0.0468750
        k(   57) = (   0.4375000  -0.1875000   1.0625000), wk =   0.0468750
        k(   58) = (  -0.3125000  -1.1875000   0.3125000), wk =   0.0234375
        k(   59) = (  -0.4375000   0.4375000   0.4375000), wk =   0.0078125
        k(   60) = (   0.4375000  -0.4375000   1.3125000), wk =   0.0234375

     Dense  grid:     8099 G-vectors     FFT dimensions: (  30,  30,  30)

     Smooth grid:     2891 G-vectors     FFT dimensions: (  20,  20,  20)

     Estimated max dynamical RAM per process >       1.73MB

     Estimated total allocated dynamical RAM >       6.94MB

     Initial potential from superposition of free atoms

     starting charge    7.99866, renormalised to    8.00000
     Starting wfc are    8 randomized atomic wfcs

     total cpu time spent up to now is        0.5 secs

     per-process dynamical memory:     8.6 Mb

     Self-consistent Calculation

     iteration #  1     ecut=    18.00 Ry     beta=0.70
     Davidson diagonalization with overlap
     ethr =  1.00E-02,  avg # of iterations =  2.0

     Threshold (ethr) on eigenvalues was too large:
     Diagonalizing with lowered threshold

     Davidson diagonalization with overlap
     ethr =  6.55E-04,  avg # of iterations =  1.1

     total cpu time spent up to now is        1.2 secs

     total energy              =     -19.18916150 Ry
     Harris-Foulkes estimate   =     -19.20084394 Ry
     estimated scf accuracy    <       0.05219125 Ry

     iteration #  2     ecut=    18.00 Ry     beta=0.70
     Davidson diagonalization with overlap
     ethr =  6.52E-04,  avg # of iterations =  1.0

     total cpu time spent up to now is        1.3 secs

     total energy              =     -19.19075832 Ry
     Harris-Foulkes estimate   =     -19.19092804 Ry
     estimated scf accuracy    <       0.00245006 Ry

     iteration #  3     ecut=    18.00 Ry     beta=0.70
     Davidson diagonalization with overlap
     ethr =  3.06E-05,  avg # of iterations =  1.9

     total cpu time spent up to now is        1.6 secs

     total energy              =     -19.19102123 Ry
     Harris-Foulkes estimate   =     -19.19103313 Ry
     estimated scf accuracy    <       0.00003865 Ry

     iteration #  4     ecut=    18.00 Ry     beta=0.70
     Davidson diagonalization with overlap
     ethr =  4.83E-07,  avg # of iterations =  2.8

     total cpu time spent up to now is        1.8 secs

     total energy              =     -19.19104403 Ry
     Harris-Foulkes estimate   =     -19.19104444 Ry
     estimated scf accuracy    <       0.00000187 Ry

     iteration #  5     ecut=    18.00 Ry     beta=0.70
     Davidson diagonalization with overlap
     ethr =  2.34E-08,  avg # of iterations =  2.2

     total cpu time spent up to now is        2.1 secs

     total energy              =     -19.19104444 Ry
     Harris-Foulkes estimate   =     -19.19104446 Ry
     estimated scf accuracy    <       0.00000005 Ry

     iteration #  6     ecut=    18.00 Ry     beta=0.70
     Davidson diagonalization with overlap
     ethr =  5.70E-10,  avg # of iterations =  2.7

     total cpu time spent up to now is        2.4 secs

     End of self-consistent calculation

          k =-0.0625 0.0625 0.0625 (   338 PWs)   bands (ev):

    -5.8490   5.2643   5.7160   5.7160

          k =-0.1875 0.1875-0.0625 (   353 PWs)   bands (ev):

    -5.5876   3.7696   4.9290   5.5984

          k =-0.3125 0.3125-0.1875 (   356 PWs)   bands (ev):

    -4.9555   1.5857   4.4473   5.1452

          k =-0.4375 0.4375-0.3125 (   360 PWs)   bands (ev):

    -4.0773  -0.2584   4.2319   4.7462

          k = 0.4375-0.4375 0.5625 (   360 PWs)   bands (ev):

    -3.6439  -0.9392   4.2787   4.5336

          k = 0.3125-0.3125 0.4375 (   357 PWs)   bands (ev):

    -4.3774   0.2861   4.5555   4.5591

          k = 0.1875-0.1875 0.3125 (   357 PWs)   bands (ev):

    -5.2032   2.3008   4.8283   5.0150

          k = 0.0625-0.0625 0.1875 (   344 PWs)   bands (ev):

    -5.7174   4.5132   5.3012   5.4509

          k =-0.0625 0.3125 0.0625 (   354 PWs)   bands (ev):

    -5.4553   3.6180   4.7561   4.8314

          k =-0.1875 0.4375-0.0625 (   357 PWs)   bands (ev):

    -4.9429   2.1406   3.8071   4.5784

          k =-0.3125 0.5625-0.1875 (   361 PWs)   bands (ev):

    -4.1191   0.3274   3.3141   4.1797

          k = 0.5625-0.3125 0.6875 (   368 PWs)   bands (ev):

    -3.3811  -0.8488   3.0283   4.0895

          k = 0.4375-0.1875 0.5625 (   363 PWs)   bands (ev):

    -3.8241  -0.1786   2.9608   4.3663

          k = 0.3125-0.0625 0.4375 (   359 PWs)   bands (ev):

    -4.7011   1.5055   3.2645   4.8610

          k = 0.1875 0.0625 0.3125 (   359 PWs)   bands (ev):

    -5.3284   2.9600   4.3648   5.2251

          k =-0.0625 0.5625 0.0625 (   355 PWs)   bands (ev):

    -4.5509   1.6316   3.6683   3.7869

          k =-0.1875 0.6875-0.0625 (   359 PWs)   bands (ev):

    -3.8166   0.4186   2.9017   3.4490

          k = 0.6875-0.1875 0.8125 (   365 PWs)   bands (ev):

    -2.9432  -0.7482   2.0819   3.4180

          k = 0.5625-0.0625 0.6875 (   367 PWs)   bands (ev):

    -3.0140  -0.6559   1.7401   3.7532

          k = 0.4375 0.0625 0.5625 (   365 PWs)   bands (ev):

    -3.8870   0.2825   2.3261   4.3235

          k = 0.3125 0.1875 0.4375 (   358 PWs)   bands (ev):

    -4.5909   0.9232   3.9136   4.7633

          k =-0.0625 0.8125 0.0625 (   362 PWs)   bands (ev):

    -3.1768  -0.4289   2.9958   3.2054

          k = 0.8125-0.0625 0.9375 (   363 PWs)   bands (ev):

    -2.2889  -1.3979   2.4555   2.9699

          k = 0.6875 0.0625 0.8125 (   369 PWs)   bands (ev):

    -2.3893  -1.2328   1.7476   3.2775

          k = 0.5625 0.1875 0.6875 (   365 PWs)   bands (ev):

    -3.1300  -0.8138   2.2729   3.8641

          k = 0.4375 0.3125 0.5625 (   365 PWs)   bands (ev):

    -3.7243  -0.6537   3.7379   4.4362

          k =-0.0625-0.9375 0.0625 (   362 PWs)   bands (ev):

    -2.3378  -1.4139   2.8610   3.0866

          k =-0.1875-0.8125-0.0625 (   359 PWs)   bands (ev):

    -3.0941  -0.4913   2.6083   3.1263

          k =-0.3125-0.6875-0.1875 (   364 PWs)   bands (ev):

    -3.5575  -0.2192   2.6593   3.7110

          k =-0.0625-0.6875 0.0625 (   358 PWs)   bands (ev):

    -3.9190   0.5963   3.2653   3.4407

          k =-0.1875-0.5625-0.0625 (   356 PWs)   bands (ev):

    -4.4366   1.2988   3.3104   3.9450

          k =-0.0625-0.4375 0.0625 (   351 PWs)   bands (ev):

    -5.0650   2.6490   4.1996   4.2332

          k =-0.1875 0.1875 0.1875 (   359 PWs)   bands (ev):

    -5.4589   3.0600   5.2836   5.2836

          k =-0.3125 0.3125 0.0625 (   360 PWs)   bands (ev):

    -5.0756   2.2246   3.8051   5.2983

          k =-0.4375 0.4375-0.0625 (   362 PWs)   bands (ev):

    -4.3458   0.8760   2.7482   4.8046

          k = 0.4375-0.4375 0.8125 (   367 PWs)   bands (ev):

    -3.4752  -0.5746   2.5913   4.2859

          k = 0.3125-0.3125 0.6875 (   365 PWs)   bands (ev):

    -3.4599  -0.6024   2.8819   3.9760

          k = 0.1875-0.1875 0.5625 (   358 PWs)   bands (ev):

    -4.3285   0.8729   3.4834   3.9538

          k =-0.1875 0.4375 0.1875 (   362 PWs)   bands (ev):

    -4.8246   1.5734   4.2894   4.3636

          k =-0.3125 0.5625 0.0625 (   360 PWs)   bands (ev):

    -4.2120   0.8060   2.8038   4.1713

          k = 0.5625-0.3125 0.9375 (   364 PWs)   bands (ev):

    -3.3427  -0.2785   2.0342   3.6189

          k = 0.4375-0.1875 0.8125 (   369 PWs)   bands (ev):

    -2.8688  -0.8757   2.0338   3.3146

          k = 0.3125-0.0625 0.6875 (   362 PWs)   bands (ev):

    -3.6196   0.1030   2.4496   3.4889

          k =-0.1875 0.6875 0.1875 (   360 PWs)   bands (ev):

    -3.7260   0.1620   2.7738   3.6298

          k = 0.6875-0.1875 1.0625 (   363 PWs)   bands (ev):

    -2.9408  -0.6285   2.2138   2.9661

          k = 0.5625-0.0625 0.9375 (   370 PWs)   bands (ev):

    -2.1536  -1.3710   1.9063   2.4783

          k = 0.4375 0.0625 0.8125 (   367 PWs)   bands (ev):

    -2.7423  -0.8304   1.8960   2.9419

          k =-0.1875-1.0625 0.1875 (   364 PWs)   bands (ev):

    -2.3114  -1.3474   2.0076   3.2942

          k =-0.3125-0.9375 0.0625 (   366 PWs)   bands (ev):

    -2.2131  -1.3793   2.0992   2.6860

          k =-0.1875-0.8125 0.1875 (   362 PWs)   bands (ev):

    -3.0355  -0.5896   2.2655   3.4072

          k =-0.3125 0.3125 0.3125 (   359 PWs)   bands (ev):

    -4.7200   0.8977   4.8768   4.8768

          k =-0.4375 0.4375 0.1875 (   360 PWs)   bands (ev):

    -4.2516   0.3267   3.4395   4.7900

          k = 0.4375-0.4375 1.0625 (   367 PWs)   bands (ev):

    -3.4783  -0.2115   1.9555   4.2235

          k = 0.3125-0.3125 0.9375 (   364 PWs)   bands (ev):

    -2.6772  -0.9823   1.6295   3.6895

          k =-0.3125 0.5625 0.3125 (   368 PWs)   bands (ev):

    -3.9461  -0.2190   3.7633   4.2407

          k = 0.5625-0.3125 1.1875 (   367 PWs)   bands (ev):

    -3.3410  -0.5804   2.4882   3.7792

          k = 0.4375-0.1875 1.0625 (   370 PWs)   bands (ev):

    -2.5419  -1.0502   1.7194   3.0842

          k =-0.3125-1.1875 0.3125 (   363 PWs)   bands (ev):

    -2.9912  -0.8575   2.1090   3.7873

          k =-0.4375 0.4375 0.4375 (   356 PWs)   bands (ev):

    -3.8546  -0.7093   4.6591   4.6591

          k = 0.4375-0.4375 1.3125 (   365 PWs)   bands (ev):

    -3.5131  -0.8848   3.4544   4.3978

     highest occupied level (ev):     5.7160

!    total energy              =     -19.19104447 Ry
     Harris-Foulkes estimate   =     -19.19104447 Ry
     estimated scf accuracy    <          6.6E-09 Ry

     The total energy is the sum of the following terms:

     one-electron contribution =       4.81515737 Ry
     hartree contribution      =       1.14928926 Ry
     xc contribution           =      -8.57435049 Ry
     ewald contribution        =     -16.58114061 Ry

     convergence has been achieved in   6 iterations

     Writing output data file silicon.10.396.save

     init_run     :      0.31s CPU      0.38s WALL (       1 calls)
     electrons    :      1.22s CPU      1.97s WALL (       1 calls)

     Called by init_run:
     wfcinit      :      0.11s CPU      0.15s WALL (       1 calls)
     potinit      :      0.02s CPU      0.02s WALL (       1 calls)

     Called by electrons:
     c_bands      :      0.87s CPU      1.50s WALL (       7 calls)
     sum_band     :      0.21s CPU      0.27s WALL (       7 calls)
     v_of_rho     :      0.07s CPU      0.09s WALL (       7 calls)
     newd         :      0.07s CPU      0.10s WALL (       7 calls)
     mix_rho      :      0.01s CPU      0.01s WALL (       7 calls)

     Called by c_bands:
     init_us_2    :      0.06s CPU      0.06s WALL (     900 calls)
     cegterg      :      0.74s CPU      1.32s WALL (     420 calls)

     Called by sum_band:
     sum_band:bec :      0.00s CPU      0.01s WALL (     420 calls)
     addusdens    :      0.07s CPU      0.09s WALL (       7 calls)

     Called by *egterg:
     h_psi        :      0.55s CPU      0.95s WALL (    1298 calls)
     s_psi        :      0.05s CPU      0.06s WALL (    1298 calls)
     g_psi        :      0.00s CPU      0.00s WALL (     818 calls)
     cdiaghg      :      0.09s CPU      0.14s WALL (    1178 calls)

     Called by h_psi:
     h_psi:pot    :      0.55s CPU      0.94s WALL (    1298 calls)
     h_psi:calbec :      0.09s CPU      0.19s WALL (    1298 calls)
     vloc_psi     :      0.40s CPU      0.69s WALL (    1298 calls)
     add_vuspsi   :      0.06s CPU      0.06s WALL (    1298 calls)

     General routines
     calbec       :      0.11s CPU      0.22s WALL (    1718 calls)
     fft          :      0.06s CPU      0.10s WALL (     112 calls)
     ffts         :      0.00s CPU      0.00s WALL (      14 calls)
     fftw         :      0.38s CPU      0.69s WALL (   11622 calls)
     interpolate  :      0.01s CPU      0.01s WALL (      14 calls)
     davcio       :      0.00s CPU      0.00s WALL (      60 calls)

     Parallel routines
     fft_scatter  :      0.24s CPU      0.56s WALL (   11748 calls)

     PWSCF        :     1.79s CPU         2.66s WALL


   This run was terminated on:  10: 3:26  10Nov2017            

=------------------------------------------------------------------------------=
   JOB DONE.
=------------------------------------------------------------------------------=
