
     Program PHONON v.6.1 (svn rev. 13369) starts on  9Nov2017 at 17:29:23 

     This program is part of the open-source Quantum ESPRESSO suite
     for quantum simulation of materials; please cite
         "P. Giannozzi et al., J. Phys.:Condens. Matter 21 395502 (2009);
          URL http://www.quantum-espresso.org", 
     in publications or presentations arising from this work. More details at
     http://www.quantum-espresso.org/quote

     Parallel version (MPI), running on     4 processors
     R & G space division:  proc/nbgrp/npool/nimage =       4

     Reading data from directory:
     ./silicon.10.398.save

   Info: using nr1, nr2, nr3 values from input

   Info: using nr1, nr2, nr3 values from input

     IMPORTANT: XC functional enforced from input :
     Exchange-correlation      = SLA  PW   PBE  PBE ( 1  4  3  4 0 0)
     Any further DFT definition will be discarded
     Please, verify this is what you really want


     Parallelization info
     --------------------
     sticks:   dense  smooth     PW     G-vecs:    dense   smooth      PW
     Min          66      66     22                  722      722     152
     Max          67      67     23                  724      724     153
     Sum         265     265     91                 2891     2891     609


     Check: negative/imaginary core charge=   -0.000006    0.000000


     Dynamical matrices for ( 4, 4, 4)  uniform grid of q-points
     (   8q-points):
       N         xq(1)         xq(2)         xq(3) 
       1   0.000000000   0.000000000   0.000000000
       2  -0.250000000   0.250000000  -0.250000000
       3   0.500000000  -0.500000000   0.500000000
       4   0.000000000   0.500000000   0.000000000
       5   0.750000000  -0.250000000   0.750000000
       6   0.500000000   0.000000000   0.500000000
       7   0.000000000  -1.000000000   0.000000000
       8  -0.500000000  -1.000000000   0.000000000

     Calculation of q =    0.0000000   0.0000000   0.0000000

                                                                                

     bravais-lattice index     =            2
     lattice parameter (alat)  =      10.3980  a.u.
     unit-cell volume          =     281.0538 (a.u.)^3
     number of atoms/cell      =            2
     number of atomic types    =            1
     kinetic-energy cut-off    =      18.0000  Ry
     charge density cut-off    =      72.0000  Ry
     convergence threshold     =      1.0E-12
     beta                      =       0.7000
     number of iterations used =            4
     Exchange-correlation      = SLA  PW   PBE  PBE ( 1  4  3  4 0 0)


     celldm(1)=   10.39800  celldm(2)=    0.00000  celldm(3)=    0.00000
     celldm(4)=    0.00000  celldm(5)=    0.00000  celldm(6)=    0.00000

     crystal axes: (cart. coord. in units of alat)
               a(1) = ( -0.5000  0.0000  0.5000 )  
               a(2) = (  0.0000  0.5000  0.5000 )  
               a(3) = ( -0.5000  0.5000  0.0000 )  

     reciprocal axes: (cart. coord. in units 2 pi/alat)
               b(1) = ( -1.0000 -1.0000  1.0000 )  
               b(2) = (  1.0000  1.0000  1.0000 )  
               b(3) = ( -1.0000  1.0000 -1.0000 )  


     Atoms inside the unit cell: 

     Cartesian axes

     site n.  atom      mass           positions (alat units)
        1     Si  28.0860   tau(    1) = (    0.00000    0.00000    0.00000  )
        2     Si  28.0860   tau(    2) = (    0.25000    0.25000    0.25000  )

     Computing dynamical matrix for 
                    q = (   0.0000000   0.0000000   0.0000000 )

     49 Sym.Ops. (with q -> -q+G )


     G cutoff =  197.1843  (    722 G-vectors)     FFT grid: ( 20, 20, 20)
     number of k points=    10

     PseudoPot. # 1 for Si read from file:
     /home/max/quantum_espresso/qe-6.1/pseudo/si_pbe_v1.uspp.F.UPF.txt
     MD5 check sum: a056efeee980c13900f22a371efd63c1
     Pseudo is Ultrasoft + core correction, Zval =  4.0
     Generated by new atomic code, or converted to UPF format
     Using radial grid of  899 points,  6 beta functions with: 
                l(1) =   0
                l(2) =   0
                l(3) =   1
                l(4) =   1
                l(5) =   2
                l(6) =   2
     Q(r) pseudized with  8 coefficients,  rinner =    0.900   0.900   0.900
                                                       0.900   0.900

     Mode symmetry, O_h (m-3m)  point group:


     Electric field:
     Dielectric constant
     Born effective charges in two ways 


     Atomic displacements:
     There are   2 irreducible representations

     Representation     1      3 modes -T_2g G_25' G_5+  To be done

     Representation     2      3 modes -T_1u G_15  G_4-  To be done



     Alpha used in Ewald sum =   0.7000
     PHONON       :     0.41s CPU         0.41s WALL


     Electric Fields Calculation

      iter #   1 total cpu time :     0.8 secs   av.it.:   5.6
      thresh= 1.000E-02 alpha_mix =  0.700 |ddv_scf|^2 =  9.561E-07

      iter #   2 total cpu time :     1.0 secs   av.it.:   9.9
      thresh= 9.778E-05 alpha_mix =  0.700 |ddv_scf|^2 =  6.233E-08

      iter #   3 total cpu time :     1.3 secs   av.it.:   9.8
      thresh= 2.497E-05 alpha_mix =  0.700 |ddv_scf|^2 =  4.950E-09

      iter #   4 total cpu time :     1.5 secs   av.it.:   9.0
      thresh= 7.036E-06 alpha_mix =  0.700 |ddv_scf|^2 =  2.999E-11

      iter #   5 total cpu time :     1.7 secs   av.it.:   9.1
      thresh= 5.476E-07 alpha_mix =  0.700 |ddv_scf|^2 =  1.546E-14

     End of electric fields calculation

          Dielectric constant in cartesian axis 

          (      14.015289171       0.000000000       0.000000000 )
          (       0.000000000      14.015289171      -0.000000000 )
          (       0.000000000       0.000000000      14.015289171 )

          Effective charges (d Force / dE) in cartesian axis

           atom      1   Si 
      Ex  (       -0.03359       -0.00000        0.00000 )
      Ey  (       -0.00000       -0.03359       -0.00000 )
      Ez  (        0.00000       -0.00000       -0.03359 )
           atom      2   Si 
      Ex  (       -0.03359        0.00000       -0.00000 )
      Ey  (        0.00000       -0.03359       -0.00000 )
      Ez  (       -0.00000        0.00000       -0.03359 )


     Representation #  1 modes #   1  2  3

     Self-consistent Calculation

      iter #   1 total cpu time :     2.1 secs   av.it.:   4.9
      thresh= 1.000E-02 alpha_mix =  0.700 |ddv_scf|^2 =  1.851E-07

      iter #   2 total cpu time :     2.2 secs   av.it.:  10.0
      thresh= 4.303E-05 alpha_mix =  0.700 |ddv_scf|^2 =  1.023E-08

      iter #   3 total cpu time :     2.4 secs   av.it.:   9.5
      thresh= 1.011E-05 alpha_mix =  0.700 |ddv_scf|^2 =  7.070E-10

      iter #   4 total cpu time :     2.6 secs   av.it.:   9.1
      thresh= 2.659E-06 alpha_mix =  0.700 |ddv_scf|^2 =  1.820E-12

      iter #   5 total cpu time :     2.8 secs   av.it.:   9.4
      thresh= 1.349E-07 alpha_mix =  0.700 |ddv_scf|^2 =  1.538E-14

     End of self-consistent calculation

     Convergence has been achieved 


     Representation #  2 modes #   4  5  6

     Self-consistent Calculation

      iter #   1 total cpu time :     3.0 secs   av.it.:   5.0
      thresh= 1.000E-02 alpha_mix =  0.700 |ddv_scf|^2 =  1.923E-07

      iter #   2 total cpu time :     3.4 secs   av.it.:   9.6
      thresh= 4.385E-05 alpha_mix =  0.700 |ddv_scf|^2 =  1.587E-08

      iter #   3 total cpu time :     3.5 secs   av.it.:   9.2
      thresh= 1.260E-05 alpha_mix =  0.700 |ddv_scf|^2 =  9.528E-10

      iter #   4 total cpu time :     3.7 secs   av.it.:   9.5
      thresh= 3.087E-06 alpha_mix =  0.700 |ddv_scf|^2 =  5.547E-12

      iter #   5 total cpu time :     3.9 secs   av.it.:   9.1
      thresh= 2.355E-07 alpha_mix =  0.700 |ddv_scf|^2 =  5.078E-15

     End of self-consistent calculation

     Convergence has been achieved 

     Number of q in the star =    1
     List of q in the star:
          1   0.000000000   0.000000000   0.000000000

          Dielectric constant in cartesian axis 

          (      14.015289171       0.000000000       0.000000000 )
          (       0.000000000      14.015289171      -0.000000000 )
          (       0.000000000       0.000000000      14.015289171 )

          Effective charges (d Force / dE) in cartesian axis

           atom      1   Si 
      Ex  (       -0.03359       -0.00000        0.00000 )
      Ey  (       -0.00000       -0.03359       -0.00000 )
      Ez  (        0.00000       -0.00000       -0.03359 )
           atom      2   Si 
      Ex  (       -0.03359        0.00000       -0.00000 )
      Ey  (        0.00000       -0.03359       -0.00000 )
      Ez  (       -0.00000        0.00000       -0.03359 )

          Effective charges (d P / du) in cartesian axis 

           atom      1   Si 
      Px  (       -0.07583        0.00000       -0.00000 )
      Py  (        0.00000       -0.07583        0.00000 )
      Pz  (       -0.00000       -0.00000       -0.07583 )
           atom      2   Si 
      Px  (       -0.07583       -0.00000       -0.00000 )
      Py  (        0.00000       -0.07583       -0.00000 )
      Pz  (       -0.00000       -0.00000       -0.07583 )

     Diagonalizing the dynamical matrix

     q = (    0.000000000   0.000000000   0.000000000 ) 

 **************************************************************************
     freq (    1) =       1.793816 [THz] =      59.835264 [cm-1]
     freq (    2) =       1.793816 [THz] =      59.835264 [cm-1]
     freq (    3) =       1.793816 [THz] =      59.835264 [cm-1]
     freq (    4) =      15.578961 [THz] =     519.658191 [cm-1]
     freq (    5) =      15.578961 [THz] =     519.658191 [cm-1]
     freq (    6) =      15.578961 [THz] =     519.658191 [cm-1]
 **************************************************************************

     Mode symmetry, O_h (m-3m)  point group:

     freq (  1 -  3) =         59.8  [cm-1]   --> T_1u G_15  G_4- I  
     freq (  4 -  6) =        519.7  [cm-1]   --> T_2g G_25' G_5+ R  

     Calculation of q =   -0.2500000   0.2500000  -0.2500000

   Info: using nr1, nr2, nr3 values from input

   Info: using nr1, nr2, nr3 values from input

     Parallelization info
     --------------------
     sticks:   dense  smooth     PW     G-vecs:    dense   smooth      PW
     Min          66      66     24                  722      722     161
     Max          67      67     25                  724      724     162
     Sum         265     265     97                 2891     2891     645



     bravais-lattice index     =            2
     lattice parameter (alat)  =      10.3980  a.u.
     unit-cell volume          =     281.0538 (a.u.)^3
     number of atoms/cell      =            2
     number of atomic types    =            1
     number of electrons       =         8.00
     number of Kohn-Sham states=            4
     kinetic-energy cutoff     =      18.0000  Ry
     charge density cutoff     =      72.0000  Ry
     Exchange-correlation      = SLA  PW   PBE  PBE ( 1  4  3  4 0 0)

     celldm(1)=  10.398000  celldm(2)=   0.000000  celldm(3)=   0.000000
     celldm(4)=   0.000000  celldm(5)=   0.000000  celldm(6)=   0.000000

     crystal axes: (cart. coord. in units of alat)
               a(1) = (  -0.500000   0.000000   0.500000 )  
               a(2) = (   0.000000   0.500000   0.500000 )  
               a(3) = (  -0.500000   0.500000   0.000000 )  

     reciprocal axes: (cart. coord. in units 2 pi/alat)
               b(1) = ( -1.000000 -1.000000  1.000000 )  
               b(2) = (  1.000000  1.000000  1.000000 )  
               b(3) = ( -1.000000  1.000000 -1.000000 )  


     PseudoPot. # 1 for Si read from file:
     /home/max/quantum_espresso/qe-6.1/pseudo/si_pbe_v1.uspp.F.UPF.txt
     MD5 check sum: a056efeee980c13900f22a371efd63c1
     Pseudo is Ultrasoft + core correction, Zval =  4.0
     Generated by new atomic code, or converted to UPF format
     Using radial grid of  899 points,  6 beta functions with: 
                l(1) =   0
                l(2) =   0
                l(3) =   1
                l(4) =   1
                l(5) =   2
                l(6) =   2
     Q(r) pseudized with  8 coefficients,  rinner =    0.900   0.900   0.900
                                                       0.900   0.900

     atomic species   valence    mass     pseudopotential
        Si             4.00    28.08600     Si( 1.00)

     48 Sym. Ops., with inversion, found



   Cartesian axes

     site n.     atom                  positions (alat units)
         1           Si  tau(   1) = (   0.0000000   0.0000000   0.0000000  )
         2           Si  tau(   2) = (   0.2500000   0.2500000   0.2500000  )

     number of k points=   120

     Number of k-points >= 100: set verbosity='high' to print them.

     Dense  grid:     2891 G-vectors     FFT dimensions: (  20,  20,  20)

     Estimated max dynamical RAM per process >       0.33MB

     Estimated total allocated dynamical RAM >       1.33MB

     Check: negative/imaginary core charge=   -0.000006    0.000000

     The potential is recalculated from file :
     ./_ph0/silicon.10.398.save/charge-density.dat

     Starting wfc are    8 atomic wfcs

     Band Structure Calculation
     Davidson diagonalization with overlap

     ethr =  1.25E-10,  avg # of iterations = 11.7

     total cpu time spent up to now is        0.8 secs

     End of band structure calculation

     Number of k-points >= 100: set verbosity='high' to print the bands.

     highest occupied level (ev):     5.5158

     Writing output data file silicon.10.398.save

                                                                                

     bravais-lattice index     =            2
     lattice parameter (alat)  =      10.3980  a.u.
     unit-cell volume          =     281.0538 (a.u.)^3
     number of atoms/cell      =            2
     number of atomic types    =            1
     kinetic-energy cut-off    =      18.0000  Ry
     charge density cut-off    =      72.0000  Ry
     convergence threshold     =      1.0E-12
     beta                      =       0.7000
     number of iterations used =            4
     Exchange-correlation      = SLA  PW   PBE  PBE ( 1  4  3  4 0 0)


     celldm(1)=   10.39800  celldm(2)=    0.00000  celldm(3)=    0.00000
     celldm(4)=    0.00000  celldm(5)=    0.00000  celldm(6)=    0.00000

     crystal axes: (cart. coord. in units of alat)
               a(1) = ( -0.5000  0.0000  0.5000 )  
               a(2) = (  0.0000  0.5000  0.5000 )  
               a(3) = ( -0.5000  0.5000  0.0000 )  

     reciprocal axes: (cart. coord. in units 2 pi/alat)
               b(1) = ( -1.0000 -1.0000  1.0000 )  
               b(2) = (  1.0000  1.0000  1.0000 )  
               b(3) = ( -1.0000  1.0000 -1.0000 )  


     Atoms inside the unit cell: 

     Cartesian axes

     site n.  atom      mass           positions (alat units)
        1     Si  28.0860   tau(    1) = (    0.00000    0.00000    0.00000  )
        2     Si  28.0860   tau(    2) = (    0.25000    0.25000    0.25000  )

     Computing dynamical matrix for 
                    q = (  -0.2500000   0.2500000  -0.2500000 )

      6 Sym.Ops. (no q -> -q+G )


     G cutoff =  197.1843  (    722 G-vectors)     FFT grid: ( 20, 20, 20)
     number of k points=   120

     PseudoPot. # 1 for Si read from file:
     /home/max/quantum_espresso/qe-6.1/pseudo/si_pbe_v1.uspp.F.UPF.txt
     MD5 check sum: a056efeee980c13900f22a371efd63c1
     Pseudo is Ultrasoft + core correction, Zval =  4.0
     Generated by new atomic code, or converted to UPF format
     Using radial grid of  899 points,  6 beta functions with: 
                l(1) =   0
                l(2) =   0
                l(3) =   1
                l(4) =   1
                l(5) =   2
                l(6) =   2
     Q(r) pseudized with  8 coefficients,  rinner =    0.900   0.900   0.900
                                                       0.900   0.900

     Mode symmetry, C_3v (3m)   point group:


     Atomic displacements:
     There are   4 irreducible representations

     Representation     1      1 modes -A_1  L_1  To be done

     Representation     2      1 modes -A_1  L_1  To be done

     Representation     3      2 modes -E    L_3  To be done

     Representation     4      2 modes -E    L_3  To be done



     Alpha used in Ewald sum =   0.7000
     PHONON       :     4.98s CPU         5.31s WALL



     Representation #  1 mode #   1

     Self-consistent Calculation

      iter #   1 total cpu time :     5.5 secs   av.it.:   5.5
      thresh= 1.000E-02 alpha_mix =  0.700 |ddv_scf|^2 =  2.440E-03

      iter #   2 total cpu time :     5.8 secs   av.it.:   7.5
      thresh= 4.939E-03 alpha_mix =  0.700 |ddv_scf|^2 =  3.705E-02

      iter #   3 total cpu time :     6.0 secs   av.it.:   6.3
      thresh= 1.000E-02 alpha_mix =  0.700 |ddv_scf|^2 =  1.638E-06

      iter #   4 total cpu time :     6.2 secs   av.it.:   8.2
      thresh= 1.280E-04 alpha_mix =  0.700 |ddv_scf|^2 =  9.168E-08

      iter #   5 total cpu time :     6.5 secs   av.it.:   8.1
      thresh= 3.028E-05 alpha_mix =  0.700 |ddv_scf|^2 =  7.099E-09

      iter #   6 total cpu time :     6.8 secs   av.it.:   7.9
      thresh= 8.425E-06 alpha_mix =  0.700 |ddv_scf|^2 =  4.333E-09

      iter #   7 total cpu time :     7.0 secs   av.it.:   6.4
      thresh= 6.583E-06 alpha_mix =  0.700 |ddv_scf|^2 =  1.414E-09

      iter #   8 total cpu time :     7.4 secs   av.it.:   6.9
      thresh= 3.760E-06 alpha_mix =  0.700 |ddv_scf|^2 =  3.948E-11

      iter #   9 total cpu time :     7.6 secs   av.it.:   6.5
      thresh= 6.283E-07 alpha_mix =  0.700 |ddv_scf|^2 =  5.420E-12

      iter #  10 total cpu time :     7.9 secs   av.it.:   6.8
      thresh= 2.328E-07 alpha_mix =  0.700 |ddv_scf|^2 =  1.020E-13

     End of self-consistent calculation

     Convergence has been achieved 


     Representation #  2 mode #   2

     Self-consistent Calculation

      iter #   1 total cpu time :     8.1 secs   av.it.:   5.5
      thresh= 1.000E-02 alpha_mix =  0.700 |ddv_scf|^2 =  2.440E-03

      iter #   2 total cpu time :     8.3 secs   av.it.:   7.5
      thresh= 4.939E-03 alpha_mix =  0.700 |ddv_scf|^2 =  3.705E-02

      iter #   3 total cpu time :     8.5 secs   av.it.:   6.3
      thresh= 1.000E-02 alpha_mix =  0.700 |ddv_scf|^2 =  1.638E-06

      iter #   4 total cpu time :     8.8 secs   av.it.:   8.2
      thresh= 1.280E-04 alpha_mix =  0.700 |ddv_scf|^2 =  9.168E-08

      iter #   5 total cpu time :     9.2 secs   av.it.:   8.1
      thresh= 3.028E-05 alpha_mix =  0.700 |ddv_scf|^2 =  7.099E-09

      iter #   6 total cpu time :     9.5 secs   av.it.:   7.9
      thresh= 8.425E-06 alpha_mix =  0.700 |ddv_scf|^2 =  4.333E-09

      iter #   7 total cpu time :     9.7 secs   av.it.:   6.4
      thresh= 6.583E-06 alpha_mix =  0.700 |ddv_scf|^2 =  1.414E-09

      iter #   8 total cpu time :     9.9 secs   av.it.:   6.9
      thresh= 3.760E-06 alpha_mix =  0.700 |ddv_scf|^2 =  3.948E-11

      iter #   9 total cpu time :    10.2 secs   av.it.:   6.5
      thresh= 6.283E-07 alpha_mix =  0.700 |ddv_scf|^2 =  5.420E-12

      iter #  10 total cpu time :    10.4 secs   av.it.:   6.8
      thresh= 2.328E-07 alpha_mix =  0.700 |ddv_scf|^2 =  1.020E-13

     End of self-consistent calculation

     Convergence has been achieved 


     Representation #  3 modes #   3  4

     Self-consistent Calculation

      iter #   1 total cpu time :    10.8 secs   av.it.:   4.9
      thresh= 1.000E-02 alpha_mix =  0.700 |ddv_scf|^2 =  5.353E-07

      iter #   2 total cpu time :    11.6 secs   av.it.:   9.5
      thresh= 7.316E-05 alpha_mix =  0.700 |ddv_scf|^2 =  4.011E-08

      iter #   3 total cpu time :    12.1 secs   av.it.:   9.3
      thresh= 2.003E-05 alpha_mix =  0.700 |ddv_scf|^2 =  3.451E-09

      iter #   4 total cpu time :    12.7 secs   av.it.:   9.0
      thresh= 5.874E-06 alpha_mix =  0.700 |ddv_scf|^2 =  1.140E-11

      iter #   5 total cpu time :    13.4 secs   av.it.:   9.2
      thresh= 3.377E-07 alpha_mix =  0.700 |ddv_scf|^2 =  5.092E-13

     End of self-consistent calculation

     Convergence has been achieved 


     Representation #  4 modes #   5  6

     Self-consistent Calculation

      iter #   1 total cpu time :    13.8 secs   av.it.:   5.0
      thresh= 1.000E-02 alpha_mix =  0.700 |ddv_scf|^2 =  5.352E-07

      iter #   2 total cpu time :    14.4 secs   av.it.:   9.7
      thresh= 7.315E-05 alpha_mix =  0.700 |ddv_scf|^2 =  4.006E-08

      iter #   3 total cpu time :    15.0 secs   av.it.:   9.4
      thresh= 2.002E-05 alpha_mix =  0.700 |ddv_scf|^2 =  3.447E-09

      iter #   4 total cpu time :    15.7 secs   av.it.:   9.1
      thresh= 5.871E-06 alpha_mix =  0.700 |ddv_scf|^2 =  1.141E-11

      iter #   5 total cpu time :    16.3 secs   av.it.:   9.2
      thresh= 3.377E-07 alpha_mix =  0.700 |ddv_scf|^2 =  5.095E-13

     End of self-consistent calculation

     Convergence has been achieved 

     Number of q in the star =    8
     List of q in the star:
          1  -0.250000000   0.250000000  -0.250000000
          2   0.250000000  -0.250000000  -0.250000000
          3   0.250000000  -0.250000000   0.250000000
          4   0.250000000   0.250000000   0.250000000
          5  -0.250000000  -0.250000000  -0.250000000
          6  -0.250000000  -0.250000000   0.250000000
          7  -0.250000000   0.250000000   0.250000000
          8   0.250000000   0.250000000  -0.250000000

     Diagonalizing the dynamical matrix

     q = (   -0.250000000   0.250000000  -0.250000000 ) 

 **************************************************************************
     freq (    1) =       3.413361 [THz] =     113.857462 [cm-1]
     freq (    2) =       3.413361 [THz] =     113.857462 [cm-1]
     freq (    3) =       6.860691 [THz] =     228.848011 [cm-1]
     freq (    4) =      14.683375 [THz] =     489.784667 [cm-1]
     freq (    5) =      14.956332 [THz] =     498.889530 [cm-1]
     freq (    6) =      14.956332 [THz] =     498.889530 [cm-1]
 **************************************************************************

     Mode symmetry, C_3v (3m)   point group:

     freq (  1 -  2) =        113.9  [cm-1]   --> E    L_3           
     freq (  3 -  3) =        228.8  [cm-1]   --> A_1  L_1           
     freq (  4 -  4) =        489.8  [cm-1]   --> A_1  L_1           
     freq (  5 -  6) =        498.9  [cm-1]   --> E    L_3           

     Calculation of q =    0.5000000  -0.5000000   0.5000000

   Info: using nr1, nr2, nr3 values from input

   Info: using nr1, nr2, nr3 values from input

     Parallelization info
     --------------------
     sticks:   dense  smooth     PW     G-vecs:    dense   smooth      PW
     Min          66      66     27                  722      722     186
     Max          67      67     28                  724      724     189
     Sum         265     265    109                 2891     2891     749



     bravais-lattice index     =            2
     lattice parameter (alat)  =      10.3980  a.u.
     unit-cell volume          =     281.0538 (a.u.)^3
     number of atoms/cell      =            2
     number of atomic types    =            1
     number of electrons       =         8.00
     number of Kohn-Sham states=            4
     kinetic-energy cutoff     =      18.0000  Ry
     charge density cutoff     =      72.0000  Ry
     Exchange-correlation      = SLA  PW   PBE  PBE ( 1  4  3  4 0 0)

     celldm(1)=  10.398000  celldm(2)=   0.000000  celldm(3)=   0.000000
     celldm(4)=   0.000000  celldm(5)=   0.000000  celldm(6)=   0.000000

     crystal axes: (cart. coord. in units of alat)
               a(1) = (  -0.500000   0.000000   0.500000 )  
               a(2) = (   0.000000   0.500000   0.500000 )  
               a(3) = (  -0.500000   0.500000   0.000000 )  

     reciprocal axes: (cart. coord. in units 2 pi/alat)
               b(1) = ( -1.000000 -1.000000  1.000000 )  
               b(2) = (  1.000000  1.000000  1.000000 )  
               b(3) = ( -1.000000  1.000000 -1.000000 )  


     PseudoPot. # 1 for Si read from file:
     /home/max/quantum_espresso/qe-6.1/pseudo/si_pbe_v1.uspp.F.UPF.txt
     MD5 check sum: a056efeee980c13900f22a371efd63c1
     Pseudo is Ultrasoft + core correction, Zval =  4.0
     Generated by new atomic code, or converted to UPF format
     Using radial grid of  899 points,  6 beta functions with: 
                l(1) =   0
                l(2) =   0
                l(3) =   1
                l(4) =   1
                l(5) =   2
                l(6) =   2
     Q(r) pseudized with  8 coefficients,  rinner =    0.900   0.900   0.900
                                                       0.900   0.900

     atomic species   valence    mass     pseudopotential
        Si             4.00    28.08600     Si( 1.00)

     48 Sym. Ops., with inversion, found



   Cartesian axes

     site n.     atom                  positions (alat units)
         1           Si  tau(   1) = (   0.0000000   0.0000000   0.0000000  )
         2           Si  tau(   2) = (   0.2500000   0.2500000   0.2500000  )

     number of k points=    60
                       cart. coord. in units 2pi/alat
        k(    1) = (  -0.1250000   0.1250000   0.1250000), wk =   0.0468750
        k(    2) = (   0.3750000  -0.3750000   0.6250000), wk =   0.0000000
        k(    3) = (  -0.3750000   0.3750000  -0.1250000), wk =   0.0468750
        k(    4) = (   0.1250000  -0.1250000   0.3750000), wk =   0.0000000
        k(    5) = (   0.3750000  -0.3750000   0.6250000), wk =   0.0468750
        k(    6) = (   0.8750000  -0.8750000   1.1250000), wk =   0.0000000
        k(    7) = (   0.1250000  -0.1250000   0.3750000), wk =   0.0468750
        k(    8) = (   0.6250000  -0.6250000   0.8750000), wk =   0.0000000
        k(    9) = (  -0.1250000   0.6250000   0.1250000), wk =   0.0937500
        k(   10) = (   0.3750000   0.1250000   0.6250000), wk =   0.0000000
        k(   11) = (   0.6250000  -0.1250000   0.8750000), wk =   0.0937500
        k(   12) = (   1.1250000  -0.6250000   1.3750000), wk =   0.0000000
        k(   13) = (   0.3750000   0.1250000   0.6250000), wk =   0.0937500
        k(   14) = (   0.8750000  -0.3750000   1.1250000), wk =   0.0000000
        k(   15) = (  -0.1250000  -0.8750000   0.1250000), wk =   0.0937500
        k(   16) = (   0.3750000  -1.3750000   0.6250000), wk =   0.0000000
        k(   17) = (  -0.3750000   0.3750000   0.3750000), wk =   0.0468750
        k(   18) = (   0.1250000  -0.1250000   0.8750000), wk =   0.0000000
        k(   19) = (   0.3750000  -0.3750000   1.1250000), wk =   0.0468750
        k(   20) = (   0.8750000  -0.8750000   1.6250000), wk =   0.0000000
        k(   21) = (   0.1250000  -0.1250000   0.1250000), wk =   0.0156250
        k(   22) = (   0.6250000  -0.6250000   0.6250000), wk =   0.0000000
        k(   23) = (  -0.3750000  -0.3750000  -0.1250000), wk =   0.0937500
        k(   24) = (   0.1250000  -0.8750000   0.3750000), wk =   0.0000000
        k(   25) = (  -0.1250000  -0.3750000   0.3750000), wk =   0.0468750
        k(   26) = (   0.3750000  -0.8750000   0.8750000), wk =   0.0000000
        k(   27) = (   0.3750000   0.3750000   0.6250000), wk =   0.0937500
        k(   28) = (   0.8750000  -0.1250000   1.1250000), wk =   0.0000000
        k(   29) = (   0.6250000   0.3750000  -0.3750000), wk =   0.0468750
        k(   30) = (   1.1250000  -0.1250000   0.1250000), wk =   0.0000000
        k(   31) = (   0.1250000   0.1250000   0.3750000), wk =   0.0937500
        k(   32) = (   0.6250000  -0.3750000   0.8750000), wk =   0.0000000
        k(   33) = (   0.3750000   0.1250000  -0.1250000), wk =   0.0468750
        k(   34) = (   0.8750000  -0.3750000   0.3750000), wk =   0.0000000
        k(   35) = (  -0.1250000  -0.6250000  -0.1250000), wk =   0.0468750
        k(   36) = (   0.3750000  -1.1250000   0.3750000), wk =   0.0000000
        k(   37) = (   0.1250000  -0.6250000   0.1250000), wk =   0.0468750
        k(   38) = (   0.6250000  -1.1250000   0.6250000), wk =   0.0000000
        k(   39) = (   0.6250000   0.1250000   0.8750000), wk =   0.0937500
        k(   40) = (   1.1250000  -0.3750000   1.3750000), wk =   0.0000000
        k(   41) = (  -0.8750000   0.1250000   0.6250000), wk =   0.0937500
        k(   42) = (  -0.3750000  -0.3750000   1.1250000), wk =   0.0000000
        k(   43) = (   0.8750000   0.1250000  -0.6250000), wk =   0.0937500
        k(   44) = (   1.3750000  -0.3750000  -0.1250000), wk =   0.0000000
        k(   45) = (   0.3750000  -0.1250000   0.6250000), wk =   0.0937500
        k(   46) = (   0.8750000  -0.6250000   1.1250000), wk =   0.0000000
        k(   47) = (  -0.6250000  -0.1250000   0.3750000), wk =   0.0937500
        k(   48) = (  -0.1250000  -0.6250000   0.8750000), wk =   0.0000000
        k(   49) = (   0.6250000  -0.1250000  -0.3750000), wk =   0.0937500
        k(   50) = (   1.1250000  -0.6250000   0.1250000), wk =   0.0000000
        k(   51) = (  -0.1250000   0.8750000  -0.1250000), wk =   0.0468750
        k(   52) = (   0.3750000   0.3750000   0.3750000), wk =   0.0000000
        k(   53) = (   0.1250000   0.8750000   0.1250000), wk =   0.0468750
        k(   54) = (   0.6250000   0.3750000   0.6250000), wk =   0.0000000
        k(   55) = (   0.3750000  -0.3750000   0.3750000), wk =   0.0156250
        k(   56) = (   0.8750000  -0.8750000   0.8750000), wk =   0.0000000
        k(   57) = (   0.3750000   0.3750000   1.1250000), wk =   0.0937500
        k(   58) = (   0.8750000  -0.1250000   1.6250000), wk =   0.0000000
        k(   59) = (   1.1250000   0.3750000  -0.3750000), wk =   0.0468750
        k(   60) = (   1.6250000  -0.1250000   0.1250000), wk =   0.0000000

     Dense  grid:     2891 G-vectors     FFT dimensions: (  20,  20,  20)

     Estimated max dynamical RAM per process >       0.33MB

     Estimated total allocated dynamical RAM >       1.33MB

     Check: negative/imaginary core charge=   -0.000006    0.000000

     The potential is recalculated from file :
     ./_ph0/silicon.10.398.save/charge-density.dat

     Starting wfc are    8 atomic wfcs

     Band Structure Calculation
     Davidson diagonalization with overlap

     ethr =  1.25E-10,  avg # of iterations = 11.7

     total cpu time spent up to now is        1.3 secs

     End of band structure calculation

          k =-0.1250 0.1250 0.1250 (   347 PWs)   bands (ev):

    -5.6983   4.2055   5.5158   5.5158

          k = 0.3750-0.3750 0.6250 (   364 PWs)   bands (ev):

    -3.5814  -0.7879   3.5766   4.2842

          k =-0.3750 0.3750-0.1250 (   356 PWs)   bands (ev):

    -4.6914   1.2441   3.5668   5.0388

          k = 0.1250-0.1250 0.3750 (   358 PWs)   bands (ev):

    -5.1804   2.5951   4.5287   4.5816

          k = 0.3750-0.3750 0.6250 (   364 PWs)   bands (ev):

    -3.5814  -0.7879   3.5766   4.2842

          k = 0.8750-0.8750 1.1250 (   347 PWs)   bands (ev):

    -5.6983   4.2055   5.5158   5.5158

          k = 0.1250-0.1250 0.3750 (   358 PWs)   bands (ev):

    -5.1804   2.5951   4.5287   4.5816

          k = 0.6250-0.6250 0.8750 (   356 PWs)   bands (ev):

    -4.6914   1.2441   3.5668   5.0388

          k =-0.1250 0.6250 0.1250 (   357 PWs)   bands (ev):

    -4.1682   0.8894   3.2294   3.6697

          k = 0.3750 0.1250 0.6250 (   362 PWs)   bands (ev):

    -3.7633   0.0445   2.5975   3.9410

          k = 0.6250-0.1250 0.8750 (   368 PWs)   bands (ev):

    -2.5658  -1.0439   1.9130   2.9631

          k = 1.1250-0.6250 1.3750 (   356 PWs)   bands (ev):

    -4.6914   1.2441   3.5668   5.0388

          k = 0.3750 0.1250 0.6250 (   362 PWs)   bands (ev):

    -3.7633   0.0445   2.5975   3.9410

          k = 0.8750-0.3750 1.1250 (   357 PWs)   bands (ev):

    -4.1682   0.8894   3.2294   3.6697

          k =-0.1250-0.8750 0.1250 (   362 PWs)   bands (ev):

    -2.7243  -0.9508   2.5061   3.2104

          k = 0.3750-1.3750 0.6250 (   364 PWs)   bands (ev):

    -3.5814  -0.7879   3.5766   4.2842

          k =-0.3750 0.3750 0.3750 (   359 PWs)   bands (ev):

    -4.2696  -0.0126   4.7377   4.7377

          k = 0.1250-0.1250 0.8750 (   362 PWs)   bands (ev):

    -2.7243  -0.9508   2.5061   3.2104

          k = 0.3750-0.3750 1.1250 (   365 PWs)   bands (ev):

    -3.0944  -0.7284   1.9621   3.9748

          k = 0.8750-0.8750 1.6250 (   357 PWs)   bands (ev):

    -4.1682   0.8894   3.2294   3.6697

          k = 0.1250-0.1250 0.1250 (   347 PWs)   bands (ev):

    -5.6983   4.2055   5.5158   5.5158

          k = 0.6250-0.6250 0.6250 (   359 PWs)   bands (ev):

    -4.2696  -0.0126   4.7377   4.7377

          k =-0.3750-0.3750-0.1250 (   356 PWs)   bands (ev):

    -4.6914   1.2441   3.5668   5.0388

          k = 0.1250-0.8750 0.3750 (   368 PWs)   bands (ev):

    -2.5658  -1.0439   1.9130   2.9631

          k =-0.1250-0.3750 0.3750 (   356 PWs)   bands (ev):

    -4.6914   1.2441   3.5668   5.0388

          k = 0.3750-0.8750 0.8750 (   357 PWs)   bands (ev):

    -4.1682   0.8894   3.2294   3.6697

          k = 0.3750 0.3750 0.6250 (   364 PWs)   bands (ev):

    -3.5814  -0.7879   3.5766   4.2842

          k = 0.8750-0.1250 1.1250 (   362 PWs)   bands (ev):

    -2.7243  -0.9508   2.5061   3.2104

          k = 0.6250 0.3750-0.3750 (   364 PWs)   bands (ev):

    -3.5814  -0.7879   3.5766   4.2842

          k = 1.1250-0.1250 0.1250 (   362 PWs)   bands (ev):

    -2.7243  -0.9508   2.5061   3.2104

          k = 0.1250 0.1250 0.3750 (   358 PWs)   bands (ev):

    -5.1804   2.5951   4.5287   4.5816

          k = 0.6250-0.3750 0.8750 (   362 PWs)   bands (ev):

    -3.7633   0.0445   2.5975   3.9410

          k = 0.3750 0.1250-0.1250 (   358 PWs)   bands (ev):

    -5.1804   2.5951   4.5287   4.5816

          k = 0.8750-0.3750 0.3750 (   365 PWs)   bands (ev):

    -3.0944  -0.7284   1.9621   3.9748

          k =-0.1250-0.6250-0.1250 (   357 PWs)   bands (ev):

    -4.1682   0.8894   3.2294   3.6697

          k = 0.3750-1.1250 0.3750 (   365 PWs)   bands (ev):

    -3.0944  -0.7284   1.9621   3.9748

          k = 0.1250-0.6250 0.1250 (   357 PWs)   bands (ev):

    -4.1682   0.8894   3.2294   3.6697

          k = 0.6250-1.1250 0.6250 (   356 PWs)   bands (ev):

    -4.6914   1.2441   3.5668   5.0388

          k = 0.6250 0.1250 0.8750 (   368 PWs)   bands (ev):

    -2.5658  -1.0439   1.9130   2.9631

          k = 1.1250-0.3750 1.3750 (   362 PWs)   bands (ev):

    -3.7633   0.0445   2.5975   3.9410

          k =-0.8750 0.1250 0.6250 (   368 PWs)   bands (ev):

    -2.5658  -1.0439   1.9130   2.9631

          k =-0.3750-0.3750 1.1250 (   365 PWs)   bands (ev):

    -3.0944  -0.7284   1.9621   3.9748

          k = 0.8750 0.1250-0.6250 (   368 PWs)   bands (ev):

    -2.5658  -1.0439   1.9130   2.9631

          k = 1.3750-0.3750-0.1250 (   362 PWs)   bands (ev):

    -3.7633   0.0445   2.5975   3.9410

          k = 0.3750-0.1250 0.6250 (   362 PWs)   bands (ev):

    -3.7633   0.0445   2.5975   3.9410

          k = 0.8750-0.6250 1.1250 (   358 PWs)   bands (ev):

    -5.1804   2.5951   4.5287   4.5816

          k =-0.6250-0.1250 0.3750 (   362 PWs)   bands (ev):

    -3.7633   0.0445   2.5975   3.9410

          k =-0.1250-0.6250 0.8750 (   368 PWs)   bands (ev):

    -2.5658  -1.0439   1.9130   2.9631

          k = 0.6250-0.1250-0.3750 (   362 PWs)   bands (ev):

    -3.7633   0.0445   2.5975   3.9410

          k = 1.1250-0.6250 0.1250 (   368 PWs)   bands (ev):

    -2.5658  -1.0439   1.9130   2.9631

          k =-0.1250 0.8750-0.1250 (   362 PWs)   bands (ev):

    -2.7243  -0.9508   2.5061   3.2104

          k = 0.3750 0.3750 0.3750 (   359 PWs)   bands (ev):

    -4.2696  -0.0126   4.7377   4.7377

          k = 0.1250 0.8750 0.1250 (   362 PWs)   bands (ev):

    -2.7243  -0.9508   2.5061   3.2104

          k = 0.6250 0.3750 0.6250 (   364 PWs)   bands (ev):

    -3.5814  -0.7879   3.5766   4.2842

          k = 0.3750-0.3750 0.3750 (   359 PWs)   bands (ev):

    -4.2696  -0.0126   4.7377   4.7377

          k = 0.8750-0.8750 0.8750 (   347 PWs)   bands (ev):

    -5.6983   4.2055   5.5158   5.5158

          k = 0.3750 0.3750 1.1250 (   365 PWs)   bands (ev):

    -3.0944  -0.7284   1.9621   3.9748

          k = 0.8750-0.1250 1.6250 (   368 PWs)   bands (ev):

    -2.5658  -1.0439   1.9130   2.9631

          k = 1.1250 0.3750-0.3750 (   365 PWs)   bands (ev):

    -3.0944  -0.7284   1.9621   3.9748

          k = 1.6250-0.1250 0.1250 (   358 PWs)   bands (ev):

    -5.1804   2.5951   4.5287   4.5816

     highest occupied level (ev):     5.5158

     Writing output data file silicon.10.398.save

                                                                                

     bravais-lattice index     =            2
     lattice parameter (alat)  =      10.3980  a.u.
     unit-cell volume          =     281.0538 (a.u.)^3
     number of atoms/cell      =            2
     number of atomic types    =            1
     kinetic-energy cut-off    =      18.0000  Ry
     charge density cut-off    =      72.0000  Ry
     convergence threshold     =      1.0E-12
     beta                      =       0.7000
     number of iterations used =            4
     Exchange-correlation      = SLA  PW   PBE  PBE ( 1  4  3  4 0 0)


     celldm(1)=   10.39800  celldm(2)=    0.00000  celldm(3)=    0.00000
     celldm(4)=    0.00000  celldm(5)=    0.00000  celldm(6)=    0.00000

     crystal axes: (cart. coord. in units of alat)
               a(1) = ( -0.5000  0.0000  0.5000 )  
               a(2) = (  0.0000  0.5000  0.5000 )  
               a(3) = ( -0.5000  0.5000  0.0000 )  

     reciprocal axes: (cart. coord. in units 2 pi/alat)
               b(1) = ( -1.0000 -1.0000  1.0000 )  
               b(2) = (  1.0000  1.0000  1.0000 )  
               b(3) = ( -1.0000  1.0000 -1.0000 )  


     Atoms inside the unit cell: 

     Cartesian axes

     site n.  atom      mass           positions (alat units)
        1     Si  28.0860   tau(    1) = (    0.00000    0.00000    0.00000  )
        2     Si  28.0860   tau(    2) = (    0.25000    0.25000    0.25000  )

     Computing dynamical matrix for 
                    q = (   0.5000000  -0.5000000   0.5000000 )

     13 Sym.Ops. (with q -> -q+G )


     G cutoff =  197.1843  (    722 G-vectors)     FFT grid: ( 20, 20, 20)
     number of k points=    60

     PseudoPot. # 1 for Si read from file:
     /home/max/quantum_espresso/qe-6.1/pseudo/si_pbe_v1.uspp.F.UPF.txt
     MD5 check sum: a056efeee980c13900f22a371efd63c1
     Pseudo is Ultrasoft + core correction, Zval =  4.0
     Generated by new atomic code, or converted to UPF format
     Using radial grid of  899 points,  6 beta functions with: 
                l(1) =   0
                l(2) =   0
                l(3) =   1
                l(4) =   1
                l(5) =   2
                l(6) =   2
     Q(r) pseudized with  8 coefficients,  rinner =    0.900   0.900   0.900
                                                       0.900   0.900


     Atomic displacements:
     There are   4 irreducible representations

     Representation     1      1 modes -  To be done

     Representation     2      1 modes -  To be done

     Representation     3      2 modes -  To be done

     Representation     4      2 modes -  To be done



     Alpha used in Ewald sum =   0.7000
     PHONON       :    15.86s CPU        17.00s WALL



     Representation #  1 mode #   1

     Self-consistent Calculation

      iter #   1 total cpu time :    17.3 secs   av.it.:   4.8
      thresh= 1.000E-02 alpha_mix =  0.700 |ddv_scf|^2 =  2.447E-05

      iter #   2 total cpu time :    17.4 secs   av.it.:   8.4
      thresh= 4.947E-04 alpha_mix =  0.700 |ddv_scf|^2 =  2.221E-05

      iter #   3 total cpu time :    17.5 secs   av.it.:   7.5
      thresh= 4.713E-04 alpha_mix =  0.700 |ddv_scf|^2 =  3.762E-08

      iter #   4 total cpu time :    17.7 secs   av.it.:   7.4
      thresh= 1.939E-05 alpha_mix =  0.700 |ddv_scf|^2 =  4.058E-10

      iter #   5 total cpu time :    17.8 secs   av.it.:   7.1
      thresh= 2.015E-06 alpha_mix =  0.700 |ddv_scf|^2 =  1.617E-12

      iter #   6 total cpu time :    17.9 secs   av.it.:   7.7
      thresh= 1.272E-07 alpha_mix =  0.700 |ddv_scf|^2 =  1.241E-13

     End of self-consistent calculation

     Convergence has been achieved 


     Representation #  2 mode #   2

     Self-consistent Calculation

      iter #   1 total cpu time :    18.1 secs   av.it.:   5.7
      thresh= 1.000E-02 alpha_mix =  0.700 |ddv_scf|^2 =  3.668E-04

      iter #   2 total cpu time :    18.2 secs   av.it.:   8.3
      thresh= 1.915E-03 alpha_mix =  0.700 |ddv_scf|^2 =  1.125E-03

      iter #   3 total cpu time :    18.3 secs   av.it.:   7.1
      thresh= 3.354E-03 alpha_mix =  0.700 |ddv_scf|^2 =  2.246E-07

      iter #   4 total cpu time :    18.5 secs   av.it.:   8.1
      thresh= 4.739E-05 alpha_mix =  0.700 |ddv_scf|^2 =  2.180E-08

      iter #   5 total cpu time :    18.6 secs   av.it.:   8.0
      thresh= 1.477E-05 alpha_mix =  0.700 |ddv_scf|^2 =  5.350E-10

      iter #   6 total cpu time :    18.8 secs   av.it.:   8.3
      thresh= 2.313E-06 alpha_mix =  0.700 |ddv_scf|^2 =  4.541E-12

      iter #   7 total cpu time :    18.9 secs   av.it.:   7.2
      thresh= 2.131E-07 alpha_mix =  0.700 |ddv_scf|^2 =  6.128E-13

     End of self-consistent calculation

     Convergence has been achieved 


     Representation #  3 modes #   3  4

     Self-consistent Calculation

      iter #   1 total cpu time :    19.3 secs   av.it.:   4.7
      thresh= 1.000E-02 alpha_mix =  0.700 |ddv_scf|^2 =  3.410E-07

      iter #   2 total cpu time :    19.6 secs   av.it.:   9.0
      thresh= 5.840E-05 alpha_mix =  0.700 |ddv_scf|^2 =  2.939E-08

      iter #   3 total cpu time :    19.9 secs   av.it.:   8.3
      thresh= 1.714E-05 alpha_mix =  0.700 |ddv_scf|^2 =  5.129E-10

      iter #   4 total cpu time :    20.2 secs   av.it.:   8.8
      thresh= 2.265E-06 alpha_mix =  0.700 |ddv_scf|^2 =  6.445E-12

      iter #   5 total cpu time :    20.4 secs   av.it.:   8.7
      thresh= 2.539E-07 alpha_mix =  0.700 |ddv_scf|^2 =  3.573E-14

     End of self-consistent calculation

     Convergence has been achieved 


     Representation #  4 modes #   5  6

     Self-consistent Calculation

      iter #   1 total cpu time :    20.7 secs   av.it.:   4.9
      thresh= 1.000E-02 alpha_mix =  0.700 |ddv_scf|^2 =  9.414E-07

      iter #   2 total cpu time :    21.0 secs   av.it.:   9.5
      thresh= 9.702E-05 alpha_mix =  0.700 |ddv_scf|^2 =  7.483E-08

      iter #   3 total cpu time :    21.4 secs   av.it.:   9.3
      thresh= 2.736E-05 alpha_mix =  0.700 |ddv_scf|^2 =  4.463E-09

      iter #   4 total cpu time :    21.7 secs   av.it.:   8.5
      thresh= 6.681E-06 alpha_mix =  0.700 |ddv_scf|^2 =  6.509E-12

      iter #   5 total cpu time :    22.0 secs   av.it.:   8.8
      thresh= 2.551E-07 alpha_mix =  0.700 |ddv_scf|^2 =  2.547E-14

     End of self-consistent calculation

     Convergence has been achieved 

     Number of q in the star =    4
     List of q in the star:
          1   0.500000000  -0.500000000   0.500000000
          2   0.500000000   0.500000000   0.500000000
          3  -0.500000000   0.500000000   0.500000000
          4   0.500000000   0.500000000  -0.500000000

     Diagonalizing the dynamical matrix

     q = (    0.500000000  -0.500000000   0.500000000 ) 

 **************************************************************************
     freq (    1) =       5.097702 [THz] =     170.041032 [cm-1]
     freq (    2) =       5.097702 [THz] =     170.041032 [cm-1]
     freq (    3) =      11.985411 [THz] =     399.790285 [cm-1]
     freq (    4) =      12.180787 [THz] =     406.307315 [cm-1]
     freq (    5) =      14.723911 [THz] =     491.136797 [cm-1]
     freq (    6) =      14.723911 [THz] =     491.136797 [cm-1]
 **************************************************************************

     Calculation of q =    0.0000000   0.5000000   0.0000000

   Info: using nr1, nr2, nr3 values from input

   Info: using nr1, nr2, nr3 values from input

     Parallelization info
     --------------------
     sticks:   dense  smooth     PW     G-vecs:    dense   smooth      PW
     Min          66      66     27                  722      722     181
     Max          67      67     28                  724      724     182
     Sum         265     265    109                 2891     2891     725



     bravais-lattice index     =            2
     lattice parameter (alat)  =      10.3980  a.u.
     unit-cell volume          =     281.0538 (a.u.)^3
     number of atoms/cell      =            2
     number of atomic types    =            1
     number of electrons       =         8.00
     number of Kohn-Sham states=            4
     kinetic-energy cutoff     =      18.0000  Ry
     charge density cutoff     =      72.0000  Ry
     Exchange-correlation      = SLA  PW   PBE  PBE ( 1  4  3  4 0 0)

     celldm(1)=  10.398000  celldm(2)=   0.000000  celldm(3)=   0.000000
     celldm(4)=   0.000000  celldm(5)=   0.000000  celldm(6)=   0.000000

     crystal axes: (cart. coord. in units of alat)
               a(1) = (  -0.500000   0.000000   0.500000 )  
               a(2) = (   0.000000   0.500000   0.500000 )  
               a(3) = (  -0.500000   0.500000   0.000000 )  

     reciprocal axes: (cart. coord. in units 2 pi/alat)
               b(1) = ( -1.000000 -1.000000  1.000000 )  
               b(2) = (  1.000000  1.000000  1.000000 )  
               b(3) = ( -1.000000  1.000000 -1.000000 )  


     PseudoPot. # 1 for Si read from file:
     /home/max/quantum_espresso/qe-6.1/pseudo/si_pbe_v1.uspp.F.UPF.txt
     MD5 check sum: a056efeee980c13900f22a371efd63c1
     Pseudo is Ultrasoft + core correction, Zval =  4.0
     Generated by new atomic code, or converted to UPF format
     Using radial grid of  899 points,  6 beta functions with: 
                l(1) =   0
                l(2) =   0
                l(3) =   1
                l(4) =   1
                l(5) =   2
                l(6) =   2
     Q(r) pseudized with  8 coefficients,  rinner =    0.900   0.900   0.900
                                                       0.900   0.900

     atomic species   valence    mass     pseudopotential
        Si             4.00    28.08600     Si( 1.00)

     48 Sym. Ops., with inversion, found



   Cartesian axes

     site n.     atom                  positions (alat units)
         1           Si  tau(   1) = (   0.0000000   0.0000000   0.0000000  )
         2           Si  tau(   2) = (   0.2500000   0.2500000   0.2500000  )

     number of k points=    80
                       cart. coord. in units 2pi/alat
        k(    1) = (  -0.1250000   0.1250000   0.1250000), wk =   0.0312500
        k(    2) = (  -0.1250000   0.6250000   0.1250000), wk =   0.0000000
        k(    3) = (  -0.3750000   0.3750000  -0.1250000), wk =   0.0625000
        k(    4) = (  -0.3750000   0.8750000  -0.1250000), wk =   0.0000000
        k(    5) = (   0.3750000  -0.3750000   0.6250000), wk =   0.0625000
        k(    6) = (   0.3750000   0.1250000   0.6250000), wk =   0.0000000
        k(    7) = (   0.1250000  -0.1250000   0.3750000), wk =   0.0625000
        k(    8) = (   0.1250000   0.3750000   0.3750000), wk =   0.0000000
        k(    9) = (  -0.1250000   0.6250000   0.1250000), wk =   0.0312500
        k(   10) = (  -0.1250000   1.1250000   0.1250000), wk =   0.0000000
        k(   11) = (   0.6250000  -0.1250000   0.8750000), wk =   0.0625000
        k(   12) = (   0.6250000   0.3750000   0.8750000), wk =   0.0000000
        k(   13) = (   0.3750000   0.1250000   0.6250000), wk =   0.0625000
        k(   14) = (   0.3750000   0.6250000   0.6250000), wk =   0.0000000
        k(   15) = (  -0.1250000  -0.8750000   0.1250000), wk =   0.0312500
        k(   16) = (  -0.1250000  -0.3750000   0.1250000), wk =   0.0000000
        k(   17) = (  -0.3750000   0.3750000   0.3750000), wk =   0.0312500
        k(   18) = (  -0.3750000   0.8750000   0.3750000), wk =   0.0000000
        k(   19) = (   0.3750000  -0.3750000   1.1250000), wk =   0.0625000
        k(   20) = (   0.3750000   0.1250000   1.1250000), wk =   0.0000000
        k(   21) = (  -0.1250000  -0.1250000   0.1250000), wk =   0.0312500
        k(   22) = (  -0.1250000   0.3750000   0.1250000), wk =   0.0000000
        k(   23) = (   0.1250000  -0.3750000   0.3750000), wk =   0.0625000
        k(   24) = (   0.1250000   0.1250000   0.3750000), wk =   0.0000000
        k(   25) = (   0.3750000  -0.1250000   0.3750000), wk =   0.0312500
        k(   26) = (   0.3750000   0.3750000   0.3750000), wk =   0.0000000
        k(   27) = (   0.3750000   0.1250000   0.3750000), wk =   0.0312500
        k(   28) = (   0.3750000   0.6250000   0.3750000), wk =   0.0000000
        k(   29) = (  -0.6250000   0.3750000  -0.3750000), wk =   0.0625000
        k(   30) = (  -0.6250000   0.8750000  -0.3750000), wk =   0.0000000
        k(   31) = (  -0.3750000   0.6250000  -0.3750000), wk =   0.0312500
        k(   32) = (  -0.3750000   1.1250000  -0.3750000), wk =   0.0000000
        k(   33) = (  -0.3750000  -0.6250000  -0.3750000), wk =   0.0312500
        k(   34) = (  -0.3750000  -0.1250000  -0.3750000), wk =   0.0000000
        k(   35) = (  -0.3750000   0.1250000  -0.1250000), wk =   0.0625000
        k(   36) = (  -0.3750000   0.6250000  -0.1250000), wk =   0.0000000
        k(   37) = (  -0.1250000   0.3750000  -0.1250000), wk =   0.0312500
        k(   38) = (  -0.1250000   0.8750000  -0.1250000), wk =   0.0000000
        k(   39) = (  -0.1250000  -0.3750000  -0.1250000), wk =   0.0312500
        k(   40) = (  -0.1250000   0.1250000  -0.1250000), wk =   0.0000000
        k(   41) = (  -0.1250000  -0.6250000   0.1250000), wk =   0.0312500
        k(   42) = (  -0.1250000  -0.1250000   0.1250000), wk =   0.0000000
        k(   43) = (   0.6250000  -0.1250000  -0.1250000), wk =   0.0625000
        k(   44) = (   0.6250000   0.3750000  -0.1250000), wk =   0.0000000
        k(   45) = (   0.6250000   0.1250000   0.1250000), wk =   0.0625000
        k(   46) = (   0.6250000   0.6250000   0.1250000), wk =   0.0000000
        k(   47) = (  -0.8750000   0.1250000  -0.6250000), wk =   0.0625000
        k(   48) = (  -0.8750000   0.6250000  -0.6250000), wk =   0.0000000
        k(   49) = (  -0.1250000   0.6250000  -0.8750000), wk =   0.0625000
        k(   50) = (  -0.1250000   1.1250000  -0.8750000), wk =   0.0000000
        k(   51) = (  -0.1250000   0.8750000  -0.6250000), wk =   0.0625000
        k(   52) = (  -0.1250000   1.3750000  -0.6250000), wk =   0.0000000
        k(   53) = (  -0.1250000  -0.8750000  -0.6250000), wk =   0.0625000
        k(   54) = (  -0.1250000  -0.3750000  -0.6250000), wk =   0.0000000
        k(   55) = (   0.8750000  -0.6250000   0.1250000), wk =   0.0625000
        k(   56) = (   0.8750000  -0.1250000   0.1250000), wk =   0.0000000
        k(   57) = (  -0.6250000  -0.1250000  -0.3750000), wk =   0.0625000
        k(   58) = (  -0.6250000   0.3750000  -0.3750000), wk =   0.0000000
        k(   59) = (   0.1250000   0.3750000  -0.6250000), wk =   0.0625000
        k(   60) = (   0.1250000   0.8750000  -0.6250000), wk =   0.0000000
        k(   61) = (   0.1250000   0.6250000  -0.3750000), wk =   0.0625000
        k(   62) = (   0.1250000   1.1250000  -0.3750000), wk =   0.0000000
        k(   63) = (   0.1250000  -0.6250000  -0.3750000), wk =   0.0625000
        k(   64) = (   0.1250000  -0.1250000  -0.3750000), wk =   0.0000000
        k(   65) = (   0.6250000  -0.3750000  -0.1250000), wk =   0.0625000
        k(   66) = (   0.6250000   0.1250000  -0.1250000), wk =   0.0000000
        k(   67) = (  -0.1250000   0.8750000   0.1250000), wk =   0.0312500
        k(   68) = (  -0.1250000   1.3750000   0.1250000), wk =   0.0000000
        k(   69) = (  -0.8750000  -0.1250000  -0.1250000), wk =   0.0625000
        k(   70) = (  -0.8750000   0.3750000  -0.1250000), wk =   0.0000000
        k(   71) = (  -0.8750000   0.1250000   0.1250000), wk =   0.0625000
        k(   72) = (  -0.8750000   0.6250000   0.1250000), wk =   0.0000000
        k(   73) = (  -0.3750000  -0.3750000   0.3750000), wk =   0.0312500
        k(   74) = (  -0.3750000   0.1250000   0.3750000), wk =   0.0000000
        k(   75) = (  -1.1250000   0.3750000  -0.3750000), wk =   0.0625000
        k(   76) = (  -1.1250000   0.8750000  -0.3750000), wk =   0.0000000
        k(   77) = (  -0.3750000   1.1250000  -0.3750000), wk =   0.0312500
        k(   78) = (  -0.3750000   1.6250000  -0.3750000), wk =   0.0000000
        k(   79) = (  -0.3750000  -1.1250000  -0.3750000), wk =   0.0312500
        k(   80) = (  -0.3750000  -0.6250000  -0.3750000), wk =   0.0000000

     Dense  grid:     2891 G-vectors     FFT dimensions: (  20,  20,  20)

     Estimated max dynamical RAM per process >       0.33MB

     Estimated total allocated dynamical RAM >       1.33MB

     Check: negative/imaginary core charge=   -0.000006    0.000000

     The potential is recalculated from file :
     ./_ph0/silicon.10.398.save/charge-density.dat

     Starting wfc are    8 atomic wfcs

     Band Structure Calculation
     Davidson diagonalization with overlap

     ethr =  1.25E-10,  avg # of iterations = 11.7

     total cpu time spent up to now is        1.9 secs

     End of band structure calculation

          k =-0.1250 0.1250 0.1250 (   347 PWs)   bands (ev):

    -5.6983   4.2055   5.5158   5.5158

          k =-0.1250 0.6250 0.1250 (   357 PWs)   bands (ev):

    -4.1682   0.8894   3.2294   3.6697

          k =-0.3750 0.3750-0.1250 (   356 PWs)   bands (ev):

    -4.6914   1.2441   3.5668   5.0388

          k =-0.3750 0.8750-0.1250 (   368 PWs)   bands (ev):

    -2.5658  -1.0439   1.9130   2.9631

          k = 0.3750-0.3750 0.6250 (   364 PWs)   bands (ev):

    -3.5814  -0.7879   3.5766   4.2842

          k = 0.3750 0.1250 0.6250 (   362 PWs)   bands (ev):

    -3.7633   0.0445   2.5975   3.9410

          k = 0.1250-0.1250 0.3750 (   358 PWs)   bands (ev):

    -5.1804   2.5951   4.5287   4.5816

          k = 0.1250 0.3750 0.3750 (   356 PWs)   bands (ev):

    -4.6914   1.2441   3.5668   5.0388

          k =-0.1250 0.6250 0.1250 (   357 PWs)   bands (ev):

    -4.1682   0.8894   3.2294   3.6697

          k =-0.1250 1.1250 0.1250 (   362 PWs)   bands (ev):

    -2.7243  -0.9508   2.5061   3.2104

          k = 0.6250-0.1250 0.8750 (   368 PWs)   bands (ev):

    -2.5658  -1.0439   1.9130   2.9631

          k = 0.6250 0.3750 0.8750 (   362 PWs)   bands (ev):

    -3.7633   0.0445   2.5975   3.9410

          k = 0.3750 0.1250 0.6250 (   362 PWs)   bands (ev):

    -3.7633   0.0445   2.5975   3.9410

          k = 0.3750 0.6250 0.6250 (   364 PWs)   bands (ev):

    -3.5814  -0.7879   3.5766   4.2842

          k =-0.1250-0.8750 0.1250 (   362 PWs)   bands (ev):

    -2.7243  -0.9508   2.5061   3.2104

          k =-0.1250-0.3750 0.1250 (   358 PWs)   bands (ev):

    -5.1804   2.5951   4.5287   4.5816

          k =-0.3750 0.3750 0.3750 (   359 PWs)   bands (ev):

    -4.2696  -0.0126   4.7377   4.7377

          k =-0.3750 0.8750 0.3750 (   365 PWs)   bands (ev):

    -3.0944  -0.7284   1.9621   3.9748

          k = 0.3750-0.3750 1.1250 (   365 PWs)   bands (ev):

    -3.0944  -0.7284   1.9621   3.9748

          k = 0.3750 0.1250 1.1250 (   368 PWs)   bands (ev):

    -2.5658  -1.0439   1.9130   2.9631

          k =-0.1250-0.1250 0.1250 (   347 PWs)   bands (ev):

    -5.6983   4.2055   5.5158   5.5158

          k =-0.1250 0.3750 0.1250 (   358 PWs)   bands (ev):

    -5.1804   2.5951   4.5287   4.5816

          k = 0.1250-0.3750 0.3750 (   356 PWs)   bands (ev):

    -4.6914   1.2441   3.5668   5.0388

          k = 0.1250 0.1250 0.3750 (   358 PWs)   bands (ev):

    -5.1804   2.5951   4.5287   4.5816

          k = 0.3750-0.1250 0.3750 (   356 PWs)   bands (ev):

    -4.6914   1.2441   3.5668   5.0388

          k = 0.3750 0.3750 0.3750 (   359 PWs)   bands (ev):

    -4.2696  -0.0126   4.7377   4.7377

          k = 0.3750 0.1250 0.3750 (   356 PWs)   bands (ev):

    -4.6914   1.2441   3.5668   5.0388

          k = 0.3750 0.6250 0.3750 (   364 PWs)   bands (ev):

    -3.5814  -0.7879   3.5766   4.2842

          k =-0.6250 0.3750-0.3750 (   364 PWs)   bands (ev):

    -3.5814  -0.7879   3.5766   4.2842

          k =-0.6250 0.8750-0.3750 (   362 PWs)   bands (ev):

    -3.7633   0.0445   2.5975   3.9410

          k =-0.3750 0.6250-0.3750 (   364 PWs)   bands (ev):

    -3.5814  -0.7879   3.5766   4.2842

          k =-0.3750 1.1250-0.3750 (   365 PWs)   bands (ev):

    -3.0944  -0.7284   1.9621   3.9748

          k =-0.3750-0.6250-0.3750 (   364 PWs)   bands (ev):

    -3.5814  -0.7879   3.5766   4.2842

          k =-0.3750-0.1250-0.3750 (   356 PWs)   bands (ev):

    -4.6914   1.2441   3.5668   5.0388

          k =-0.3750 0.1250-0.1250 (   358 PWs)   bands (ev):

    -5.1804   2.5951   4.5287   4.5816

          k =-0.3750 0.6250-0.1250 (   362 PWs)   bands (ev):

    -3.7633   0.0445   2.5975   3.9410

          k =-0.1250 0.3750-0.1250 (   358 PWs)   bands (ev):

    -5.1804   2.5951   4.5287   4.5816

          k =-0.1250 0.8750-0.1250 (   362 PWs)   bands (ev):

    -2.7243  -0.9508   2.5061   3.2104

          k =-0.1250-0.3750-0.1250 (   358 PWs)   bands (ev):

    -5.1804   2.5951   4.5287   4.5816

          k =-0.1250 0.1250-0.1250 (   347 PWs)   bands (ev):

    -5.6983   4.2055   5.5158   5.5158

          k =-0.1250-0.6250 0.1250 (   357 PWs)   bands (ev):

    -4.1682   0.8894   3.2294   3.6697

          k =-0.1250-0.1250 0.1250 (   347 PWs)   bands (ev):

    -5.6983   4.2055   5.5158   5.5158

          k = 0.6250-0.1250-0.1250 (   357 PWs)   bands (ev):

    -4.1682   0.8894   3.2294   3.6697

          k = 0.6250 0.3750-0.1250 (   362 PWs)   bands (ev):

    -3.7633   0.0445   2.5975   3.9410

          k = 0.6250 0.1250 0.1250 (   357 PWs)   bands (ev):

    -4.1682   0.8894   3.2294   3.6697

          k = 0.6250 0.6250 0.1250 (   365 PWs)   bands (ev):

    -3.0944  -0.7284   1.9621   3.9748

          k =-0.8750 0.1250-0.6250 (   368 PWs)   bands (ev):

    -2.5658  -1.0439   1.9130   2.9631

          k =-0.8750 0.6250-0.6250 (   356 PWs)   bands (ev):

    -4.6914   1.2441   3.5668   5.0388

          k =-0.1250 0.6250-0.8750 (   368 PWs)   bands (ev):

    -2.5658  -1.0439   1.9130   2.9631

          k =-0.1250 1.1250-0.8750 (   362 PWs)   bands (ev):

    -2.7243  -0.9508   2.5061   3.2104

          k =-0.1250 0.8750-0.6250 (   368 PWs)   bands (ev):

    -2.5658  -1.0439   1.9130   2.9631

          k =-0.1250 1.3750-0.6250 (   365 PWs)   bands (ev):

    -3.0944  -0.7284   1.9621   3.9748

          k =-0.1250-0.8750-0.6250 (   368 PWs)   bands (ev):

    -2.5658  -1.0439   1.9130   2.9631

          k =-0.1250-0.3750-0.6250 (   362 PWs)   bands (ev):

    -3.7633   0.0445   2.5975   3.9410

          k = 0.8750-0.6250 0.1250 (   368 PWs)   bands (ev):

    -2.5658  -1.0439   1.9130   2.9631

          k = 0.8750-0.1250 0.1250 (   362 PWs)   bands (ev):

    -2.7243  -0.9508   2.5061   3.2104

          k =-0.6250-0.1250-0.3750 (   362 PWs)   bands (ev):

    -3.7633   0.0445   2.5975   3.9410

          k =-0.6250 0.3750-0.3750 (   364 PWs)   bands (ev):

    -3.5814  -0.7879   3.5766   4.2842

          k = 0.1250 0.3750-0.6250 (   362 PWs)   bands (ev):

    -3.7633   0.0445   2.5975   3.9410

          k = 0.1250 0.8750-0.6250 (   368 PWs)   bands (ev):

    -2.5658  -1.0439   1.9130   2.9631

          k = 0.1250 0.6250-0.3750 (   362 PWs)   bands (ev):

    -3.7633   0.0445   2.5975   3.9410

          k = 0.1250 1.1250-0.3750 (   368 PWs)   bands (ev):

    -2.5658  -1.0439   1.9130   2.9631

          k = 0.1250-0.6250-0.3750 (   362 PWs)   bands (ev):

    -3.7633   0.0445   2.5975   3.9410

          k = 0.1250-0.1250-0.3750 (   358 PWs)   bands (ev):

    -5.1804   2.5951   4.5287   4.5816

          k = 0.6250-0.3750-0.1250 (   362 PWs)   bands (ev):

    -3.7633   0.0445   2.5975   3.9410

          k = 0.6250 0.1250-0.1250 (   357 PWs)   bands (ev):

    -4.1682   0.8894   3.2294   3.6697

          k =-0.1250 0.8750 0.1250 (   362 PWs)   bands (ev):

    -2.7243  -0.9508   2.5061   3.2104

          k =-0.1250 1.3750 0.1250 (   357 PWs)   bands (ev):

    -4.1682   0.8894   3.2294   3.6697

          k =-0.8750-0.1250-0.1250 (   362 PWs)   bands (ev):

    -2.7243  -0.9508   2.5061   3.2104

          k =-0.8750 0.3750-0.1250 (   368 PWs)   bands (ev):

    -2.5658  -1.0439   1.9130   2.9631

          k =-0.8750 0.1250 0.1250 (   362 PWs)   bands (ev):

    -2.7243  -0.9508   2.5061   3.2104

          k =-0.8750 0.6250 0.1250 (   368 PWs)   bands (ev):

    -2.5658  -1.0439   1.9130   2.9631

          k =-0.3750-0.3750 0.3750 (   359 PWs)   bands (ev):

    -4.2696  -0.0126   4.7377   4.7377

          k =-0.3750 0.1250 0.3750 (   356 PWs)   bands (ev):

    -4.6914   1.2441   3.5668   5.0388

          k =-1.1250 0.3750-0.3750 (   365 PWs)   bands (ev):

    -3.0944  -0.7284   1.9621   3.9748

          k =-1.1250 0.8750-0.3750 (   357 PWs)   bands (ev):

    -4.1682   0.8894   3.2294   3.6697

          k =-0.3750 1.1250-0.3750 (   365 PWs)   bands (ev):

    -3.0944  -0.7284   1.9621   3.9748

          k =-0.3750 1.6250-0.3750 (   359 PWs)   bands (ev):

    -4.2696  -0.0126   4.7377   4.7377

          k =-0.3750-1.1250-0.3750 (   365 PWs)   bands (ev):

    -3.0944  -0.7284   1.9621   3.9748

          k =-0.3750-0.6250-0.3750 (   364 PWs)   bands (ev):

    -3.5814  -0.7879   3.5766   4.2842

     highest occupied level (ev):     5.5158

     Writing output data file silicon.10.398.save

                                                                                

     bravais-lattice index     =            2
     lattice parameter (alat)  =      10.3980  a.u.
     unit-cell volume          =     281.0538 (a.u.)^3
     number of atoms/cell      =            2
     number of atomic types    =            1
     kinetic-energy cut-off    =      18.0000  Ry
     charge density cut-off    =      72.0000  Ry
     convergence threshold     =      1.0E-12
     beta                      =       0.7000
     number of iterations used =            4
     Exchange-correlation      = SLA  PW   PBE  PBE ( 1  4  3  4 0 0)


     celldm(1)=   10.39800  celldm(2)=    0.00000  celldm(3)=    0.00000
     celldm(4)=    0.00000  celldm(5)=    0.00000  celldm(6)=    0.00000

     crystal axes: (cart. coord. in units of alat)
               a(1) = ( -0.5000  0.0000  0.5000 )  
               a(2) = (  0.0000  0.5000  0.5000 )  
               a(3) = ( -0.5000  0.5000  0.0000 )  

     reciprocal axes: (cart. coord. in units 2 pi/alat)
               b(1) = ( -1.0000 -1.0000  1.0000 )  
               b(2) = (  1.0000  1.0000  1.0000 )  
               b(3) = ( -1.0000  1.0000 -1.0000 )  


     Atoms inside the unit cell: 

     Cartesian axes

     site n.  atom      mass           positions (alat units)
        1     Si  28.0860   tau(    1) = (    0.00000    0.00000    0.00000  )
        2     Si  28.0860   tau(    2) = (    0.25000    0.25000    0.25000  )

     Computing dynamical matrix for 
                    q = (   0.0000000   0.5000000   0.0000000 )

      8 Sym.Ops. (no q -> -q+G )


     G cutoff =  197.1843  (    722 G-vectors)     FFT grid: ( 20, 20, 20)
     number of k points=    80

     PseudoPot. # 1 for Si read from file:
     /home/max/quantum_espresso/qe-6.1/pseudo/si_pbe_v1.uspp.F.UPF.txt
     MD5 check sum: a056efeee980c13900f22a371efd63c1
     Pseudo is Ultrasoft + core correction, Zval =  4.0
     Generated by new atomic code, or converted to UPF format
     Using radial grid of  899 points,  6 beta functions with: 
                l(1) =   0
                l(2) =   0
                l(3) =   1
                l(4) =   1
                l(5) =   2
                l(6) =   2
     Q(r) pseudized with  8 coefficients,  rinner =    0.900   0.900   0.900
                                                       0.900   0.900

     Mode symmetry, C_4v (4mm)  point group:


     Atomic displacements:
     There are   4 irreducible representations

     Representation     1      1 modes -A_1  G_1 D_1  To be done

     Representation     2      1 modes -B_2  G_4 D_2'  To be done

     Representation     3      2 modes -E    G_5 D_5  To be done

     Representation     4      2 modes -E    G_5 D_5  To be done



     Alpha used in Ewald sum =   0.7000
     PHONON       :    21.20s CPU        22.90s WALL



     Representation #  1 mode #   1

     Self-consistent Calculation

      iter #   1 total cpu time :    23.1 secs   av.it.:   5.8
      thresh= 1.000E-02 alpha_mix =  0.700 |ddv_scf|^2 =  2.942E-03

      iter #   2 total cpu time :    23.4 secs   av.it.:   7.6
      thresh= 5.424E-03 alpha_mix =  0.700 |ddv_scf|^2 =  3.899E-02

      iter #   3 total cpu time :    23.5 secs   av.it.:   6.8
      thresh= 1.000E-02 alpha_mix =  0.700 |ddv_scf|^2 =  1.828E-07

      iter #   4 total cpu time :    23.7 secs   av.it.:   8.1
      thresh= 4.276E-05 alpha_mix =  0.700 |ddv_scf|^2 =  3.044E-08

      iter #   5 total cpu time :    23.9 secs   av.it.:   7.2
      thresh= 1.745E-05 alpha_mix =  0.700 |ddv_scf|^2 =  1.101E-09

      iter #   6 total cpu time :    24.1 secs   av.it.:   7.4
      thresh= 3.319E-06 alpha_mix =  0.700 |ddv_scf|^2 =  1.685E-11

      iter #   7 total cpu time :    24.2 secs   av.it.:   7.0
      thresh= 4.105E-07 alpha_mix =  0.700 |ddv_scf|^2 =  1.467E-12

      iter #   8 total cpu time :    24.4 secs   av.it.:   7.5
      thresh= 1.211E-07 alpha_mix =  0.700 |ddv_scf|^2 =  3.302E-14

     End of self-consistent calculation

     Convergence has been achieved 


     Representation #  2 mode #   2

     Self-consistent Calculation

      iter #   1 total cpu time :    24.6 secs   av.it.:   4.9
      thresh= 1.000E-02 alpha_mix =  0.700 |ddv_scf|^2 =  5.334E-06

      iter #   2 total cpu time :    24.7 secs   av.it.:   8.7
      thresh= 2.310E-04 alpha_mix =  0.700 |ddv_scf|^2 =  1.341E-06

      iter #   3 total cpu time :    24.9 secs   av.it.:   8.6
      thresh= 1.158E-04 alpha_mix =  0.700 |ddv_scf|^2 =  3.532E-08

      iter #   4 total cpu time :    25.3 secs   av.it.:   8.2
      thresh= 1.879E-05 alpha_mix =  0.700 |ddv_scf|^2 =  1.163E-09

      iter #   5 total cpu time :    25.5 secs   av.it.:   8.2
      thresh= 3.410E-06 alpha_mix =  0.700 |ddv_scf|^2 =  1.710E-11

      iter #   6 total cpu time :    25.6 secs   av.it.:   7.2
      thresh= 4.135E-07 alpha_mix =  0.700 |ddv_scf|^2 =  1.067E-13

     End of self-consistent calculation

     Convergence has been achieved 


     Representation #  3 modes #   3  4

     Self-consistent Calculation

      iter #   1 total cpu time :    25.9 secs   av.it.:   5.0
      thresh= 1.000E-02 alpha_mix =  0.700 |ddv_scf|^2 =  9.392E-07

      iter #   2 total cpu time :    26.3 secs   av.it.:   9.8
      thresh= 9.691E-05 alpha_mix =  0.700 |ddv_scf|^2 =  1.192E-07

      iter #   3 total cpu time :    26.7 secs   av.it.:   9.5
      thresh= 3.453E-05 alpha_mix =  0.700 |ddv_scf|^2 =  4.926E-09

      iter #   4 total cpu time :    27.3 secs   av.it.:   8.8
      thresh= 7.018E-06 alpha_mix =  0.700 |ddv_scf|^2 =  8.813E-12

      iter #   5 total cpu time :    27.6 secs   av.it.:   9.1
      thresh= 2.969E-07 alpha_mix =  0.700 |ddv_scf|^2 =  3.012E-13

     End of self-consistent calculation

     Convergence has been achieved 


     Representation #  4 modes #   5  6

     Self-consistent Calculation

      iter #   1 total cpu time :    27.9 secs   av.it.:   5.0
      thresh= 1.000E-02 alpha_mix =  0.700 |ddv_scf|^2 =  9.424E-07

      iter #   2 total cpu time :    28.3 secs   av.it.:   9.8
      thresh= 9.708E-05 alpha_mix =  0.700 |ddv_scf|^2 =  1.196E-07

      iter #   3 total cpu time :    28.7 secs   av.it.:   9.5
      thresh= 3.458E-05 alpha_mix =  0.700 |ddv_scf|^2 =  7.341E-09

      iter #   4 total cpu time :    29.3 secs   av.it.:   8.9
      thresh= 8.568E-06 alpha_mix =  0.700 |ddv_scf|^2 =  1.546E-11

      iter #   5 total cpu time :    29.7 secs   av.it.:   9.2
      thresh= 3.931E-07 alpha_mix =  0.700 |ddv_scf|^2 =  4.577E-14

     End of self-consistent calculation

     Convergence has been achieved 

     Number of q in the star =    6
     List of q in the star:
          1   0.000000000   0.500000000   0.000000000
          2   0.000000000  -0.500000000   0.000000000
          3   0.500000000   0.000000000   0.000000000
          4   0.000000000   0.000000000   0.500000000
          5   0.000000000   0.000000000  -0.500000000
          6  -0.500000000   0.000000000   0.000000000

     Diagonalizing the dynamical matrix

     q = (    0.000000000   0.500000000   0.000000000 ) 

 **************************************************************************
     freq (    1) =       4.411904 [THz] =     147.165271 [cm-1]
     freq (    2) =       4.411904 [THz] =     147.165271 [cm-1]
     freq (    3) =       7.065571 [THz] =     235.682064 [cm-1]
     freq (    4) =      14.232087 [THz] =     474.731320 [cm-1]
     freq (    5) =      14.232087 [THz] =     474.731320 [cm-1]
     freq (    6) =      14.936837 [THz] =     498.239242 [cm-1]
 **************************************************************************

     Mode symmetry, C_4v (4mm)  point group:

     freq (  1 -  2) =        147.2  [cm-1]   --> E    G_5 D_5       
     freq (  3 -  3) =        235.7  [cm-1]   --> A_1  G_1 D_1       
     freq (  4 -  5) =        474.7  [cm-1]   --> E    G_5 D_5       
     freq (  6 -  6) =        498.2  [cm-1]   --> B_2  G_4 D_2'      

     Calculation of q =    0.7500000  -0.2500000   0.7500000

   Info: using nr1, nr2, nr3 values from input

   Info: using nr1, nr2, nr3 values from input

     Parallelization info
     --------------------
     sticks:   dense  smooth     PW     G-vecs:    dense   smooth      PW
     Min          65      65     30                  722      722     216
     Max          67      67     31                  723      723     218
     Sum         265     265    121                 2891     2891     869



     bravais-lattice index     =            2
     lattice parameter (alat)  =      10.3980  a.u.
     unit-cell volume          =     281.0538 (a.u.)^3
     number of atoms/cell      =            2
     number of atomic types    =            1
     number of electrons       =         8.00
     number of Kohn-Sham states=            4
     kinetic-energy cutoff     =      18.0000  Ry
     charge density cutoff     =      72.0000  Ry
     Exchange-correlation      = SLA  PW   PBE  PBE ( 1  4  3  4 0 0)

     celldm(1)=  10.398000  celldm(2)=   0.000000  celldm(3)=   0.000000
     celldm(4)=   0.000000  celldm(5)=   0.000000  celldm(6)=   0.000000

     crystal axes: (cart. coord. in units of alat)
               a(1) = (  -0.500000   0.000000   0.500000 )  
               a(2) = (   0.000000   0.500000   0.500000 )  
               a(3) = (  -0.500000   0.500000   0.000000 )  

     reciprocal axes: (cart. coord. in units 2 pi/alat)
               b(1) = ( -1.000000 -1.000000  1.000000 )  
               b(2) = (  1.000000  1.000000  1.000000 )  
               b(3) = ( -1.000000  1.000000 -1.000000 )  


     PseudoPot. # 1 for Si read from file:
     /home/max/quantum_espresso/qe-6.1/pseudo/si_pbe_v1.uspp.F.UPF.txt
     MD5 check sum: a056efeee980c13900f22a371efd63c1
     Pseudo is Ultrasoft + core correction, Zval =  4.0
     Generated by new atomic code, or converted to UPF format
     Using radial grid of  899 points,  6 beta functions with: 
                l(1) =   0
                l(2) =   0
                l(3) =   1
                l(4) =   1
                l(5) =   2
                l(6) =   2
     Q(r) pseudized with  8 coefficients,  rinner =    0.900   0.900   0.900
                                                       0.900   0.900

     atomic species   valence    mass     pseudopotential
        Si             4.00    28.08600     Si( 1.00)

     48 Sym. Ops., with inversion, found



   Cartesian axes

     site n.     atom                  positions (alat units)
         1           Si  tau(   1) = (   0.0000000   0.0000000   0.0000000  )
         2           Si  tau(   2) = (   0.2500000   0.2500000   0.2500000  )

     number of k points=   288

     Number of k-points >= 100: set verbosity='high' to print them.

     Dense  grid:     2891 G-vectors     FFT dimensions: (  20,  20,  20)

     Estimated max dynamical RAM per process >       0.33MB

     Estimated total allocated dynamical RAM >       1.33MB

     Check: negative/imaginary core charge=   -0.000006    0.000000

     The potential is recalculated from file :
     ./_ph0/silicon.10.398.save/charge-density.dat

     Starting wfc are    8 atomic wfcs

     Band Structure Calculation
     Davidson diagonalization with overlap

     ethr =  1.25E-10,  avg # of iterations = 11.6

     total cpu time spent up to now is        3.9 secs

     End of band structure calculation

     Number of k-points >= 100: set verbosity='high' to print the bands.

     highest occupied level (ev):     5.5158

     Writing output data file silicon.10.398.save

                                                                                

     bravais-lattice index     =            2
     lattice parameter (alat)  =      10.3980  a.u.
     unit-cell volume          =     281.0538 (a.u.)^3
     number of atoms/cell      =            2
     number of atomic types    =            1
     kinetic-energy cut-off    =      18.0000  Ry
     charge density cut-off    =      72.0000  Ry
     convergence threshold     =      1.0E-12
     beta                      =       0.7000
     number of iterations used =            4
     Exchange-correlation      = SLA  PW   PBE  PBE ( 1  4  3  4 0 0)


     celldm(1)=   10.39800  celldm(2)=    0.00000  celldm(3)=    0.00000
     celldm(4)=    0.00000  celldm(5)=    0.00000  celldm(6)=    0.00000

     crystal axes: (cart. coord. in units of alat)
               a(1) = ( -0.5000  0.0000  0.5000 )  
               a(2) = (  0.0000  0.5000  0.5000 )  
               a(3) = ( -0.5000  0.5000  0.0000 )  

     reciprocal axes: (cart. coord. in units 2 pi/alat)
               b(1) = ( -1.0000 -1.0000  1.0000 )  
               b(2) = (  1.0000  1.0000  1.0000 )  
               b(3) = ( -1.0000  1.0000 -1.0000 )  


     Atoms inside the unit cell: 

     Cartesian axes

     site n.  atom      mass           positions (alat units)
        1     Si  28.0860   tau(    1) = (    0.00000    0.00000    0.00000  )
        2     Si  28.0860   tau(    2) = (    0.25000    0.25000    0.25000  )

     Computing dynamical matrix for 
                    q = (   0.7500000  -0.2500000   0.7500000 )

      2 Sym.Ops. (no q -> -q+G )


     G cutoff =  197.1843  (    723 G-vectors)     FFT grid: ( 20, 20, 20)
     number of k points=   288

     PseudoPot. # 1 for Si read from file:
     /home/max/quantum_espresso/qe-6.1/pseudo/si_pbe_v1.uspp.F.UPF.txt
     MD5 check sum: a056efeee980c13900f22a371efd63c1
     Pseudo is Ultrasoft + core correction, Zval =  4.0
     Generated by new atomic code, or converted to UPF format
     Using radial grid of  899 points,  6 beta functions with: 
                l(1) =   0
                l(2) =   0
                l(3) =   1
                l(4) =   1
                l(5) =   2
                l(6) =   2
     Q(r) pseudized with  8 coefficients,  rinner =    0.900   0.900   0.900
                                                       0.900   0.900

     Mode symmetry, C_s (m)     point group:


     Atomic displacements:
     There are   6 irreducible representations

     Representation     1      1 modes -A'  To be done

     Representation     2      1 modes -A'  To be done

     Representation     3      1 modes -A'  To be done

     Representation     4      1 modes -A'  To be done

     Representation     5      1 modes -A''  To be done

     Representation     6      1 modes -A''  To be done



     Alpha used in Ewald sum =   0.7000
     PHONON       :    29.99s CPU        32.35s WALL



     Representation #  1 mode #   1

     Self-consistent Calculation

      iter #   1 total cpu time :    32.9 secs   av.it.:   5.3
      thresh= 1.000E-02 alpha_mix =  0.700 |ddv_scf|^2 =  6.166E-05

      iter #   2 total cpu time :    33.7 secs   av.it.:   8.9
      thresh= 7.852E-04 alpha_mix =  0.700 |ddv_scf|^2 =  1.676E-04

      iter #   3 total cpu time :    34.3 secs   av.it.:   7.5
      thresh= 1.294E-03 alpha_mix =  0.700 |ddv_scf|^2 =  1.133E-06

      iter #   4 total cpu time :    34.9 secs   av.it.:   8.4
      thresh= 1.064E-04 alpha_mix =  0.700 |ddv_scf|^2 =  7.081E-08

      iter #   5 total cpu time :    35.7 secs   av.it.:   8.2
      thresh= 2.661E-05 alpha_mix =  0.700 |ddv_scf|^2 =  8.551E-09

      iter #   6 total cpu time :    36.4 secs   av.it.:   8.4
      thresh= 9.247E-06 alpha_mix =  0.700 |ddv_scf|^2 =  1.883E-10

      iter #   7 total cpu time :    37.0 secs   av.it.:   8.5
      thresh= 1.372E-06 alpha_mix =  0.700 |ddv_scf|^2 =  1.332E-11

      iter #   8 total cpu time :    37.8 secs   av.it.:   8.3
      thresh= 3.650E-07 alpha_mix =  0.700 |ddv_scf|^2 =  3.789E-12

      iter #   9 total cpu time :    38.4 secs   av.it.:   8.1
      thresh= 1.947E-07 alpha_mix =  0.700 |ddv_scf|^2 =  2.517E-13

     End of self-consistent calculation

     Convergence has been achieved 


     Representation #  2 mode #   2

     Self-consistent Calculation

      iter #   1 total cpu time :    39.0 secs   av.it.:   5.4
      thresh= 1.000E-02 alpha_mix =  0.700 |ddv_scf|^2 =  1.170E-04

      iter #   2 total cpu time :    39.8 secs   av.it.:   8.7
      thresh= 1.082E-03 alpha_mix =  0.700 |ddv_scf|^2 =  3.313E-04

      iter #   3 total cpu time :    40.3 secs   av.it.:   7.3
      thresh= 1.820E-03 alpha_mix =  0.700 |ddv_scf|^2 =  9.629E-07

      iter #   4 total cpu time :    41.0 secs   av.it.:   8.4
      thresh= 9.813E-05 alpha_mix =  0.700 |ddv_scf|^2 =  5.332E-08

      iter #   5 total cpu time :    41.8 secs   av.it.:   8.3
      thresh= 2.309E-05 alpha_mix =  0.700 |ddv_scf|^2 =  1.355E-08

      iter #   6 total cpu time :    42.4 secs   av.it.:   8.3
      thresh= 1.164E-05 alpha_mix =  0.700 |ddv_scf|^2 =  2.594E-10

      iter #   7 total cpu time :    43.3 secs   av.it.:   8.4
      thresh= 1.611E-06 alpha_mix =  0.700 |ddv_scf|^2 =  5.450E-12

      iter #   8 total cpu time :    43.9 secs   av.it.:   8.2
      thresh= 2.335E-07 alpha_mix =  0.700 |ddv_scf|^2 =  1.102E-12

      iter #   9 total cpu time :    44.5 secs   av.it.:   8.2
      thresh= 1.050E-07 alpha_mix =  0.700 |ddv_scf|^2 =  8.453E-13

     End of self-consistent calculation

     Convergence has been achieved 


     Representation #  3 mode #   3

     Self-consistent Calculation

      iter #   1 total cpu time :    45.0 secs   av.it.:   5.3
      thresh= 1.000E-02 alpha_mix =  0.700 |ddv_scf|^2 =  9.396E-05

      iter #   2 total cpu time :    45.9 secs   av.it.:   8.7
      thresh= 9.693E-04 alpha_mix =  0.700 |ddv_scf|^2 =  2.439E-04

      iter #   3 total cpu time :    46.4 secs   av.it.:   7.4
      thresh= 1.562E-03 alpha_mix =  0.700 |ddv_scf|^2 =  1.618E-06

      iter #   4 total cpu time :    47.1 secs   av.it.:   8.1
      thresh= 1.272E-04 alpha_mix =  0.700 |ddv_scf|^2 =  6.184E-08

      iter #   5 total cpu time :    48.1 secs   av.it.:   8.4
      thresh= 2.487E-05 alpha_mix =  0.700 |ddv_scf|^2 =  1.242E-08

      iter #   6 total cpu time :    48.7 secs   av.it.:   8.4
      thresh= 1.114E-05 alpha_mix =  0.700 |ddv_scf|^2 =  2.529E-10

[...]
        k(   63) = (  -0.3750000   0.3750000   1.1250000), wk =   0.0625000
        k(   64) = (  -0.8750000  -0.6250000   1.1250000), wk =   0.0000000

     Dense  grid:     2891 G-vectors     FFT dimensions: (  20,  20,  20)

     Estimated max dynamical RAM per process >       0.33MB

     Estimated total allocated dynamical RAM >       1.33MB

     Check: negative/imaginary core charge=   -0.000006    0.000000

     The potential is recalculated from file :
     ./_ph0/silicon.10.398.save/charge-density.dat

     Starting wfc are    8 atomic wfcs

     Band Structure Calculation
     Davidson diagonalization with overlap

     ethr =  1.25E-10,  avg # of iterations = 11.6

     total cpu time spent up to now is        6.2 secs

     End of band structure calculation

          k =-0.1250 0.1250 0.1250 (   347 PWs)   bands (ev):

    -5.6983   4.2055   5.5158   5.5158

          k =-0.6250-0.8750 0.1250 (   368 PWs)   bands (ev):

    -2.5658  -1.0439   1.9130   2.9631

          k =-0.3750 0.3750-0.1250 (   356 PWs)   bands (ev):

    -4.6914   1.2441   3.5668   5.0388

          k =-0.8750-0.6250-0.1250 (   368 PWs)   bands (ev):

    -2.5658  -1.0439   1.9130   2.9631

          k = 0.3750-0.3750 0.6250 (   364 PWs)   bands (ev):

    -3.5814  -0.7879   3.5766   4.2842

          k =-0.1250-1.3750 0.6250 (   365 PWs)   bands (ev):

    -3.0944  -0.7284   1.9621   3.9748

          k = 0.1250-0.1250 0.3750 (   358 PWs)   bands (ev):

    -5.1804   2.5951   4.5287   4.5816

          k =-0.3750-1.1250 0.3750 (   365 PWs)   bands (ev):

    -3.0944  -0.7284   1.9621   3.9748

          k =-0.1250 0.6250 0.1250 (   357 PWs)   bands (ev):

    -4.1682   0.8894   3.2294   3.6697

          k =-0.6250-0.3750 0.1250 (   362 PWs)   bands (ev):

    -3.7633   0.0445   2.5975   3.9410

          k = 0.6250-0.1250 0.8750 (   368 PWs)   bands (ev):

    -2.5658  -1.0439   1.9130   2.9631

          k = 0.1250-1.1250 0.8750 (   362 PWs)   bands (ev):

    -2.7243  -0.9508   2.5061   3.2104

          k = 0.3750 0.1250 0.6250 (   362 PWs)   bands (ev):

    -3.7633   0.0445   2.5975   3.9410

          k =-0.1250-0.8750 0.6250 (   368 PWs)   bands (ev):

    -2.5658  -1.0439   1.9130   2.9631

          k =-0.1250-0.8750 0.1250 (   362 PWs)   bands (ev):

    -2.7243  -0.9508   2.5061   3.2104

          k =-0.6250-1.8750 0.1250 (   357 PWs)   bands (ev):

    -4.1682   0.8894   3.2294   3.6697

          k =-0.3750 0.3750 0.3750 (   359 PWs)   bands (ev):

    -4.2696  -0.0126   4.7377   4.7377

          k =-0.8750-0.6250 0.3750 (   362 PWs)   bands (ev):

    -3.7633   0.0445   2.5975   3.9410

          k = 0.3750-0.3750 1.1250 (   365 PWs)   bands (ev):

    -3.0944  -0.7284   1.9621   3.9748

          k =-0.1250-1.3750 1.1250 (   368 PWs)   bands (ev):

    -2.5658  -1.0439   1.9130   2.9631

          k = 0.1250-0.3750 0.3750 (   356 PWs)   bands (ev):

    -4.6914   1.2441   3.5668   5.0388

          k =-0.3750-1.3750 0.3750 (   364 PWs)   bands (ev):

    -3.5814  -0.7879   3.5766   4.2842

          k = 0.3750-0.3750-0.1250 (   356 PWs)   bands (ev):

    -4.6914   1.2441   3.5668   5.0388

          k =-0.1250-1.3750-0.1250 (   357 PWs)   bands (ev):

    -4.1682   0.8894   3.2294   3.6697

          k =-0.6250 0.3750-0.3750 (   364 PWs)   bands (ev):

    -3.5814  -0.7879   3.5766   4.2842

          k =-1.1250-0.6250-0.3750 (   362 PWs)   bands (ev):

    -3.7633   0.0445   2.5975   3.9410

          k =-0.3750 0.3750 0.6250 (   364 PWs)   bands (ev):

    -3.5814  -0.7879   3.5766   4.2842

          k =-0.8750-0.6250 0.6250 (   356 PWs)   bands (ev):

    -4.6914   1.2441   3.5668   5.0388

          k =-0.3750 0.1250-0.1250 (   358 PWs)   bands (ev):

    -5.1804   2.5951   4.5287   4.5816

          k =-0.8750-0.8750-0.1250 (   362 PWs)   bands (ev):

    -2.7243  -0.9508   2.5061   3.2104

          k =-0.1250 0.1250 0.3750 (   358 PWs)   bands (ev):

    -5.1804   2.5951   4.5287   4.5816

          k =-0.6250-0.8750 0.3750 (   362 PWs)   bands (ev):

    -3.7633   0.0445   2.5975   3.9410

          k = 0.1250 0.6250-0.1250 (   357 PWs)   bands (ev):

    -4.1682   0.8894   3.2294   3.6697

          k =-0.3750-0.3750-0.1250 (   356 PWs)   bands (ev):

    -4.6914   1.2441   3.5668   5.0388

          k = 0.6250 0.1250-0.1250 (   357 PWs)   bands (ev):

    -4.1682   0.8894   3.2294   3.6697

          k = 0.1250-0.8750-0.1250 (   362 PWs)   bands (ev):

    -2.7243  -0.9508   2.5061   3.2104

          k =-0.8750 0.1250-0.6250 (   368 PWs)   bands (ev):

    -2.5658  -1.0439   1.9130   2.9631

          k =-1.3750-0.8750-0.6250 (   356 PWs)   bands (ev):

    -4.6914   1.2441   3.5668   5.0388

          k = 0.8750-0.1250 0.6250 (   368 PWs)   bands (ev):

    -2.5658  -1.0439   1.9130   2.9631

          k = 0.3750-1.1250 0.6250 (   362 PWs)   bands (ev):

    -3.7633   0.0445   2.5975   3.9410

          k =-0.6250 0.1250 0.8750 (   368 PWs)   bands (ev):

    -2.5658  -1.0439   1.9130   2.9631

          k =-1.1250-0.8750 0.8750 (   347 PWs)   bands (ev):

    -5.6983   4.2055   5.5158   5.5158

          k =-0.1250 0.8750 0.6250 (   368 PWs)   bands (ev):

    -2.5658  -1.0439   1.9130   2.9631

          k =-0.6250-0.1250 0.6250 (   365 PWs)   bands (ev):

    -3.0944  -0.7284   1.9621   3.9748

          k = 0.1250 0.8750-0.6250 (   368 PWs)   bands (ev):

    -2.5658  -1.0439   1.9130   2.9631

          k =-0.3750-0.1250-0.6250 (   362 PWs)   bands (ev):

    -3.7633   0.0445   2.5975   3.9410

          k =-0.6250-0.1250-0.3750 (   362 PWs)   bands (ev):

    -3.7633   0.0445   2.5975   3.9410

          k =-1.1250-1.1250-0.3750 (   357 PWs)   bands (ev):

    -4.1682   0.8894   3.2294   3.6697

          k = 0.6250 0.1250 0.3750 (   362 PWs)   bands (ev):

    -3.7633   0.0445   2.5975   3.9410

          k = 0.1250-0.8750 0.3750 (   368 PWs)   bands (ev):

    -2.5658  -1.0439   1.9130   2.9631

          k =-0.3750-0.1250 0.6250 (   362 PWs)   bands (ev):

    -3.7633   0.0445   2.5975   3.9410

          k =-0.8750-1.1250 0.6250 (   358 PWs)   bands (ev):

    -5.1804   2.5951   4.5287   4.5816

          k = 0.1250 0.6250 0.3750 (   362 PWs)   bands (ev):

    -3.7633   0.0445   2.5975   3.9410

          k =-0.3750-0.3750 0.3750 (   359 PWs)   bands (ev):

    -4.2696  -0.0126   4.7377   4.7377

          k =-0.1250 0.6250-0.3750 (   362 PWs)   bands (ev):

    -3.7633   0.0445   2.5975   3.9410

          k =-0.6250-0.3750-0.3750 (   364 PWs)   bands (ev):

    -3.5814  -0.7879   3.5766   4.2842

          k = 0.1250-0.8750-0.1250 (   362 PWs)   bands (ev):

    -2.7243  -0.9508   2.5061   3.2104

          k =-0.3750-1.8750-0.1250 (   358 PWs)   bands (ev):

    -5.1804   2.5951   4.5287   4.5816

          k =-0.8750 0.1250-0.1250 (   362 PWs)   bands (ev):

    -2.7243  -0.9508   2.5061   3.2104

          k =-1.3750-0.8750-0.1250 (   368 PWs)   bands (ev):

    -2.5658  -1.0439   1.9130   2.9631

          k =-1.1250 0.3750-0.3750 (   365 PWs)   bands (ev):

    -3.0944  -0.7284   1.9621   3.9748

          k =-1.6250-0.6250-0.3750 (   364 PWs)   bands (ev):

    -3.5814  -0.7879   3.5766   4.2842

          k =-0.3750 0.3750 1.1250 (   365 PWs)   bands (ev):

    -3.0944  -0.7284   1.9621   3.9748

          k =-0.8750-0.6250 1.1250 (   358 PWs)   bands (ev):

    -5.1804   2.5951   4.5287   4.5816

     highest occupied level (ev):     5.5158

     Writing output data file silicon.10.398.save

                                                                                

     bravais-lattice index     =            2
     lattice parameter (alat)  =      10.3980  a.u.
     unit-cell volume          =     281.0538 (a.u.)^3
     number of atoms/cell      =            2
     number of atomic types    =            1
     kinetic-energy cut-off    =      18.0000  Ry
     charge density cut-off    =      72.0000  Ry
     convergence threshold     =      1.0E-12
     beta                      =       0.7000
     number of iterations used =            4
     Exchange-correlation      = SLA  PW   PBE  PBE ( 1  4  3  4 0 0)


     celldm(1)=   10.39800  celldm(2)=    0.00000  celldm(3)=    0.00000
     celldm(4)=    0.00000  celldm(5)=    0.00000  celldm(6)=    0.00000

     crystal axes: (cart. coord. in units of alat)
               a(1) = ( -0.5000  0.0000  0.5000 )  
               a(2) = (  0.0000  0.5000  0.5000 )  
               a(3) = ( -0.5000  0.5000  0.0000 )  

     reciprocal axes: (cart. coord. in units 2 pi/alat)
               b(1) = ( -1.0000 -1.0000  1.0000 )  
               b(2) = (  1.0000  1.0000  1.0000 )  
               b(3) = ( -1.0000  1.0000 -1.0000 )  


     Atoms inside the unit cell: 

     Cartesian axes

     site n.  atom      mass           positions (alat units)
        1     Si  28.0860   tau(    1) = (    0.00000    0.00000    0.00000  )
        2     Si  28.0860   tau(    2) = (    0.25000    0.25000    0.25000  )

     Computing dynamical matrix for 
                    q = (  -0.5000000  -1.0000000   0.0000000 )

      8 Sym.Ops. (no q -> -q+G )


     G cutoff =  197.1843  (    722 G-vectors)     FFT grid: ( 20, 20, 20)
     number of k points=    64

     PseudoPot. # 1 for Si read from file:
     /home/max/quantum_espresso/qe-6.1/pseudo/si_pbe_v1.uspp.F.UPF.txt
     MD5 check sum: a056efeee980c13900f22a371efd63c1
     Pseudo is Ultrasoft + core correction, Zval =  4.0
     Generated by new atomic code, or converted to UPF format
     Using radial grid of  899 points,  6 beta functions with: 
                l(1) =   0
                l(2) =   0
                l(3) =   1
                l(4) =   1
                l(5) =   2
                l(6) =   2
     Q(r) pseudized with  8 coefficients,  rinner =    0.900   0.900   0.900
                                                       0.900   0.900


     Atomic displacements:
     There are   3 irreducible representations

     Representation     1      2 modes -  To be done

     Representation     2      2 modes -  To be done

     Representation     3      2 modes -  To be done



     Alpha used in Ewald sum =   0.7000
     PHONON       :  1m16.19s CPU     1m22.19s WALL



     Representation #  1 modes #   1  2

     Self-consistent Calculation

      iter #   1 total cpu time :    82.4 secs   av.it.:   5.3
      thresh= 1.000E-02 alpha_mix =  0.700 |ddv_scf|^2 =  7.661E-06

      iter #   2 total cpu time :    82.8 secs   av.it.:   9.8
      thresh= 2.768E-04 alpha_mix =  0.700 |ddv_scf|^2 =  4.293E-06

      iter #   3 total cpu time :    83.1 secs   av.it.:   9.0
      thresh= 2.072E-04 alpha_mix =  0.700 |ddv_scf|^2 =  8.454E-09

      iter #   4 total cpu time :    83.5 secs   av.it.:   9.1
      thresh= 9.194E-06 alpha_mix =  0.700 |ddv_scf|^2 =  2.253E-10

      iter #   5 total cpu time :    83.8 secs   av.it.:   8.9
      thresh= 1.501E-06 alpha_mix =  0.700 |ddv_scf|^2 =  1.245E-12

      iter #   6 total cpu time :    84.2 secs   av.it.:   9.2
      thresh= 1.116E-07 alpha_mix =  0.700 |ddv_scf|^2 =  1.211E-13

     End of self-consistent calculation

     Convergence has been achieved 


     Representation #  2 modes #   3  4

     Self-consistent Calculation

      iter #   1 total cpu time :    84.4 secs   av.it.:   5.2
      thresh= 1.000E-02 alpha_mix =  0.700 |ddv_scf|^2 =  9.706E-06

      iter #   2 total cpu time :    84.7 secs   av.it.:   9.9
      thresh= 3.115E-04 alpha_mix =  0.700 |ddv_scf|^2 =  1.319E-05

      iter #   3 total cpu time :    85.1 secs   av.it.:   9.1
      thresh= 3.632E-04 alpha_mix =  0.700 |ddv_scf|^2 =  1.018E-08

      iter #   4 total cpu time :    85.5 secs   av.it.:   8.9
      thresh= 1.009E-05 alpha_mix =  0.700 |ddv_scf|^2 =  9.594E-11

      iter #   5 total cpu time :    85.8 secs   av.it.:   9.4
      thresh= 9.795E-07 alpha_mix =  0.700 |ddv_scf|^2 =  1.853E-12

      iter #   6 total cpu time :    86.2 secs   av.it.:   9.1
      thresh= 1.361E-07 alpha_mix =  0.700 |ddv_scf|^2 =  1.626E-14

     End of self-consistent calculation

     Convergence has been achieved 


     Representation #  3 modes #   5  6

     Self-consistent Calculation

      iter #   1 total cpu time :    86.4 secs   av.it.:   5.1
      thresh= 1.000E-02 alpha_mix =  0.700 |ddv_scf|^2 =  2.904E-06

      iter #   2 total cpu time :    86.7 secs   av.it.:   9.6
      thresh= 1.704E-04 alpha_mix =  0.700 |ddv_scf|^2 =  1.761E-06

      iter #   3 total cpu time :    87.0 secs   av.it.:   8.9
      thresh= 1.327E-04 alpha_mix =  0.700 |ddv_scf|^2 =  8.002E-09

      iter #   4 total cpu time :    87.5 secs   av.it.:   8.9
      thresh= 8.945E-06 alpha_mix =  0.700 |ddv_scf|^2 =  2.542E-10

      iter #   5 total cpu time :    87.8 secs   av.it.:   8.9
      thresh= 1.594E-06 alpha_mix =  0.700 |ddv_scf|^2 =  1.236E-12

      iter #   6 total cpu time :    88.1 secs   av.it.:   9.0
      thresh= 1.112E-07 alpha_mix =  0.700 |ddv_scf|^2 =  1.807E-14

     End of self-consistent calculation

     Convergence has been achieved 

     Number of q in the star =    6
     List of q in the star:
          1  -0.500000000  -1.000000000   0.000000000
          2   0.000000000   1.000000000   0.500000000
          3   0.000000000  -1.000000000  -0.500000000
          4   0.500000000   1.000000000   0.000000000
          5  -1.000000000  -0.500000000   0.000000000
          6   0.000000000  -0.500000000  -1.000000000

     Diagonalizing the dynamical matrix

     q = (   -0.500000000  -1.000000000   0.000000000 ) 

 **************************************************************************
     freq (    1) =       7.801588 [THz] =     260.232948 [cm-1]
     freq (    2) =       7.801588 [THz] =     260.232948 [cm-1]
     freq (    3) =      11.032070 [THz] =     367.990232 [cm-1]
     freq (    4) =      11.032070 [THz] =     367.990232 [cm-1]
     freq (    5) =      13.775150 [THz] =     459.489537 [cm-1]
     freq (    6) =      13.775150 [THz] =     459.489537 [cm-1]
 **************************************************************************

     init_run     :      0.52s CPU      0.54s WALL (       7 calls)
     electrons    :      4.70s CPU      4.91s WALL (       7 calls)

     Called by init_run:
     wfcinit      :      0.00s CPU      0.00s WALL (       7 calls)
     potinit      :      0.02s CPU      0.02s WALL (       7 calls)

     Called by electrons:
     c_bands      :      4.70s CPU      4.90s WALL (       7 calls)
     v_of_rho     :      0.01s CPU      0.01s WALL (       8 calls)
     newd         :      0.03s CPU      0.03s WALL (       8 calls)

     Called by c_bands:
     init_us_2    :      0.71s CPU      0.77s WALL (   18316 calls)
     cegterg      :      3.96s CPU      4.13s WALL (     796 calls)

     Called by sum_band:

     Called by *egterg:
     h_psi        :     45.02s CPU     48.44s WALL (  158415 calls)
     s_psi        :      6.03s CPU      6.41s WALL (  322342 calls)
     g_psi        :      0.03s CPU      0.03s WALL (    9268 calls)
     cdiaghg      :      0.47s CPU      0.48s WALL (   10064 calls)

     Called by h_psi:
     h_psi:pot    :     44.82s CPU     48.22s WALL (  158415 calls)
     h_psi:calbec :      4.71s CPU      5.13s WALL (  158415 calls)
     vloc_psi     :     36.88s CPU     39.66s WALL (  158415 calls)
     add_vuspsi   :      3.01s CPU      3.21s WALL (  158415 calls)

     General routines
     calbec       :     10.32s CPU     11.26s WALL (  359506 calls)
     fft          :      0.40s CPU      0.46s WALL (    5393 calls)
     ffts         :      0.15s CPU      0.16s WALL (    2748 calls)
     fftw         :     42.85s CPU     46.17s WALL ( 1436876 calls)
     davcio       :      0.34s CPU      0.37s WALL (   82996 calls)

     Parallel routines
     fft_scatter  :      9.76s CPU     11.04s WALL ( 1445017 calls)

     PHONON       :  1m21.79s CPU     1m28.14s WALL

     INITIALIZATION: 
     phq_setup    :      0.05s CPU      0.05s WALL (       8 calls)
     phq_init     :      2.05s CPU      2.15s WALL (       8 calls)

     phq_init     :      2.05s CPU      2.15s WALL (       8 calls)
     set_drhoc    :      0.30s CPU      0.30s WALL (      24 calls)
     init_vloc    :      0.01s CPU      0.01s WALL (       8 calls)
     init_us_1    :      0.48s CPU      0.49s WALL (       8 calls)
     newd         :      0.03s CPU      0.03s WALL (       8 calls)
     dvanqq       :      0.24s CPU      0.24s WALL (       8 calls)
     drho         :      1.06s CPU      1.10s WALL (       8 calls)

     DYNAMICAL MATRIX:
     dynmat0      :      0.51s CPU      0.57s WALL (       8 calls)
     phqscf       :     71.85s CPU     77.80s WALL (       8 calls)
     dynmatrix    :      0.01s CPU      0.02s WALL (       8 calls)

     phqscf       :     71.85s CPU     77.80s WALL (       8 calls)
     solve_linter :     71.11s CPU     76.98s WALL (      32 calls)
     drhodv       :      0.54s CPU      0.60s WALL (      32 calls)

     dynmat0      :      0.51s CPU      0.57s WALL (       8 calls)
     dynmat_us    :      0.29s CPU      0.35s WALL (       8 calls)
     d2ionq       :      0.01s CPU      0.01s WALL (       8 calls)
     dynmatcc     :      0.21s CPU      0.21s WALL (       8 calls)

     dynmat_us    :      0.29s CPU      0.35s WALL (       8 calls)
     addusdynmat  :      0.00s CPU      0.00s WALL (       8 calls)

     phqscf       :     71.85s CPU     77.80s WALL (       8 calls)
     solve_linter :     71.11s CPU     76.98s WALL (      32 calls)

     solve_linter :     71.11s CPU     76.98s WALL (      32 calls)
     dvqpsi_us    :      1.61s CPU      1.74s WALL (    2508 calls)
     ortho        :      1.12s CPU      1.23s WALL (   16342 calls)
     cgsolve      :     55.60s CPU     60.17s WALL (   16342 calls)
     incdrhoscf   :      4.90s CPU      5.24s WALL (   16342 calls)
     addusddens   :      1.21s CPU      1.29s WALL (     237 calls)
     vpsifft      :      3.63s CPU      3.98s WALL (   13714 calls)
     dv_of_drho   :      0.21s CPU      0.22s WALL (     306 calls)
     mix_pot      :      0.14s CPU      0.22s WALL (     210 calls)
     psymdvscf    :      0.81s CPU      0.84s WALL (     205 calls)
     newdq        :      1.31s CPU      1.36s WALL (     210 calls)
     adddvscf     :      0.49s CPU      0.52s WALL (   13834 calls)
     drhodvus     :      0.00s CPU      0.01s WALL (      32 calls)

     dvqpsi_us    :      1.61s CPU      1.74s WALL (    2508 calls)
     dvqpsi_us_on :      0.81s CPU      0.87s WALL (    2508 calls)

     cgsolve      :     55.60s CPU     60.17s WALL (   16342 calls)
     ch_psi       :     53.85s CPU     58.23s WALL (  147555 calls)

     ch_psi       :     53.85s CPU     58.23s WALL (  147555 calls)
     h_psi        :     45.02s CPU     48.44s WALL (  158415 calls)
     last         :      8.89s CPU      9.82s WALL (  147555 calls)

     h_psi        :     45.02s CPU     48.44s WALL (  158415 calls)
     add_vuspsi   :      3.01s CPU      3.21s WALL (  158415 calls)

     incdrhoscf   :      4.90s CPU      5.24s WALL (   16342 calls)
     addusdbec    :      0.69s CPU      0.73s WALL (   18790 calls)

     drhodvus     :      0.00s CPU      0.01s WALL (      32 calls)

      General routines
     calbec       :     10.32s CPU     11.26s WALL (  359506 calls)
     fft          :      0.40s CPU      0.46s WALL (    5393 calls)
     ffts         :      0.15s CPU      0.16s WALL (    2748 calls)
     fftw         :     42.85s CPU     46.17s WALL ( 1436876 calls)
     davcio       :      0.34s CPU      0.37s WALL (   82996 calls)
     write_rec    :      0.21s CPU      0.23s WALL (     242 calls)


     PHONON       :  1m21.79s CPU     1m28.14s WALL


   This run was terminated on:  17:30:51   9Nov2017            

=------------------------------------------------------------------------------=
   JOB DONE.
=------------------------------------------------------------------------------=
