
     Program PWSCF v.6.1 (svn rev. 13369) starts on 10Nov2017 at 10:32: 1 

     This program is part of the open-source Quantum ESPRESSO suite
     for quantum simulation of materials; please cite
         "P. Giannozzi et al., J. Phys.:Condens. Matter 21 395502 (2009);
          URL http://www.quantum-espresso.org", 
     in publications or presentations arising from this work. More details at
     http://www.quantum-espresso.org/quote

     Parallel version (MPI), running on     4 processors
     R & G space division:  proc/nbgrp/npool/nimage =       4
     Waiting for input...
     Reading input from standard input
     Message from routine read_cards :
     DEPRECATED: no units specified in ATOMIC_POSITIONS card
     Message from routine read_cards :
     ATOMIC_POSITIONS: units set to alat

     Current dimensions of program PWSCF are:
     Max number of different atomic species (ntypx) = 10
     Max number of k-points (npk) =  40000
     Max angular momentum in pseudopotentials (lmaxx) =  3

     Subspace diagonalization in iterative solution of the eigenvalue problem:
     a serial algorithm will be used


     Parallelization info
     --------------------
     sticks:   dense  smooth     PW     G-vecs:    dense   smooth      PW
     Min         222     109     37                 4363     1545     309
     Max         223     110     38                 4364     1546     312
     Sum         889     439    151                17453     6183    1243



     bravais-lattice index     =            2
     lattice parameter (alat)  =      10.3560  a.u.
     unit-cell volume          =     277.6618 (a.u.)^3
     number of atoms/cell      =            2
     number of atomic types    =            1
     number of electrons       =         8.00
     number of Kohn-Sham states=            4
     kinetic-energy cutoff     =      30.0000  Ry
     charge density cutoff     =     240.0000  Ry
     convergence threshold     =      1.0E-08
     mixing beta               =       0.7000
     number of iterations used =            8  plain     mixing
     Exchange-correlation      = SLA  PW   PBE  PBE ( 1  4  3  4 0 0)

     celldm(1)=  10.356000  celldm(2)=   0.000000  celldm(3)=   0.000000
     celldm(4)=   0.000000  celldm(5)=   0.000000  celldm(6)=   0.000000

     crystal axes: (cart. coord. in units of alat)
               a(1) = (  -0.500000   0.000000   0.500000 )  
               a(2) = (   0.000000   0.500000   0.500000 )  
               a(3) = (  -0.500000   0.500000   0.000000 )  

     reciprocal axes: (cart. coord. in units 2 pi/alat)
               b(1) = ( -1.000000 -1.000000  1.000000 )  
               b(2) = (  1.000000  1.000000  1.000000 )  
               b(3) = ( -1.000000  1.000000 -1.000000 )  


     PseudoPot. # 1 for Si read from file:
     /home/max/quantum_espresso/qe-6.1/pseudo/si_pbe_v1.uspp.F.UPF.txt
     MD5 check sum: a056efeee980c13900f22a371efd63c1
     Pseudo is Ultrasoft + core correction, Zval =  4.0
     Generated by new atomic code, or converted to UPF format
     Using radial grid of  899 points,  6 beta functions with: 
                l(1) =   0
                l(2) =   0
                l(3) =   1
                l(4) =   1
                l(5) =   2
                l(6) =   2
     Q(r) pseudized with  8 coefficients,  rinner =    0.900   0.900   0.900
                                                       0.900   0.900

     atomic species   valence    mass     pseudopotential
        Si             4.00    28.08600     Si( 1.00)

     48 Sym. Ops., with inversion, found (24 have fractional translation)



   Cartesian axes

     site n.     atom                  positions (alat units)
         1           Si  tau(   1) = (   0.0000000   0.0000000   0.0000000  )
         2           Si  tau(   2) = (   0.2500000   0.2500000   0.2500000  )

     number of k points=    28
                       cart. coord. in units 2pi/alat
        k(    1) = (  -0.0833333   0.0833333   0.0833333), wk =   0.0185185
        k(    2) = (  -0.2500000   0.2500000  -0.0833333), wk =   0.0555556
        k(    3) = (  -0.4166667   0.4166667  -0.2500000), wk =   0.0555556
        k(    4) = (   0.4166667  -0.4166667   0.5833333), wk =   0.0555556
        k(    5) = (   0.2500000  -0.2500000   0.4166667), wk =   0.0555556
        k(    6) = (   0.0833333  -0.0833333   0.2500000), wk =   0.0555556
        k(    7) = (  -0.0833333   0.4166667   0.0833333), wk =   0.0555556
        k(    8) = (  -0.2500000   0.5833333  -0.0833333), wk =   0.1111111
        k(    9) = (   0.5833333  -0.2500000   0.7500000), wk =   0.1111111
        k(   10) = (   0.4166667  -0.0833333   0.5833333), wk =   0.1111111
        k(   11) = (   0.2500000   0.0833333   0.4166667), wk =   0.1111111
        k(   12) = (  -0.0833333   0.7500000   0.0833333), wk =   0.0555556
        k(   13) = (   0.7500000  -0.0833333   0.9166667), wk =   0.1111111
        k(   14) = (   0.5833333   0.0833333   0.7500000), wk =   0.1111111
        k(   15) = (   0.4166667   0.2500000   0.5833333), wk =   0.1111111
        k(   16) = (  -0.0833333  -0.9166667   0.0833333), wk =   0.0555556
        k(   17) = (  -0.2500000  -0.7500000  -0.0833333), wk =   0.1111111
        k(   18) = (  -0.0833333  -0.5833333   0.0833333), wk =   0.0555556
        k(   19) = (  -0.2500000   0.2500000   0.2500000), wk =   0.0185185
        k(   20) = (  -0.4166667   0.4166667   0.0833333), wk =   0.0555556
        k(   21) = (   0.4166667  -0.4166667   0.9166667), wk =   0.0555556
        k(   22) = (   0.2500000  -0.2500000   0.7500000), wk =   0.0555556
        k(   23) = (  -0.2500000   0.5833333   0.2500000), wk =   0.0555556
        k(   24) = (   0.5833333  -0.2500000   1.0833333), wk =   0.1111111
        k(   25) = (   0.4166667  -0.0833333   0.9166667), wk =   0.1111111
        k(   26) = (  -0.2500000  -1.0833333   0.2500000), wk =   0.0555556
        k(   27) = (  -0.4166667   0.4166667   0.4166667), wk =   0.0185185
        k(   28) = (   0.4166667  -0.4166667   1.2500000), wk =   0.0555556

     Dense  grid:    17453 G-vectors     FFT dimensions: (  40,  40,  40)

     Smooth grid:     6183 G-vectors     FFT dimensions: (  25,  25,  25)

     Estimated max dynamical RAM per process >       3.37MB

     Estimated total allocated dynamical RAM >      13.50MB

     Initial potential from superposition of free atoms

     starting charge    7.99866, renormalised to    8.00000
     Starting wfc are    8 randomized atomic wfcs

     total cpu time spent up to now is        0.6 secs

     per-process dynamical memory:     9.8 Mb

     Self-consistent Calculation

     iteration #  1     ecut=    30.00 Ry     beta=0.70
     Davidson diagonalization with overlap
     ethr =  1.00E-02,  avg # of iterations =  2.0

     Threshold (ethr) on eigenvalues was too large:
     Diagonalizing with lowered threshold

     Davidson diagonalization with overlap
     ethr =  6.70E-04,  avg # of iterations =  1.0

     total cpu time spent up to now is        1.5 secs

     total energy              =     -19.19123944 Ry
     Harris-Foulkes estimate   =     -19.20342939 Ry
     estimated scf accuracy    <       0.05309719 Ry

     iteration #  2     ecut=    30.00 Ry     beta=0.70
     Davidson diagonalization with overlap
     ethr =  6.64E-04,  avg # of iterations =  1.0

     total cpu time spent up to now is        1.7 secs

     total energy              =     -19.19296201 Ry
     Harris-Foulkes estimate   =     -19.19313055 Ry
     estimated scf accuracy    <       0.00244790 Ry

     iteration #  3     ecut=    30.00 Ry     beta=0.70
     Davidson diagonalization with overlap
     ethr =  3.06E-05,  avg # of iterations =  2.1

     total cpu time spent up to now is        1.9 secs

     total energy              =     -19.19329533 Ry
     Harris-Foulkes estimate   =     -19.19330796 Ry
     estimated scf accuracy    <       0.00004107 Ry

     iteration #  4     ecut=    30.00 Ry     beta=0.70
     Davidson diagonalization with overlap
     ethr =  5.13E-07,  avg # of iterations =  3.3

     total cpu time spent up to now is        2.2 secs

     total energy              =     -19.19333208 Ry
     Harris-Foulkes estimate   =     -19.19333288 Ry
     estimated scf accuracy    <       0.00000301 Ry

     iteration #  5     ecut=    30.00 Ry     beta=0.70
     Davidson diagonalization with overlap
     ethr =  3.76E-08,  avg # of iterations =  2.0

     total cpu time spent up to now is        2.5 secs

     total energy              =     -19.19333248 Ry
     Harris-Foulkes estimate   =     -19.19333247 Ry
     estimated scf accuracy    <       0.00000001 Ry

     iteration #  6     ecut=    30.00 Ry     beta=0.70
     Davidson diagonalization with overlap
     ethr =  1.27E-10,  avg # of iterations =  3.9

     total cpu time spent up to now is        3.2 secs

     End of self-consistent calculation

          k =-0.0833 0.0833 0.0833 (   752 PWs)   bands (ev):

    -5.7729   5.0528   5.7722   5.7722

          k =-0.2500 0.2500-0.0833 (   775 PWs)   bands (ev):

    -5.3061   2.9919   4.5630   5.5632

          k =-0.4167 0.4167-0.2500 (   771 PWs)   bands (ev):

    -4.2390   0.2827   4.1006   4.9383

          k = 0.4167-0.4167 0.5833 (   771 PWs)   bands (ev):

    -3.5618  -0.8327   4.1618   4.5665

          k = 0.2500-0.2500 0.4167 (   776 PWs)   bands (ev):

    -4.6406   1.1119   4.6282   4.6513

          k = 0.0833-0.0833 0.2500 (   781 PWs)   bands (ev):

    -5.5372   3.9874   5.1420   5.3163

          k =-0.0833 0.4167 0.0833 (   775 PWs)   bands (ev):

    -5.0698   2.7908   4.4063   4.4271

          k =-0.2500 0.5833-0.0833 (   775 PWs)   bands (ev):

    -4.1791   0.9796   3.1199   4.0466

          k = 0.5833-0.2500 0.7500 (   769 PWs)   bands (ev):

    -3.0934  -0.7246   2.5238   3.8263

          k = 0.4167-0.0833 0.5833 (   771 PWs)   bands (ev):

    -3.7946   0.3038   2.4909   4.2998

          k = 0.2500 0.0833 0.4167 (   778 PWs)   bands (ev):

    -4.8493   1.9765   3.8016   4.9499

          k =-0.0833 0.7500 0.0833 (   774 PWs)   bands (ev):

    -3.4814   0.1551   3.0883   3.4176

          k = 0.7500-0.0833 0.9167 (   764 PWs)   bands (ev):

    -2.3132  -1.1605   2.2701   3.0235

          k = 0.5833 0.0833 0.7500 (   767 PWs)   bands (ev):

    -2.6818  -0.8212   1.7958   3.5565

          k = 0.4167 0.2500 0.5833 (   773 PWs)   bands (ev):

    -3.6876  -0.3503   3.4009   4.3943

          k =-0.0833-0.9167 0.0833 (   765 PWs)   bands (ev):

    -2.4004  -1.1671   2.8248   3.2061

          k =-0.2500-0.7500-0.0833 (   770 PWs)   bands (ev):

    -3.3180  -0.0619   2.5804   3.3569

          k =-0.0833-0.5833 0.0833 (   775 PWs)   bands (ev):

    -4.3795   1.5001   3.6195   3.8322

          k =-0.2500 0.2500 0.2500 (   778 PWs)   bands (ev):

    -5.0816   2.0348   5.1696   5.1696

          k =-0.4167 0.4167 0.0833 (   779 PWs)   bands (ev):

    -4.4173   1.1031   3.0841   5.0019

          k = 0.4167-0.4167 0.9167 (   769 PWs)   bands (ev):

    -3.2670  -0.3194   2.0046   4.2339

          k = 0.2500-0.2500 0.7500 (   768 PWs)   bands (ev):

    -3.2147  -0.3977   2.4690   3.7631

          k =-0.2500 0.5833 0.2500 (   777 PWs)   bands (ev):

    -4.0032   0.3141   3.5283   4.1286

          k = 0.5833-0.2500 1.0833 (   764 PWs)   bands (ev):

    -3.0244  -0.4390   2.1039   3.3571

          k = 0.4167-0.0833 0.9167 (   759 PWs)   bands (ev):

    -2.2125  -1.1681   1.9497   2.7069

          k =-0.2500-1.0833 0.2500 (   764 PWs)   bands (ev):

    -2.4194  -1.0697   1.8260   3.5724

          k =-0.4167 0.4167 0.4167 (   769 PWs)   bands (ev):

    -3.9197  -0.4414   4.7863   4.7863

          k = 0.4167-0.4167 1.2500 (   771 PWs)   bands (ev):

    -3.3306  -0.7444   2.9854   4.3574

     highest occupied level (ev):     5.7722

!    total energy              =     -19.19333251 Ry
     Harris-Foulkes estimate   =     -19.19333251 Ry
     estimated scf accuracy    <          6.5E-10 Ry

     The total energy is the sum of the following terms:

     one-electron contribution =       4.90121667 Ry
     hartree contribution      =       1.13967371 Ry
     xc contribution           =      -8.58903773 Ry
     ewald contribution        =     -16.64518515 Ry

     convergence has been achieved in   6 iterations

     Writing output data file silicon.10.356.save

     init_run     :      0.41s CPU      0.51s WALL (       1 calls)
     electrons    :      1.74s CPU      2.63s WALL (       1 calls)

     Called by init_run:
     wfcinit      :      0.13s CPU      0.20s WALL (       1 calls)
     potinit      :      0.03s CPU      0.03s WALL (       1 calls)

     Called by electrons:
     c_bands      :      1.09s CPU      1.86s WALL (       7 calls)
     sum_band     :      0.38s CPU      0.46s WALL (       7 calls)
     v_of_rho     :      0.14s CPU      0.15s WALL (       7 calls)
     newd         :      0.15s CPU      0.18s WALL (       7 calls)
     mix_rho      :      0.01s CPU      0.01s WALL (       7 calls)

     Called by c_bands:
     init_us_2    :      0.06s CPU      0.06s WALL (     420 calls)
     cegterg      :      0.95s CPU      1.68s WALL (     196 calls)

     Called by sum_band:
     sum_band:bec :      0.00s CPU      0.00s WALL (     196 calls)
     addusdens    :      0.17s CPU      0.20s WALL (       7 calls)

     Called by *egterg:
     h_psi        :      0.81s CPU      1.40s WALL (     656 calls)
     s_psi        :      0.05s CPU      0.06s WALL (     656 calls)
     g_psi        :      0.00s CPU      0.00s WALL (     432 calls)
     cdiaghg      :      0.05s CPU      0.08s WALL (     600 calls)

     Called by h_psi:
     h_psi:pot    :      0.81s CPU      1.40s WALL (     656 calls)
     h_psi:calbec :      0.10s CPU      0.20s WALL (     656 calls)
     vloc_psi     :      0.66s CPU      1.14s WALL (     656 calls)
     add_vuspsi   :      0.05s CPU      0.06s WALL (     656 calls)

     General routines
     calbec       :      0.12s CPU      0.24s WALL (     852 calls)
     fft          :      0.11s CPU      0.14s WALL (     112 calls)
     ffts         :      0.00s CPU      0.00s WALL (      14 calls)
     fftw         :      0.66s CPU      1.16s WALL (    5708 calls)
     interpolate  :      0.01s CPU      0.02s WALL (      14 calls)
     davcio       :      0.00s CPU      0.00s WALL (      28 calls)

     Parallel routines
     fft_scatter  :      0.42s CPU      0.90s WALL (    5834 calls)

     PWSCF        :     2.36s CPU         3.37s WALL


   This run was terminated on:  10:32: 4  10Nov2017            

=------------------------------------------------------------------------------=
   JOB DONE.
=------------------------------------------------------------------------------=
