
     Program PHONON v.6.1 (svn rev. 13369) starts on  9Nov2017 at 12: 1:16 

     This program is part of the open-source Quantum ESPRESSO suite
     for quantum simulation of materials; please cite
         "P. Giannozzi et al., J. Phys.:Condens. Matter 21 395502 (2009);
          URL http://www.quantum-espresso.org", 
     in publications or presentations arising from this work. More details at
     http://www.quantum-espresso.org/quote

     Parallel version (MPI), running on     4 processors
     R & G space division:  proc/nbgrp/npool/nimage =       4

     Reading data from directory:
     ./silicon.10.321.save

   Info: using nr1, nr2, nr3 values from input

   Info: using nr1, nr2, nr3 values from input

     IMPORTANT: XC functional enforced from input :
     Exchange-correlation      = SLA  PW   PBE  PBE ( 1  4  3  4 0 0)
     Any further DFT definition will be discarded
     Please, verify this is what you really want


     Parallelization info
     --------------------
     sticks:   dense  smooth     PW     G-vecs:    dense   smooth      PW
     Min          63      63     22                  684      684     140
     Max          64      64     23                  688      688     141
     Sum         253     253     91                 2741     2741     561


     Check: negative/imaginary core charge=   -0.000005    0.000000


     Dynamical matrices for ( 4, 4, 4)  uniform grid of q-points
     (   8q-points):
       N         xq(1)         xq(2)         xq(3) 
       1   0.000000000   0.000000000   0.000000000
       2  -0.250000000   0.250000000  -0.250000000
       3   0.500000000  -0.500000000   0.500000000
       4   0.000000000   0.500000000   0.000000000
       5   0.750000000  -0.250000000   0.750000000
       6   0.500000000   0.000000000   0.500000000
       7   0.000000000  -1.000000000   0.000000000
       8  -0.500000000  -1.000000000   0.000000000

     Calculation of q =    0.0000000   0.0000000   0.0000000

                                                                                

     bravais-lattice index     =            2
     lattice parameter (alat)  =      10.3210  a.u.
     unit-cell volume          =     274.8561 (a.u.)^3
     number of atoms/cell      =            2
     number of atomic types    =            1
     kinetic-energy cut-off    =      18.0000  Ry
     charge density cut-off    =      72.0000  Ry
     convergence threshold     =      1.0E-12
     beta                      =       0.7000
     number of iterations used =            4
     Exchange-correlation      = SLA  PW   PBE  PBE ( 1  4  3  4 0 0)


     celldm(1)=   10.32100  celldm(2)=    0.00000  celldm(3)=    0.00000
     celldm(4)=    0.00000  celldm(5)=    0.00000  celldm(6)=    0.00000

     crystal axes: (cart. coord. in units of alat)
               a(1) = ( -0.5000  0.0000  0.5000 )  
               a(2) = (  0.0000  0.5000  0.5000 )  
               a(3) = ( -0.5000  0.5000  0.0000 )  

     reciprocal axes: (cart. coord. in units 2 pi/alat)
               b(1) = ( -1.0000 -1.0000  1.0000 )  
               b(2) = (  1.0000  1.0000  1.0000 )  
               b(3) = ( -1.0000  1.0000 -1.0000 )  


     Atoms inside the unit cell: 

     Cartesian axes

     site n.  atom      mass           positions (alat units)
        1     Si  28.0860   tau(    1) = (    0.00000    0.00000    0.00000  )
        2     Si  28.0860   tau(    2) = (    0.25000    0.25000    0.25000  )

     Computing dynamical matrix for 
                    q = (   0.0000000   0.0000000   0.0000000 )

     49 Sym.Ops. (with q -> -q+G )


     G cutoff =  194.2747  (    685 G-vectors)     FFT grid: ( 20, 20, 20)
     number of k points=    10

     PseudoPot. # 1 for Si read from file:
     /home/max/quantum_espresso/qe-6.1/pseudo/si_pbe_v1.uspp.F.UPF.txt
     MD5 check sum: a056efeee980c13900f22a371efd63c1
     Pseudo is Ultrasoft + core correction, Zval =  4.0
     Generated by new atomic code, or converted to UPF format
     Using radial grid of  899 points,  6 beta functions with: 
                l(1) =   0
                l(2) =   0
                l(3) =   1
                l(4) =   1
                l(5) =   2
                l(6) =   2
     Q(r) pseudized with  8 coefficients,  rinner =    0.900   0.900   0.900
                                                       0.900   0.900

     Mode symmetry, O_h (m-3m)  point group:


     Electric field:
     Dielectric constant
     Born effective charges in two ways 


     Atomic displacements:
     There are   2 irreducible representations

     Representation     1      3 modes -T_2g G_25' G_5+  To be done

     Representation     2      3 modes -T_1u G_15  G_4-  To be done



     Alpha used in Ewald sum =   0.7000
     PHONON       :     0.54s CPU         0.58s WALL


     Electric Fields Calculation

      iter #   1 total cpu time :     1.1 secs   av.it.:   5.6
      thresh= 1.000E-02 alpha_mix =  0.700 |ddv_scf|^2 =  9.054E-07

      iter #   2 total cpu time :     1.3 secs   av.it.:   9.9
      thresh= 9.515E-05 alpha_mix =  0.700 |ddv_scf|^2 =  5.553E-08

      iter #   3 total cpu time :     1.5 secs   av.it.:   9.8
      thresh= 2.356E-05 alpha_mix =  0.700 |ddv_scf|^2 =  4.217E-09

      iter #   4 total cpu time :     1.7 secs   av.it.:   9.0
      thresh= 6.494E-06 alpha_mix =  0.700 |ddv_scf|^2 =  2.470E-11

      iter #   5 total cpu time :     1.9 secs   av.it.:   9.1
      thresh= 4.969E-07 alpha_mix =  0.700 |ddv_scf|^2 =  1.317E-14

     End of electric fields calculation

          Dielectric constant in cartesian axis 

          (      13.846459432      -0.000000000      -0.000000000 )
          (      -0.000000000      13.846459432       0.000000000 )
          (       0.000000000       0.000000000      13.846459432 )

          Effective charges (d Force / dE) in cartesian axis

           atom      1   Si 
      Ex  (       -0.03127        0.00000       -0.00000 )
      Ey  (        0.00000       -0.03127       -0.00000 )
      Ez  (        0.00000       -0.00000       -0.03127 )
           atom      2   Si 
      Ex  (       -0.03127        0.00000       -0.00000 )
      Ey  (       -0.00000       -0.03127        0.00000 )
      Ez  (       -0.00000        0.00000       -0.03127 )


     Representation #  1 modes #   1  2  3

     Self-consistent Calculation

      iter #   1 total cpu time :     2.4 secs   av.it.:   4.9
      thresh= 1.000E-02 alpha_mix =  0.700 |ddv_scf|^2 =  2.238E-07

      iter #   2 total cpu time :     3.0 secs   av.it.:   9.7
      thresh= 4.731E-05 alpha_mix =  0.700 |ddv_scf|^2 =  1.382E-08

      iter #   3 total cpu time :     3.2 secs   av.it.:   9.3
      thresh= 1.175E-05 alpha_mix =  0.700 |ddv_scf|^2 =  8.543E-10

      iter #   4 total cpu time :     3.4 secs   av.it.:   9.0
      thresh= 2.923E-06 alpha_mix =  0.700 |ddv_scf|^2 =  1.875E-12

      iter #   5 total cpu time :     3.6 secs   av.it.:   9.4
      thresh= 1.369E-07 alpha_mix =  0.700 |ddv_scf|^2 =  1.223E-14

     End of self-consistent calculation

     Convergence has been achieved 


     Representation #  2 modes #   4  5  6

     Self-consistent Calculation

      iter #   1 total cpu time :     3.8 secs   av.it.:   5.0
      thresh= 1.000E-02 alpha_mix =  0.700 |ddv_scf|^2 =  1.700E-07

      iter #   2 total cpu time :     4.0 secs   av.it.:   9.6
      thresh= 4.123E-05 alpha_mix =  0.700 |ddv_scf|^2 =  1.324E-08

      iter #   3 total cpu time :     4.2 secs   av.it.:   9.3
      thresh= 1.151E-05 alpha_mix =  0.700 |ddv_scf|^2 =  8.439E-10

      iter #   4 total cpu time :     4.6 secs   av.it.:   9.5
      thresh= 2.905E-06 alpha_mix =  0.700 |ddv_scf|^2 =  5.059E-12

      iter #   5 total cpu time :     5.0 secs   av.it.:   9.0
      thresh= 2.249E-07 alpha_mix =  0.700 |ddv_scf|^2 =  4.402E-15

     End of self-consistent calculation

     Convergence has been achieved 

     Number of q in the star =    1
     List of q in the star:
          1   0.000000000   0.000000000   0.000000000

          Dielectric constant in cartesian axis 

          (      13.846459432      -0.000000000      -0.000000000 )
          (      -0.000000000      13.846459432       0.000000000 )
          (       0.000000000       0.000000000      13.846459432 )

          Effective charges (d Force / dE) in cartesian axis

           atom      1   Si 
      Ex  (       -0.03127        0.00000       -0.00000 )
      Ey  (        0.00000       -0.03127       -0.00000 )
      Ez  (        0.00000       -0.00000       -0.03127 )
           atom      2   Si 
      Ex  (       -0.03127        0.00000       -0.00000 )
      Ey  (       -0.00000       -0.03127        0.00000 )
      Ez  (       -0.00000        0.00000       -0.03127 )

          Effective charges (d P / du) in cartesian axis 

           atom      1   Si 
      Px  (       -0.07210        0.00000        0.00000 )
      Py  (        0.00000       -0.07210       -0.00000 )
      Pz  (        0.00000        0.00000       -0.07210 )
           atom      2   Si 
      Px  (       -0.07210       -0.00000        0.00000 )
      Py  (       -0.00000       -0.07210       -0.00000 )
      Pz  (        0.00000       -0.00000       -0.07210 )

     Diagonalizing the dynamical matrix

     q = (    0.000000000   0.000000000   0.000000000 ) 

 **************************************************************************
     freq (    1) =       1.943111 [THz] =      64.815221 [cm-1]
     freq (    2) =       1.943111 [THz] =      64.815221 [cm-1]
     freq (    3) =       1.943111 [THz] =      64.815221 [cm-1]
     freq (    4) =      15.068196 [THz] =     502.620902 [cm-1]
     freq (    5) =      15.068196 [THz] =     502.620902 [cm-1]
     freq (    6) =      15.068196 [THz] =     502.620902 [cm-1]
 **************************************************************************

     Mode symmetry, O_h (m-3m)  point group:

     freq (  1 -  3) =         64.8  [cm-1]   --> T_1u G_15  G_4- I  
     freq (  4 -  6) =        502.6  [cm-1]   --> T_2g G_25' G_5+ R  

     Calculation of q =   -0.2500000   0.2500000  -0.2500000

   Info: using nr1, nr2, nr3 values from input

   Info: using nr1, nr2, nr3 values from input

     Parallelization info
     --------------------
     sticks:   dense  smooth     PW     G-vecs:    dense   smooth      PW
     Min          63      63     24                  684      684     161
     Max          64      64     25                  688      688     162
     Sum         253     253     97                 2741     2741     645



     bravais-lattice index     =            2
     lattice parameter (alat)  =      10.3210  a.u.
     unit-cell volume          =     274.8561 (a.u.)^3
     number of atoms/cell      =            2
     number of atomic types    =            1
     number of electrons       =         8.00
     number of Kohn-Sham states=            4
     kinetic-energy cutoff     =      18.0000  Ry
     charge density cutoff     =      72.0000  Ry
     Exchange-correlation      = SLA  PW   PBE  PBE ( 1  4  3  4 0 0)

     celldm(1)=  10.321000  celldm(2)=   0.000000  celldm(3)=   0.000000
     celldm(4)=   0.000000  celldm(5)=   0.000000  celldm(6)=   0.000000

     crystal axes: (cart. coord. in units of alat)
               a(1) = (  -0.500000   0.000000   0.500000 )  
               a(2) = (   0.000000   0.500000   0.500000 )  
               a(3) = (  -0.500000   0.500000   0.000000 )  

     reciprocal axes: (cart. coord. in units 2 pi/alat)
               b(1) = ( -1.000000 -1.000000  1.000000 )  
               b(2) = (  1.000000  1.000000  1.000000 )  
               b(3) = ( -1.000000  1.000000 -1.000000 )  


     PseudoPot. # 1 for Si read from file:
     /home/max/quantum_espresso/qe-6.1/pseudo/si_pbe_v1.uspp.F.UPF.txt
     MD5 check sum: a056efeee980c13900f22a371efd63c1
     Pseudo is Ultrasoft + core correction, Zval =  4.0
     Generated by new atomic code, or converted to UPF format
     Using radial grid of  899 points,  6 beta functions with: 
                l(1) =   0
                l(2) =   0
                l(3) =   1
                l(4) =   1
                l(5) =   2
                l(6) =   2
     Q(r) pseudized with  8 coefficients,  rinner =    0.900   0.900   0.900
                                                       0.900   0.900

     atomic species   valence    mass     pseudopotential
        Si             4.00    28.08600     Si( 1.00)

     48 Sym. Ops., with inversion, found



   Cartesian axes

     site n.     atom                  positions (alat units)
         1           Si  tau(   1) = (   0.0000000   0.0000000   0.0000000  )
         2           Si  tau(   2) = (   0.2500000   0.2500000   0.2500000  )

     number of k points=   120

     Number of k-points >= 100: set verbosity='high' to print them.

     Dense  grid:     2741 G-vectors     FFT dimensions: (  20,  20,  20)

     Estimated max dynamical RAM per process >       0.33MB

     Estimated total allocated dynamical RAM >       1.30MB

     Check: negative/imaginary core charge=   -0.000005    0.000000

     The potential is recalculated from file :
     ./_ph0/silicon.10.321.save/charge-density.dat

     Starting wfc are    8 atomic wfcs

     Band Structure Calculation
     Davidson diagonalization with overlap

     ethr =  1.25E-10,  avg # of iterations = 11.7

     total cpu time spent up to now is        0.8 secs

     End of band structure calculation

     Number of k-points >= 100: set verbosity='high' to print the bands.

     highest occupied level (ev):     5.7364

     Writing output data file silicon.10.321.save

                                                                                

     bravais-lattice index     =            2
     lattice parameter (alat)  =      10.3210  a.u.
     unit-cell volume          =     274.8561 (a.u.)^3
     number of atoms/cell      =            2
     number of atomic types    =            1
     kinetic-energy cut-off    =      18.0000  Ry
     charge density cut-off    =      72.0000  Ry
     convergence threshold     =      1.0E-12
     beta                      =       0.7000
     number of iterations used =            4
     Exchange-correlation      = SLA  PW   PBE  PBE ( 1  4  3  4 0 0)


     celldm(1)=   10.32100  celldm(2)=    0.00000  celldm(3)=    0.00000
     celldm(4)=    0.00000  celldm(5)=    0.00000  celldm(6)=    0.00000

     crystal axes: (cart. coord. in units of alat)
               a(1) = ( -0.5000  0.0000  0.5000 )  
               a(2) = (  0.0000  0.5000  0.5000 )  
               a(3) = ( -0.5000  0.5000  0.0000 )  

     reciprocal axes: (cart. coord. in units 2 pi/alat)
               b(1) = ( -1.0000 -1.0000  1.0000 )  
               b(2) = (  1.0000  1.0000  1.0000 )  
               b(3) = ( -1.0000  1.0000 -1.0000 )  


     Atoms inside the unit cell: 

     Cartesian axes

     site n.  atom      mass           positions (alat units)
        1     Si  28.0860   tau(    1) = (    0.00000    0.00000    0.00000  )
        2     Si  28.0860   tau(    2) = (    0.25000    0.25000    0.25000  )

     Computing dynamical matrix for 
                    q = (  -0.2500000   0.2500000  -0.2500000 )

      6 Sym.Ops. (no q -> -q+G )


     G cutoff =  194.2747  (    685 G-vectors)     FFT grid: ( 20, 20, 20)
     number of k points=   120

     PseudoPot. # 1 for Si read from file:
     /home/max/quantum_espresso/qe-6.1/pseudo/si_pbe_v1.uspp.F.UPF.txt
     MD5 check sum: a056efeee980c13900f22a371efd63c1
     Pseudo is Ultrasoft + core correction, Zval =  4.0
     Generated by new atomic code, or converted to UPF format
     Using radial grid of  899 points,  6 beta functions with: 
                l(1) =   0
                l(2) =   0
                l(3) =   1
                l(4) =   1
                l(5) =   2
                l(6) =   2
     Q(r) pseudized with  8 coefficients,  rinner =    0.900   0.900   0.900
                                                       0.900   0.900

     Mode symmetry, C_3v (3m)   point group:


     Atomic displacements:
     There are   4 irreducible representations

     Representation     1      1 modes -A_1  L_1  To be done

     Representation     2      1 modes -A_1  L_1  To be done

     Representation     3      2 modes -E    L_3  To be done

     Representation     4      2 modes -E    L_3  To be done



     Alpha used in Ewald sum =   0.7000
     PHONON       :     5.84s CPU         6.36s WALL



     Representation #  1 mode #   1

     Self-consistent Calculation

      iter #   1 total cpu time :     7.0 secs   av.it.:   5.5
      thresh= 1.000E-02 alpha_mix =  0.700 |ddv_scf|^2 =  2.479E-03

      iter #   2 total cpu time :     7.3 secs   av.it.:   7.5
      thresh= 4.979E-03 alpha_mix =  0.700 |ddv_scf|^2 =  3.737E-02

      iter #   3 total cpu time :     7.6 secs   av.it.:   6.3
      thresh= 1.000E-02 alpha_mix =  0.700 |ddv_scf|^2 =  1.712E-06

      iter #   4 total cpu time :     7.9 secs   av.it.:   8.2
      thresh= 1.309E-04 alpha_mix =  0.700 |ddv_scf|^2 =  1.140E-07

      iter #   5 total cpu time :     8.2 secs   av.it.:   8.1
      thresh= 3.376E-05 alpha_mix =  0.700 |ddv_scf|^2 =  4.418E-09

      iter #   6 total cpu time :     8.8 secs   av.it.:   7.9
      thresh= 6.647E-06 alpha_mix =  0.700 |ddv_scf|^2 =  5.826E-09

      iter #   7 total cpu time :     9.1 secs   av.it.:   6.0
      thresh= 7.633E-06 alpha_mix =  0.700 |ddv_scf|^2 =  3.468E-10

      iter #   8 total cpu time :     9.4 secs   av.it.:   7.4
      thresh= 1.862E-06 alpha_mix =  0.700 |ddv_scf|^2 =  3.882E-12

      iter #   9 total cpu time :     9.6 secs   av.it.:   7.2
      thresh= 1.970E-07 alpha_mix =  0.700 |ddv_scf|^2 =  1.395E-13

     End of self-consistent calculation

     Convergence has been achieved 


     Representation #  2 mode #   2

     Self-consistent Calculation

      iter #   1 total cpu time :     9.9 secs   av.it.:   5.5
      thresh= 1.000E-02 alpha_mix =  0.700 |ddv_scf|^2 =  2.479E-03

      iter #   2 total cpu time :    10.2 secs   av.it.:   7.5
      thresh= 4.979E-03 alpha_mix =  0.700 |ddv_scf|^2 =  3.737E-02

      iter #   3 total cpu time :    10.8 secs   av.it.:   6.3
      thresh= 1.000E-02 alpha_mix =  0.700 |ddv_scf|^2 =  1.712E-06

      iter #   4 total cpu time :    11.1 secs   av.it.:   8.2
      thresh= 1.309E-04 alpha_mix =  0.700 |ddv_scf|^2 =  1.140E-07

      iter #   5 total cpu time :    11.4 secs   av.it.:   8.1
      thresh= 3.376E-05 alpha_mix =  0.700 |ddv_scf|^2 =  4.418E-09

      iter #   6 total cpu time :    11.7 secs   av.it.:   7.9
      thresh= 6.647E-06 alpha_mix =  0.700 |ddv_scf|^2 =  5.826E-09

      iter #   7 total cpu time :    12.0 secs   av.it.:   6.0
      thresh= 7.633E-06 alpha_mix =  0.700 |ddv_scf|^2 =  3.468E-10

      iter #   8 total cpu time :    12.2 secs   av.it.:   7.4
      thresh= 1.862E-06 alpha_mix =  0.700 |ddv_scf|^2 =  3.882E-12

      iter #   9 total cpu time :    12.9 secs   av.it.:   7.2
      thresh= 1.970E-07 alpha_mix =  0.700 |ddv_scf|^2 =  1.395E-13

     End of self-consistent calculation

     Convergence has been achieved 


     Representation #  3 modes #   3  4

     Self-consistent Calculation

      iter #   1 total cpu time :    13.4 secs   av.it.:   4.9
      thresh= 1.000E-02 alpha_mix =  0.700 |ddv_scf|^2 =  5.542E-07

      iter #   2 total cpu time :    14.1 secs   av.it.:   9.5
      thresh= 7.444E-05 alpha_mix =  0.700 |ddv_scf|^2 =  4.085E-08

      iter #   3 total cpu time :    15.1 secs   av.it.:   9.2
      thresh= 2.021E-05 alpha_mix =  0.700 |ddv_scf|^2 =  3.501E-09

      iter #   4 total cpu time :    15.7 secs   av.it.:   9.0
      thresh= 5.917E-06 alpha_mix =  0.700 |ddv_scf|^2 =  1.079E-11

      iter #   5 total cpu time :    16.5 secs   av.it.:   9.2
      thresh= 3.285E-07 alpha_mix =  0.700 |ddv_scf|^2 =  4.930E-13

     End of self-consistent calculation

     Convergence has been achieved 


     Representation #  4 modes #   5  6

     Self-consistent Calculation

      iter #   1 total cpu time :    17.3 secs   av.it.:   5.0
      thresh= 1.000E-02 alpha_mix =  0.700 |ddv_scf|^2 =  5.540E-07

      iter #   2 total cpu time :    18.0 secs   av.it.:   9.7
      thresh= 7.443E-05 alpha_mix =  0.700 |ddv_scf|^2 =  4.082E-08

      iter #   3 total cpu time :    19.0 secs   av.it.:   9.4
      thresh= 2.020E-05 alpha_mix =  0.700 |ddv_scf|^2 =  3.498E-09

      iter #   4 total cpu time :    19.6 secs   av.it.:   9.1
      thresh= 5.915E-06 alpha_mix =  0.700 |ddv_scf|^2 =  1.079E-11

      iter #   5 total cpu time :    20.3 secs   av.it.:   9.3
      thresh= 3.285E-07 alpha_mix =  0.700 |ddv_scf|^2 =  4.932E-13

     End of self-consistent calculation

     Convergence has been achieved 

     Number of q in the star =    8
     List of q in the star:
          1  -0.250000000   0.250000000  -0.250000000
          2   0.250000000  -0.250000000  -0.250000000
          3   0.250000000  -0.250000000   0.250000000
          4   0.250000000   0.250000000   0.250000000
          5  -0.250000000  -0.250000000  -0.250000000
          6  -0.250000000  -0.250000000   0.250000000
          7  -0.250000000   0.250000000   0.250000000
          8   0.250000000   0.250000000  -0.250000000

     Diagonalizing the dynamical matrix

     q = (   -0.250000000   0.250000000  -0.250000000 ) 

 **************************************************************************
     freq (    1) =       3.382908 [THz] =     112.841665 [cm-1]
     freq (    2) =       3.382908 [THz] =     112.841665 [cm-1]
     freq (    3) =       6.957483 [THz] =     232.076647 [cm-1]
     freq (    4) =      14.140827 [THz] =     471.687205 [cm-1]
     freq (    5) =      14.459245 [THz] =     482.308503 [cm-1]
     freq (    6) =      14.459245 [THz] =     482.308503 [cm-1]
 **************************************************************************

     Mode symmetry, C_3v (3m)   point group:

     freq (  1 -  2) =        112.8  [cm-1]   --> E    L_3           
     freq (  3 -  3) =        232.1  [cm-1]   --> A_1  L_1           
     freq (  4 -  4) =        471.7  [cm-1]   --> A_1  L_1           
     freq (  5 -  6) =        482.3  [cm-1]   --> E    L_3           

     Calculation of q =    0.5000000  -0.5000000   0.5000000

   Info: using nr1, nr2, nr3 values from input

   Info: using nr1, nr2, nr3 values from input

     Parallelization info
     --------------------
     sticks:   dense  smooth     PW     G-vecs:    dense   smooth      PW
     Min          63      63     27                  684      684     186
     Max          64      64     28                  688      688     189
     Sum         253     253    109                 2741     2741     749



     bravais-lattice index     =            2
     lattice parameter (alat)  =      10.3210  a.u.
     unit-cell volume          =     274.8561 (a.u.)^3
     number of atoms/cell      =            2
     number of atomic types    =            1
     number of electrons       =         8.00
     number of Kohn-Sham states=            4
     kinetic-energy cutoff     =      18.0000  Ry
     charge density cutoff     =      72.0000  Ry
     Exchange-correlation      = SLA  PW   PBE  PBE ( 1  4  3  4 0 0)

     celldm(1)=  10.321000  celldm(2)=   0.000000  celldm(3)=   0.000000
     celldm(4)=   0.000000  celldm(5)=   0.000000  celldm(6)=   0.000000

     crystal axes: (cart. coord. in units of alat)
               a(1) = (  -0.500000   0.000000   0.500000 )  
               a(2) = (   0.000000   0.500000   0.500000 )  
               a(3) = (  -0.500000   0.500000   0.000000 )  

     reciprocal axes: (cart. coord. in units 2 pi/alat)
               b(1) = ( -1.000000 -1.000000  1.000000 )  
               b(2) = (  1.000000  1.000000  1.000000 )  
               b(3) = ( -1.000000  1.000000 -1.000000 )  


     PseudoPot. # 1 for Si read from file:
     /home/max/quantum_espresso/qe-6.1/pseudo/si_pbe_v1.uspp.F.UPF.txt
     MD5 check sum: a056efeee980c13900f22a371efd63c1
     Pseudo is Ultrasoft + core correction, Zval =  4.0
     Generated by new atomic code, or converted to UPF format
     Using radial grid of  899 points,  6 beta functions with: 
                l(1) =   0
                l(2) =   0
                l(3) =   1
                l(4) =   1
                l(5) =   2
                l(6) =   2
     Q(r) pseudized with  8 coefficients,  rinner =    0.900   0.900   0.900
                                                       0.900   0.900

     atomic species   valence    mass     pseudopotential
        Si             4.00    28.08600     Si( 1.00)

     48 Sym. Ops., with inversion, found



   Cartesian axes

     site n.     atom                  positions (alat units)
         1           Si  tau(   1) = (   0.0000000   0.0000000   0.0000000  )
         2           Si  tau(   2) = (   0.2500000   0.2500000   0.2500000  )

     number of k points=    60
                       cart. coord. in units 2pi/alat
        k(    1) = (  -0.1250000   0.1250000   0.1250000), wk =   0.0468750
        k(    2) = (   0.3750000  -0.3750000   0.6250000), wk =   0.0000000
        k(    3) = (  -0.3750000   0.3750000  -0.1250000), wk =   0.0468750
        k(    4) = (   0.1250000  -0.1250000   0.3750000), wk =   0.0000000
        k(    5) = (   0.3750000  -0.3750000   0.6250000), wk =   0.0468750
        k(    6) = (   0.8750000  -0.8750000   1.1250000), wk =   0.0000000
        k(    7) = (   0.1250000  -0.1250000   0.3750000), wk =   0.0468750
        k(    8) = (   0.6250000  -0.6250000   0.8750000), wk =   0.0000000
        k(    9) = (  -0.1250000   0.6250000   0.1250000), wk =   0.0937500
        k(   10) = (   0.3750000   0.1250000   0.6250000), wk =   0.0000000
        k(   11) = (   0.6250000  -0.1250000   0.8750000), wk =   0.0937500
        k(   12) = (   1.1250000  -0.6250000   1.3750000), wk =   0.0000000
        k(   13) = (   0.3750000   0.1250000   0.6250000), wk =   0.0937500
        k(   14) = (   0.8750000  -0.3750000   1.1250000), wk =   0.0000000
        k(   15) = (  -0.1250000  -0.8750000   0.1250000), wk =   0.0937500
        k(   16) = (   0.3750000  -1.3750000   0.6250000), wk =   0.0000000
        k(   17) = (  -0.3750000   0.3750000   0.3750000), wk =   0.0468750
        k(   18) = (   0.1250000  -0.1250000   0.8750000), wk =   0.0000000
        k(   19) = (   0.3750000  -0.3750000   1.1250000), wk =   0.0468750
        k(   20) = (   0.8750000  -0.8750000   1.6250000), wk =   0.0000000
        k(   21) = (   0.1250000  -0.1250000   0.1250000), wk =   0.0156250
        k(   22) = (   0.6250000  -0.6250000   0.6250000), wk =   0.0000000
        k(   23) = (  -0.3750000  -0.3750000  -0.1250000), wk =   0.0937500
        k(   24) = (   0.1250000  -0.8750000   0.3750000), wk =   0.0000000
        k(   25) = (  -0.1250000  -0.3750000   0.3750000), wk =   0.0468750
        k(   26) = (   0.3750000  -0.8750000   0.8750000), wk =   0.0000000
        k(   27) = (   0.3750000   0.3750000   0.6250000), wk =   0.0937500
        k(   28) = (   0.8750000  -0.1250000   1.1250000), wk =   0.0000000
        k(   29) = (   0.6250000   0.3750000  -0.3750000), wk =   0.0468750
        k(   30) = (   1.1250000  -0.1250000   0.1250000), wk =   0.0000000
        k(   31) = (   0.1250000   0.1250000   0.3750000), wk =   0.0937500
        k(   32) = (   0.6250000  -0.3750000   0.8750000), wk =   0.0000000
        k(   33) = (   0.3750000   0.1250000  -0.1250000), wk =   0.0468750
        k(   34) = (   0.8750000  -0.3750000   0.3750000), wk =   0.0000000
        k(   35) = (  -0.1250000  -0.6250000  -0.1250000), wk =   0.0468750
        k(   36) = (   0.3750000  -1.1250000   0.3750000), wk =   0.0000000
        k(   37) = (   0.1250000  -0.6250000   0.1250000), wk =   0.0468750
        k(   38) = (   0.6250000  -1.1250000   0.6250000), wk =   0.0000000
        k(   39) = (   0.6250000   0.1250000   0.8750000), wk =   0.0937500
        k(   40) = (   1.1250000  -0.3750000   1.3750000), wk =   0.0000000
        k(   41) = (  -0.8750000   0.1250000   0.6250000), wk =   0.0937500
        k(   42) = (  -0.3750000  -0.3750000   1.1250000), wk =   0.0000000
        k(   43) = (   0.8750000   0.1250000  -0.6250000), wk =   0.0937500
        k(   44) = (   1.3750000  -0.3750000  -0.1250000), wk =   0.0000000
        k(   45) = (   0.3750000  -0.1250000   0.6250000), wk =   0.0937500
        k(   46) = (   0.8750000  -0.6250000   1.1250000), wk =   0.0000000
        k(   47) = (  -0.6250000  -0.1250000   0.3750000), wk =   0.0937500
        k(   48) = (  -0.1250000  -0.6250000   0.8750000), wk =   0.0000000
        k(   49) = (   0.6250000  -0.1250000  -0.3750000), wk =   0.0937500
        k(   50) = (   1.1250000  -0.6250000   0.1250000), wk =   0.0000000
        k(   51) = (  -0.1250000   0.8750000  -0.1250000), wk =   0.0468750
        k(   52) = (   0.3750000   0.3750000   0.3750000), wk =   0.0000000
        k(   53) = (   0.1250000   0.8750000   0.1250000), wk =   0.0468750
        k(   54) = (   0.6250000   0.3750000   0.6250000), wk =   0.0000000
        k(   55) = (   0.3750000  -0.3750000   0.3750000), wk =   0.0156250
        k(   56) = (   0.8750000  -0.8750000   0.8750000), wk =   0.0000000
        k(   57) = (   0.3750000   0.3750000   1.1250000), wk =   0.0937500
        k(   58) = (   0.8750000  -0.1250000   1.6250000), wk =   0.0000000
        k(   59) = (   1.1250000   0.3750000  -0.3750000), wk =   0.0468750
        k(   60) = (   1.6250000  -0.1250000   0.1250000), wk =   0.0000000

     Dense  grid:     2741 G-vectors     FFT dimensions: (  20,  20,  20)

     Estimated max dynamical RAM per process >       0.33MB

     Estimated total allocated dynamical RAM >       1.30MB

     Check: negative/imaginary core charge=   -0.000005    0.000000

     The potential is recalculated from file :
     ./_ph0/silicon.10.321.save/charge-density.dat

     Starting wfc are    8 atomic wfcs

     Band Structure Calculation
     Davidson diagonalization with overlap

     ethr =  1.25E-10,  avg # of iterations = 11.7

     total cpu time spent up to now is        1.8 secs

     End of band structure calculation

          k =-0.1250 0.1250 0.1250 (   338 PWs)   bands (ev):

    -5.6173   4.4278   5.7364   5.7364

          k = 0.3750-0.3750 0.6250 (   359 PWs)   bands (ev):

    -3.4497  -0.6509   3.7694   4.4808

          k =-0.3750 0.3750-0.1250 (   352 PWs)   bands (ev):

    -4.5900   1.4294   3.7493   5.2536

          k = 0.1250-0.1250 0.3750 (   349 PWs)   bands (ev):

    -5.0893   2.8080   4.7258   4.7918

          k = 0.3750-0.3750 0.6250 (   359 PWs)   bands (ev):

    -3.4497  -0.6509   3.7694   4.4808

          k = 0.8750-0.8750 1.1250 (   338 PWs)   bands (ev):

    -5.6173   4.4278   5.7364   5.7364

          k = 0.1250-0.1250 0.3750 (   349 PWs)   bands (ev):

    -5.0893   2.8080   4.7258   4.7918

          k = 0.6250-0.6250 0.8750 (   352 PWs)   bands (ev):

    -4.5900   1.4294   3.7493   5.2536

          k =-0.1250 0.6250 0.1250 (   349 PWs)   bands (ev):

    -4.0566   1.0945   3.4000   3.8498

          k = 0.3750 0.1250 0.6250 (   357 PWs)   bands (ev):

    -3.6410   0.2201   2.7587   4.1262

          k = 0.6250-0.1250 0.8750 (   359 PWs)   bands (ev):

    -2.4150  -0.8717   2.0459   3.1213

          k = 1.1250-0.6250 1.3750 (   352 PWs)   bands (ev):

    -4.5900   1.4294   3.7493   5.2536

          k = 0.3750 0.1250 0.6250 (   357 PWs)   bands (ev):

    -3.6410   0.2201   2.7587   4.1262

          k = 0.8750-0.3750 1.1250 (   349 PWs)   bands (ev):

    -4.0566   1.0945   3.4000   3.8498

          k =-0.1250-0.8750 0.1250 (   358 PWs)   bands (ev):

    -2.5829  -0.7740   2.6544   3.3820

          k = 0.3750-1.3750 0.6250 (   359 PWs)   bands (ev):

    -3.4497  -0.6509   3.7694   4.4808

          k =-0.3750 0.3750 0.3750 (   353 PWs)   bands (ev):

    -4.1572   0.1385   4.9463   4.9463

          k = 0.1250-0.1250 0.8750 (   358 PWs)   bands (ev):

    -2.5829  -0.7740   2.6544   3.3820

          k = 0.3750-0.3750 1.1250 (   361 PWs)   bands (ev):

    -2.9532  -0.5674   2.1043   4.1637

          k = 0.8750-0.8750 1.6250 (   349 PWs)   bands (ev):

    -4.0566   1.0945   3.4000   3.8498

          k = 0.1250-0.1250 0.1250 (   338 PWs)   bands (ev):

    -5.6173   4.4278   5.7364   5.7364

          k = 0.6250-0.6250 0.6250 (   353 PWs)   bands (ev):

    -4.1572   0.1385   4.9463   4.9463

          k =-0.3750-0.3750-0.1250 (   352 PWs)   bands (ev):

    -4.5900   1.4294   3.7493   5.2536

          k = 0.1250-0.8750 0.3750 (   359 PWs)   bands (ev):

    -2.4150  -0.8717   2.0459   3.1213

          k =-0.1250-0.3750 0.3750 (   352 PWs)   bands (ev):

    -4.5900   1.4294   3.7493   5.2536

          k = 0.3750-0.8750 0.8750 (   349 PWs)   bands (ev):

    -4.0566   1.0945   3.4000   3.8498

          k = 0.3750 0.3750 0.6250 (   359 PWs)   bands (ev):

    -3.4497  -0.6509   3.7694   4.4808

          k = 0.8750-0.1250 1.1250 (   358 PWs)   bands (ev):

    -2.5829  -0.7740   2.6544   3.3820

          k = 0.6250 0.3750-0.3750 (   359 PWs)   bands (ev):

    -3.4497  -0.6509   3.7694   4.4808

          k = 1.1250-0.1250 0.1250 (   358 PWs)   bands (ev):

    -2.5829  -0.7740   2.6544   3.3820

          k = 0.1250 0.1250 0.3750 (   349 PWs)   bands (ev):

    -5.0893   2.8080   4.7258   4.7918

          k = 0.6250-0.3750 0.8750 (   357 PWs)   bands (ev):

    -3.6410   0.2201   2.7587   4.1262

          k = 0.3750 0.1250-0.1250 (   349 PWs)   bands (ev):

    -5.0893   2.8080   4.7258   4.7918

          k = 0.8750-0.3750 0.3750 (   361 PWs)   bands (ev):

    -2.9532  -0.5674   2.1043   4.1637

          k =-0.1250-0.6250-0.1250 (   349 PWs)   bands (ev):

    -4.0566   1.0945   3.4000   3.8498

          k = 0.3750-1.1250 0.3750 (   361 PWs)   bands (ev):

    -2.9532  -0.5674   2.1043   4.1637

          k = 0.1250-0.6250 0.1250 (   349 PWs)   bands (ev):

    -4.0566   1.0945   3.4000   3.8498

          k = 0.6250-1.1250 0.6250 (   352 PWs)   bands (ev):

    -4.5900   1.4294   3.7493   5.2536

          k = 0.6250 0.1250 0.8750 (   359 PWs)   bands (ev):

    -2.4150  -0.8717   2.0459   3.1213

          k = 1.1250-0.3750 1.3750 (   357 PWs)   bands (ev):

    -3.6410   0.2201   2.7587   4.1262

          k =-0.8750 0.1250 0.6250 (   359 PWs)   bands (ev):

    -2.4150  -0.8717   2.0459   3.1213

          k =-0.3750-0.3750 1.1250 (   361 PWs)   bands (ev):

    -2.9532  -0.5674   2.1043   4.1637

          k = 0.8750 0.1250-0.6250 (   359 PWs)   bands (ev):

    -2.4150  -0.8717   2.0459   3.1213

          k = 1.3750-0.3750-0.1250 (   357 PWs)   bands (ev):

    -3.6410   0.2201   2.7587   4.1262

          k = 0.3750-0.1250 0.6250 (   357 PWs)   bands (ev):

    -3.6410   0.2201   2.7587   4.1262

          k = 0.8750-0.6250 1.1250 (   349 PWs)   bands (ev):

    -5.0893   2.8080   4.7258   4.7918

          k =-0.6250-0.1250 0.3750 (   357 PWs)   bands (ev):

    -3.6410   0.2201   2.7587   4.1262

          k =-0.1250-0.6250 0.8750 (   359 PWs)   bands (ev):

    -2.4150  -0.8717   2.0459   3.1213

          k = 0.6250-0.1250-0.3750 (   357 PWs)   bands (ev):

    -3.6410   0.2201   2.7587   4.1262

          k = 1.1250-0.6250 0.1250 (   359 PWs)   bands (ev):

    -2.4150  -0.8717   2.0459   3.1213

          k =-0.1250 0.8750-0.1250 (   358 PWs)   bands (ev):

    -2.5829  -0.7740   2.6544   3.3820

          k = 0.3750 0.3750 0.3750 (   353 PWs)   bands (ev):

    -4.1572   0.1385   4.9463   4.9463

          k = 0.1250 0.8750 0.1250 (   358 PWs)   bands (ev):

    -2.5829  -0.7740   2.6544   3.3820

          k = 0.6250 0.3750 0.6250 (   359 PWs)   bands (ev):

    -3.4497  -0.6509   3.7694   4.4808

          k = 0.3750-0.3750 0.3750 (   353 PWs)   bands (ev):

    -4.1572   0.1385   4.9463   4.9463

          k = 0.8750-0.8750 0.8750 (   338 PWs)   bands (ev):

    -5.6173   4.4278   5.7364   5.7364

          k = 0.3750 0.3750 1.1250 (   361 PWs)   bands (ev):

    -2.9532  -0.5674   2.1043   4.1637

          k = 0.8750-0.1250 1.6250 (   359 PWs)   bands (ev):

    -2.4150  -0.8717   2.0459   3.1213

          k = 1.1250 0.3750-0.3750 (   361 PWs)   bands (ev):

    -2.9532  -0.5674   2.1043   4.1637

          k = 1.6250-0.1250 0.1250 (   349 PWs)   bands (ev):

    -5.0893   2.8080   4.7258   4.7918

     highest occupied level (ev):     5.7364

     Writing output data file silicon.10.321.save

                                                                                

     bravais-lattice index     =            2
     lattice parameter (alat)  =      10.3210  a.u.
     unit-cell volume          =     274.8561 (a.u.)^3
     number of atoms/cell      =            2
     number of atomic types    =            1
     kinetic-energy cut-off    =      18.0000  Ry
     charge density cut-off    =      72.0000  Ry
     convergence threshold     =      1.0E-12
     beta                      =       0.7000
     number of iterations used =            4
     Exchange-correlation      = SLA  PW   PBE  PBE ( 1  4  3  4 0 0)


     celldm(1)=   10.32100  celldm(2)=    0.00000  celldm(3)=    0.00000
     celldm(4)=    0.00000  celldm(5)=    0.00000  celldm(6)=    0.00000

     crystal axes: (cart. coord. in units of alat)
               a(1) = ( -0.5000  0.0000  0.5000 )  
               a(2) = (  0.0000  0.5000  0.5000 )  
               a(3) = ( -0.5000  0.5000  0.0000 )  

     reciprocal axes: (cart. coord. in units 2 pi/alat)
               b(1) = ( -1.0000 -1.0000  1.0000 )  
               b(2) = (  1.0000  1.0000  1.0000 )  
               b(3) = ( -1.0000  1.0000 -1.0000 )  


     Atoms inside the unit cell: 

     Cartesian axes

     site n.  atom      mass           positions (alat units)
        1     Si  28.0860   tau(    1) = (    0.00000    0.00000    0.00000  )
        2     Si  28.0860   tau(    2) = (    0.25000    0.25000    0.25000  )

     Computing dynamical matrix for 
                    q = (   0.5000000  -0.5000000   0.5000000 )

     13 Sym.Ops. (with q -> -q+G )


     G cutoff =  194.2747  (    685 G-vectors)     FFT grid: ( 20, 20, 20)
     number of k points=    60

     PseudoPot. # 1 for Si read from file:
     /home/max/quantum_espresso/qe-6.1/pseudo/si_pbe_v1.uspp.F.UPF.txt
     MD5 check sum: a056efeee980c13900f22a371efd63c1
     Pseudo is Ultrasoft + core correction, Zval =  4.0
     Generated by new atomic code, or converted to UPF format
     Using radial grid of  899 points,  6 beta functions with: 
                l(1) =   0
                l(2) =   0
                l(3) =   1
                l(4) =   1
                l(5) =   2
                l(6) =   2
     Q(r) pseudized with  8 coefficients,  rinner =    0.900   0.900   0.900
                                                       0.900   0.900


     Atomic displacements:
     There are   4 irreducible representations

     Representation     1      1 modes -  To be done

     Representation     2      1 modes -  To be done

     Representation     3      2 modes -  To be done

     Representation     4      2 modes -  To be done



     Alpha used in Ewald sum =   0.7000
     PHONON       :    18.62s CPU        21.49s WALL



     Representation #  1 mode #   1

     Self-consistent Calculation

      iter #   1 total cpu time :    21.6 secs   av.it.:   4.8
      thresh= 1.000E-02 alpha_mix =  0.700 |ddv_scf|^2 =  2.489E-05

      iter #   2 total cpu time :    21.8 secs   av.it.:   8.3
      thresh= 4.989E-04 alpha_mix =  0.700 |ddv_scf|^2 =  2.211E-05

      iter #   3 total cpu time :    21.9 secs   av.it.:   7.5
      thresh= 4.702E-04 alpha_mix =  0.700 |ddv_scf|^2 =  4.168E-08

      iter #   4 total cpu time :    22.1 secs   av.it.:   7.5
      thresh= 2.041E-05 alpha_mix =  0.700 |ddv_scf|^2 =  1.414E-10

      iter #   5 total cpu time :    22.2 secs   av.it.:   7.9
      thresh= 1.189E-06 alpha_mix =  0.700 |ddv_scf|^2 =  3.591E-12

      iter #   6 total cpu time :    22.5 secs   av.it.:   7.9
      thresh= 1.895E-07 alpha_mix =  0.700 |ddv_scf|^2 =  5.559E-14

     End of self-consistent calculation

     Convergence has been achieved 


     Representation #  2 mode #   2

     Self-consistent Calculation

      iter #   1 total cpu time :    22.9 secs   av.it.:   5.7
      thresh= 1.000E-02 alpha_mix =  0.700 |ddv_scf|^2 =  3.460E-04

      iter #   2 total cpu time :    23.1 secs   av.it.:   8.3
      thresh= 1.860E-03 alpha_mix =  0.700 |ddv_scf|^2 =  1.066E-03

      iter #   3 total cpu time :    23.2 secs   av.it.:   7.1
      thresh= 3.265E-03 alpha_mix =  0.700 |ddv_scf|^2 =  1.124E-07

      iter #   4 total cpu time :    23.4 secs   av.it.:   8.2
      thresh= 3.353E-05 alpha_mix =  0.700 |ddv_scf|^2 =  7.192E-09

      iter #   5 total cpu time :    23.5 secs   av.it.:   8.5
      thresh= 8.480E-06 alpha_mix =  0.700 |ddv_scf|^2 =  1.292E-10

      iter #   6 total cpu time :    23.7 secs   av.it.:   8.3
      thresh= 1.136E-06 alpha_mix =  0.700 |ddv_scf|^2 =  2.062E-12

      iter #   7 total cpu time :    23.9 secs   av.it.:   7.8
      thresh= 1.436E-07 alpha_mix =  0.700 |ddv_scf|^2 =  3.216E-15

     End of self-consistent calculation

     Convergence has been achieved 


     Representation #  3 modes #   3  4

     Self-consistent Calculation

      iter #   1 total cpu time :    24.1 secs   av.it.:   4.7
      thresh= 1.000E-02 alpha_mix =  0.700 |ddv_scf|^2 =  3.021E-07

      iter #   2 total cpu time :    24.8 secs   av.it.:   9.0
      thresh= 5.496E-05 alpha_mix =  0.700 |ddv_scf|^2 =  2.488E-08

      iter #   3 total cpu time :    25.2 secs   av.it.:   8.4
      thresh= 1.577E-05 alpha_mix =  0.700 |ddv_scf|^2 =  4.922E-10

      iter #   4 total cpu time :    25.5 secs   av.it.:   8.9
      thresh= 2.218E-06 alpha_mix =  0.700 |ddv_scf|^2 =  6.191E-12

      iter #   5 total cpu time :    25.8 secs   av.it.:   8.7
      thresh= 2.488E-07 alpha_mix =  0.700 |ddv_scf|^2 =  3.208E-14

     End of self-consistent calculation

     Convergence has been achieved 


     Representation #  4 modes #   5  6

     Self-consistent Calculation

      iter #   1 total cpu time :    26.1 secs   av.it.:   4.9
      thresh= 1.000E-02 alpha_mix =  0.700 |ddv_scf|^2 =  9.778E-07

      iter #   2 total cpu time :    26.8 secs   av.it.:   9.5
      thresh= 9.888E-05 alpha_mix =  0.700 |ddv_scf|^2 =  7.651E-08

      iter #   3 total cpu time :    27.2 secs   av.it.:   9.3
      thresh= 2.766E-05 alpha_mix =  0.700 |ddv_scf|^2 =  4.874E-09

      iter #   4 total cpu time :    27.5 secs   av.it.:   8.5
      thresh= 6.981E-06 alpha_mix =  0.700 |ddv_scf|^2 =  6.565E-12

      iter #   5 total cpu time :    27.9 secs   av.it.:   8.8
      thresh= 2.562E-07 alpha_mix =  0.700 |ddv_scf|^2 =  2.277E-14

     End of self-consistent calculation

     Convergence has been achieved 

     Number of q in the star =    4
     List of q in the star:
          1   0.500000000  -0.500000000   0.500000000
          2   0.500000000   0.500000000   0.500000000
          3  -0.500000000   0.500000000   0.500000000
          4   0.500000000   0.500000000  -0.500000000

     Diagonalizing the dynamical matrix

     q = (    0.500000000  -0.500000000   0.500000000 ) 

 **************************************************************************
     freq (    1) =       4.526973 [THz] =     151.003552 [cm-1]
     freq (    2) =       4.526973 [THz] =     151.003552 [cm-1]
     freq (    3) =      11.553758 [THz] =     385.391878 [cm-1]
     freq (    4) =      12.193541 [THz] =     406.732755 [cm-1]
     freq (    5) =      14.472922 [THz] =     482.764717 [cm-1]
     freq (    6) =      14.472922 [THz] =     482.764717 [cm-1]
 **************************************************************************

     Calculation of q =    0.0000000   0.5000000   0.0000000

   Info: using nr1, nr2, nr3 values from input

   Info: using nr1, nr2, nr3 values from input

     Parallelization info
     --------------------
     sticks:   dense  smooth     PW     G-vecs:    dense   smooth      PW
     Min          63      63     27                  684      684     175
     Max          64      64     28                  688      688     176
     Sum         253     253    109                 2741     2741     701



     bravais-lattice index     =            2
     lattice parameter (alat)  =      10.3210  a.u.
     unit-cell volume          =     274.8561 (a.u.)^3
     number of atoms/cell      =            2
     number of atomic types    =            1
     number of electrons       =         8.00
     number of Kohn-Sham states=            4
     kinetic-energy cutoff     =      18.0000  Ry
     charge density cutoff     =      72.0000  Ry
     Exchange-correlation      = SLA  PW   PBE  PBE ( 1  4  3  4 0 0)

     celldm(1)=  10.321000  celldm(2)=   0.000000  celldm(3)=   0.000000
     celldm(4)=   0.000000  celldm(5)=   0.000000  celldm(6)=   0.000000

     crystal axes: (cart. coord. in units of alat)
               a(1) = (  -0.500000   0.000000   0.500000 )  
               a(2) = (   0.000000   0.500000   0.500000 )  
               a(3) = (  -0.500000   0.500000   0.000000 )  

     reciprocal axes: (cart. coord. in units 2 pi/alat)
               b(1) = ( -1.000000 -1.000000  1.000000 )  
               b(2) = (  1.000000  1.000000  1.000000 )  
               b(3) = ( -1.000000  1.000000 -1.000000 )  


     PseudoPot. # 1 for Si read from file:
     /home/max/quantum_espresso/qe-6.1/pseudo/si_pbe_v1.uspp.F.UPF.txt
     MD5 check sum: a056efeee980c13900f22a371efd63c1
     Pseudo is Ultrasoft + core correction, Zval =  4.0
     Generated by new atomic code, or converted to UPF format
     Using radial grid of  899 points,  6 beta functions with: 
                l(1) =   0
                l(2) =   0
                l(3) =   1
                l(4) =   1
                l(5) =   2
                l(6) =   2
     Q(r) pseudized with  8 coefficients,  rinner =    0.900   0.900   0.900
                                                       0.900   0.900

     atomic species   valence    mass     pseudopotential
        Si             4.00    28.08600     Si( 1.00)

     48 Sym. Ops., with inversion, found



   Cartesian axes

     site n.     atom                  positions (alat units)
         1           Si  tau(   1) = (   0.0000000   0.0000000   0.0000000  )
         2           Si  tau(   2) = (   0.2500000   0.2500000   0.2500000  )

     number of k points=    80
                       cart. coord. in units 2pi/alat
        k(    1) = (  -0.1250000   0.1250000   0.1250000), wk =   0.0312500
        k(    2) = (  -0.1250000   0.6250000   0.1250000), wk =   0.0000000
        k(    3) = (  -0.3750000   0.3750000  -0.1250000), wk =   0.0625000
        k(    4) = (  -0.3750000   0.8750000  -0.1250000), wk =   0.0000000
        k(    5) = (   0.3750000  -0.3750000   0.6250000), wk =   0.0625000
        k(    6) = (   0.3750000   0.1250000   0.6250000), wk =   0.0000000
        k(    7) = (   0.1250000  -0.1250000   0.3750000), wk =   0.0625000
        k(    8) = (   0.1250000   0.3750000   0.3750000), wk =   0.0000000
        k(    9) = (  -0.1250000   0.6250000   0.1250000), wk =   0.0312500
        k(   10) = (  -0.1250000   1.1250000   0.1250000), wk =   0.0000000
        k(   11) = (   0.6250000  -0.1250000   0.8750000), wk =   0.0625000
        k(   12) = (   0.6250000   0.3750000   0.8750000), wk =   0.0000000
        k(   13) = (   0.3750000   0.1250000   0.6250000), wk =   0.0625000
        k(   14) = (   0.3750000   0.6250000   0.6250000), wk =   0.0000000
        k(   15) = (  -0.1250000  -0.8750000   0.1250000), wk =   0.0312500
        k(   16) = (  -0.1250000  -0.3750000   0.1250000), wk =   0.0000000
        k(   17) = (  -0.3750000   0.3750000   0.3750000), wk =   0.0312500
        k(   18) = (  -0.3750000   0.8750000   0.3750000), wk =   0.0000000
        k(   19) = (   0.3750000  -0.3750000   1.1250000), wk =   0.0625000
        k(   20) = (   0.3750000   0.1250000   1.1250000), wk =   0.0000000
        k(   21) = (  -0.1250000  -0.1250000   0.1250000), wk =   0.0312500
        k(   22) = (  -0.1250000   0.3750000   0.1250000), wk =   0.0000000
        k(   23) = (   0.1250000  -0.3750000   0.3750000), wk =   0.0625000
        k(   24) = (   0.1250000   0.1250000   0.3750000), wk =   0.0000000
        k(   25) = (   0.3750000  -0.1250000   0.3750000), wk =   0.0312500
        k(   26) = (   0.3750000   0.3750000   0.3750000), wk =   0.0000000
        k(   27) = (   0.3750000   0.1250000   0.3750000), wk =   0.0312500
        k(   28) = (   0.3750000   0.6250000   0.3750000), wk =   0.0000000
        k(   29) = (  -0.6250000   0.3750000  -0.3750000), wk =   0.0625000
        k(   30) = (  -0.6250000   0.8750000  -0.3750000), wk =   0.0000000
        k(   31) = (  -0.3750000   0.6250000  -0.3750000), wk =   0.0312500
        k(   32) = (  -0.3750000   1.1250000  -0.3750000), wk =   0.0000000
        k(   33) = (  -0.3750000  -0.6250000  -0.3750000), wk =   0.0312500
        k(   34) = (  -0.3750000  -0.1250000  -0.3750000), wk =   0.0000000
        k(   35) = (  -0.3750000   0.1250000  -0.1250000), wk =   0.0625000
        k(   36) = (  -0.3750000   0.6250000  -0.1250000), wk =   0.0000000
        k(   37) = (  -0.1250000   0.3750000  -0.1250000), wk =   0.0312500
        k(   38) = (  -0.1250000   0.8750000  -0.1250000), wk =   0.0000000
        k(   39) = (  -0.1250000  -0.3750000  -0.1250000), wk =   0.0312500
        k(   40) = (  -0.1250000   0.1250000  -0.1250000), wk =   0.0000000
        k(   41) = (  -0.1250000  -0.6250000   0.1250000), wk =   0.0312500
        k(   42) = (  -0.1250000  -0.1250000   0.1250000), wk =   0.0000000
        k(   43) = (   0.6250000  -0.1250000  -0.1250000), wk =   0.0625000
        k(   44) = (   0.6250000   0.3750000  -0.1250000), wk =   0.0000000
        k(   45) = (   0.6250000   0.1250000   0.1250000), wk =   0.0625000
        k(   46) = (   0.6250000   0.6250000   0.1250000), wk =   0.0000000
        k(   47) = (  -0.8750000   0.1250000  -0.6250000), wk =   0.0625000
        k(   48) = (  -0.8750000   0.6250000  -0.6250000), wk =   0.0000000
        k(   49) = (  -0.1250000   0.6250000  -0.8750000), wk =   0.0625000
        k(   50) = (  -0.1250000   1.1250000  -0.8750000), wk =   0.0000000
        k(   51) = (  -0.1250000   0.8750000  -0.6250000), wk =   0.0625000
        k(   52) = (  -0.1250000   1.3750000  -0.6250000), wk =   0.0000000
        k(   53) = (  -0.1250000  -0.8750000  -0.6250000), wk =   0.0625000
        k(   54) = (  -0.1250000  -0.3750000  -0.6250000), wk =   0.0000000
        k(   55) = (   0.8750000  -0.6250000   0.1250000), wk =   0.0625000
        k(   56) = (   0.8750000  -0.1250000   0.1250000), wk =   0.0000000
        k(   57) = (  -0.6250000  -0.1250000  -0.3750000), wk =   0.0625000
        k(   58) = (  -0.6250000   0.3750000  -0.3750000), wk =   0.0000000
        k(   59) = (   0.1250000   0.3750000  -0.6250000), wk =   0.0625000
        k(   60) = (   0.1250000   0.8750000  -0.6250000), wk =   0.0000000
        k(   61) = (   0.1250000   0.6250000  -0.3750000), wk =   0.0625000
        k(   62) = (   0.1250000   1.1250000  -0.3750000), wk =   0.0000000
        k(   63) = (   0.1250000  -0.6250000  -0.3750000), wk =   0.0625000
        k(   64) = (   0.1250000  -0.1250000  -0.3750000), wk =   0.0000000
        k(   65) = (   0.6250000  -0.3750000  -0.1250000), wk =   0.0625000
        k(   66) = (   0.6250000   0.1250000  -0.1250000), wk =   0.0000000
        k(   67) = (  -0.1250000   0.8750000   0.1250000), wk =   0.0312500
        k(   68) = (  -0.1250000   1.3750000   0.1250000), wk =   0.0000000
        k(   69) = (  -0.8750000  -0.1250000  -0.1250000), wk =   0.0625000
        k(   70) = (  -0.8750000   0.3750000  -0.1250000), wk =   0.0000000
        k(   71) = (  -0.8750000   0.1250000   0.1250000), wk =   0.0625000
        k(   72) = (  -0.8750000   0.6250000   0.1250000), wk =   0.0000000
        k(   73) = (  -0.3750000  -0.3750000   0.3750000), wk =   0.0312500
        k(   74) = (  -0.3750000   0.1250000   0.3750000), wk =   0.0000000
        k(   75) = (  -1.1250000   0.3750000  -0.3750000), wk =   0.0625000
        k(   76) = (  -1.1250000   0.8750000  -0.3750000), wk =   0.0000000
        k(   77) = (  -0.3750000   1.1250000  -0.3750000), wk =   0.0312500
        k(   78) = (  -0.3750000   1.6250000  -0.3750000), wk =   0.0000000
        k(   79) = (  -0.3750000  -1.1250000  -0.3750000), wk =   0.0312500
        k(   80) = (  -0.3750000  -0.6250000  -0.3750000), wk =   0.0000000

     Dense  grid:     2741 G-vectors     FFT dimensions: (  20,  20,  20)

     Estimated max dynamical RAM per process >       0.33MB

     Estimated total allocated dynamical RAM >       1.30MB

     Check: negative/imaginary core charge=   -0.000005    0.000000

     The potential is recalculated from file :
     ./_ph0/silicon.10.321.save/charge-density.dat

     Starting wfc are    8 atomic wfcs

     Band Structure Calculation
     Davidson diagonalization with overlap

     ethr =  1.25E-10,  avg # of iterations = 11.7

     total cpu time spent up to now is        2.9 secs

     End of band structure calculation

          k =-0.1250 0.1250 0.1250 (   338 PWs)   bands (ev):

    -5.6173   4.4278   5.7364   5.7364

          k =-0.1250 0.6250 0.1250 (   349 PWs)   bands (ev):

    -4.0566   1.0945   3.4000   3.8498

          k =-0.3750 0.3750-0.1250 (   352 PWs)   bands (ev):

    -4.5900   1.4294   3.7493   5.2536

          k =-0.3750 0.8750-0.1250 (   359 PWs)   bands (ev):

    -2.4150  -0.8717   2.0459   3.1213

          k = 0.3750-0.3750 0.6250 (   359 PWs)   bands (ev):

    -3.4497  -0.6509   3.7694   4.4808

          k = 0.3750 0.1250 0.6250 (   357 PWs)   bands (ev):

    -3.6410   0.2201   2.7587   4.1262

          k = 0.1250-0.1250 0.3750 (   349 PWs)   bands (ev):

    -5.0893   2.8080   4.7258   4.7918

          k = 0.1250 0.3750 0.3750 (   352 PWs)   bands (ev):

    -4.5900   1.4294   3.7493   5.2536

          k =-0.1250 0.6250 0.1250 (   349 PWs)   bands (ev):

    -4.0566   1.0945   3.4000   3.8498

          k =-0.1250 1.1250 0.1250 (   358 PWs)   bands (ev):

    -2.5829  -0.7740   2.6544   3.3820

          k = 0.6250-0.1250 0.8750 (   359 PWs)   bands (ev):

    -2.4150  -0.8717   2.0459   3.1213

          k = 0.6250 0.3750 0.8750 (   357 PWs)   bands (ev):

    -3.6410   0.2201   2.7587   4.1262

          k = 0.3750 0.1250 0.6250 (   357 PWs)   bands (ev):

    -3.6410   0.2201   2.7587   4.1262

          k = 0.3750 0.6250 0.6250 (   359 PWs)   bands (ev):

    -3.4497  -0.6509   3.7694   4.4808

          k =-0.1250-0.8750 0.1250 (   358 PWs)   bands (ev):

    -2.5829  -0.7740   2.6544   3.3820

          k =-0.1250-0.3750 0.1250 (   349 PWs)   bands (ev):

    -5.0893   2.8080   4.7258   4.7918

          k =-0.3750 0.3750 0.3750 (   353 PWs)   bands (ev):

    -4.1572   0.1385   4.9463   4.9463

          k =-0.3750 0.8750 0.3750 (   361 PWs)   bands (ev):

    -2.9532  -0.5674   2.1043   4.1637

          k = 0.3750-0.3750 1.1250 (   361 PWs)   bands (ev):

    -2.9532  -0.5674   2.1043   4.1637

          k = 0.3750 0.1250 1.1250 (   359 PWs)   bands (ev):

    -2.4150  -0.8717   2.0459   3.1213

          k =-0.1250-0.1250 0.1250 (   338 PWs)   bands (ev):

    -5.6173   4.4278   5.7364   5.7364

          k =-0.1250 0.3750 0.1250 (   349 PWs)   bands (ev):

    -5.0893   2.8080   4.7258   4.7918

          k = 0.1250-0.3750 0.3750 (   352 PWs)   bands (ev):

    -4.5900   1.4294   3.7493   5.2536

          k = 0.1250 0.1250 0.3750 (   349 PWs)   bands (ev):

    -5.0893   2.8080   4.7258   4.7918

          k = 0.3750-0.1250 0.3750 (   352 PWs)   bands (ev):

    -4.5900   1.4294   3.7493   5.2536

          k = 0.3750 0.3750 0.3750 (   353 PWs)   bands (ev):

    -4.1572   0.1385   4.9463   4.9463

          k = 0.3750 0.1250 0.3750 (   352 PWs)   bands (ev):

    -4.5900   1.4294   3.7493   5.2536

          k = 0.3750 0.6250 0.3750 (   359 PWs)   bands (ev):

    -3.4497  -0.6509   3.7694   4.4808

          k =-0.6250 0.3750-0.3750 (   359 PWs)   bands (ev):

    -3.4497  -0.6509   3.7694   4.4808

          k =-0.6250 0.8750-0.3750 (   357 PWs)   bands (ev):

    -3.6410   0.2201   2.7587   4.1262

          k =-0.3750 0.6250-0.3750 (   359 PWs)   bands (ev):

    -3.4497  -0.6509   3.7694   4.4808

          k =-0.3750 1.1250-0.3750 (   361 PWs)   bands (ev):

    -2.9532  -0.5674   2.1043   4.1637

          k =-0.3750-0.6250-0.3750 (   359 PWs)   bands (ev):

    -3.4497  -0.6509   3.7694   4.4808

          k =-0.3750-0.1250-0.3750 (   352 PWs)   bands (ev):

    -4.5900   1.4294   3.7493   5.2536

          k =-0.3750 0.1250-0.1250 (   349 PWs)   bands (ev):

    -5.0893   2.8080   4.7258   4.7918

          k =-0.3750 0.6250-0.1250 (   357 PWs)   bands (ev):

    -3.6410   0.2201   2.7587   4.1262

          k =-0.1250 0.3750-0.1250 (   349 PWs)   bands (ev):

    -5.0893   2.8080   4.7258   4.7918

          k =-0.1250 0.8750-0.1250 (   358 PWs)   bands (ev):

    -2.5829  -0.7740   2.6544   3.3820

          k =-0.1250-0.3750-0.1250 (   349 PWs)   bands (ev):

    -5.0893   2.8080   4.7258   4.7918

          k =-0.1250 0.1250-0.1250 (   338 PWs)   bands (ev):

    -5.6173   4.4278   5.7364   5.7364

          k =-0.1250-0.6250 0.1250 (   349 PWs)   bands (ev):

    -4.0566   1.0945   3.4000   3.8498

          k =-0.1250-0.1250 0.1250 (   338 PWs)   bands (ev):

    -5.6173   4.4278   5.7364   5.7364

          k = 0.6250-0.1250-0.1250 (   349 PWs)   bands (ev):

    -4.0566   1.0945   3.4000   3.8498

          k = 0.6250 0.3750-0.1250 (   357 PWs)   bands (ev):

    -3.6410   0.2201   2.7587   4.1262

          k = 0.6250 0.1250 0.1250 (   349 PWs)   bands (ev):

    -4.0566   1.0945   3.4000   3.8498

          k = 0.6250 0.6250 0.1250 (   361 PWs)   bands (ev):

    -2.9532  -0.5674   2.1043   4.1637

          k =-0.8750 0.1250-0.6250 (   359 PWs)   bands (ev):

    -2.4150  -0.8717   2.0459   3.1213

          k =-0.8750 0.6250-0.6250 (   352 PWs)   bands (ev):

    -4.5900   1.4294   3.7493   5.2536

          k =-0.1250 0.6250-0.8750 (   359 PWs)   bands (ev):

    -2.4150  -0.8717   2.0459   3.1213

          k =-0.1250 1.1250-0.8750 (   358 PWs)   bands (ev):

    -2.5829  -0.7740   2.6544   3.3820

          k =-0.1250 0.8750-0.6250 (   359 PWs)   bands (ev):

    -2.4150  -0.8717   2.0459   3.1213

          k =-0.1250 1.3750-0.6250 (   361 PWs)   bands (ev):

    -2.9532  -0.5674   2.1043   4.1637

          k =-0.1250-0.8750-0.6250 (   359 PWs)   bands (ev):

    -2.4150  -0.8717   2.0459   3.1213

          k =-0.1250-0.3750-0.6250 (   357 PWs)   bands (ev):

    -3.6410   0.2201   2.7587   4.1262

          k = 0.8750-0.6250 0.1250 (   359 PWs)   bands (ev):

    -2.4150  -0.8717   2.0459   3.1213

          k = 0.8750-0.1250 0.1250 (   358 PWs)   bands (ev):

    -2.5829  -0.7740   2.6544   3.3820

          k =-0.6250-0.1250-0.3750 (   357 PWs)   bands (ev):

    -3.6410   0.2201   2.7587   4.1262

          k =-0.6250 0.3750-0.3750 (   359 PWs)   bands (ev):

    -3.4497  -0.6509   3.7694   4.4808

          k = 0.1250 0.3750-0.6250 (   357 PWs)   bands (ev):

    -3.6410   0.2201   2.7587   4.1262

          k = 0.1250 0.8750-0.6250 (   359 PWs)   bands (ev):

    -2.4150  -0.8717   2.0459   3.1213

          k = 0.1250 0.6250-0.3750 (   357 PWs)   bands (ev):

    -3.6410   0.2201   2.7587   4.1262

          k = 0.1250 1.1250-0.3750 (   359 PWs)   bands (ev):

    -2.4150  -0.8717   2.0459   3.1213

          k = 0.1250-0.6250-0.3750 (   357 PWs)   bands (ev):

    -3.6410   0.2201   2.7587   4.1262

          k = 0.1250-0.1250-0.3750 (   349 PWs)   bands (ev):

    -5.0893   2.8080   4.7258   4.7918

          k = 0.6250-0.3750-0.1250 (   357 PWs)   bands (ev):

    -3.6410   0.2201   2.7587   4.1262

          k = 0.6250 0.1250-0.1250 (   349 PWs)   bands (ev):

    -4.0566   1.0945   3.4000   3.8498

          k =-0.1250 0.8750 0.1250 (   358 PWs)   bands (ev):

    -2.5829  -0.7740   2.6544   3.3820

          k =-0.1250 1.3750 0.1250 (   349 PWs)   bands (ev):

    -4.0566   1.0945   3.4000   3.8498

          k =-0.8750-0.1250-0.1250 (   358 PWs)   bands (ev):

    -2.5829  -0.7740   2.6544   3.3820

          k =-0.8750 0.3750-0.1250 (   359 PWs)   bands (ev):

    -2.4150  -0.8717   2.0459   3.1213

          k =-0.8750 0.1250 0.1250 (   358 PWs)   bands (ev):

    -2.5829  -0.7740   2.6544   3.3820

          k =-0.8750 0.6250 0.1250 (   359 PWs)   bands (ev):

    -2.4150  -0.8717   2.0459   3.1213

          k =-0.3750-0.3750 0.3750 (   353 PWs)   bands (ev):

    -4.1572   0.1385   4.9463   4.9463

          k =-0.3750 0.1250 0.3750 (   352 PWs)   bands (ev):

    -4.5900   1.4294   3.7493   5.2536

          k =-1.1250 0.3750-0.3750 (   361 PWs)   bands (ev):

    -2.9532  -0.5674   2.1043   4.1637

          k =-1.1250 0.8750-0.3750 (   349 PWs)   bands (ev):

    -4.0566   1.0945   3.4000   3.8498

          k =-0.3750 1.1250-0.3750 (   361 PWs)   bands (ev):

    -2.9532  -0.5674   2.1043   4.1637

          k =-0.3750 1.6250-0.3750 (   353 PWs)   bands (ev):

    -4.1572   0.1385   4.9463   4.9463

          k =-0.3750-1.1250-0.3750 (   361 PWs)   bands (ev):

    -2.9532  -0.5674   2.1043   4.1637

          k =-0.3750-0.6250-0.3750 (   359 PWs)   bands (ev):

    -3.4497  -0.6509   3.7694   4.4808

     highest occupied level (ev):     5.7364

     Writing output data file silicon.10.321.save

                                                                                

     bravais-lattice index     =            2
     lattice parameter (alat)  =      10.3210  a.u.
     unit-cell volume          =     274.8561 (a.u.)^3
     number of atoms/cell      =            2
     number of atomic types    =            1
     kinetic-energy cut-off    =      18.0000  Ry
     charge density cut-off    =      72.0000  Ry
     convergence threshold     =      1.0E-12
     beta                      =       0.7000
     number of iterations used =            4
     Exchange-correlation      = SLA  PW   PBE  PBE ( 1  4  3  4 0 0)


     celldm(1)=   10.32100  celldm(2)=    0.00000  celldm(3)=    0.00000
     celldm(4)=    0.00000  celldm(5)=    0.00000  celldm(6)=    0.00000

     crystal axes: (cart. coord. in units of alat)
               a(1) = ( -0.5000  0.0000  0.5000 )  
               a(2) = (  0.0000  0.5000  0.5000 )  
               a(3) = ( -0.5000  0.5000  0.0000 )  

     reciprocal axes: (cart. coord. in units 2 pi/alat)
               b(1) = ( -1.0000 -1.0000  1.0000 )  
               b(2) = (  1.0000  1.0000  1.0000 )  
               b(3) = ( -1.0000  1.0000 -1.0000 )  


     Atoms inside the unit cell: 

     Cartesian axes

     site n.  atom      mass           positions (alat units)
        1     Si  28.0860   tau(    1) = (    0.00000    0.00000    0.00000  )
        2     Si  28.0860   tau(    2) = (    0.25000    0.25000    0.25000  )

     Computing dynamical matrix for 
                    q = (   0.0000000   0.5000000   0.0000000 )

      8 Sym.Ops. (no q -> -q+G )


     G cutoff =  194.2747  (    685 G-vectors)     FFT grid: ( 20, 20, 20)
     number of k points=    80

     PseudoPot. # 1 for Si read from file:
     /home/max/quantum_espresso/qe-6.1/pseudo/si_pbe_v1.uspp.F.UPF.txt
     MD5 check sum: a056efeee980c13900f22a371efd63c1
     Pseudo is Ultrasoft + core correction, Zval =  4.0
     Generated by new atomic code, or converted to UPF format
     Using radial grid of  899 points,  6 beta functions with: 
                l(1) =   0
                l(2) =   0
                l(3) =   1
                l(4) =   1
                l(5) =   2
                l(6) =   2
     Q(r) pseudized with  8 coefficients,  rinner =    0.900   0.900   0.900
                                                       0.900   0.900

     Mode symmetry, C_4v (4mm)  point group:


     Atomic displacements:
     There are   4 irreducible representations

     Representation     1      1 modes -A_1  G_1 D_1  To be done

     Representation     2      1 modes -B_2  G_4 D_2'  To be done

     Representation     3      2 modes -E    G_5 D_5  To be done

     Representation     4      2 modes -E    G_5 D_5  To be done



     Alpha used in Ewald sum =   0.7000
     PHONON       :    25.19s CPU        29.25s WALL



     Representation #  1 mode #   1

     Self-consistent Calculation

      iter #   1 total cpu time :    29.4 secs   av.it.:   5.8
      thresh= 1.000E-02 alpha_mix =  0.700 |ddv_scf|^2 =  2.981E-03

      iter #   2 total cpu time :    29.6 secs   av.it.:   7.7
      thresh= 5.460E-03 alpha_mix =  0.700 |ddv_scf|^2 =  3.914E-02

      iter #   3 total cpu time :    29.8 secs   av.it.:   6.8
      thresh= 1.000E-02 alpha_mix =  0.700 |ddv_scf|^2 =  1.377E-07

      iter #   4 total cpu time :    30.0 secs   av.it.:   8.2
      thresh= 3.711E-05 alpha_mix =  0.700 |ddv_scf|^2 =  1.226E-08

      iter #   5 total cpu time :    30.2 secs   av.it.:   7.8
      thresh= 1.107E-05 alpha_mix =  0.700 |ddv_scf|^2 =  7.516E-10

      iter #   6 total cpu time :    30.6 secs   av.it.:   7.8
      thresh= 2.742E-06 alpha_mix =  0.700 |ddv_scf|^2 =  2.834E-12

      iter #   7 total cpu time :    31.0 secs   av.it.:   7.9
      thresh= 1.683E-07 alpha_mix =  0.700 |ddv_scf|^2 =  5.541E-13

     End of self-consistent calculation

     Convergence has been achieved 


     Representation #  2 mode #   2

     Self-consistent Calculation

      iter #   1 total cpu time :    31.1 secs   av.it.:   4.9
      thresh= 1.000E-02 alpha_mix =  0.700 |ddv_scf|^2 =  5.505E-06

      iter #   2 total cpu time :    31.3 secs   av.it.:   8.7
      thresh= 2.346E-04 alpha_mix =  0.700 |ddv_scf|^2 =  1.327E-06

      iter #   3 total cpu time :    31.6 secs   av.it.:   8.5
      thresh= 1.152E-04 alpha_mix =  0.700 |ddv_scf|^2 =  4.207E-08

      iter #   4 total cpu time :    31.8 secs   av.it.:   8.2
      thresh= 2.051E-05 alpha_mix =  0.700 |ddv_scf|^2 =  6.803E-10

      iter #   5 total cpu time :    32.0 secs   av.it.:   8.5
      thresh= 2.608E-06 alpha_mix =  0.700 |ddv_scf|^2 =  6.813E-12

      iter #   6 total cpu time :    32.2 secs   av.it.:   8.0
      thresh= 2.610E-07 alpha_mix =  0.700 |ddv_scf|^2 =  6.927E-14

     End of self-consistent calculation

     Convergence has been achieved 


     Representation #  3 modes #   3  4

     Self-consistent Calculation

      iter #   1 total cpu time :    32.9 secs   av.it.:   5.0
      thresh= 1.000E-02 alpha_mix =  0.700 |ddv_scf|^2 =  1.023E-06

      iter #   2 total cpu time :    33.3 secs   av.it.:   9.7
      thresh= 1.012E-04 alpha_mix =  0.700 |ddv_scf|^2 =  1.267E-07

      iter #   3 total cpu time :    33.8 secs   av.it.:   9.5
      thresh= 3.560E-05 alpha_mix =  0.700 |ddv_scf|^2 =  6.628E-09

      iter #   4 total cpu time :    34.2 secs   av.it.:   8.8
      thresh= 8.141E-06 alpha_mix =  0.700 |ddv_scf|^2 =  9.312E-12

      iter #   5 total cpu time :    35.1 secs   av.it.:   9.1
      thresh= 3.052E-07 alpha_mix =  0.700 |ddv_scf|^2 =  2.839E-13

     End of self-consistent calculation

     Convergence has been achieved 


     Representation #  4 modes #   5  6

     Self-consistent Calculation

      iter #   1 total cpu time :    35.4 secs   av.it.:   5.0
      thresh= 1.000E-02 alpha_mix =  0.700 |ddv_scf|^2 =  9.078E-07

      iter #   2 total cpu time :    35.9 secs   av.it.:   9.8
      thresh= 9.528E-05 alpha_mix =  0.700 |ddv_scf|^2 =  1.150E-07

      iter #   3 total cpu time :    36.4 secs   av.it.:   9.4
      thresh= 3.390E-05 alpha_mix =  0.700 |ddv_scf|^2 =  6.103E-09

      iter #   4 total cpu time :    37.2 secs   av.it.:   8.9
      thresh= 7.812E-06 alpha_mix =  0.700 |ddv_scf|^2 =  1.399E-11

      iter #   5 total cpu time :    37.6 secs   av.it.:   9.2
      thresh= 3.740E-07 alpha_mix =  0.700 |ddv_scf|^2 =  4.301E-14

     End of self-consistent calculation

     Convergence has been achieved 

     Number of q in the star =    6
     List of q in the star:
          1   0.000000000   0.500000000   0.000000000
          2   0.000000000  -0.500000000   0.000000000
          3   0.500000000   0.000000000   0.000000000
          4   0.000000000   0.000000000   0.500000000
          5   0.000000000   0.000000000  -0.500000000
          6  -0.500000000   0.000000000   0.000000000

     Diagonalizing the dynamical matrix

     q = (    0.000000000   0.500000000   0.000000000 ) 

 **************************************************************************
     freq (    1) =       4.208575 [THz] =     140.382964 [cm-1]
     freq (    2) =       4.208575 [THz] =     140.382964 [cm-1]
     freq (    3) =       7.208579 [THz] =     240.452323 [cm-1]
     freq (    4) =      13.773715 [THz] =     459.441665 [cm-1]
     freq (    5) =      13.773715 [THz] =     459.441665 [cm-1]
     freq (    6) =      14.373658 [THz] =     479.453623 [cm-1]
 **************************************************************************

     Mode symmetry, C_4v (4mm)  point group:

     freq (  1 -  2) =        140.4  [cm-1]   --> E    G_5 D_5       
     freq (  3 -  3) =        240.5  [cm-1]   --> A_1  G_1 D_1       
     freq (  4 -  5) =        459.4  [cm-1]   --> E    G_5 D_5       
     freq (  6 -  6) =        479.5  [cm-1]   --> B_2  G_4 D_2'      

     Calculation of q =    0.7500000  -0.2500000   0.7500000

   Info: using nr1, nr2, nr3 values from input

   Info: using nr1, nr2, nr3 values from input

     Parallelization info
     --------------------
     sticks:   dense  smooth     PW     G-vecs:    dense   smooth      PW
     Min          63      63     30                  684      684     216
     Max          64      64     31                  688      688     218
     Sum         253     253    121                 2741     2741     869



     bravais-lattice index     =            2
     lattice parameter (alat)  =      10.3210  a.u.
     unit-cell volume          =     274.8561 (a.u.)^3
     number of atoms/cell      =            2
     number of atomic types    =            1
     number of electrons       =         8.00
     number of Kohn-Sham states=            4
     kinetic-energy cutoff     =      18.0000  Ry
     charge density cutoff     =      72.0000  Ry
     Exchange-correlation      = SLA  PW   PBE  PBE ( 1  4  3  4 0 0)

     celldm(1)=  10.321000  celldm(2)=   0.000000  celldm(3)=   0.000000
     celldm(4)=   0.000000  celldm(5)=   0.000000  celldm(6)=   0.000000

     crystal axes: (cart. coord. in units of alat)
               a(1) = (  -0.500000   0.000000   0.500000 )  
               a(2) = (   0.000000   0.500000   0.500000 )  
               a(3) = (  -0.500000   0.500000   0.000000 )  

     reciprocal axes: (cart. coord. in units 2 pi/alat)
               b(1) = ( -1.000000 -1.000000  1.000000 )  
               b(2) = (  1.000000  1.000000  1.000000 )  
               b(3) = ( -1.000000  1.000000 -1.000000 )  


     PseudoPot. # 1 for Si read from file:
     /home/max/quantum_espresso/qe-6.1/pseudo/si_pbe_v1.uspp.F.UPF.txt
     MD5 check sum: a056efeee980c13900f22a371efd63c1
     Pseudo is Ultrasoft + core correction, Zval =  4.0
     Generated by new atomic code, or converted to UPF format
     Using radial grid of  899 points,  6 beta functions with: 
                l(1) =   0
                l(2) =   0
                l(3) =   1
                l(4) =   1
                l(5) =   2
                l(6) =   2
     Q(r) pseudized with  8 coefficients,  rinner =    0.900   0.900   0.900
                                                       0.900   0.900

     atomic species   valence    mass     pseudopotential
        Si             4.00    28.08600     Si( 1.00)

     48 Sym. Ops., with inversion, found



   Cartesian axes

     site n.     atom                  positions (alat units)
         1           Si  tau(   1) = (   0.0000000   0.0000000   0.0000000  )
         2           Si  tau(   2) = (   0.2500000   0.2500000   0.2500000  )

     number of k points=   288

     Number of k-points >= 100: set verbosity='high' to print them.

     Dense  grid:     2741 G-vectors     FFT dimensions: (  20,  20,  20)

     Estimated max dynamical RAM per process >       0.33MB

     Estimated total allocated dynamical RAM >       1.30MB

     Check: negative/imaginary core charge=   -0.000005    0.000000

     The potential is recalculated from file :
     ./_ph0/silicon.10.321.save/charge-density.dat

     Starting wfc are    8 atomic wfcs

     Band Structure Calculation
     Davidson diagonalization with overlap

     ethr =  1.25E-10,  avg # of iterations = 11.6

     total cpu time spent up to now is        5.4 secs

     End of band structure calculation

     Number of k-points >= 100: set verbosity='high' to print the bands.

     highest occupied level (ev):     5.7364

     Writing output data file silicon.10.321.save

                                                                                

     bravais-lattice index     =            2
     lattice parameter (alat)  =      10.3210  a.u.
     unit-cell volume          =     274.8561 (a.u.)^3
     number of atoms/cell      =            2
     number of atomic types    =            1
     kinetic-energy cut-off    =      18.0000  Ry
     charge density cut-off    =      72.0000  Ry
     convergence threshold     =      1.0E-12
     beta                      =       0.7000
     number of iterations used =            4
     Exchange-correlation      = SLA  PW   PBE  PBE ( 1  4  3  4 0 0)


     celldm(1)=   10.32100  celldm(2)=    0.00000  celldm(3)=    0.00000
     celldm(4)=    0.00000  celldm(5)=    0.00000  celldm(6)=    0.00000

     crystal axes: (cart. coord. in units of alat)
               a(1) = ( -0.5000  0.0000  0.5000 )  
               a(2) = (  0.0000  0.5000  0.5000 )  
               a(3) = ( -0.5000  0.5000  0.0000 )  

     reciprocal axes: (cart. coord. in units 2 pi/alat)
               b(1) = ( -1.0000 -1.0000  1.0000 )  
               b(2) = (  1.0000  1.0000  1.0000 )  
               b(3) = ( -1.0000  1.0000 -1.0000 )  


     Atoms inside the unit cell: 

     Cartesian axes

     site n.  atom      mass           positions (alat units)
        1     Si  28.0860   tau(    1) = (    0.00000    0.00000    0.00000  )
        2     Si  28.0860   tau(    2) = (    0.25000    0.25000    0.25000  )

     Computing dynamical matrix for 
                    q = (   0.7500000  -0.2500000   0.7500000 )

      2 Sym.Ops. (no q -> -q+G )


     G cutoff =  194.2747  (    685 G-vectors)     FFT grid: ( 20, 20, 20)
     number of k points=   288

     PseudoPot. # 1 for Si read from file:
     /home/max/quantum_espresso/qe-6.1/pseudo/si_pbe_v1.uspp.F.UPF.txt
     MD5 check sum: a056efeee980c13900f22a371efd63c1
     Pseudo is Ultrasoft + core correction, Zval =  4.0
     Generated by new atomic code, or converted to UPF format
     Using radial grid of  899 points,  6 beta functions with: 
                l(1) =   0
                l(2) =   0
                l(3) =   1
                l(4) =   1
                l(5) =   2
                l(6) =   2
     Q(r) pseudized with  8 coefficients,  rinner =    0.900   0.900   0.900
                                                       0.900   0.900

     Mode symmetry, C_s (m)     point group:


     Atomic displacements:
     There are   6 irreducible representations

     Representation     1      1 modes -A'  To be done

     Representation     2      1 modes -A'  To be done

     Representation     3      1 modes -A'  To be done

     Representation     4      1 modes -A'  To be done

     Representation     5      1 modes -A''  To be done

     Representation     6      1 modes -A''  To be done



     Alpha used in Ewald sum =   0.7000
     PHONON       :    35.91s CPU        41.33s WALL



     Representation #  1 mode #   1

     Self-consistent Calculation

      iter #   1 total cpu time :    41.9 secs   av.it.:   5.3
      thresh= 1.000E-02 alpha_mix =  0.700 |ddv_scf|^2 =  6.135E-05

      iter #   2 total cpu time :    43.1 secs   av.it.:   8.9
      thresh= 7.832E-04 alpha_mix =  0.700 |ddv_scf|^2 =  1.602E-04

      iter #   3 total cpu time :    43.7 secs   av.it.:   7.6
      thresh= 1.266E-03 alpha_mix =  0.700 |ddv_scf|^2 =  1.141E-06

      iter #   4 total cpu time :    45.0 secs   av.it.:   8.4
      thresh= 1.068E-04 alpha_mix =  0.700 |ddv_scf|^2 =  5.568E-08

      iter #   5 total cpu time :    45.7 secs   av.it.:   8.3
      thresh= 2.360E-05 alpha_mix =  0.700 |ddv_scf|^2 =  7.222E-09

      iter #   6 total cpu time :    46.7 secs   av.it.:   8.5
      thresh= 8.498E-06 alpha_mix =  0.700 |ddv_scf|^2 =  7.834E-11

      iter #   7 total cpu time :    47.6 secs   av.it.:   8.8
      thresh= 8.851E-07 alpha_mix =  0.700 |ddv_scf|^2 =  2.862E-12

      iter #   8 total cpu time :    48.4 secs   av.it.:   8.6
      thresh= 1.692E-07 alpha_mix =  0.700 |ddv_scf|^2 =  2.385E-13

     End of self-consistent calculation

     Convergence has been achieved 


     Representation #  2 mode #   2

     Self-consistent Calculation

      iter #   1 total cpu time :    49.4 secs   av.it.:   5.4
      thresh= 1.000E-02 alpha_mix =  0.700 |ddv_scf|^2 =  1.093E-04

      iter #   2 total cpu time :    50.2 secs   av.it.:   8.7
      thresh= 1.046E-03 alpha_mix =  0.700 |ddv_scf|^2 =  3.112E-04

      iter #   3 total cpu time :    51.2 secs   av.it.:   7.4
      thresh= 1.764E-03 alpha_mix =  0.700 |ddv_scf|^2 =  7.793E-07

      iter #   4 total cpu time :    51.9 secs   av.it.:   8.5
      thresh= 8.828E-05 alpha_mix =  0.700 |ddv_scf|^2 =  5.532E-08

      iter #   5 total cpu time :    53.0 secs   av.it.:   8.2
      thresh= 2.352E-05 alpha_mix =  0.700 |ddv_scf|^2 =  1.014E-08

      iter #   6 total cpu time :    53.8 secs   av.it.:   8.5
      thresh= 1.007E-05 alpha_mix =  0.700 |ddv_scf|^2 =  7.811E-11

      iter #   7 total cpu time :    54.9 secs   av.it.:   8.8
      thresh= 8.838E-07 alpha_mix =  0.700 |ddv_scf|^2 =  2.495E-12

      iter #   8 total cpu time :    55.6 secs   av.it.:   8.7
      thresh= 1.580E-07 alpha_mix =  0.700 |ddv_scf|^2 =  6.144E-13

     End of self-consistent calculation

     Convergence has been achieved 


     Representation #  3 mode #   3

     Self-consistent Calculation

      iter #   1 total cpu time :    56.3 secs   av.it.:   5.3
      thresh= 1.000E-02 alpha_mix =  0.700 |ddv_scf|^2 =  8.571E-05

      iter #   2 total cpu time :    57.5 secs   av.it.:   8.8
      thresh= 9.258E-04 alpha_mix =  0.700 |ddv_scf|^2 =  2.285E-04

      iter #   3 total cpu time :    58.1 secs   av.it.:   7.4
      thresh= 1.512E-03 alpha_mix =  0.700 |ddv_scf|^2 =  1.332E-06

      iter #   4 total cpu time :    59.3 secs   av.it.:   8.2
      thresh= 1.154E-04 alpha_mix =  0.700 |ddv_scf|^2 =  5.638E-08

      iter #   5 total cpu time :    60.0 secs   av.it.:   8.4
      thresh= 2.374E-05 alpha_mix =  0.700 |ddv_scf|^2 =  1.037E-08

      iter #   6 total cpu time :    61.1 secs   av.it.:   8.5
      thresh= 1.018E-05 alpha_mix =  0.700 |ddv_scf|^2 =  4.600E-11

      iter #   7 total cpu time :    61.9 secs   av.it.:   8.7
      thresh= 6.782E-07 alpha_mix =  0.700 |ddv_scf|^2 =  1.545E-12

      iter #   8 total cpu time :    63.1 secs   av.it.:   8.8
      thresh= 1.243E-07 alpha_mix =  0.700 |ddv_scf|^2 =  2.040E-13

     End of self-consistent calculation

     Convergence has been achieved 


     Representation #  4 mode #   4

     Self-consistent Calculation

      iter #   1 total cpu time :    63.7 secs   av.it.:   5.2
      thresh= 1.000E-02 alpha_mix =  0.700 |ddv_scf|^2 =  3.780E-05

      iter #   2 total cpu time :    64.8 secs   av.it.:   8.9
[...]
        k(   59) = (  -0.8750000   0.1250000  -0.1250000), wk =   0.0625000
        k(   60) = (  -1.3750000  -0.8750000  -0.1250000), wk =   0.0000000
        k(   61) = (  -1.1250000   0.3750000  -0.3750000), wk =   0.0625000
        k(   62) = (  -1.6250000  -0.6250000  -0.3750000), wk =   0.0000000
        k(   63) = (  -0.3750000   0.3750000   1.1250000), wk =   0.0625000
        k(   64) = (  -0.8750000  -0.6250000   1.1250000), wk =   0.0000000

     Dense  grid:     2741 G-vectors     FFT dimensions: (  20,  20,  20)

     Estimated max dynamical RAM per process >       0.33MB

     Estimated total allocated dynamical RAM >       1.30MB

     Check: negative/imaginary core charge=   -0.000005    0.000000

     The potential is recalculated from file :
     ./_ph0/silicon.10.321.save/charge-density.dat

     Starting wfc are    8 atomic wfcs

     Band Structure Calculation
     Davidson diagonalization with overlap

     ethr =  1.25E-10,  avg # of iterations = 11.6

     total cpu time spent up to now is        8.3 secs

     End of band structure calculation

          k =-0.1250 0.1250 0.1250 (   338 PWs)   bands (ev):

    -5.6173   4.4278   5.7364   5.7364

          k =-0.6250-0.8750 0.1250 (   359 PWs)   bands (ev):

    -2.4150  -0.8717   2.0459   3.1213

          k =-0.3750 0.3750-0.1250 (   352 PWs)   bands (ev):

    -4.5900   1.4294   3.7493   5.2536

          k =-0.8750-0.6250-0.1250 (   359 PWs)   bands (ev):

    -2.4150  -0.8717   2.0459   3.1213

          k = 0.3750-0.3750 0.6250 (   359 PWs)   bands (ev):

    -3.4497  -0.6509   3.7694   4.4808

          k =-0.1250-1.3750 0.6250 (   361 PWs)   bands (ev):

    -2.9532  -0.5674   2.1043   4.1637

          k = 0.1250-0.1250 0.3750 (   349 PWs)   bands (ev):

    -5.0893   2.8080   4.7258   4.7918

          k =-0.3750-1.1250 0.3750 (   361 PWs)   bands (ev):

    -2.9532  -0.5674   2.1043   4.1637

          k =-0.1250 0.6250 0.1250 (   349 PWs)   bands (ev):

    -4.0566   1.0945   3.4000   3.8498

          k =-0.6250-0.3750 0.1250 (   357 PWs)   bands (ev):

    -3.6410   0.2201   2.7587   4.1262

          k = 0.6250-0.1250 0.8750 (   359 PWs)   bands (ev):

    -2.4150  -0.8717   2.0459   3.1213

          k = 0.1250-1.1250 0.8750 (   358 PWs)   bands (ev):

    -2.5829  -0.7740   2.6544   3.3820

          k = 0.3750 0.1250 0.6250 (   357 PWs)   bands (ev):

    -3.6410   0.2201   2.7587   4.1262

          k =-0.1250-0.8750 0.6250 (   359 PWs)   bands (ev):

    -2.4150  -0.8717   2.0459   3.1213

          k =-0.1250-0.8750 0.1250 (   358 PWs)   bands (ev):

    -2.5829  -0.7740   2.6544   3.3820

          k =-0.6250-1.8750 0.1250 (   349 PWs)   bands (ev):

    -4.0566   1.0945   3.4000   3.8498

          k =-0.3750 0.3750 0.3750 (   353 PWs)   bands (ev):

    -4.1572   0.1385   4.9463   4.9463

          k =-0.8750-0.6250 0.3750 (   357 PWs)   bands (ev):

    -3.6410   0.2201   2.7587   4.1262

          k = 0.3750-0.3750 1.1250 (   361 PWs)   bands (ev):

    -2.9532  -0.5674   2.1043   4.1637

          k =-0.1250-1.3750 1.1250 (   359 PWs)   bands (ev):

    -2.4150  -0.8717   2.0459   3.1213

          k = 0.1250-0.3750 0.3750 (   352 PWs)   bands (ev):

    -4.5900   1.4294   3.7493   5.2536

          k =-0.3750-1.3750 0.3750 (   359 PWs)   bands (ev):

    -3.4497  -0.6509   3.7694   4.4808

          k = 0.3750-0.3750-0.1250 (   352 PWs)   bands (ev):

    -4.5900   1.4294   3.7493   5.2536

          k =-0.1250-1.3750-0.1250 (   349 PWs)   bands (ev):

    -4.0566   1.0945   3.4000   3.8498

          k =-0.6250 0.3750-0.3750 (   359 PWs)   bands (ev):

    -3.4497  -0.6509   3.7694   4.4808

          k =-1.1250-0.6250-0.3750 (   357 PWs)   bands (ev):

    -3.6410   0.2201   2.7587   4.1262

          k =-0.3750 0.3750 0.6250 (   359 PWs)   bands (ev):

    -3.4497  -0.6509   3.7694   4.4808

          k =-0.8750-0.6250 0.6250 (   352 PWs)   bands (ev):

    -4.5900   1.4294   3.7493   5.2536

          k =-0.3750 0.1250-0.1250 (   349 PWs)   bands (ev):

    -5.0893   2.8080   4.7258   4.7918

          k =-0.8750-0.8750-0.1250 (   358 PWs)   bands (ev):

    -2.5829  -0.7740   2.6544   3.3820

          k =-0.1250 0.1250 0.3750 (   349 PWs)   bands (ev):

    -5.0893   2.8080   4.7258   4.7918

          k =-0.6250-0.8750 0.3750 (   357 PWs)   bands (ev):

    -3.6410   0.2201   2.7587   4.1262

          k = 0.1250 0.6250-0.1250 (   349 PWs)   bands (ev):

    -4.0566   1.0945   3.4000   3.8498

          k =-0.3750-0.3750-0.1250 (   352 PWs)   bands (ev):

    -4.5900   1.4294   3.7493   5.2536

          k = 0.6250 0.1250-0.1250 (   349 PWs)   bands (ev):

    -4.0566   1.0945   3.4000   3.8498

          k = 0.1250-0.8750-0.1250 (   358 PWs)   bands (ev):

    -2.5829  -0.7740   2.6544   3.3820

          k =-0.8750 0.1250-0.6250 (   359 PWs)   bands (ev):

    -2.4150  -0.8717   2.0459   3.1213

          k =-1.3750-0.8750-0.6250 (   352 PWs)   bands (ev):

    -4.5900   1.4294   3.7493   5.2536

          k = 0.8750-0.1250 0.6250 (   359 PWs)   bands (ev):

    -2.4150  -0.8717   2.0459   3.1213

          k = 0.3750-1.1250 0.6250 (   357 PWs)   bands (ev):

    -3.6410   0.2201   2.7587   4.1262

          k =-0.6250 0.1250 0.8750 (   359 PWs)   bands (ev):

    -2.4150  -0.8717   2.0459   3.1213

          k =-1.1250-0.8750 0.8750 (   338 PWs)   bands (ev):

    -5.6173   4.4278   5.7364   5.7364

          k =-0.1250 0.8750 0.6250 (   359 PWs)   bands (ev):

    -2.4150  -0.8717   2.0459   3.1213

          k =-0.6250-0.1250 0.6250 (   361 PWs)   bands (ev):

    -2.9532  -0.5674   2.1043   4.1637

          k = 0.1250 0.8750-0.6250 (   359 PWs)   bands (ev):

    -2.4150  -0.8717   2.0459   3.1213

          k =-0.3750-0.1250-0.6250 (   357 PWs)   bands (ev):

    -3.6410   0.2201   2.7587   4.1262

          k =-0.6250-0.1250-0.3750 (   357 PWs)   bands (ev):

    -3.6410   0.2201   2.7587   4.1262

          k =-1.1250-1.1250-0.3750 (   349 PWs)   bands (ev):

    -4.0566   1.0945   3.4000   3.8498

          k = 0.6250 0.1250 0.3750 (   357 PWs)   bands (ev):

    -3.6410   0.2201   2.7587   4.1262

          k = 0.1250-0.8750 0.3750 (   359 PWs)   bands (ev):

    -2.4150  -0.8717   2.0459   3.1213

          k =-0.3750-0.1250 0.6250 (   357 PWs)   bands (ev):

    -3.6410   0.2201   2.7587   4.1262

          k =-0.8750-1.1250 0.6250 (   349 PWs)   bands (ev):

    -5.0893   2.8080   4.7258   4.7918

          k = 0.1250 0.6250 0.3750 (   357 PWs)   bands (ev):

    -3.6410   0.2201   2.7587   4.1262

          k =-0.3750-0.3750 0.3750 (   353 PWs)   bands (ev):

    -4.1572   0.1385   4.9463   4.9463

          k =-0.1250 0.6250-0.3750 (   357 PWs)   bands (ev):

    -3.6410   0.2201   2.7587   4.1262

          k =-0.6250-0.3750-0.3750 (   359 PWs)   bands (ev):

    -3.4497  -0.6509   3.7694   4.4808

          k = 0.1250-0.8750-0.1250 (   358 PWs)   bands (ev):

    -2.5829  -0.7740   2.6544   3.3820

          k =-0.3750-1.8750-0.1250 (   349 PWs)   bands (ev):

    -5.0893   2.8080   4.7258   4.7918

          k =-0.8750 0.1250-0.1250 (   358 PWs)   bands (ev):

    -2.5829  -0.7740   2.6544   3.3820

          k =-1.3750-0.8750-0.1250 (   359 PWs)   bands (ev):

    -2.4150  -0.8717   2.0459   3.1213

          k =-1.1250 0.3750-0.3750 (   361 PWs)   bands (ev):

    -2.9532  -0.5674   2.1043   4.1637

          k =-1.6250-0.6250-0.3750 (   359 PWs)   bands (ev):

    -3.4497  -0.6509   3.7694   4.4808

          k =-0.3750 0.3750 1.1250 (   361 PWs)   bands (ev):

    -2.9532  -0.5674   2.1043   4.1637

          k =-0.8750-0.6250 1.1250 (   349 PWs)   bands (ev):

    -5.0893   2.8080   4.7258   4.7918

     highest occupied level (ev):     5.7364

     Writing output data file silicon.10.321.save

                                                                                

     bravais-lattice index     =            2
     lattice parameter (alat)  =      10.3210  a.u.
     unit-cell volume          =     274.8561 (a.u.)^3
     number of atoms/cell      =            2
     number of atomic types    =            1
     kinetic-energy cut-off    =      18.0000  Ry
     charge density cut-off    =      72.0000  Ry
     convergence threshold     =      1.0E-12
     beta                      =       0.7000
     number of iterations used =            4
     Exchange-correlation      = SLA  PW   PBE  PBE ( 1  4  3  4 0 0)


     celldm(1)=   10.32100  celldm(2)=    0.00000  celldm(3)=    0.00000
     celldm(4)=    0.00000  celldm(5)=    0.00000  celldm(6)=    0.00000

     crystal axes: (cart. coord. in units of alat)
               a(1) = ( -0.5000  0.0000  0.5000 )  
               a(2) = (  0.0000  0.5000  0.5000 )  
               a(3) = ( -0.5000  0.5000  0.0000 )  

     reciprocal axes: (cart. coord. in units 2 pi/alat)
               b(1) = ( -1.0000 -1.0000  1.0000 )  
               b(2) = (  1.0000  1.0000  1.0000 )  
               b(3) = ( -1.0000  1.0000 -1.0000 )  


     Atoms inside the unit cell: 

     Cartesian axes

     site n.  atom      mass           positions (alat units)
        1     Si  28.0860   tau(    1) = (    0.00000    0.00000    0.00000  )
        2     Si  28.0860   tau(    2) = (    0.25000    0.25000    0.25000  )

     Computing dynamical matrix for 
                    q = (  -0.5000000  -1.0000000   0.0000000 )

      8 Sym.Ops. (no q -> -q+G )


     G cutoff =  194.2747  (    685 G-vectors)     FFT grid: ( 20, 20, 20)
     number of k points=    64

     PseudoPot. # 1 for Si read from file:
     /home/max/quantum_espresso/qe-6.1/pseudo/si_pbe_v1.uspp.F.UPF.txt
     MD5 check sum: a056efeee980c13900f22a371efd63c1
     Pseudo is Ultrasoft + core correction, Zval =  4.0
     Generated by new atomic code, or converted to UPF format
     Using radial grid of  899 points,  6 beta functions with: 
                l(1) =   0
                l(2) =   0
                l(3) =   1
                l(4) =   1
                l(5) =   2
                l(6) =   2
     Q(r) pseudized with  8 coefficients,  rinner =    0.900   0.900   0.900
                                                       0.900   0.900


     Atomic displacements:
     There are   3 irreducible representations

     Representation     1      2 modes -  To be done

     Representation     2      2 modes -  To be done

     Representation     3      2 modes -  To be done



     Alpha used in Ewald sum =   0.7000
     PHONON       :  1m29.22s CPU     1m43.30s WALL



     Representation #  1 modes #   1  2

     Self-consistent Calculation

      iter #   1 total cpu time :   103.6 secs   av.it.:   5.3
      thresh= 1.000E-02 alpha_mix =  0.700 |ddv_scf|^2 =  6.355E-06

      iter #   2 total cpu time :   104.0 secs   av.it.:   9.9
      thresh= 2.521E-04 alpha_mix =  0.700 |ddv_scf|^2 =  3.445E-06

      iter #   3 total cpu time :   104.3 secs   av.it.:   9.2
      thresh= 1.856E-04 alpha_mix =  0.700 |ddv_scf|^2 =  8.381E-09

      iter #   4 total cpu time :   105.0 secs   av.it.:   9.1
      thresh= 9.155E-06 alpha_mix =  0.700 |ddv_scf|^2 =  1.907E-11

      iter #   5 total cpu time :   105.3 secs   av.it.:   9.2
      thresh= 4.367E-07 alpha_mix =  0.700 |ddv_scf|^2 =  5.256E-13

     End of self-consistent calculation

     Convergence has been achieved 


     Representation #  2 modes #   3  4

     Self-consistent Calculation

      iter #   1 total cpu time :   105.6 secs   av.it.:   5.2
      thresh= 1.000E-02 alpha_mix =  0.700 |ddv_scf|^2 =  9.836E-06

      iter #   2 total cpu time :   106.0 secs   av.it.:   9.9
      thresh= 3.136E-04 alpha_mix =  0.700 |ddv_scf|^2 =  1.304E-05

      iter #   3 total cpu time :   106.4 secs   av.it.:   9.1
      thresh= 3.611E-04 alpha_mix =  0.700 |ddv_scf|^2 =  9.839E-09

      iter #   4 total cpu time :   107.1 secs   av.it.:   8.9
      thresh= 9.919E-06 alpha_mix =  0.700 |ddv_scf|^2 =  7.910E-11

      iter #   5 total cpu time :   107.4 secs   av.it.:   9.4
      thresh= 8.894E-07 alpha_mix =  0.700 |ddv_scf|^2 =  1.715E-12

      iter #   6 total cpu time :   107.8 secs   av.it.:   9.1
      thresh= 1.310E-07 alpha_mix =  0.700 |ddv_scf|^2 =  1.438E-14

     End of self-consistent calculation

     Convergence has been achieved 


     Representation #  3 modes #   5  6

     Self-consistent Calculation

      iter #   1 total cpu time :   108.1 secs   av.it.:   5.1
      thresh= 1.000E-02 alpha_mix =  0.700 |ddv_scf|^2 =  2.658E-06

      iter #   2 total cpu time :   108.5 secs   av.it.:   9.7
      thresh= 1.630E-04 alpha_mix =  0.700 |ddv_scf|^2 =  1.453E-06

      iter #   3 total cpu time :   109.1 secs   av.it.:   9.1
      thresh= 1.206E-04 alpha_mix =  0.700 |ddv_scf|^2 =  8.254E-09

      iter #   4 total cpu time :   109.5 secs   av.it.:   8.8
      thresh= 9.085E-06 alpha_mix =  0.700 |ddv_scf|^2 =  4.263E-11

      iter #   5 total cpu time :   109.8 secs   av.it.:   9.1
      thresh= 6.529E-07 alpha_mix =  0.700 |ddv_scf|^2 =  6.990E-13

     End of self-consistent calculation

     Convergence has been achieved 

     Number of q in the star =    6
     List of q in the star:
          1  -0.500000000  -1.000000000   0.000000000
          2   0.000000000   1.000000000   0.500000000
          3   0.000000000  -1.000000000  -0.500000000
          4   0.500000000   1.000000000   0.000000000
          5  -1.000000000  -0.500000000   0.000000000
          6   0.000000000  -0.500000000  -1.000000000

     Diagonalizing the dynamical matrix

     q = (   -0.500000000  -1.000000000   0.000000000 ) 

 **************************************************************************
     freq (    1) =       6.973695 [THz] =     232.617418 [cm-1]
     freq (    2) =       6.973695 [THz] =     232.617418 [cm-1]
     freq (    3) =      10.813937 [THz] =     360.714097 [cm-1]
     freq (    4) =      10.813937 [THz] =     360.714097 [cm-1]
     freq (    5) =      13.847631 [THz] =     461.907244 [cm-1]
     freq (    6) =      13.847631 [THz] =     461.907244 [cm-1]
 **************************************************************************

     init_run     :      0.56s CPU      0.74s WALL (       7 calls)
     electrons    :      5.76s CPU      6.72s WALL (       7 calls)

     Called by init_run:
     wfcinit      :      0.00s CPU      0.00s WALL (       7 calls)
     potinit      :      0.02s CPU      0.04s WALL (       7 calls)

     Called by electrons:
     c_bands      :      5.75s CPU      6.72s WALL (       7 calls)
     v_of_rho     :      0.02s CPU      0.03s WALL (       8 calls)
     newd         :      0.03s CPU      0.04s WALL (       8 calls)

     Called by c_bands:
     init_us_2    :      0.70s CPU      0.80s WALL (   17588 calls)
     cegterg      :      4.83s CPU      5.65s WALL (     796 calls)

     Called by sum_band:

     Called by *egterg:
     h_psi        :     51.75s CPU     59.42s WALL (  152211 calls)
     s_psi        :      5.87s CPU      6.66s WALL (  309142 calls)
     g_psi        :      0.03s CPU      0.03s WALL (    9268 calls)
     cdiaghg      :      0.50s CPU      0.60s WALL (   10064 calls)

     Called by h_psi:
     h_psi:pot    :     51.56s CPU     59.20s WALL (  152211 calls)
     h_psi:calbec :      5.73s CPU      6.70s WALL (  152211 calls)
     vloc_psi     :     42.66s CPU     48.93s WALL (  152211 calls)
     add_vuspsi   :      2.94s CPU      3.30s WALL (  152211 calls)

     General routines
     calbec       :     12.59s CPU     14.84s WALL (  345514 calls)
     fft          :      0.81s CPU      1.02s WALL (    5239 calls)
     ffts         :      0.17s CPU      0.21s WALL (    2748 calls)
     fftw         :     49.99s CPU     57.36s WALL ( 1378288 calls)
     davcio       :      0.32s CPU      0.37s WALL (   79045 calls)

     Parallel routines
     fft_scatter  :     17.72s CPU     20.98s WALL ( 1386275 calls)

     PHONON       :  1m35.14s CPU     1m49.87s WALL

     INITIALIZATION: 
     phq_setup    :      0.22s CPU      0.24s WALL (       8 calls)
     phq_init     :      2.32s CPU      2.53s WALL (       8 calls)

     phq_init     :      2.32s CPU      2.53s WALL (       8 calls)
     set_drhoc    :      0.28s CPU      0.31s WALL (      24 calls)
     init_vloc    :      0.01s CPU      0.01s WALL (       8 calls)
     init_us_1    :      0.50s CPU      0.64s WALL (       8 calls)
     newd         :      0.03s CPU      0.04s WALL (       8 calls)
     dvanqq       :      0.26s CPU      0.28s WALL (       8 calls)
     drho         :      1.17s CPU      1.22s WALL (       8 calls)

     DYNAMICAL MATRIX:
     dynmat0      :      0.56s CPU      0.60s WALL (       8 calls)
     phqscf       :     83.56s CPU     96.73s WALL (       8 calls)
     dynmatrix    :      0.01s CPU      0.01s WALL (       8 calls)

     phqscf       :     83.56s CPU     96.73s WALL (       8 calls)
     solve_linter :     82.56s CPU     95.38s WALL (      32 calls)
     drhodv       :      0.78s CPU      1.10s WALL (      32 calls)

     dynmat0      :      0.56s CPU      0.60s WALL (       8 calls)
     dynmat_us    :      0.30s CPU      0.31s WALL (       8 calls)
     d2ionq       :      0.01s CPU      0.01s WALL (       8 calls)
     dynmatcc     :      0.23s CPU      0.25s WALL (       8 calls)

     dynmat_us    :      0.30s CPU      0.31s WALL (       8 calls)
     addusdynmat  :      0.00s CPU      0.00s WALL (       8 calls)

     phqscf       :     83.56s CPU     96.73s WALL (       8 calls)
     solve_linter :     82.56s CPU     95.38s WALL (      32 calls)

     solve_linter :     82.56s CPU     95.38s WALL (      32 calls)
     dvqpsi_us    :      1.79s CPU      2.12s WALL (    2508 calls)
     ortho        :      1.39s CPU      1.66s WALL (   15550 calls)
     cgsolve      :     65.01s CPU     74.97s WALL (   15550 calls)
     incdrhoscf   :      5.70s CPU      6.54s WALL (   15550 calls)
     addusddens   :      1.22s CPU      1.31s WALL (     228 calls)
     vpsifft      :      4.20s CPU      4.77s WALL (   12922 calls)
     dv_of_drho   :      0.25s CPU      0.28s WALL (     295 calls)
     mix_pot      :      0.06s CPU      0.07s WALL (     201 calls)
     psymdvscf    :      0.81s CPU      0.88s WALL (     196 calls)
     newdq        :      1.34s CPU      1.52s WALL (     201 calls)
     adddvscf     :      0.47s CPU      0.54s WALL (   13042 calls)
     drhodvus     :      0.02s CPU      0.03s WALL (      32 calls)

     dvqpsi_us    :      1.79s CPU      2.12s WALL (    2508 calls)
     dvqpsi_us_on :      0.84s CPU      0.97s WALL (    2508 calls)

     cgsolve      :     65.01s CPU     74.97s WALL (   15550 calls)
     ch_psi       :     61.58s CPU     70.74s WALL (  141351 calls)

     ch_psi       :     61.58s CPU     70.74s WALL (  141351 calls)
     h_psi        :     51.75s CPU     59.42s WALL (  152211 calls)
     last         :     10.77s CPU     12.52s WALL (  141351 calls)

     h_psi        :     51.75s CPU     59.42s WALL (  152211 calls)
     add_vuspsi   :      2.94s CPU      3.30s WALL (  152211 calls)

     incdrhoscf   :      5.70s CPU      6.54s WALL (   15550 calls)
     addusdbec    :      0.89s CPU      1.01s WALL (   17998 calls)

     drhodvus     :      0.02s CPU      0.03s WALL (      32 calls)

      General routines
     calbec       :     12.59s CPU     14.84s WALL (  345514 calls)
     fft          :      0.81s CPU      1.02s WALL (    5239 calls)
     ffts         :      0.17s CPU      0.21s WALL (    2748 calls)
     fftw         :     49.99s CPU     57.36s WALL ( 1378288 calls)
     davcio       :      0.32s CPU      0.37s WALL (   79045 calls)
     write_rec    :      0.23s CPU      0.30s WALL (     233 calls)


     PHONON       :  1m35.14s CPU     1m49.87s WALL


   This run was terminated on:  12: 3: 6   9Nov2017            

=------------------------------------------------------------------------------=
   JOB DONE.
=------------------------------------------------------------------------------=
