
     Program PHONON v.6.1 (svn rev. 13369) starts on 10Nov2017 at 15:43:16 

     This program is part of the open-source Quantum ESPRESSO suite
     for quantum simulation of materials; please cite
         "P. Giannozzi et al., J. Phys.:Condens. Matter 21 395502 (2009);
          URL http://www.quantum-espresso.org", 
     in publications or presentations arising from this work. More details at
     http://www.quantum-espresso.org/quote

     Parallel version (MPI), running on     4 processors
     R & G space division:  proc/nbgrp/npool/nimage =       4

     Reading data from directory:
     ./silicon.10.320.save

   Info: using nr1, nr2, nr3 values from input

   Info: using nr1, nr2, nr3 values from input

     IMPORTANT: XC functional enforced from input :
     Exchange-correlation      = SLA  PW   PBE  PBE ( 1  4  3  4 0 0)
     Any further DFT definition will be discarded
     Please, verify this is what you really want


     Parallelization info
     --------------------
     sticks:   dense  smooth     PW     G-vecs:    dense   smooth      PW
     Min         217     109     37                 4288     1520     284
     Max         219     111     38                 4289     1521     285
     Sum         871     439    151                17153     6081    1139



     Dynamical matrices for ( 4, 4, 4)  uniform grid of q-points
     (   8q-points):
       N         xq(1)         xq(2)         xq(3) 
       1   0.000000000   0.000000000   0.000000000
       2  -0.250000000   0.250000000  -0.250000000
       3   0.500000000  -0.500000000   0.500000000
       4   0.000000000   0.500000000   0.000000000
       5   0.750000000  -0.250000000   0.750000000
       6   0.500000000   0.000000000   0.500000000
       7   0.000000000  -1.000000000   0.000000000
       8  -0.500000000  -1.000000000   0.000000000

     Calculation of q =    0.0000000   0.0000000   0.0000000

                                                                                

     bravais-lattice index     =            2
     lattice parameter (alat)  =      10.3200  a.u.
     unit-cell volume          =     274.7762 (a.u.)^3
     number of atoms/cell      =            2
     number of atomic types    =            1
     kinetic-energy cut-off    =      30.0000  Ry
     charge density cut-off    =     240.0000  Ry
     convergence threshold     =      1.0E-12
     beta                      =       0.7000
     number of iterations used =            4
     Exchange-correlation      = SLA  PW   PBE  PBE ( 1  4  3  4 0 0)


     celldm(1)=   10.32000  celldm(2)=    0.00000  celldm(3)=    0.00000
     celldm(4)=    0.00000  celldm(5)=    0.00000  celldm(6)=    0.00000

     crystal axes: (cart. coord. in units of alat)
               a(1) = ( -0.5000  0.0000  0.5000 )  
               a(2) = (  0.0000  0.5000  0.5000 )  
               a(3) = ( -0.5000  0.5000  0.0000 )  

     reciprocal axes: (cart. coord. in units 2 pi/alat)
               b(1) = ( -1.0000 -1.0000  1.0000 )  
               b(2) = (  1.0000  1.0000  1.0000 )  
               b(3) = ( -1.0000  1.0000 -1.0000 )  


     Atoms inside the unit cell: 

     Cartesian axes

     site n.  atom      mass           positions (alat units)
        1     Si  28.0860   tau(    1) = (    0.00000    0.00000    0.00000  )
        2     Si  28.0860   tau(    2) = (    0.25000    0.25000    0.25000  )

     Computing dynamical matrix for 
                    q = (   0.0000000   0.0000000   0.0000000 )

     49 Sym.Ops. (with q -> -q+G )


     G cutoff =  647.4570  (   4288 G-vectors)     FFT grid: ( 36, 36, 36)
     G cutoff =  323.7285  (   1520 G-vectors)  smooth grid: ( 25, 25, 25)
     number of k points=    10

     PseudoPot. # 1 for Si read from file:
     /home/s1333534/quantum_espresso/qe-6.1/pseudo/si_pbe_v1.uspp.F.UPF.txt
     MD5 check sum: a056efeee980c13900f22a371efd63c1
     Pseudo is Ultrasoft + core correction, Zval =  4.0
     Generated by new atomic code, or converted to UPF format
     Using radial grid of  899 points,  6 beta functions with: 
                l(1) =   0
                l(2) =   0
                l(3) =   1
                l(4) =   1
                l(5) =   2
                l(6) =   2
     Q(r) pseudized with  8 coefficients,  rinner =    0.900   0.900   0.900
                                                       0.900   0.900

     Mode symmetry, O_h (m-3m)  point group:


     Electric field:
     Dielectric constant
     Born effective charges in two ways 


     Atomic displacements:
     There are   2 irreducible representations

     Representation     1      3 modes -T_2g G_25' G_5+  To be done

     Representation     2      3 modes -T_1u G_15  G_4-  To be done



     Alpha used in Ewald sum =   2.5000
     PHONON       :     0.95s CPU         1.33s WALL


     Electric Fields Calculation

      iter #   1 total cpu time :     2.5 secs   av.it.:   5.7
      thresh= 1.000E-02 alpha_mix =  0.700 |ddv_scf|^2 =  1.332E-07

      iter #   2 total cpu time :     3.2 secs   av.it.:  11.8
      thresh= 3.650E-05 alpha_mix =  0.700 |ddv_scf|^2 =  7.808E-09

      iter #   3 total cpu time :     3.9 secs   av.it.:  11.5
      thresh= 8.836E-06 alpha_mix =  0.700 |ddv_scf|^2 =  5.187E-10

      iter #   4 total cpu time :     4.5 secs   av.it.:  10.2
      thresh= 2.277E-06 alpha_mix =  0.700 |ddv_scf|^2 =  3.388E-12

      iter #   5 total cpu time :     5.0 secs   av.it.:  11.1
      thresh= 1.841E-07 alpha_mix =  0.700 |ddv_scf|^2 =  3.384E-15

     End of electric fields calculation

          Dielectric constant in cartesian axis 

          (      13.939223537       0.000000000       0.000000000 )
          (      -0.000000000      13.939223537      -0.000000000 )
          (       0.000000000      -0.000000000      13.939223537 )

          Effective charges (d Force / dE) in cartesian axis

           atom      1   Si 
      Ex  (       -0.03876        0.00000        0.00000 )
      Ey  (        0.00000       -0.03876       -0.00000 )
      Ez  (        0.00000       -0.00000       -0.03876 )
           atom      2   Si 
      Ex  (       -0.03876        0.00000       -0.00000 )
      Ey  (       -0.00000       -0.03876        0.00000 )
      Ez  (       -0.00000        0.00000       -0.03876 )


     Representation #  1 modes #   1  2  3

     Self-consistent Calculation

      iter #   1 total cpu time :     6.3 secs   av.it.:   5.1
      thresh= 1.000E-02 alpha_mix =  0.700 |ddv_scf|^2 =  2.353E-08

      iter #   2 total cpu time :     7.1 secs   av.it.:  11.6
      thresh= 1.534E-05 alpha_mix =  0.700 |ddv_scf|^2 =  9.637E-10

      iter #   3 total cpu time :     7.8 secs   av.it.:  11.1
      thresh= 3.104E-06 alpha_mix =  0.700 |ddv_scf|^2 =  6.555E-11

      iter #   4 total cpu time :     8.4 secs   av.it.:  10.1
      thresh= 8.096E-07 alpha_mix =  0.700 |ddv_scf|^2 =  1.608E-13

     End of self-consistent calculation

     Convergence has been achieved 


     Representation #  2 modes #   4  5  6

     Self-consistent Calculation

      iter #   1 total cpu time :     9.2 secs   av.it.:   5.2
      thresh= 1.000E-02 alpha_mix =  0.700 |ddv_scf|^2 =  1.856E-08

      iter #   2 total cpu time :     9.9 secs   av.it.:  11.6
      thresh= 1.362E-05 alpha_mix =  0.700 |ddv_scf|^2 =  1.093E-09

      iter #   3 total cpu time :    10.6 secs   av.it.:  11.2
      thresh= 3.306E-06 alpha_mix =  0.700 |ddv_scf|^2 =  6.777E-11

      iter #   4 total cpu time :    11.2 secs   av.it.:  11.3
      thresh= 8.232E-07 alpha_mix =  0.700 |ddv_scf|^2 =  2.637E-13

     End of self-consistent calculation

     Convergence has been achieved 

     Number of q in the star =    1
     List of q in the star:
          1   0.000000000   0.000000000   0.000000000

          Dielectric constant in cartesian axis 

          (      13.939223537       0.000000000       0.000000000 )
          (      -0.000000000      13.939223537      -0.000000000 )
          (       0.000000000      -0.000000000      13.939223537 )

          Effective charges (d Force / dE) in cartesian axis

           atom      1   Si 
      Ex  (       -0.03876        0.00000        0.00000 )
      Ey  (        0.00000       -0.03876       -0.00000 )
      Ez  (        0.00000       -0.00000       -0.03876 )
           atom      2   Si 
      Ex  (       -0.03876        0.00000       -0.00000 )
      Ey  (       -0.00000       -0.03876        0.00000 )
      Ez  (       -0.00000        0.00000       -0.03876 )

          Effective charges (d P / du) in cartesian axis 

           atom      1   Si 
      Px  (       -0.07232        0.00000        0.00000 )
      Py  (        0.00000       -0.07232        0.00000 )
      Pz  (       -0.00000       -0.00000       -0.07232 )
           atom      2   Si 
      Px  (       -0.07232       -0.00000        0.00000 )
      Py  (       -0.00000       -0.07232        0.00000 )
      Pz  (       -0.00000        0.00000       -0.07232 )

     Diagonalizing the dynamical matrix

     q = (    0.000000000   0.000000000   0.000000000 ) 

 **************************************************************************
     freq (    1) =      -0.473985 [THz] =     -15.810449 [cm-1]
     freq (    2) =      -0.473985 [THz] =     -15.810449 [cm-1]
     freq (    3) =      -0.473985 [THz] =     -15.810449 [cm-1]
     freq (    4) =      15.126397 [THz] =     504.562283 [cm-1]
     freq (    5) =      15.126397 [THz] =     504.562283 [cm-1]
     freq (    6) =      15.126397 [THz] =     504.562283 [cm-1]
 **************************************************************************

     Mode symmetry, O_h (m-3m)  point group:

     freq (  1 -  3) =        -15.8  [cm-1]   --> T_1u G_15  G_4- I  
     freq (  4 -  6) =        504.6  [cm-1]   --> T_2g G_25' G_5+ R  

     Calculation of q =   -0.2500000   0.2500000  -0.2500000

   Info: using nr1, nr2, nr3 values from input

   Info: using nr1, nr2, nr3 values from input

     Parallelization info
     --------------------
     sticks:   dense  smooth     PW     G-vecs:    dense   smooth      PW
     Min         217     109     37                 4288     1520     309
     Max         218     111     38                 4289     1521     312
     Sum         871     439    151                17153     6081    1243



     bravais-lattice index     =            2
     lattice parameter (alat)  =      10.3200  a.u.
     unit-cell volume          =     274.7762 (a.u.)^3
     number of atoms/cell      =            2
     number of atomic types    =            1
     number of electrons       =         8.00
     number of Kohn-Sham states=            4
     kinetic-energy cutoff     =      30.0000  Ry
     charge density cutoff     =     240.0000  Ry
     Exchange-correlation      = SLA  PW   PBE  PBE ( 1  4  3  4 0 0)

     celldm(1)=  10.320000  celldm(2)=   0.000000  celldm(3)=   0.000000
     celldm(4)=   0.000000  celldm(5)=   0.000000  celldm(6)=   0.000000

     crystal axes: (cart. coord. in units of alat)
               a(1) = (  -0.500000   0.000000   0.500000 )  
               a(2) = (   0.000000   0.500000   0.500000 )  
               a(3) = (  -0.500000   0.500000   0.000000 )  

     reciprocal axes: (cart. coord. in units 2 pi/alat)
               b(1) = ( -1.000000 -1.000000  1.000000 )  
               b(2) = (  1.000000  1.000000  1.000000 )  
               b(3) = ( -1.000000  1.000000 -1.000000 )  


     PseudoPot. # 1 for Si read from file:
     /home/s1333534/quantum_espresso/qe-6.1/pseudo/si_pbe_v1.uspp.F.UPF.txt
     MD5 check sum: a056efeee980c13900f22a371efd63c1
     Pseudo is Ultrasoft + core correction, Zval =  4.0
     Generated by new atomic code, or converted to UPF format
     Using radial grid of  899 points,  6 beta functions with: 
                l(1) =   0
                l(2) =   0
                l(3) =   1
                l(4) =   1
                l(5) =   2
                l(6) =   2
     Q(r) pseudized with  8 coefficients,  rinner =    0.900   0.900   0.900
                                                       0.900   0.900

     atomic species   valence    mass     pseudopotential
        Si             4.00    28.08600     Si( 1.00)

     48 Sym. Ops., with inversion, found



   Cartesian axes

     site n.     atom                  positions (alat units)
         1           Si  tau(   1) = (   0.0000000   0.0000000   0.0000000  )
         2           Si  tau(   2) = (   0.2500000   0.2500000   0.2500000  )

     number of k points=   120

     Number of k-points >= 100: set verbosity='high' to print them.

     Dense  grid:    17153 G-vectors     FFT dimensions: (  36,  36,  36)

     Smooth grid:     6081 G-vectors     FFT dimensions: (  25,  25,  25)

     Estimated max dynamical RAM per process >       1.51MB

     Estimated total allocated dynamical RAM >       6.06MB

     The potential is recalculated from file :
     ./_ph0/silicon.10.320.save/charge-density.dat

     Starting wfc are    8 atomic wfcs

     Band Structure Calculation
     Davidson diagonalization with overlap

     ethr =  1.25E-10,  avg # of iterations = 12.2

     total cpu time spent up to now is        1.4 secs

     End of band structure calculation

     Number of k-points >= 100: set verbosity='high' to print the bands.

     highest occupied level (ev):     5.7355

     Writing output data file silicon.10.320.save

                                                                                

     bravais-lattice index     =            2
     lattice parameter (alat)  =      10.3200  a.u.
     unit-cell volume          =     274.7762 (a.u.)^3
     number of atoms/cell      =            2
     number of atomic types    =            1
     kinetic-energy cut-off    =      30.0000  Ry
     charge density cut-off    =     240.0000  Ry
     convergence threshold     =      1.0E-12
     beta                      =       0.7000
     number of iterations used =            4
     Exchange-correlation      = SLA  PW   PBE  PBE ( 1  4  3  4 0 0)


     celldm(1)=   10.32000  celldm(2)=    0.00000  celldm(3)=    0.00000
     celldm(4)=    0.00000  celldm(5)=    0.00000  celldm(6)=    0.00000

     crystal axes: (cart. coord. in units of alat)
               a(1) = ( -0.5000  0.0000  0.5000 )  
               a(2) = (  0.0000  0.5000  0.5000 )  
               a(3) = ( -0.5000  0.5000  0.0000 )  

     reciprocal axes: (cart. coord. in units 2 pi/alat)
               b(1) = ( -1.0000 -1.0000  1.0000 )  
               b(2) = (  1.0000  1.0000  1.0000 )  
               b(3) = ( -1.0000  1.0000 -1.0000 )  


     Atoms inside the unit cell: 

     Cartesian axes

     site n.  atom      mass           positions (alat units)
        1     Si  28.0860   tau(    1) = (    0.00000    0.00000    0.00000  )
        2     Si  28.0860   tau(    2) = (    0.25000    0.25000    0.25000  )

     Computing dynamical matrix for 
                    q = (  -0.2500000   0.2500000  -0.2500000 )

      6 Sym.Ops. (no q -> -q+G )


     G cutoff =  647.4570  (   4288 G-vectors)     FFT grid: ( 36, 36, 36)
     G cutoff =  323.7285  (   1520 G-vectors)  smooth grid: ( 25, 25, 25)
     number of k points=   120

     PseudoPot. # 1 for Si read from file:
     /home/s1333534/quantum_espresso/qe-6.1/pseudo/si_pbe_v1.uspp.F.UPF.txt
     MD5 check sum: a056efeee980c13900f22a371efd63c1
     Pseudo is Ultrasoft + core correction, Zval =  4.0
     Generated by new atomic code, or converted to UPF format
     Using radial grid of  899 points,  6 beta functions with: 
                l(1) =   0
                l(2) =   0
                l(3) =   1
                l(4) =   1
                l(5) =   2
                l(6) =   2
     Q(r) pseudized with  8 coefficients,  rinner =    0.900   0.900   0.900
                                                       0.900   0.900

     Mode symmetry, C_3v (3m)   point group:


     Atomic displacements:
     There are   4 irreducible representations

     Representation     1      1 modes -A_1  L_1  To be done

     Representation     2      1 modes -A_1  L_1  To be done

     Representation     3      2 modes -E    L_3  To be done

     Representation     4      2 modes -E    L_3  To be done



     Alpha used in Ewald sum =   2.5000
     PHONON       :    10.84s CPU        14.56s WALL



     Representation #  1 mode #   1

     Self-consistent Calculation

      iter #   1 total cpu time :    15.0 secs   av.it.:   5.9
      thresh= 1.000E-02 alpha_mix =  0.700 |ddv_scf|^2 =  4.279E-04

      iter #   2 total cpu time :    15.6 secs   av.it.:   9.0
      thresh= 2.069E-03 alpha_mix =  0.700 |ddv_scf|^2 =  6.511E-03

      iter #   3 total cpu time :    16.1 secs   av.it.:   7.0
      thresh= 8.069E-03 alpha_mix =  0.700 |ddv_scf|^2 =  2.719E-07

      iter #   4 total cpu time :    16.7 secs   av.it.:   9.6
      thresh= 5.214E-05 alpha_mix =  0.700 |ddv_scf|^2 =  1.800E-08

      iter #   5 total cpu time :    17.4 secs   av.it.:   9.6
      thresh= 1.342E-05 alpha_mix =  0.700 |ddv_scf|^2 =  3.380E-10

      iter #   6 total cpu time :    18.0 secs   av.it.:   9.7
      thresh= 1.838E-06 alpha_mix =  0.700 |ddv_scf|^2 =  1.195E-09

      iter #   7 total cpu time :    18.5 secs   av.it.:   7.6
      thresh= 3.457E-06 alpha_mix =  0.700 |ddv_scf|^2 =  3.786E-11

      iter #   8 total cpu time :    19.1 secs   av.it.:   9.3
      thresh= 6.153E-07 alpha_mix =  0.700 |ddv_scf|^2 =  4.646E-13

     End of self-consistent calculation

     Convergence has been achieved 


     Representation #  2 mode #   2

     Self-consistent Calculation

      iter #   1 total cpu time :    19.6 secs   av.it.:   5.9
      thresh= 1.000E-02 alpha_mix =  0.700 |ddv_scf|^2 =  4.279E-04

      iter #   2 total cpu time :    20.2 secs   av.it.:   9.0
      thresh= 2.069E-03 alpha_mix =  0.700 |ddv_scf|^2 =  6.511E-03

      iter #   3 total cpu time :    20.7 secs   av.it.:   7.0
      thresh= 8.069E-03 alpha_mix =  0.700 |ddv_scf|^2 =  2.719E-07

      iter #   4 total cpu time :    21.4 secs   av.it.:   9.6
      thresh= 5.214E-05 alpha_mix =  0.700 |ddv_scf|^2 =  1.800E-08

      iter #   5 total cpu time :    22.0 secs   av.it.:   9.6
      thresh= 1.342E-05 alpha_mix =  0.700 |ddv_scf|^2 =  3.380E-10

      iter #   6 total cpu time :    22.6 secs   av.it.:   9.7
      thresh= 1.838E-06 alpha_mix =  0.700 |ddv_scf|^2 =  1.195E-09

      iter #   7 total cpu time :    23.1 secs   av.it.:   7.6
      thresh= 3.457E-06 alpha_mix =  0.700 |ddv_scf|^2 =  3.786E-11

      iter #   8 total cpu time :    23.7 secs   av.it.:   9.3
      thresh= 6.153E-07 alpha_mix =  0.700 |ddv_scf|^2 =  4.646E-13

     End of self-consistent calculation

     Convergence has been achieved 


     Representation #  3 modes #   3  4

     Self-consistent Calculation

      iter #   1 total cpu time :    24.6 secs   av.it.:   5.2
      thresh= 1.000E-02 alpha_mix =  0.700 |ddv_scf|^2 =  6.623E-08

      iter #   2 total cpu time :    25.8 secs   av.it.:  11.4
      thresh= 2.573E-05 alpha_mix =  0.700 |ddv_scf|^2 =  4.257E-09

      iter #   3 total cpu time :    27.1 secs   av.it.:  11.1
      thresh= 6.525E-06 alpha_mix =  0.700 |ddv_scf|^2 =  2.253E-10

      iter #   4 total cpu time :    28.2 secs   av.it.:  11.0
      thresh= 1.501E-06 alpha_mix =  0.700 |ddv_scf|^2 =  8.583E-13

     End of self-consistent calculation

     Convergence has been achieved 


     Representation #  4 modes #   5  6

     Self-consistent Calculation

      iter #   1 total cpu time :    29.1 secs   av.it.:   5.2
      thresh= 1.000E-02 alpha_mix =  0.700 |ddv_scf|^2 =  6.624E-08

      iter #   2 total cpu time :    30.4 secs   av.it.:  11.4
      thresh= 2.574E-05 alpha_mix =  0.700 |ddv_scf|^2 =  4.256E-09

      iter #   3 total cpu time :    31.8 secs   av.it.:  11.2
      thresh= 6.524E-06 alpha_mix =  0.700 |ddv_scf|^2 =  2.252E-10

      iter #   4 total cpu time :    33.0 secs   av.it.:  11.0
      thresh= 1.501E-06 alpha_mix =  0.700 |ddv_scf|^2 =  8.630E-13

     End of self-consistent calculation

     Convergence has been achieved 

     Number of q in the star =    8
     List of q in the star:
          1  -0.250000000   0.250000000  -0.250000000
          2   0.250000000  -0.250000000  -0.250000000
          3   0.250000000  -0.250000000   0.250000000
          4   0.250000000   0.250000000   0.250000000
          5  -0.250000000  -0.250000000  -0.250000000
          6  -0.250000000  -0.250000000   0.250000000
          7  -0.250000000   0.250000000   0.250000000
          8   0.250000000   0.250000000  -0.250000000

     Diagonalizing the dynamical matrix

     q = (   -0.250000000   0.250000000  -0.250000000 ) 

 **************************************************************************
     freq (    1) =       2.778301 [THz] =      92.674152 [cm-1]
     freq (    2) =       2.778301 [THz] =      92.674152 [cm-1]
     freq (    3) =       6.759360 [THz] =     225.467986 [cm-1]
     freq (    4) =      14.276744 [THz] =     476.220904 [cm-1]
     freq (    5) =      14.556501 [THz] =     485.552614 [cm-1]
     freq (    6) =      14.556501 [THz] =     485.552614 [cm-1]
 **************************************************************************

     Mode symmetry, C_3v (3m)   point group:

     freq (  1 -  2) =         92.7  [cm-1]   --> E    L_3           
     freq (  3 -  3) =        225.5  [cm-1]   --> A_1  L_1           
     freq (  4 -  4) =        476.2  [cm-1]   --> A_1  L_1           
     freq (  5 -  6) =        485.6  [cm-1]   --> E    L_3           

     Calculation of q =    0.5000000  -0.5000000   0.5000000

   Info: using nr1, nr2, nr3 values from input

   Info: using nr1, nr2, nr3 values from input

     Parallelization info
     --------------------
     sticks:   dense  smooth     PW     G-vecs:    dense   smooth      PW
     Min         217     109     40                 4288     1520     351
     Max         219     111     41                 4289     1521     354
     Sum         871     439    163                17153     6081    1411



     bravais-lattice index     =            2
     lattice parameter (alat)  =      10.3200  a.u.
     unit-cell volume          =     274.7762 (a.u.)^3
     number of atoms/cell      =            2
     number of atomic types    =            1
     number of electrons       =         8.00
     number of Kohn-Sham states=            4
     kinetic-energy cutoff     =      30.0000  Ry
     charge density cutoff     =     240.0000  Ry
     Exchange-correlation      = SLA  PW   PBE  PBE ( 1  4  3  4 0 0)

     celldm(1)=  10.320000  celldm(2)=   0.000000  celldm(3)=   0.000000
     celldm(4)=   0.000000  celldm(5)=   0.000000  celldm(6)=   0.000000

     crystal axes: (cart. coord. in units of alat)
               a(1) = (  -0.500000   0.000000   0.500000 )  
               a(2) = (   0.000000   0.500000   0.500000 )  
               a(3) = (  -0.500000   0.500000   0.000000 )  

     reciprocal axes: (cart. coord. in units 2 pi/alat)
               b(1) = ( -1.000000 -1.000000  1.000000 )  
               b(2) = (  1.000000  1.000000  1.000000 )  
               b(3) = ( -1.000000  1.000000 -1.000000 )  


     PseudoPot. # 1 for Si read from file:
     /home/s1333534/quantum_espresso/qe-6.1/pseudo/si_pbe_v1.uspp.F.UPF.txt
     MD5 check sum: a056efeee980c13900f22a371efd63c1
     Pseudo is Ultrasoft + core correction, Zval =  4.0
     Generated by new atomic code, or converted to UPF format
     Using radial grid of  899 points,  6 beta functions with: 
                l(1) =   0
                l(2) =   0
                l(3) =   1
                l(4) =   1
                l(5) =   2
                l(6) =   2
     Q(r) pseudized with  8 coefficients,  rinner =    0.900   0.900   0.900
                                                       0.900   0.900

     atomic species   valence    mass     pseudopotential
        Si             4.00    28.08600     Si( 1.00)

     48 Sym. Ops., with inversion, found



   Cartesian axes

     site n.     atom                  positions (alat units)
         1           Si  tau(   1) = (   0.0000000   0.0000000   0.0000000  )
         2           Si  tau(   2) = (   0.2500000   0.2500000   0.2500000  )

     number of k points=    60
                       cart. coord. in units 2pi/alat
        k(    1) = (  -0.1250000   0.1250000   0.1250000), wk =   0.0468750
        k(    2) = (   0.3750000  -0.3750000   0.6250000), wk =   0.0000000
        k(    3) = (  -0.3750000   0.3750000  -0.1250000), wk =   0.0468750
        k(    4) = (   0.1250000  -0.1250000   0.3750000), wk =   0.0000000
        k(    5) = (   0.3750000  -0.3750000   0.6250000), wk =   0.0468750
        k(    6) = (   0.8750000  -0.8750000   1.1250000), wk =   0.0000000
        k(    7) = (   0.1250000  -0.1250000   0.3750000), wk =   0.0468750
        k(    8) = (   0.6250000  -0.6250000   0.8750000), wk =   0.0000000
        k(    9) = (  -0.1250000   0.6250000   0.1250000), wk =   0.0937500
        k(   10) = (   0.3750000   0.1250000   0.6250000), wk =   0.0000000
        k(   11) = (   0.6250000  -0.1250000   0.8750000), wk =   0.0937500
        k(   12) = (   1.1250000  -0.6250000   1.3750000), wk =   0.0000000
        k(   13) = (   0.3750000   0.1250000   0.6250000), wk =   0.0937500
        k(   14) = (   0.8750000  -0.3750000   1.1250000), wk =   0.0000000
        k(   15) = (  -0.1250000  -0.8750000   0.1250000), wk =   0.0937500
        k(   16) = (   0.3750000  -1.3750000   0.6250000), wk =   0.0000000
        k(   17) = (  -0.3750000   0.3750000   0.3750000), wk =   0.0468750
        k(   18) = (   0.1250000  -0.1250000   0.8750000), wk =   0.0000000
        k(   19) = (   0.3750000  -0.3750000   1.1250000), wk =   0.0468750
        k(   20) = (   0.8750000  -0.8750000   1.6250000), wk =   0.0000000
        k(   21) = (   0.1250000  -0.1250000   0.1250000), wk =   0.0156250
        k(   22) = (   0.6250000  -0.6250000   0.6250000), wk =   0.0000000
        k(   23) = (  -0.3750000  -0.3750000  -0.1250000), wk =   0.0937500
        k(   24) = (   0.1250000  -0.8750000   0.3750000), wk =   0.0000000
        k(   25) = (  -0.1250000  -0.3750000   0.3750000), wk =   0.0468750
        k(   26) = (   0.3750000  -0.8750000   0.8750000), wk =   0.0000000
        k(   27) = (   0.3750000   0.3750000   0.6250000), wk =   0.0937500
        k(   28) = (   0.8750000  -0.1250000   1.1250000), wk =   0.0000000
        k(   29) = (   0.6250000   0.3750000  -0.3750000), wk =   0.0468750
        k(   30) = (   1.1250000  -0.1250000   0.1250000), wk =   0.0000000
        k(   31) = (   0.1250000   0.1250000   0.3750000), wk =   0.0937500
        k(   32) = (   0.6250000  -0.3750000   0.8750000), wk =   0.0000000
        k(   33) = (   0.3750000   0.1250000  -0.1250000), wk =   0.0468750
        k(   34) = (   0.8750000  -0.3750000   0.3750000), wk =   0.0000000
        k(   35) = (  -0.1250000  -0.6250000  -0.1250000), wk =   0.0468750
        k(   36) = (   0.3750000  -1.1250000   0.3750000), wk =   0.0000000
        k(   37) = (   0.1250000  -0.6250000   0.1250000), wk =   0.0468750
        k(   38) = (   0.6250000  -1.1250000   0.6250000), wk =   0.0000000
        k(   39) = (   0.6250000   0.1250000   0.8750000), wk =   0.0937500
        k(   40) = (   1.1250000  -0.3750000   1.3750000), wk =   0.0000000
        k(   41) = (  -0.8750000   0.1250000   0.6250000), wk =   0.0937500
        k(   42) = (  -0.3750000  -0.3750000   1.1250000), wk =   0.0000000
        k(   43) = (   0.8750000   0.1250000  -0.6250000), wk =   0.0937500
        k(   44) = (   1.3750000  -0.3750000  -0.1250000), wk =   0.0000000
        k(   45) = (   0.3750000  -0.1250000   0.6250000), wk =   0.0937500
        k(   46) = (   0.8750000  -0.6250000   1.1250000), wk =   0.0000000
        k(   47) = (  -0.6250000  -0.1250000   0.3750000), wk =   0.0937500
        k(   48) = (  -0.1250000  -0.6250000   0.8750000), wk =   0.0000000
        k(   49) = (   0.6250000  -0.1250000  -0.3750000), wk =   0.0937500
        k(   50) = (   1.1250000  -0.6250000   0.1250000), wk =   0.0000000
        k(   51) = (  -0.1250000   0.8750000  -0.1250000), wk =   0.0468750
        k(   52) = (   0.3750000   0.3750000   0.3750000), wk =   0.0000000
        k(   53) = (   0.1250000   0.8750000   0.1250000), wk =   0.0468750
        k(   54) = (   0.6250000   0.3750000   0.6250000), wk =   0.0000000
        k(   55) = (   0.3750000  -0.3750000   0.3750000), wk =   0.0156250
        k(   56) = (   0.8750000  -0.8750000   0.8750000), wk =   0.0000000
        k(   57) = (   0.3750000   0.3750000   1.1250000), wk =   0.0937500
        k(   58) = (   0.8750000  -0.1250000   1.6250000), wk =   0.0000000
        k(   59) = (   1.1250000   0.3750000  -0.3750000), wk =   0.0468750
        k(   60) = (   1.6250000  -0.1250000   0.1250000), wk =   0.0000000

     Dense  grid:    17153 G-vectors     FFT dimensions: (  36,  36,  36)

     Smooth grid:     6081 G-vectors     FFT dimensions: (  25,  25,  25)

     Estimated max dynamical RAM per process >       1.51MB

     Estimated total allocated dynamical RAM >       6.06MB

     The potential is recalculated from file :
     ./_ph0/silicon.10.320.save/charge-density.dat

     Starting wfc are    8 atomic wfcs

     Band Structure Calculation
     Davidson diagonalization with overlap

     ethr =  1.25E-10,  avg # of iterations = 12.2

     total cpu time spent up to now is        2.4 secs

     End of band structure calculation

          k =-0.1250 0.1250 0.1250 (   764 PWs)   bands (ev):

    -5.6235   4.4264   5.7355   5.7355

          k = 0.3750-0.3750 0.6250 (   763 PWs)   bands (ev):

    -3.4495  -0.6571   3.7663   4.4804

          k =-0.3750 0.3750-0.1250 (   767 PWs)   bands (ev):

    -4.5937   1.4282   3.7438   5.2546

          k = 0.1250-0.1250 0.3750 (   768 PWs)   bands (ev):

    -5.0941   2.8089   4.7241   4.7902

          k = 0.3750-0.3750 0.6250 (   763 PWs)   bands (ev):

    -3.4495  -0.6571   3.7663   4.4804

          k = 0.8750-0.8750 1.1250 (   764 PWs)   bands (ev):

    -5.6235   4.4264   5.7355   5.7355

          k = 0.1250-0.1250 0.3750 (   768 PWs)   bands (ev):

    -5.0941   2.8089   4.7241   4.7902

          k = 0.6250-0.6250 0.8750 (   767 PWs)   bands (ev):

    -4.5937   1.4282   3.7438   5.2546

          k =-0.1250 0.6250 0.1250 (   766 PWs)   bands (ev):

    -4.0596   1.0974   3.3934   3.8476

          k = 0.3750 0.1250 0.6250 (   766 PWs)   bands (ev):

    -3.6424   0.2197   2.7502   4.1230

          k = 0.6250-0.1250 0.8750 (   755 PWs)   bands (ev):

    -2.4140  -0.8692   2.0333   3.1138

          k = 1.1250-0.6250 1.3750 (   767 PWs)   bands (ev):

    -4.5937   1.4282   3.7438   5.2546

          k = 0.3750 0.1250 0.6250 (   766 PWs)   bands (ev):

    -3.6424   0.2197   2.7502   4.1230

          k = 0.8750-0.3750 1.1250 (   766 PWs)   bands (ev):

    -4.0596   1.0974   3.3934   3.8476

          k =-0.1250-0.8750 0.1250 (   762 PWs)   bands (ev):

    -2.5831  -0.7712   2.6456   3.3795

          k = 0.3750-1.3750 0.6250 (   763 PWs)   bands (ev):

    -3.4495  -0.6571   3.7663   4.4804

          k =-0.3750 0.3750 0.3750 (   763 PWs)   bands (ev):

    -4.1591   0.1329   4.9467   4.9467

          k = 0.1250-0.1250 0.8750 (   762 PWs)   bands (ev):

    -2.5831  -0.7712   2.6456   3.3795

          k = 0.3750-0.3750 1.1250 (   763 PWs)   bands (ev):

    -2.9524  -0.5686   2.0932   4.1623

          k = 0.8750-0.8750 1.6250 (   766 PWs)   bands (ev):

    -4.0596   1.0974   3.3934   3.8476

          k = 0.1250-0.1250 0.1250 (   764 PWs)   bands (ev):

    -5.6235   4.4264   5.7355   5.7355

          k = 0.6250-0.6250 0.6250 (   763 PWs)   bands (ev):

    -4.1591   0.1329   4.9467   4.9467

          k =-0.3750-0.3750-0.1250 (   767 PWs)   bands (ev):

    -4.5937   1.4282   3.7438   5.2546

          k = 0.1250-0.8750 0.3750 (   755 PWs)   bands (ev):

    -2.4140  -0.8692   2.0333   3.1138

          k =-0.1250-0.3750 0.3750 (   767 PWs)   bands (ev):

    -4.5937   1.4282   3.7438   5.2546

          k = 0.3750-0.8750 0.8750 (   766 PWs)   bands (ev):

    -4.0596   1.0974   3.3934   3.8476

          k = 0.3750 0.3750 0.6250 (   763 PWs)   bands (ev):

    -3.4495  -0.6571   3.7663   4.4804

          k = 0.8750-0.1250 1.1250 (   762 PWs)   bands (ev):

    -2.5831  -0.7712   2.6456   3.3795

          k = 0.6250 0.3750-0.3750 (   763 PWs)   bands (ev):

    -3.4495  -0.6571   3.7663   4.4804

          k = 1.1250-0.1250 0.1250 (   762 PWs)   bands (ev):

    -2.5831  -0.7712   2.6456   3.3795

          k = 0.1250 0.1250 0.3750 (   768 PWs)   bands (ev):

    -5.0941   2.8089   4.7241   4.7902

          k = 0.6250-0.3750 0.8750 (   766 PWs)   bands (ev):

    -3.6424   0.2197   2.7502   4.1230

          k = 0.3750 0.1250-0.1250 (   768 PWs)   bands (ev):

    -5.0941   2.8089   4.7241   4.7902

          k = 0.8750-0.3750 0.3750 (   763 PWs)   bands (ev):

    -2.9524  -0.5686   2.0932   4.1623

          k =-0.1250-0.6250-0.1250 (   766 PWs)   bands (ev):

    -4.0596   1.0974   3.3934   3.8476

          k = 0.3750-1.1250 0.3750 (   763 PWs)   bands (ev):

    -2.9524  -0.5686   2.0932   4.1623

          k = 0.1250-0.6250 0.1250 (   766 PWs)   bands (ev):

    -4.0596   1.0974   3.3934   3.8476

          k = 0.6250-1.1250 0.6250 (   767 PWs)   bands (ev):

    -4.5937   1.4282   3.7438   5.2546

          k = 0.6250 0.1250 0.8750 (   755 PWs)   bands (ev):

    -2.4140  -0.8692   2.0333   3.1138

          k = 1.1250-0.3750 1.3750 (   766 PWs)   bands (ev):

    -3.6424   0.2197   2.7502   4.1230

          k =-0.8750 0.1250 0.6250 (   755 PWs)   bands (ev):

    -2.4140  -0.8692   2.0333   3.1138

          k =-0.3750-0.3750 1.1250 (   763 PWs)   bands (ev):

    -2.9524  -0.5686   2.0932   4.1623

          k = 0.8750 0.1250-0.6250 (   755 PWs)   bands (ev):

    -2.4140  -0.8692   2.0333   3.1138

          k = 1.3750-0.3750-0.1250 (   766 PWs)   bands (ev):

    -3.6424   0.2197   2.7502   4.1230

          k = 0.3750-0.1250 0.6250 (   766 PWs)   bands (ev):

    -3.6424   0.2197   2.7502   4.1230

          k = 0.8750-0.6250 1.1250 (   768 PWs)   bands (ev):

    -5.0941   2.8089   4.7241   4.7902

          k =-0.6250-0.1250 0.3750 (   766 PWs)   bands (ev):

    -3.6424   0.2197   2.7502   4.1230

          k =-0.1250-0.6250 0.8750 (   755 PWs)   bands (ev):

    -2.4140  -0.8692   2.0333   3.1138

          k = 0.6250-0.1250-0.3750 (   766 PWs)   bands (ev):

    -3.6424   0.2197   2.7502   4.1230

          k = 1.1250-0.6250 0.1250 (   755 PWs)   bands (ev):

    -2.4140  -0.8692   2.0333   3.1138

          k =-0.1250 0.8750-0.1250 (   762 PWs)   bands (ev):

    -2.5831  -0.7712   2.6456   3.3795

          k = 0.3750 0.3750 0.3750 (   763 PWs)   bands (ev):

    -4.1591   0.1329   4.9467   4.9467

          k = 0.1250 0.8750 0.1250 (   762 PWs)   bands (ev):

    -2.5831  -0.7712   2.6456   3.3795

          k = 0.6250 0.3750 0.6250 (   763 PWs)   bands (ev):

    -3.4495  -0.6571   3.7663   4.4804

          k = 0.3750-0.3750 0.3750 (   763 PWs)   bands (ev):

    -4.1591   0.1329   4.9467   4.9467

          k = 0.8750-0.8750 0.8750 (   764 PWs)   bands (ev):

    -5.6235   4.4264   5.7355   5.7355

          k = 0.3750 0.3750 1.1250 (   763 PWs)   bands (ev):

    -2.9524  -0.5686   2.0932   4.1623

          k = 0.8750-0.1250 1.6250 (   755 PWs)   bands (ev):

    -2.4140  -0.8692   2.0333   3.1138

          k = 1.1250 0.3750-0.3750 (   763 PWs)   bands (ev):

    -2.9524  -0.5686   2.0932   4.1623

          k = 1.6250-0.1250 0.1250 (   768 PWs)   bands (ev):

    -5.0941   2.8089   4.7241   4.7902

     highest occupied level (ev):     5.7355

     Writing output data file silicon.10.320.save

                                                                                

     bravais-lattice index     =            2
     lattice parameter (alat)  =      10.3200  a.u.
     unit-cell volume          =     274.7762 (a.u.)^3
     number of atoms/cell      =            2
     number of atomic types    =            1
     kinetic-energy cut-off    =      30.0000  Ry
     charge density cut-off    =     240.0000  Ry
     convergence threshold     =      1.0E-12
     beta                      =       0.7000
     number of iterations used =            4
     Exchange-correlation      = SLA  PW   PBE  PBE ( 1  4  3  4 0 0)


     celldm(1)=   10.32000  celldm(2)=    0.00000  celldm(3)=    0.00000
     celldm(4)=    0.00000  celldm(5)=    0.00000  celldm(6)=    0.00000

     crystal axes: (cart. coord. in units of alat)
               a(1) = ( -0.5000  0.0000  0.5000 )  
               a(2) = (  0.0000  0.5000  0.5000 )  
               a(3) = ( -0.5000  0.5000  0.0000 )  

     reciprocal axes: (cart. coord. in units 2 pi/alat)
               b(1) = ( -1.0000 -1.0000  1.0000 )  
               b(2) = (  1.0000  1.0000  1.0000 )  
               b(3) = ( -1.0000  1.0000 -1.0000 )  


     Atoms inside the unit cell: 

     Cartesian axes

     site n.  atom      mass           positions (alat units)
        1     Si  28.0860   tau(    1) = (    0.00000    0.00000    0.00000  )
        2     Si  28.0860   tau(    2) = (    0.25000    0.25000    0.25000  )

     Computing dynamical matrix for 
                    q = (   0.5000000  -0.5000000   0.5000000 )

     13 Sym.Ops. (with q -> -q+G )


     G cutoff =  647.4570  (   4288 G-vectors)     FFT grid: ( 36, 36, 36)
     G cutoff =  323.7285  (   1520 G-vectors)  smooth grid: ( 25, 25, 25)
     number of k points=    60

     PseudoPot. # 1 for Si read from file:
     /home/s1333534/quantum_espresso/qe-6.1/pseudo/si_pbe_v1.uspp.F.UPF.txt
     MD5 check sum: a056efeee980c13900f22a371efd63c1
     Pseudo is Ultrasoft + core correction, Zval =  4.0
     Generated by new atomic code, or converted to UPF format
     Using radial grid of  899 points,  6 beta functions with: 
                l(1) =   0
                l(2) =   0
                l(3) =   1
                l(4) =   1
                l(5) =   2
                l(6) =   2
     Q(r) pseudized with  8 coefficients,  rinner =    0.900   0.900   0.900
                                                       0.900   0.900


     Atomic displacements:
     There are   4 irreducible representations

     Representation     1      1 modes -  To be done

     Representation     2      1 modes -  To be done

     Representation     3      2 modes -  To be done

     Representation     4      2 modes -  To be done



     Alpha used in Ewald sum =   2.5000
     PHONON       :    27.77s CPU        35.30s WALL



     Representation #  1 mode #   1

     Self-consistent Calculation

      iter #   1 total cpu time :    35.6 secs   av.it.:   5.1
      thresh= 1.000E-02 alpha_mix =  0.700 |ddv_scf|^2 =  4.198E-06

      iter #   2 total cpu time :    36.0 secs   av.it.:   9.9
      thresh= 2.049E-04 alpha_mix =  0.700 |ddv_scf|^2 =  3.842E-06

      iter #   3 total cpu time :    36.5 secs   av.it.:   9.2
      thresh= 1.960E-04 alpha_mix =  0.700 |ddv_scf|^2 =  2.315E-09

      iter #   4 total cpu time :    36.9 secs   av.it.:   9.4
      thresh= 4.811E-06 alpha_mix =  0.700 |ddv_scf|^2 =  2.264E-11

      iter #   5 total cpu time :    37.3 secs   av.it.:   9.3
      thresh= 4.758E-07 alpha_mix =  0.700 |ddv_scf|^2 =  3.054E-13

     End of self-consistent calculation

     Convergence has been achieved 


     Representation #  2 mode #   2

     Self-consistent Calculation

      iter #   1 total cpu time :    37.7 secs   av.it.:   6.0
      thresh= 1.000E-02 alpha_mix =  0.700 |ddv_scf|^2 =  5.969E-05

      iter #   2 total cpu time :    38.1 secs   av.it.:   9.8
      thresh= 7.726E-04 alpha_mix =  0.700 |ddv_scf|^2 =  1.856E-04

      iter #   3 total cpu time :    38.4 secs   av.it.:   8.6
      thresh= 1.362E-03 alpha_mix =  0.700 |ddv_scf|^2 =  1.320E-08

      iter #   4 total cpu time :    38.8 secs   av.it.:   9.8
      thresh= 1.149E-05 alpha_mix =  0.700 |ddv_scf|^2 =  6.716E-10

      iter #   5 total cpu time :    39.2 secs   av.it.:  10.2
      thresh= 2.592E-06 alpha_mix =  0.700 |ddv_scf|^2 =  2.043E-11

      iter #   6 total cpu time :    39.6 secs   av.it.:   9.7
      thresh= 4.520E-07 alpha_mix =  0.700 |ddv_scf|^2 =  1.534E-13

     End of self-consistent calculation

     Convergence has been achieved 


     Representation #  3 modes #   3  4

     Self-consistent Calculation

      iter #   1 total cpu time :    40.2 secs   av.it.:   5.1
      thresh= 1.000E-02 alpha_mix =  0.700 |ddv_scf|^2 =  2.696E-08

      iter #   2 total cpu time :    41.0 secs   av.it.:  10.9
      thresh= 1.642E-05 alpha_mix =  0.700 |ddv_scf|^2 =  1.590E-09

      iter #   3 total cpu time :    41.8 secs   av.it.:  10.7
      thresh= 3.988E-06 alpha_mix =  0.700 |ddv_scf|^2 =  5.306E-11

      iter #   4 total cpu time :    42.5 secs   av.it.:  10.7
      thresh= 7.284E-07 alpha_mix =  0.700 |ddv_scf|^2 =  4.343E-13

     End of self-consistent calculation

     Convergence has been achieved 


     Representation #  4 modes #   5  6

     Self-consistent Calculation

      iter #   1 total cpu time :    43.2 secs   av.it.:   5.1
      thresh= 1.000E-02 alpha_mix =  0.700 |ddv_scf|^2 =  1.379E-07

      iter #   2 total cpu time :    43.9 secs   av.it.:  11.1
      thresh= 3.714E-05 alpha_mix =  0.700 |ddv_scf|^2 =  1.106E-08

      iter #   3 total cpu time :    44.7 secs   av.it.:  10.9
      thresh= 1.052E-05 alpha_mix =  0.700 |ddv_scf|^2 =  2.911E-10

      iter #   4 total cpu time :    45.3 secs   av.it.:   9.8
      thresh= 1.706E-06 alpha_mix =  0.700 |ddv_scf|^2 =  5.255E-13

     End of self-consistent calculation

     Convergence has been achieved 

     Number of q in the star =    4
     List of q in the star:
          1   0.500000000  -0.500000000   0.500000000
          2   0.500000000   0.500000000   0.500000000
          3  -0.500000000   0.500000000   0.500000000
          4   0.500000000   0.500000000  -0.500000000

     Diagonalizing the dynamical matrix

     q = (    0.500000000  -0.500000000   0.500000000 ) 

 **************************************************************************
     freq (    1) =       3.282218 [THz] =     109.483008 [cm-1]
     freq (    2) =       3.282218 [THz] =     109.483008 [cm-1]
     freq (    3) =      11.113132 [THz] =     370.694195 [cm-1]
     freq (    4) =      12.042770 [THz] =     401.703570 [cm-1]
     freq (    5) =      14.350691 [THz] =     478.687533 [cm-1]
     freq (    6) =      14.350691 [THz] =     478.687533 [cm-1]
 **************************************************************************

     Calculation of q =    0.0000000   0.5000000   0.0000000

   Info: using nr1, nr2, nr3 values from input

   Info: using nr1, nr2, nr3 values from input

     Parallelization info
     --------------------
     sticks:   dense  smooth     PW     G-vecs:    dense   smooth      PW
     Min         217     109     37                 4288     1520     309
     Max         218     111     38                 4289     1521     312
     Sum         871     439    151                17153     6081    1243



     bravais-lattice index     =            2
     lattice parameter (alat)  =      10.3200  a.u.
     unit-cell volume          =     274.7762 (a.u.)^3
     number of atoms/cell      =            2
     number of atomic types    =            1
     number of electrons       =         8.00
     number of Kohn-Sham states=            4
     kinetic-energy cutoff     =      30.0000  Ry
     charge density cutoff     =     240.0000  Ry
     Exchange-correlation      = SLA  PW   PBE  PBE ( 1  4  3  4 0 0)

     celldm(1)=  10.320000  celldm(2)=   0.000000  celldm(3)=   0.000000
     celldm(4)=   0.000000  celldm(5)=   0.000000  celldm(6)=   0.000000

     crystal axes: (cart. coord. in units of alat)
               a(1) = (  -0.500000   0.000000   0.500000 )  
               a(2) = (   0.000000   0.500000   0.500000 )  
               a(3) = (  -0.500000   0.500000   0.000000 )  

     reciprocal axes: (cart. coord. in units 2 pi/alat)
               b(1) = ( -1.000000 -1.000000  1.000000 )  
               b(2) = (  1.000000  1.000000  1.000000 )  
               b(3) = ( -1.000000  1.000000 -1.000000 )  


     PseudoPot. # 1 for Si read from file:
     /home/s1333534/quantum_espresso/qe-6.1/pseudo/si_pbe_v1.uspp.F.UPF.txt
     MD5 check sum: a056efeee980c13900f22a371efd63c1
     Pseudo is Ultrasoft + core correction, Zval =  4.0
     Generated by new atomic code, or converted to UPF format
     Using radial grid of  899 points,  6 beta functions with: 
                l(1) =   0
                l(2) =   0
                l(3) =   1
                l(4) =   1
                l(5) =   2
                l(6) =   2
     Q(r) pseudized with  8 coefficients,  rinner =    0.900   0.900   0.900
                                                       0.900   0.900

     atomic species   valence    mass     pseudopotential
        Si             4.00    28.08600     Si( 1.00)

     48 Sym. Ops., with inversion, found



   Cartesian axes

     site n.     atom                  positions (alat units)
         1           Si  tau(   1) = (   0.0000000   0.0000000   0.0000000  )
         2           Si  tau(   2) = (   0.2500000   0.2500000   0.2500000  )

     number of k points=    80
                       cart. coord. in units 2pi/alat
        k(    1) = (  -0.1250000   0.1250000   0.1250000), wk =   0.0312500
        k(    2) = (  -0.1250000   0.6250000   0.1250000), wk =   0.0000000
        k(    3) = (  -0.3750000   0.3750000  -0.1250000), wk =   0.0625000
        k(    4) = (  -0.3750000   0.8750000  -0.1250000), wk =   0.0000000
        k(    5) = (   0.3750000  -0.3750000   0.6250000), wk =   0.0625000
        k(    6) = (   0.3750000   0.1250000   0.6250000), wk =   0.0000000
        k(    7) = (   0.1250000  -0.1250000   0.3750000), wk =   0.0625000
        k(    8) = (   0.1250000   0.3750000   0.3750000), wk =   0.0000000
        k(    9) = (  -0.1250000   0.6250000   0.1250000), wk =   0.0312500
        k(   10) = (  -0.1250000   1.1250000   0.1250000), wk =   0.0000000
        k(   11) = (   0.6250000  -0.1250000   0.8750000), wk =   0.0625000
        k(   12) = (   0.6250000   0.3750000   0.8750000), wk =   0.0000000
        k(   13) = (   0.3750000   0.1250000   0.6250000), wk =   0.0625000
        k(   14) = (   0.3750000   0.6250000   0.6250000), wk =   0.0000000
        k(   15) = (  -0.1250000  -0.8750000   0.1250000), wk =   0.0312500
        k(   16) = (  -0.1250000  -0.3750000   0.1250000), wk =   0.0000000
        k(   17) = (  -0.3750000   0.3750000   0.3750000), wk =   0.0312500
        k(   18) = (  -0.3750000   0.8750000   0.3750000), wk =   0.0000000
        k(   19) = (   0.3750000  -0.3750000   1.1250000), wk =   0.0625000
        k(   20) = (   0.3750000   0.1250000   1.1250000), wk =   0.0000000
        k(   21) = (  -0.1250000  -0.1250000   0.1250000), wk =   0.0312500
        k(   22) = (  -0.1250000   0.3750000   0.1250000), wk =   0.0000000
        k(   23) = (   0.1250000  -0.3750000   0.3750000), wk =   0.0625000
        k(   24) = (   0.1250000   0.1250000   0.3750000), wk =   0.0000000
        k(   25) = (   0.3750000  -0.1250000   0.3750000), wk =   0.0312500
        k(   26) = (   0.3750000   0.3750000   0.3750000), wk =   0.0000000
        k(   27) = (   0.3750000   0.1250000   0.3750000), wk =   0.0312500
        k(   28) = (   0.3750000   0.6250000   0.3750000), wk =   0.0000000
        k(   29) = (  -0.6250000   0.3750000  -0.3750000), wk =   0.0625000
        k(   30) = (  -0.6250000   0.8750000  -0.3750000), wk =   0.0000000
        k(   31) = (  -0.3750000   0.6250000  -0.3750000), wk =   0.0312500
        k(   32) = (  -0.3750000   1.1250000  -0.3750000), wk =   0.0000000
        k(   33) = (  -0.3750000  -0.6250000  -0.3750000), wk =   0.0312500
        k(   34) = (  -0.3750000  -0.1250000  -0.3750000), wk =   0.0000000
        k(   35) = (  -0.3750000   0.1250000  -0.1250000), wk =   0.0625000
        k(   36) = (  -0.3750000   0.6250000  -0.1250000), wk =   0.0000000
        k(   37) = (  -0.1250000   0.3750000  -0.1250000), wk =   0.0312500
        k(   38) = (  -0.1250000   0.8750000  -0.1250000), wk =   0.0000000
        k(   39) = (  -0.1250000  -0.3750000  -0.1250000), wk =   0.0312500
        k(   40) = (  -0.1250000   0.1250000  -0.1250000), wk =   0.0000000
        k(   41) = (  -0.1250000  -0.6250000   0.1250000), wk =   0.0312500
        k(   42) = (  -0.1250000  -0.1250000   0.1250000), wk =   0.0000000
        k(   43) = (   0.6250000  -0.1250000  -0.1250000), wk =   0.0625000
        k(   44) = (   0.6250000   0.3750000  -0.1250000), wk =   0.0000000
        k(   45) = (   0.6250000   0.1250000   0.1250000), wk =   0.0625000
        k(   46) = (   0.6250000   0.6250000   0.1250000), wk =   0.0000000
        k(   47) = (  -0.8750000   0.1250000  -0.6250000), wk =   0.0625000
        k(   48) = (  -0.8750000   0.6250000  -0.6250000), wk =   0.0000000
        k(   49) = (  -0.1250000   0.6250000  -0.8750000), wk =   0.0625000
        k(   50) = (  -0.1250000   1.1250000  -0.8750000), wk =   0.0000000
        k(   51) = (  -0.1250000   0.8750000  -0.6250000), wk =   0.0625000
        k(   52) = (  -0.1250000   1.3750000  -0.6250000), wk =   0.0000000
        k(   53) = (  -0.1250000  -0.8750000  -0.6250000), wk =   0.0625000
        k(   54) = (  -0.1250000  -0.3750000  -0.6250000), wk =   0.0000000
        k(   55) = (   0.8750000  -0.6250000   0.1250000), wk =   0.0625000
        k(   56) = (   0.8750000  -0.1250000   0.1250000), wk =   0.0000000
        k(   57) = (  -0.6250000  -0.1250000  -0.3750000), wk =   0.0625000
        k(   58) = (  -0.6250000   0.3750000  -0.3750000), wk =   0.0000000
        k(   59) = (   0.1250000   0.3750000  -0.6250000), wk =   0.0625000
        k(   60) = (   0.1250000   0.8750000  -0.6250000), wk =   0.0000000
        k(   61) = (   0.1250000   0.6250000  -0.3750000), wk =   0.0625000
        k(   62) = (   0.1250000   1.1250000  -0.3750000), wk =   0.0000000
        k(   63) = (   0.1250000  -0.6250000  -0.3750000), wk =   0.0625000
        k(   64) = (   0.1250000  -0.1250000  -0.3750000), wk =   0.0000000
        k(   65) = (   0.6250000  -0.3750000  -0.1250000), wk =   0.0625000
        k(   66) = (   0.6250000   0.1250000  -0.1250000), wk =   0.0000000
        k(   67) = (  -0.1250000   0.8750000   0.1250000), wk =   0.0312500
        k(   68) = (  -0.1250000   1.3750000   0.1250000), wk =   0.0000000
        k(   69) = (  -0.8750000  -0.1250000  -0.1250000), wk =   0.0625000
        k(   70) = (  -0.8750000   0.3750000  -0.1250000), wk =   0.0000000
        k(   71) = (  -0.8750000   0.1250000   0.1250000), wk =   0.0625000
        k(   72) = (  -0.8750000   0.6250000   0.1250000), wk =   0.0000000
        k(   73) = (  -0.3750000  -0.3750000   0.3750000), wk =   0.0312500
        k(   74) = (  -0.3750000   0.1250000   0.3750000), wk =   0.0000000
        k(   75) = (  -1.1250000   0.3750000  -0.3750000), wk =   0.0625000
        k(   76) = (  -1.1250000   0.8750000  -0.3750000), wk =   0.0000000
        k(   77) = (  -0.3750000   1.1250000  -0.3750000), wk =   0.0312500
        k(   78) = (  -0.3750000   1.6250000  -0.3750000), wk =   0.0000000
        k(   79) = (  -0.3750000  -1.1250000  -0.3750000), wk =   0.0312500
        k(   80) = (  -0.3750000  -0.6250000  -0.3750000), wk =   0.0000000

     Dense  grid:    17153 G-vectors     FFT dimensions: (  36,  36,  36)

     Smooth grid:     6081 G-vectors     FFT dimensions: (  25,  25,  25)

     Estimated max dynamical RAM per process >       1.51MB

     Estimated total allocated dynamical RAM >       6.06MB

     The potential is recalculated from file :
     ./_ph0/silicon.10.320.save/charge-density.dat

     Starting wfc are    8 atomic wfcs

     Band Structure Calculation
     Davidson diagonalization with overlap

     ethr =  1.25E-10,  avg # of iterations = 12.2

     total cpu time spent up to now is        3.5 secs

     End of band structure calculation

          k =-0.1250 0.1250 0.1250 (   764 PWs)   bands (ev):

    -5.6235   4.4264   5.7355   5.7355

          k =-0.1250 0.6250 0.1250 (   766 PWs)   bands (ev):

    -4.0596   1.0974   3.3934   3.8476

          k =-0.3750 0.3750-0.1250 (   767 PWs)   bands (ev):

    -4.5937   1.4282   3.7438   5.2546

          k =-0.3750 0.8750-0.1250 (   755 PWs)   bands (ev):

    -2.4140  -0.8692   2.0333   3.1138

          k = 0.3750-0.3750 0.6250 (   763 PWs)   bands (ev):

    -3.4495  -0.6571   3.7663   4.4804

          k = 0.3750 0.1250 0.6250 (   766 PWs)   bands (ev):

    -3.6424   0.2197   2.7502   4.1230

          k = 0.1250-0.1250 0.3750 (   768 PWs)   bands (ev):

    -5.0941   2.8089   4.7241   4.7902

          k = 0.1250 0.3750 0.3750 (   767 PWs)   bands (ev):

    -4.5937   1.4282   3.7438   5.2546

          k =-0.1250 0.6250 0.1250 (   766 PWs)   bands (ev):

    -4.0596   1.0974   3.3934   3.8476

          k =-0.1250 1.1250 0.1250 (   762 PWs)   bands (ev):

    -2.5831  -0.7712   2.6456   3.3795

          k = 0.6250-0.1250 0.8750 (   755 PWs)   bands (ev):

    -2.4140  -0.8692   2.0333   3.1138

          k = 0.6250 0.3750 0.8750 (   766 PWs)   bands (ev):

    -3.6424   0.2197   2.7502   4.1230

          k = 0.3750 0.1250 0.6250 (   766 PWs)   bands (ev):

    -3.6424   0.2197   2.7502   4.1230

          k = 0.3750 0.6250 0.6250 (   763 PWs)   bands (ev):

    -3.4495  -0.6571   3.7663   4.4804

          k =-0.1250-0.8750 0.1250 (   762 PWs)   bands (ev):

    -2.5831  -0.7712   2.6456   3.3795

          k =-0.1250-0.3750 0.1250 (   768 PWs)   bands (ev):

    -5.0941   2.8089   4.7241   4.7902

          k =-0.3750 0.3750 0.3750 (   763 PWs)   bands (ev):

    -4.1591   0.1329   4.9467   4.9467

          k =-0.3750 0.8750 0.3750 (   763 PWs)   bands (ev):

    -2.9524  -0.5686   2.0932   4.1623

          k = 0.3750-0.3750 1.1250 (   763 PWs)   bands (ev):

    -2.9524  -0.5686   2.0932   4.1623

          k = 0.3750 0.1250 1.1250 (   755 PWs)   bands (ev):

    -2.4140  -0.8692   2.0333   3.1138

          k =-0.1250-0.1250 0.1250 (   764 PWs)   bands (ev):

    -5.6235   4.4264   5.7355   5.7355

          k =-0.1250 0.3750 0.1250 (   768 PWs)   bands (ev):

    -5.0941   2.8089   4.7241   4.7902

          k = 0.1250-0.3750 0.3750 (   767 PWs)   bands (ev):

    -4.5937   1.4282   3.7438   5.2546

          k = 0.1250 0.1250 0.3750 (   768 PWs)   bands (ev):

    -5.0941   2.8089   4.7241   4.7902

          k = 0.3750-0.1250 0.3750 (   767 PWs)   bands (ev):

    -4.5937   1.4282   3.7438   5.2546

          k = 0.3750 0.3750 0.3750 (   763 PWs)   bands (ev):

    -4.1591   0.1329   4.9467   4.9467

          k = 0.3750 0.1250 0.3750 (   767 PWs)   bands (ev):

    -4.5937   1.4282   3.7438   5.2546

          k = 0.3750 0.6250 0.3750 (   763 PWs)   bands (ev):

    -3.4495  -0.6571   3.7663   4.4804

          k =-0.6250 0.3750-0.3750 (   763 PWs)   bands (ev):

    -3.4495  -0.6571   3.7663   4.4804

          k =-0.6250 0.8750-0.3750 (   766 PWs)   bands (ev):

    -3.6424   0.2197   2.7502   4.1230

          k =-0.3750 0.6250-0.3750 (   763 PWs)   bands (ev):

    -3.4495  -0.6571   3.7663   4.4804

          k =-0.3750 1.1250-0.3750 (   763 PWs)   bands (ev):

    -2.9524  -0.5686   2.0932   4.1623

          k =-0.3750-0.6250-0.3750 (   763 PWs)   bands (ev):

    -3.4495  -0.6571   3.7663   4.4804

          k =-0.3750-0.1250-0.3750 (   767 PWs)   bands (ev):

    -4.5937   1.4282   3.7438   5.2546

          k =-0.3750 0.1250-0.1250 (   768 PWs)   bands (ev):

    -5.0941   2.8089   4.7241   4.7902

          k =-0.3750 0.6250-0.1250 (   766 PWs)   bands (ev):

    -3.6424   0.2197   2.7502   4.1230

          k =-0.1250 0.3750-0.1250 (   768 PWs)   bands (ev):

    -5.0941   2.8089   4.7241   4.7902

          k =-0.1250 0.8750-0.1250 (   762 PWs)   bands (ev):

    -2.5831  -0.7712   2.6456   3.3795

          k =-0.1250-0.3750-0.1250 (   768 PWs)   bands (ev):

    -5.0941   2.8089   4.7241   4.7902

          k =-0.1250 0.1250-0.1250 (   764 PWs)   bands (ev):

    -5.6235   4.4264   5.7355   5.7355

          k =-0.1250-0.6250 0.1250 (   766 PWs)   bands (ev):

    -4.0596   1.0974   3.3934   3.8476

          k =-0.1250-0.1250 0.1250 (   764 PWs)   bands (ev):

    -5.6235   4.4264   5.7355   5.7355

          k = 0.6250-0.1250-0.1250 (   766 PWs)   bands (ev):

    -4.0596   1.0974   3.3934   3.8476

          k = 0.6250 0.3750-0.1250 (   766 PWs)   bands (ev):

    -3.6424   0.2197   2.7502   4.1230

          k = 0.6250 0.1250 0.1250 (   766 PWs)   bands (ev):

    -4.0596   1.0974   3.3934   3.8476

          k = 0.6250 0.6250 0.1250 (   763 PWs)   bands (ev):

    -2.9524  -0.5686   2.0932   4.1623

          k =-0.8750 0.1250-0.6250 (   755 PWs)   bands (ev):

    -2.4140  -0.8692   2.0333   3.1138

          k =-0.8750 0.6250-0.6250 (   767 PWs)   bands (ev):

    -4.5937   1.4282   3.7438   5.2546

          k =-0.1250 0.6250-0.8750 (   755 PWs)   bands (ev):

    -2.4140  -0.8692   2.0333   3.1138

          k =-0.1250 1.1250-0.8750 (   762 PWs)   bands (ev):

    -2.5831  -0.7712   2.6456   3.3795

          k =-0.1250 0.8750-0.6250 (   755 PWs)   bands (ev):

    -2.4140  -0.8692   2.0333   3.1138

          k =-0.1250 1.3750-0.6250 (   763 PWs)   bands (ev):

    -2.9524  -0.5686   2.0932   4.1623

          k =-0.1250-0.8750-0.6250 (   755 PWs)   bands (ev):

    -2.4140  -0.8692   2.0333   3.1138

          k =-0.1250-0.3750-0.6250 (   766 PWs)   bands (ev):

    -3.6424   0.2197   2.7502   4.1230

          k = 0.8750-0.6250 0.1250 (   755 PWs)   bands (ev):

    -2.4140  -0.8692   2.0333   3.1138

          k = 0.8750-0.1250 0.1250 (   762 PWs)   bands (ev):

    -2.5831  -0.7712   2.6456   3.3795

          k =-0.6250-0.1250-0.3750 (   766 PWs)   bands (ev):

    -3.6424   0.2197   2.7502   4.1230

          k =-0.6250 0.3750-0.3750 (   763 PWs)   bands (ev):

    -3.4495  -0.6571   3.7663   4.4804

          k = 0.1250 0.3750-0.6250 (   766 PWs)   bands (ev):

    -3.6424   0.2197   2.7502   4.1230

          k = 0.1250 0.8750-0.6250 (   755 PWs)   bands (ev):

    -2.4140  -0.8692   2.0333   3.1138

          k = 0.1250 0.6250-0.3750 (   766 PWs)   bands (ev):

    -3.6424   0.2197   2.7502   4.1230

          k = 0.1250 1.1250-0.3750 (   755 PWs)   bands (ev):

    -2.4140  -0.8692   2.0333   3.1138

          k = 0.1250-0.6250-0.3750 (   766 PWs)   bands (ev):

    -3.6424   0.2197   2.7502   4.1230

          k = 0.1250-0.1250-0.3750 (   768 PWs)   bands (ev):

    -5.0941   2.8089   4.7241   4.7902

          k = 0.6250-0.3750-0.1250 (   766 PWs)   bands (ev):

    -3.6424   0.2197   2.7502   4.1230

          k = 0.6250 0.1250-0.1250 (   766 PWs)   bands (ev):

    -4.0596   1.0974   3.3934   3.8476

          k =-0.1250 0.8750 0.1250 (   762 PWs)   bands (ev):

    -2.5831  -0.7712   2.6456   3.3795

          k =-0.1250 1.3750 0.1250 (   766 PWs)   bands (ev):

    -4.0596   1.0974   3.3934   3.8476

          k =-0.8750-0.1250-0.1250 (   762 PWs)   bands (ev):

    -2.5831  -0.7712   2.6456   3.3795

          k =-0.8750 0.3750-0.1250 (   755 PWs)   bands (ev):

    -2.4140  -0.8692   2.0333   3.1138

          k =-0.8750 0.1250 0.1250 (   762 PWs)   bands (ev):

    -2.5831  -0.7712   2.6456   3.3795

          k =-0.8750 0.6250 0.1250 (   755 PWs)   bands (ev):

    -2.4140  -0.8692   2.0333   3.1138

          k =-0.3750-0.3750 0.3750 (   763 PWs)   bands (ev):

    -4.1591   0.1329   4.9467   4.9467

          k =-0.3750 0.1250 0.3750 (   767 PWs)   bands (ev):

    -4.5937   1.4282   3.7438   5.2546

          k =-1.1250 0.3750-0.3750 (   763 PWs)   bands (ev):

    -2.9524  -0.5686   2.0932   4.1623

          k =-1.1250 0.8750-0.3750 (   766 PWs)   bands (ev):

    -4.0596   1.0974   3.3934   3.8476

          k =-0.3750 1.1250-0.3750 (   763 PWs)   bands (ev):

    -2.9524  -0.5686   2.0932   4.1623

          k =-0.3750 1.6250-0.3750 (   763 PWs)   bands (ev):

    -4.1591   0.1329   4.9467   4.9467

          k =-0.3750-1.1250-0.3750 (   763 PWs)   bands (ev):

    -2.9524  -0.5686   2.0932   4.1623

          k =-0.3750-0.6250-0.3750 (   763 PWs)   bands (ev):

    -3.4495  -0.6571   3.7663   4.4804

     highest occupied level (ev):     5.7355

     Writing output data file silicon.10.320.save

                                                                                

     bravais-lattice index     =            2
     lattice parameter (alat)  =      10.3200  a.u.
     unit-cell volume          =     274.7762 (a.u.)^3
     number of atoms/cell      =            2
     number of atomic types    =            1
     kinetic-energy cut-off    =      30.0000  Ry
     charge density cut-off    =     240.0000  Ry
     convergence threshold     =      1.0E-12
     beta                      =       0.7000
     number of iterations used =            4
     Exchange-correlation      = SLA  PW   PBE  PBE ( 1  4  3  4 0 0)


     celldm(1)=   10.32000  celldm(2)=    0.00000  celldm(3)=    0.00000
     celldm(4)=    0.00000  celldm(5)=    0.00000  celldm(6)=    0.00000

     crystal axes: (cart. coord. in units of alat)
               a(1) = ( -0.5000  0.0000  0.5000 )  
               a(2) = (  0.0000  0.5000  0.5000 )  
               a(3) = ( -0.5000  0.5000  0.0000 )  

     reciprocal axes: (cart. coord. in units 2 pi/alat)
               b(1) = ( -1.0000 -1.0000  1.0000 )  
               b(2) = (  1.0000  1.0000  1.0000 )  
               b(3) = ( -1.0000  1.0000 -1.0000 )  


     Atoms inside the unit cell: 

     Cartesian axes

     site n.  atom      mass           positions (alat units)
        1     Si  28.0860   tau(    1) = (    0.00000    0.00000    0.00000  )
        2     Si  28.0860   tau(    2) = (    0.25000    0.25000    0.25000  )

     Computing dynamical matrix for 
                    q = (   0.0000000   0.5000000   0.0000000 )

      8 Sym.Ops. (no q -> -q+G )


     G cutoff =  647.4570  (   4288 G-vectors)     FFT grid: ( 36, 36, 36)
     G cutoff =  323.7285  (   1520 G-vectors)  smooth grid: ( 25, 25, 25)
     number of k points=    80

     PseudoPot. # 1 for Si read from file:
     /home/s1333534/quantum_espresso/qe-6.1/pseudo/si_pbe_v1.uspp.F.UPF.txt
     MD5 check sum: a056efeee980c13900f22a371efd63c1
     Pseudo is Ultrasoft + core correction, Zval =  4.0
     Generated by new atomic code, or converted to UPF format
     Using radial grid of  899 points,  6 beta functions with: 
                l(1) =   0
                l(2) =   0
                l(3) =   1
                l(4) =   1
                l(5) =   2
                l(6) =   2
     Q(r) pseudized with  8 coefficients,  rinner =    0.900   0.900   0.900
                                                       0.900   0.900

     Mode symmetry, C_4v (4mm)  point group:


     Atomic displacements:
     There are   4 irreducible representations

     Representation     1      1 modes -A_1  G_1 D_1  To be done

     Representation     2      1 modes -B_2  G_4 D_2'  To be done

     Representation     3      2 modes -E    G_5 D_5  To be done

     Representation     4      2 modes -E    G_5 D_5  To be done



     Alpha used in Ewald sum =   2.5000
     PHONON       :    37.44s CPU        47.73s WALL



     Representation #  1 mode #   1

     Self-consistent Calculation

      iter #   1 total cpu time :    48.1 secs   av.it.:   6.2
      thresh= 1.000E-02 alpha_mix =  0.700 |ddv_scf|^2 =  5.145E-04

      iter #   2 total cpu time :    48.5 secs   av.it.:   9.2
      thresh= 2.268E-03 alpha_mix =  0.700 |ddv_scf|^2 =  6.818E-03

      iter #   3 total cpu time :    48.9 secs   av.it.:   7.3
      thresh= 8.257E-03 alpha_mix =  0.700 |ddv_scf|^2 =  1.022E-08

      iter #   4 total cpu time :    49.4 secs   av.it.:  10.2
      thresh= 1.011E-05 alpha_mix =  0.700 |ddv_scf|^2 =  1.031E-09

      iter #   5 total cpu time :    49.9 secs   av.it.:   9.6
      thresh= 3.211E-06 alpha_mix =  0.700 |ddv_scf|^2 =  1.146E-10

      iter #   6 total cpu time :    50.3 secs   av.it.:   9.3
      thresh= 1.071E-06 alpha_mix =  0.700 |ddv_scf|^2 =  2.921E-13

     End of self-consistent calculation

     Convergence has been achieved 


     Representation #  2 mode #   2

     Self-consistent Calculation

      iter #   1 total cpu time :    50.8 secs   av.it.:   5.1
      thresh= 1.000E-02 alpha_mix =  0.700 |ddv_scf|^2 =  8.118E-07

      iter #   2 total cpu time :    51.3 secs   av.it.:  10.4
      thresh= 9.010E-05 alpha_mix =  0.700 |ddv_scf|^2 =  2.213E-07

      iter #   3 total cpu time :    51.8 secs   av.it.:   9.9
      thresh= 4.704E-05 alpha_mix =  0.700 |ddv_scf|^2 =  2.252E-09

      iter #   4 total cpu time :    52.3 secs   av.it.:  10.1
      thresh= 4.745E-06 alpha_mix =  0.700 |ddv_scf|^2 =  8.776E-11

      iter #   5 total cpu time :    52.9 secs   av.it.:  10.3
      thresh= 9.368E-07 alpha_mix =  0.700 |ddv_scf|^2 =  5.222E-13

     End of self-consistent calculation

     Convergence has been achieved 


     Representation #  3 modes #   3  4

     Self-consistent Calculation

      iter #   1 total cpu time :    53.6 secs   av.it.:   5.2
      thresh= 1.000E-02 alpha_mix =  0.700 |ddv_scf|^2 =  1.439E-07

      iter #   2 total cpu time :    54.7 secs   av.it.:  11.5
      thresh= 3.794E-05 alpha_mix =  0.700 |ddv_scf|^2 =  1.984E-08

      iter #   3 total cpu time :    55.6 secs   av.it.:  11.1
      thresh= 1.409E-05 alpha_mix =  0.700 |ddv_scf|^2 =  3.341E-10

      iter #   4 total cpu time :    56.5 secs   av.it.:  10.7
      thresh= 1.828E-06 alpha_mix =  0.700 |ddv_scf|^2 =  7.834E-13

     End of self-consistent calculation

     Convergence has been achieved 


     Representation #  4 modes #   5  6

     Self-consistent Calculation

      iter #   1 total cpu time :    57.3 secs   av.it.:   5.3
      thresh= 1.000E-02 alpha_mix =  0.700 |ddv_scf|^2 =  1.320E-07

      iter #   2 total cpu time :    58.3 secs   av.it.:  11.4
      thresh= 3.633E-05 alpha_mix =  0.700 |ddv_scf|^2 =  1.770E-08

      iter #   3 total cpu time :    59.2 secs   av.it.:  11.2
      thresh= 1.331E-05 alpha_mix =  0.700 |ddv_scf|^2 =  3.421E-10

      iter #   4 total cpu time :    60.1 secs   av.it.:  11.0
      thresh= 1.850E-06 alpha_mix =  0.700 |ddv_scf|^2 =  8.437E-13

     End of self-consistent calculation

     Convergence has been achieved 

     Number of q in the star =    6
     List of q in the star:
          1   0.000000000   0.500000000   0.000000000
          2   0.000000000  -0.500000000   0.000000000
          3   0.500000000   0.000000000   0.000000000
          4   0.000000000   0.000000000   0.500000000
          5   0.000000000   0.000000000  -0.500000000
          6  -0.500000000   0.000000000   0.000000000

     Diagonalizing the dynamical matrix

     q = (    0.000000000   0.500000000   0.000000000 ) 

 **************************************************************************
     freq (    1) =       3.761068 [THz] =     125.455731 [cm-1]
     freq (    2) =       3.761068 [THz] =     125.455731 [cm-1]
     freq (    3) =       7.087962 [THz] =     236.428960 [cm-1]
     freq (    4) =      13.890339 [THz] =     463.331841 [cm-1]
     freq (    5) =      13.890339 [THz] =     463.331841 [cm-1]
     freq (    6) =      14.511792 [THz] =     484.061284 [cm-1]
 **************************************************************************

     Mode symmetry, C_4v (4mm)  point group:

     freq (  1 -  2) =        125.5  [cm-1]   --> E    G_5 D_5       
     freq (  3 -  3) =        236.4  [cm-1]   --> A_1  G_1 D_1       
     freq (  4 -  5) =        463.3  [cm-1]   --> E    G_5 D_5       
     freq (  6 -  6) =        484.1  [cm-1]   --> B_2  G_4 D_2'      

     Calculation of q =    0.7500000  -0.2500000   0.7500000

   Info: using nr1, nr2, nr3 values from input

   Info: using nr1, nr2, nr3 values from input

     Parallelization info
     --------------------
     sticks:   dense  smooth     PW     G-vecs:    dense   smooth      PW
     Min         217     109     40                 4288     1520     362
     Max         219     111     41                 4289     1521     366
     Sum         871     439    163                17153     6081    1459



     bravais-lattice index     =            2
     lattice parameter (alat)  =      10.3200  a.u.
     unit-cell volume          =     274.7762 (a.u.)^3
     number of atoms/cell      =            2
     number of atomic types    =            1
     number of electrons       =         8.00
     number of Kohn-Sham states=            4
     kinetic-energy cutoff     =      30.0000  Ry
     charge density cutoff     =     240.0000  Ry
     Exchange-correlation      = SLA  PW   PBE  PBE ( 1  4  3  4 0 0)

     celldm(1)=  10.320000  celldm(2)=   0.000000  celldm(3)=   0.000000
     celldm(4)=   0.000000  celldm(5)=   0.000000  celldm(6)=   0.000000

     crystal axes: (cart. coord. in units of alat)
               a(1) = (  -0.500000   0.000000   0.500000 )  
               a(2) = (   0.000000   0.500000   0.500000 )  
               a(3) = (  -0.500000   0.500000   0.000000 )  

     reciprocal axes: (cart. coord. in units 2 pi/alat)
               b(1) = ( -1.000000 -1.000000  1.000000 )  
               b(2) = (  1.000000  1.000000  1.000000 )  
               b(3) = ( -1.000000  1.000000 -1.000000 )  


     PseudoPot. # 1 for Si read from file:
     /home/s1333534/quantum_espresso/qe-6.1/pseudo/si_pbe_v1.uspp.F.UPF.txt
     MD5 check sum: a056efeee980c13900f22a371efd63c1
     Pseudo is Ultrasoft + core correction, Zval =  4.0
     Generated by new atomic code, or converted to UPF format
     Using radial grid of  899 points,  6 beta functions with: 
                l(1) =   0
                l(2) =   0
                l(3) =   1
                l(4) =   1
                l(5) =   2
                l(6) =   2
     Q(r) pseudized with  8 coefficients,  rinner =    0.900   0.900   0.900
                                                       0.900   0.900

     atomic species   valence    mass     pseudopotential
        Si             4.00    28.08600     Si( 1.00)

     48 Sym. Ops., with inversion, found



   Cartesian axes

     site n.     atom                  positions (alat units)
         1           Si  tau(   1) = (   0.0000000   0.0000000   0.0000000  )
         2           Si  tau(   2) = (   0.2500000   0.2500000   0.2500000  )

     number of k points=   288

     Number of k-points >= 100: set verbosity='high' to print them.

     Dense  grid:    17153 G-vectors     FFT dimensions: (  36,  36,  36)

     Smooth grid:     6081 G-vectors     FFT dimensions: (  25,  25,  25)

     Estimated max dynamical RAM per process >       1.51MB

     Estimated total allocated dynamical RAM >       6.06MB

     The potential is recalculated from file :
     ./_ph0/silicon.10.320.save/charge-density.dat

     Starting wfc are    8 atomic wfcs

     Band Structure Calculation
     Davidson diagonalization with overlap

     ethr =  1.25E-10,  avg # of iterations = 12.1

     total cpu time spent up to now is        6.7 secs

     End of band structure calculation

     Number of k-points >= 100: set verbosity='high' to print the bands.

     highest occupied level (ev):     5.7355

     Writing output data file silicon.10.320.save

                                                                                

     bravais-lattice index     =            2
     lattice parameter (alat)  =      10.3200  a.u.
     unit-cell volume          =     274.7762 (a.u.)^3
     number of atoms/cell      =            2
     number of atomic types    =            1
     kinetic-energy cut-off    =      30.0000  Ry
     charge density cut-off    =     240.0000  Ry
     convergence threshold     =      1.0E-12
     beta                      =       0.7000
     number of iterations used =            4
     Exchange-correlation      = SLA  PW   PBE  PBE ( 1  4  3  4 0 0)


     celldm(1)=   10.32000  celldm(2)=    0.00000  celldm(3)=    0.00000
     celldm(4)=    0.00000  celldm(5)=    0.00000  celldm(6)=    0.00000

     crystal axes: (cart. coord. in units of alat)
               a(1) = ( -0.5000  0.0000  0.5000 )  
               a(2) = (  0.0000  0.5000  0.5000 )  
               a(3) = ( -0.5000  0.5000  0.0000 )  

     reciprocal axes: (cart. coord. in units 2 pi/alat)
               b(1) = ( -1.0000 -1.0000  1.0000 )  
               b(2) = (  1.0000  1.0000  1.0000 )  
               b(3) = ( -1.0000  1.0000 -1.0000 )  


     Atoms inside the unit cell: 

     Cartesian axes

     site n.  atom      mass           positions (alat units)
        1     Si  28.0860   tau(    1) = (    0.00000    0.00000    0.00000  )
        2     Si  28.0860   tau(    2) = (    0.25000    0.25000    0.25000  )

     Computing dynamical matrix for 
                    q = (   0.7500000  -0.2500000   0.7500000 )

      2 Sym.Ops. (no q -> -q+G )


     G cutoff =  647.4570  (   4288 G-vectors)     FFT grid: ( 36, 36, 36)
     G cutoff =  323.7285  (   1520 G-vectors)  smooth grid: ( 25, 25, 25)
     number of k points=   288

     PseudoPot. # 1 for Si read from file:
     /home/s1333534/quantum_espresso/qe-6.1/pseudo/si_pbe_v1.uspp.F.UPF.txt
     MD5 check sum: a056efeee980c13900f22a371efd63c1
     Pseudo is Ultrasoft + core correction, Zval =  4.0
     Generated by new atomic code, or converted to UPF format
     Using radial grid of  899 points,  6 beta functions with: 
                l(1) =   0
                l(2) =   0
                l(3) =   1
                l(4) =   1
                l(5) =   2
                l(6) =   2
     Q(r) pseudized with  8 coefficients,  rinner =    0.900   0.900   0.900
                                                       0.900   0.900

     Mode symmetry, C_s (m)     point group:


     Atomic displacements:
     There are   6 irreducible representations

     Representation     1      1 modes -A'  To be done

     Representation     2      1 modes -A'  To be done

     Representation     3      1 modes -A'  To be done

     Representation     4      1 modes -A'  To be done

     Representation     5      1 modes -A''  To be done

     Representation     6      1 modes -A''  To be done



     Alpha used in Ewald sum =   2.5000
     PHONON       :  0m51.52s CPU     1m 5.61s WALL



     Representation #  1 mode #   1

     Self-consistent Calculation

      iter #   1 total cpu time :    66.5 secs   av.it.:   5.6
      thresh= 1.000E-02 alpha_mix =  0.700 |ddv_scf|^2 =  1.049E-05

      iter #   2 total cpu time :    67.9 secs   av.it.:  10.6
      thresh= 3.239E-04 alpha_mix =  0.700 |ddv_scf|^2 =  2.797E-05

      iter #   3 total cpu time :    69.1 secs   av.it.:   9.2
      thresh= 5.289E-04 alpha_mix =  0.700 |ddv_scf|^2 =  1.877E-07

      iter #   4 total cpu time :    70.4 secs   av.it.:   9.9
      thresh= 4.332E-05 alpha_mix =  0.700 |ddv_scf|^2 =  3.714E-09

      iter #   5 total cpu time :    71.8 secs   av.it.:  10.4
      thresh= 6.095E-06 alpha_mix =  0.700 |ddv_scf|^2 =  6.395E-10

      iter #   6 total cpu time :    73.1 secs   av.it.:  10.3
      thresh= 2.529E-06 alpha_mix =  0.700 |ddv_scf|^2 =  9.640E-12

      iter #   7 total cpu time :    74.4 secs   av.it.:  10.6
      thresh= 3.105E-07 alpha_mix =  0.700 |ddv_scf|^2 =  3.621E-13

     End of self-consistent calculation

     Convergence has been achieved 


     Representation #  2 mode #   2

     Self-consistent Calculation

      iter #   1 total cpu time :    75.4 secs   av.it.:   5.8
      thresh= 1.000E-02 alpha_mix =  0.700 |ddv_scf|^2 =  1.880E-05

      iter #   2 total cpu time :    76.8 secs   av.it.:  10.4
      thresh= 4.336E-04 alpha_mix =  0.700 |ddv_scf|^2 =  5.443E-05

      iter #   3 total cpu time :    78.0 secs   av.it.:   9.0
      thresh= 7.378E-04 alpha_mix =  0.700 |ddv_scf|^2 =  1.262E-07

      iter #   4 total cpu time :    79.3 secs   av.it.:  10.2
      thresh= 3.553E-05 alpha_mix =  0.700 |ddv_scf|^2 =  4.196E-09

      iter #   5 total cpu time :    80.7 secs   av.it.:  10.4
      thresh= 6.478E-06 alpha_mix =  0.700 |ddv_scf|^2 =  8.555E-10

      iter #   6 total cpu time :    82.0 secs   av.it.:  10.3
      thresh= 2.925E-06 alpha_mix =  0.700 |ddv_scf|^2 =  8.842E-12

      iter #   7 total cpu time :    83.3 secs   av.it.:  10.6
      thresh= 2.974E-07 alpha_mix =  0.700 |ddv_scf|^2 =  3.113E-13

     End of self-consistent calculation

     Convergence has been achieved 


     Representation #  3 mode #   3

     Self-consistent Calculation

      iter #   1 total cpu time :    84.3 secs   av.it.:   5.7
      thresh= 1.000E-02 alpha_mix =  0.700 |ddv_scf|^2 =  1.473E-05

      iter #   2 total cpu time :    85.6 secs   av.it.:  10.4
      thresh= 3.838E-04 alpha_mix =  0.700 |ddv_scf|^2 =  4.007E-05

      iter #   3 total cpu time :    86.9 secs   av.it.:   9.0
      thresh= 6.330E-04 alpha_mix =  0.700 |ddv_scf|^2 =  2.204E-07

      iter #   4 total cpu time :    88.1 secs   av.it.:  10.0
      thresh= 4.695E-05 alpha_mix =  0.700 |ddv_scf|^2 =  4.278E-09

      iter #   5 total cpu time :    89.4 secs   av.it.:  10.4
      thresh= 6.541E-06 alpha_mix =  0.700 |ddv_scf|^2 =  8.352E-10

      iter #   6 total cpu time :    90.7 secs   av.it.:  10.3
      thresh= 2.890E-06 alpha_mix =  0.700 |ddv_scf|^2 =  6.182E-12

      iter #   7 total cpu time :    92.0 secs   av.it.:  10.5
      thresh= 2.486E-07 alpha_mix =  0.700 |ddv_scf|^2 =  1.808E-13

     End of self-consistent calculation

     Convergence has been achieved 


     Representation #  4 mode #   4

     Self-consistent Calculation

      iter #   1 total cpu time :    93.1 secs   av.it.:   5.5
      thresh= 1.000E-02 alpha_mix =  0.700 |ddv_scf|^2 =  6.420E-06

      iter #   2 total cpu time :    94.4 secs   av.it.:  10.7
      thresh= 2.534E-04 alpha_mix =  0.700 |ddv_scf|^2 =  1.359E-05

      iter #   3 total cpu time :    95.7 secs   av.it.:   9.5
      thresh= 3.687E-04 alpha_mix =  0.700 |ddv_scf|^2 =  2.942E-07

      iter #   4 total cpu time :    96.9 secs   av.it.:   9.8
      thresh= 5.424E-05 alpha_mix =  0.700 |ddv_scf|^2 =  3.666E-09

      iter #   5 total cpu time :    98.2 secs   av.it.:  10.5
      thresh= 6.055E-06 alpha_mix =  0.700 |ddv_scf|^2 =  6.859E-10

      iter #   6 total cpu time :    99.5 secs   av.it.:  10.4
      thresh= 2.619E-06 alpha_mix =  0.700 |ddv_scf|^2 =  4.061E-12

      iter #   7 total cpu time :   101.0 secs   av.it.:  10.6
      thresh= 2.015E-07 alpha_mix =  0.700 |ddv_scf|^2 =  1.837E-13

     End of self-consistent calculation

     Convergence has been achieved 


     Representation #  5 mode #   5

     Self-consistent Calculation

      iter #   1 total cpu time :   102.1 secs   av.it.:   5.2
      thresh= 1.000E-02 alpha_mix =  0.700 |ddv_scf|^2 =  6.653E-07

      iter #   2 total cpu time :   103.4 secs   av.it.:  10.4
      thresh= 8.157E-05 alpha_mix =  0.700 |ddv_scf|^2 =  1.085E-07

      iter #   3 total cpu time :   104.6 secs   av.it.:  10.1
      thresh= 3.294E-05 alpha_mix =  0.700 |ddv_scf|^2 =  1.448E-09

      iter #   4 total cpu time :   105.9 secs   av.it.:   9.6
      thresh= 3.805E-06 alpha_mix =  0.700 |ddv_scf|^2 =  3.382E-12

      iter #   5 total cpu time :   107.1 secs   av.it.:  10.0
      thresh= 1.839E-07 alpha_mix =  0.700 |ddv_scf|^2 =  9.472E-14

     End of self-consistent calculation

     Convergence has been achieved 


     Representation #  6 mode #   6

     Self-consistent Calculation

      iter #   1 total cpu time :   108.1 secs   av.it.:   5.2
      thresh= 1.000E-02 alpha_mix =  0.700 |ddv_scf|^2 =  6.653E-07

      iter #   2 total cpu time :   109.5 secs   av.it.:  10.4
[...]
        k(   59) = (  -0.8750000   0.1250000  -0.1250000), wk =   0.0625000
        k(   60) = (  -1.3750000  -0.8750000  -0.1250000), wk =   0.0000000
        k(   61) = (  -1.1250000   0.3750000  -0.3750000), wk =   0.0625000
        k(   62) = (  -1.6250000  -0.6250000  -0.3750000), wk =   0.0000000
        k(   63) = (  -0.3750000   0.3750000   1.1250000), wk =   0.0625000
        k(   64) = (  -0.8750000  -0.6250000   1.1250000), wk =   0.0000000

     Dense  grid:    17153 G-vectors     FFT dimensions: (  36,  36,  36)

     Smooth grid:     6081 G-vectors     FFT dimensions: (  25,  25,  25)

     Estimated max dynamical RAM per process >       1.51MB

     Estimated total allocated dynamical RAM >       6.06MB

     The potential is recalculated from file :
     ./_ph0/silicon.10.320.save/charge-density.dat

     Starting wfc are    8 atomic wfcs

     Band Structure Calculation
     Davidson diagonalization with overlap

     ethr =  1.25E-10,  avg # of iterations = 12.1

     total cpu time spent up to now is       10.7 secs

     End of band structure calculation

          k =-0.1250 0.1250 0.1250 (   764 PWs)   bands (ev):

    -5.6235   4.4264   5.7355   5.7355

          k =-0.6250-0.8750 0.1250 (   755 PWs)   bands (ev):

    -2.4140  -0.8692   2.0333   3.1138

          k =-0.3750 0.3750-0.1250 (   767 PWs)   bands (ev):

    -4.5937   1.4282   3.7438   5.2546

          k =-0.8750-0.6250-0.1250 (   755 PWs)   bands (ev):

    -2.4140  -0.8692   2.0333   3.1138

          k = 0.3750-0.3750 0.6250 (   763 PWs)   bands (ev):

    -3.4495  -0.6571   3.7663   4.4804

          k =-0.1250-1.3750 0.6250 (   763 PWs)   bands (ev):

    -2.9524  -0.5686   2.0932   4.1623

          k = 0.1250-0.1250 0.3750 (   768 PWs)   bands (ev):

    -5.0941   2.8089   4.7241   4.7902

          k =-0.3750-1.1250 0.3750 (   763 PWs)   bands (ev):

    -2.9524  -0.5686   2.0932   4.1623

          k =-0.1250 0.6250 0.1250 (   766 PWs)   bands (ev):

    -4.0596   1.0974   3.3934   3.8476

          k =-0.6250-0.3750 0.1250 (   766 PWs)   bands (ev):

    -3.6424   0.2197   2.7502   4.1230

          k = 0.6250-0.1250 0.8750 (   755 PWs)   bands (ev):

    -2.4140  -0.8692   2.0333   3.1138

          k = 0.1250-1.1250 0.8750 (   762 PWs)   bands (ev):

    -2.5831  -0.7712   2.6456   3.3795

          k = 0.3750 0.1250 0.6250 (   766 PWs)   bands (ev):

    -3.6424   0.2197   2.7502   4.1230

          k =-0.1250-0.8750 0.6250 (   755 PWs)   bands (ev):

    -2.4140  -0.8692   2.0333   3.1138

          k =-0.1250-0.8750 0.1250 (   762 PWs)   bands (ev):

    -2.5831  -0.7712   2.6456   3.3795

          k =-0.6250-1.8750 0.1250 (   766 PWs)   bands (ev):

    -4.0596   1.0974   3.3934   3.8476

          k =-0.3750 0.3750 0.3750 (   763 PWs)   bands (ev):

    -4.1591   0.1329   4.9467   4.9467

          k =-0.8750-0.6250 0.3750 (   766 PWs)   bands (ev):

    -3.6424   0.2197   2.7502   4.1230

          k = 0.3750-0.3750 1.1250 (   763 PWs)   bands (ev):

    -2.9524  -0.5686   2.0932   4.1623

          k =-0.1250-1.3750 1.1250 (   755 PWs)   bands (ev):

    -2.4140  -0.8692   2.0333   3.1138

          k = 0.1250-0.3750 0.3750 (   767 PWs)   bands (ev):

    -4.5937   1.4282   3.7438   5.2546

          k =-0.3750-1.3750 0.3750 (   763 PWs)   bands (ev):

    -3.4495  -0.6571   3.7663   4.4804

          k = 0.3750-0.3750-0.1250 (   767 PWs)   bands (ev):

    -4.5937   1.4282   3.7438   5.2546

          k =-0.1250-1.3750-0.1250 (   766 PWs)   bands (ev):

    -4.0596   1.0974   3.3934   3.8476

          k =-0.6250 0.3750-0.3750 (   763 PWs)   bands (ev):

    -3.4495  -0.6571   3.7663   4.4804

          k =-1.1250-0.6250-0.3750 (   766 PWs)   bands (ev):

    -3.6424   0.2197   2.7502   4.1230

          k =-0.3750 0.3750 0.6250 (   763 PWs)   bands (ev):

    -3.4495  -0.6571   3.7663   4.4804

          k =-0.8750-0.6250 0.6250 (   767 PWs)   bands (ev):

    -4.5937   1.4282   3.7438   5.2546

          k =-0.3750 0.1250-0.1250 (   768 PWs)   bands (ev):

    -5.0941   2.8089   4.7241   4.7902

          k =-0.8750-0.8750-0.1250 (   762 PWs)   bands (ev):

    -2.5831  -0.7712   2.6456   3.3795

          k =-0.1250 0.1250 0.3750 (   768 PWs)   bands (ev):

    -5.0941   2.8089   4.7241   4.7902

          k =-0.6250-0.8750 0.3750 (   766 PWs)   bands (ev):

    -3.6424   0.2197   2.7502   4.1230

          k = 0.1250 0.6250-0.1250 (   766 PWs)   bands (ev):

    -4.0596   1.0974   3.3934   3.8476

          k =-0.3750-0.3750-0.1250 (   767 PWs)   bands (ev):

    -4.5937   1.4282   3.7438   5.2546

          k = 0.6250 0.1250-0.1250 (   766 PWs)   bands (ev):

    -4.0596   1.0974   3.3934   3.8476

          k = 0.1250-0.8750-0.1250 (   762 PWs)   bands (ev):

    -2.5831  -0.7712   2.6456   3.3795

          k =-0.8750 0.1250-0.6250 (   755 PWs)   bands (ev):

    -2.4140  -0.8692   2.0333   3.1138

          k =-1.3750-0.8750-0.6250 (   767 PWs)   bands (ev):

    -4.5937   1.4282   3.7438   5.2546

          k = 0.8750-0.1250 0.6250 (   755 PWs)   bands (ev):

    -2.4140  -0.8692   2.0333   3.1138

          k = 0.3750-1.1250 0.6250 (   766 PWs)   bands (ev):

    -3.6424   0.2197   2.7502   4.1230

          k =-0.6250 0.1250 0.8750 (   755 PWs)   bands (ev):

    -2.4140  -0.8692   2.0333   3.1138

          k =-1.1250-0.8750 0.8750 (   764 PWs)   bands (ev):

    -5.6235   4.4264   5.7355   5.7355

          k =-0.1250 0.8750 0.6250 (   755 PWs)   bands (ev):

    -2.4140  -0.8692   2.0333   3.1138

          k =-0.6250-0.1250 0.6250 (   763 PWs)   bands (ev):

    -2.9524  -0.5686   2.0932   4.1623

          k = 0.1250 0.8750-0.6250 (   755 PWs)   bands (ev):

    -2.4140  -0.8692   2.0333   3.1138

          k =-0.3750-0.1250-0.6250 (   766 PWs)   bands (ev):

    -3.6424   0.2197   2.7502   4.1230

          k =-0.6250-0.1250-0.3750 (   766 PWs)   bands (ev):

    -3.6424   0.2197   2.7502   4.1230

          k =-1.1250-1.1250-0.3750 (   766 PWs)   bands (ev):

    -4.0596   1.0974   3.3934   3.8476

          k = 0.6250 0.1250 0.3750 (   766 PWs)   bands (ev):

    -3.6424   0.2197   2.7502   4.1230

          k = 0.1250-0.8750 0.3750 (   755 PWs)   bands (ev):

    -2.4140  -0.8692   2.0333   3.1138

          k =-0.3750-0.1250 0.6250 (   766 PWs)   bands (ev):

    -3.6424   0.2197   2.7502   4.1230

          k =-0.8750-1.1250 0.6250 (   768 PWs)   bands (ev):

    -5.0941   2.8089   4.7241   4.7902

          k = 0.1250 0.6250 0.3750 (   766 PWs)   bands (ev):

    -3.6424   0.2197   2.7502   4.1230

          k =-0.3750-0.3750 0.3750 (   763 PWs)   bands (ev):

    -4.1591   0.1329   4.9467   4.9467

          k =-0.1250 0.6250-0.3750 (   766 PWs)   bands (ev):

    -3.6424   0.2197   2.7502   4.1230

          k =-0.6250-0.3750-0.3750 (   763 PWs)   bands (ev):

    -3.4495  -0.6571   3.7663   4.4804

          k = 0.1250-0.8750-0.1250 (   762 PWs)   bands (ev):

    -2.5831  -0.7712   2.6456   3.3795

          k =-0.3750-1.8750-0.1250 (   768 PWs)   bands (ev):

    -5.0941   2.8089   4.7241   4.7902

          k =-0.8750 0.1250-0.1250 (   762 PWs)   bands (ev):

    -2.5831  -0.7712   2.6456   3.3795

          k =-1.3750-0.8750-0.1250 (   755 PWs)   bands (ev):

    -2.4140  -0.8692   2.0333   3.1138

          k =-1.1250 0.3750-0.3750 (   763 PWs)   bands (ev):

    -2.9524  -0.5686   2.0932   4.1623

          k =-1.6250-0.6250-0.3750 (   763 PWs)   bands (ev):

    -3.4495  -0.6571   3.7663   4.4804

          k =-0.3750 0.3750 1.1250 (   763 PWs)   bands (ev):

    -2.9524  -0.5686   2.0932   4.1623

          k =-0.8750-0.6250 1.1250 (   768 PWs)   bands (ev):

    -5.0941   2.8089   4.7241   4.7902

     highest occupied level (ev):     5.7355

     Writing output data file silicon.10.320.save

                                                                                

     bravais-lattice index     =            2
     lattice parameter (alat)  =      10.3200  a.u.
     unit-cell volume          =     274.7762 (a.u.)^3
     number of atoms/cell      =            2
     number of atomic types    =            1
     kinetic-energy cut-off    =      30.0000  Ry
     charge density cut-off    =     240.0000  Ry
     convergence threshold     =      1.0E-12
     beta                      =       0.7000
     number of iterations used =            4
     Exchange-correlation      = SLA  PW   PBE  PBE ( 1  4  3  4 0 0)


     celldm(1)=   10.32000  celldm(2)=    0.00000  celldm(3)=    0.00000
     celldm(4)=    0.00000  celldm(5)=    0.00000  celldm(6)=    0.00000

     crystal axes: (cart. coord. in units of alat)
               a(1) = ( -0.5000  0.0000  0.5000 )  
               a(2) = (  0.0000  0.5000  0.5000 )  
               a(3) = ( -0.5000  0.5000  0.0000 )  

     reciprocal axes: (cart. coord. in units 2 pi/alat)
               b(1) = ( -1.0000 -1.0000  1.0000 )  
               b(2) = (  1.0000  1.0000  1.0000 )  
               b(3) = ( -1.0000  1.0000 -1.0000 )  


     Atoms inside the unit cell: 

     Cartesian axes

     site n.  atom      mass           positions (alat units)
        1     Si  28.0860   tau(    1) = (    0.00000    0.00000    0.00000  )
        2     Si  28.0860   tau(    2) = (    0.25000    0.25000    0.25000  )

     Computing dynamical matrix for 
                    q = (  -0.5000000  -1.0000000   0.0000000 )

      8 Sym.Ops. (no q -> -q+G )


     G cutoff =  647.4570  (   4288 G-vectors)     FFT grid: ( 36, 36, 36)
     G cutoff =  323.7285  (   1520 G-vectors)  smooth grid: ( 25, 25, 25)
     number of k points=    64

     PseudoPot. # 1 for Si read from file:
     /home/s1333534/quantum_espresso/qe-6.1/pseudo/si_pbe_v1.uspp.F.UPF.txt
     MD5 check sum: a056efeee980c13900f22a371efd63c1
     Pseudo is Ultrasoft + core correction, Zval =  4.0
     Generated by new atomic code, or converted to UPF format
     Using radial grid of  899 points,  6 beta functions with: 
                l(1) =   0
                l(2) =   0
                l(3) =   1
                l(4) =   1
                l(5) =   2
                l(6) =   2
     Q(r) pseudized with  8 coefficients,  rinner =    0.900   0.900   0.900
                                                       0.900   0.900


     Atomic displacements:
     There are   3 irreducible representations

     Representation     1      2 modes -  To be done

     Representation     2      2 modes -  To be done

     Representation     3      2 modes -  To be done



     Alpha used in Ewald sum =   2.5000
     PHONON       :  2m 3.20s CPU     2m32.25s WALL



     Representation #  1 modes #   1  2

     Self-consistent Calculation

      iter #   1 total cpu time :   152.9 secs   av.it.:   5.7
      thresh= 1.000E-02 alpha_mix =  0.700 |ddv_scf|^2 =  1.086E-06

      iter #   2 total cpu time :   153.8 secs   av.it.:  11.6
      thresh= 1.042E-04 alpha_mix =  0.700 |ddv_scf|^2 =  6.148E-07

      iter #   3 total cpu time :   154.6 secs   av.it.:  11.1
      thresh= 7.841E-05 alpha_mix =  0.700 |ddv_scf|^2 =  5.901E-10

      iter #   4 total cpu time :   155.5 secs   av.it.:  11.0
      thresh= 2.429E-06 alpha_mix =  0.700 |ddv_scf|^2 =  2.624E-12

      iter #   5 total cpu time :   156.2 secs   av.it.:  11.1
      thresh= 1.620E-07 alpha_mix =  0.700 |ddv_scf|^2 =  6.927E-14

     End of self-consistent calculation

     Convergence has been achieved 


     Representation #  2 modes #   3  4

     Self-consistent Calculation

      iter #   1 total cpu time :   156.9 secs   av.it.:   5.6
      thresh= 1.000E-02 alpha_mix =  0.700 |ddv_scf|^2 =  1.682E-06

      iter #   2 total cpu time :   157.7 secs   av.it.:  11.6
      thresh= 1.297E-04 alpha_mix =  0.700 |ddv_scf|^2 =  2.273E-06

      iter #   3 total cpu time :   158.5 secs   av.it.:  10.9
      thresh= 1.508E-04 alpha_mix =  0.700 |ddv_scf|^2 =  6.980E-10

      iter #   4 total cpu time :   159.3 secs   av.it.:  11.0
      thresh= 2.642E-06 alpha_mix =  0.700 |ddv_scf|^2 =  1.061E-11

      iter #   5 total cpu time :   160.0 secs   av.it.:  11.1
      thresh= 3.258E-07 alpha_mix =  0.700 |ddv_scf|^2 =  1.782E-13

     End of self-consistent calculation

     Convergence has been achieved 


     Representation #  3 modes #   5  6

     Self-consistent Calculation

      iter #   1 total cpu time :   160.7 secs   av.it.:   5.3
      thresh= 1.000E-02 alpha_mix =  0.700 |ddv_scf|^2 =  4.410E-07

      iter #   2 total cpu time :   161.5 secs   av.it.:  11.6
      thresh= 6.641E-05 alpha_mix =  0.700 |ddv_scf|^2 =  2.577E-07

      iter #   3 total cpu time :   162.4 secs   av.it.:  11.1
      thresh= 5.077E-05 alpha_mix =  0.700 |ddv_scf|^2 =  5.127E-10

      iter #   4 total cpu time :   163.2 secs   av.it.:  11.1
      thresh= 2.264E-06 alpha_mix =  0.700 |ddv_scf|^2 =  6.008E-12

      iter #   5 total cpu time :   164.0 secs   av.it.:  11.1
      thresh= 2.451E-07 alpha_mix =  0.700 |ddv_scf|^2 =  8.316E-14

     End of self-consistent calculation

     Convergence has been achieved 

     Number of q in the star =    6
     List of q in the star:
          1  -0.500000000  -1.000000000   0.000000000
          2   0.000000000   1.000000000   0.500000000
          3   0.000000000  -1.000000000  -0.500000000
          4   0.500000000   1.000000000   0.000000000
          5  -1.000000000  -0.500000000   0.000000000
          6   0.000000000  -0.500000000  -1.000000000

     Diagonalizing the dynamical matrix

     q = (   -0.500000000  -1.000000000   0.000000000 ) 

 **************************************************************************
     freq (    1) =       6.009158 [THz] =     200.443924 [cm-1]
     freq (    2) =       6.009158 [THz] =     200.443924 [cm-1]
     freq (    3) =      10.371993 [THz] =     345.972457 [cm-1]
     freq (    4) =      10.371993 [THz] =     345.972457 [cm-1]
     freq (    5) =      13.635353 [THz] =     454.826407 [cm-1]
     freq (    6) =      13.635353 [THz] =     454.826407 [cm-1]
 **************************************************************************

     init_run     :      1.25s CPU      1.31s WALL (       7 calls)
     electrons    :      7.15s CPU      7.72s WALL (       7 calls)

     Called by init_run:
     wfcinit      :      0.00s CPU      0.03s WALL (       7 calls)
     potinit      :      0.08s CPU      0.09s WALL (       7 calls)

     Called by electrons:
     c_bands      :      7.15s CPU      7.72s WALL (       7 calls)
     v_of_rho     :      0.07s CPU      0.07s WALL (       8 calls)
     newd         :      0.12s CPU      0.13s WALL (       8 calls)

     Called by c_bands:
     init_us_2    :      1.63s CPU      1.58s WALL (   16040 calls)
     cegterg      :      5.98s CPU      6.44s WALL (     796 calls)

     Called by sum_band:

     Called by *egterg:
     h_psi        :     68.76s CPU     73.75s WALL (  154451 calls)
     s_psi        :      5.79s CPU      6.97s WALL (  311304 calls)
     g_psi        :      0.05s CPU      0.07s WALL (    9666 calls)
     cdiaghg      :      0.55s CPU      0.55s WALL (   10462 calls)

     Called by h_psi:
     h_psi:pot    :     68.35s CPU     73.22s WALL (  154451 calls)
     h_psi:calbec :      3.49s CPU      4.00s WALL (  154451 calls)
     vloc_psi     :     60.30s CPU     65.08s WALL (  154451 calls)
     add_vuspsi   :      4.24s CPU      3.68s WALL (  154451 calls)

     General routines
     calbec       :      8.17s CPU      8.52s WALL (  345756 calls)
     fft          :      1.37s CPU      1.43s WALL (    5265 calls)
     ffts         :      0.21s CPU      0.23s WALL (    3320 calls)
     fftw         :     63.43s CPU     67.63s WALL ( 1383582 calls)
     interpolate  :      0.21s CPU      0.22s WALL (     572 calls)
     davcio       :      0.32s CPU      1.01s WALL (   69876 calls)

     Parallel routines
     fft_scatter  :     16.04s CPU     19.25s WALL ( 1392167 calls)

     PHONON       :  2m12.40s CPU     2m44.41s WALL

     INITIALIZATION: 
     phq_setup    :      0.24s CPU      0.41s WALL (       8 calls)
     phq_init     :      6.83s CPU      7.03s WALL (       8 calls)

     phq_init     :      6.83s CPU      7.03s WALL (       8 calls)
     set_drhoc    :      1.87s CPU      1.87s WALL (      24 calls)
     init_vloc    :      0.03s CPU      0.03s WALL (       8 calls)
     init_us_1    :      0.97s CPU      0.98s WALL (       8 calls)
     newd         :      0.12s CPU      0.13s WALL (       8 calls)
     dvanqq       :      1.19s CPU      1.19s WALL (       8 calls)
     drho         :      2.61s CPU      2.68s WALL (       8 calls)

     DYNAMICAL MATRIX:
     dynmat0      :      1.74s CPU      1.86s WALL (       8 calls)
     phqscf       :    111.84s CPU    138.44s WALL (       8 calls)
     dynmatrix    :      0.01s CPU      0.24s WALL (       8 calls)

     phqscf       :    111.84s CPU    138.44s WALL (       8 calls)
     solve_linter :    110.98s CPU    135.83s WALL (      32 calls)
     drhodv       :      0.58s CPU      0.60s WALL (      32 calls)

     dynmat0      :      1.74s CPU      1.86s WALL (       8 calls)
     dynmat_us    :      0.38s CPU      0.38s WALL (       8 calls)
     d2ionq       :      0.04s CPU      0.04s WALL (       8 calls)
     dynmatcc     :      1.32s CPU      1.33s WALL (       8 calls)

     dynmat_us    :      0.38s CPU      0.38s WALL (       8 calls)
     addusdynmat  :      0.00s CPU      0.00s WALL (       8 calls)

     phqscf       :    111.84s CPU    138.44s WALL (       8 calls)
     solve_linter :    110.98s CPU    135.83s WALL (      32 calls)

     solve_linter :    110.98s CPU    135.83s WALL (      32 calls)
     dvqpsi_us    :      2.13s CPU      2.28s WALL (    2508 calls)
     ortho        :      1.06s CPU      1.18s WALL (   13630 calls)
     cgsolve      :     76.47s CPU     83.15s WALL (   13630 calls)
     incdrhoscf   :      6.23s CPU      6.82s WALL (   13630 calls)
     addusddens   :      7.06s CPU      7.11s WALL (     202 calls)
     vpsifft      :      4.45s CPU      4.88s WALL (   11002 calls)
     dv_of_drho   :      1.26s CPU      1.29s WALL (     256 calls)
     mix_pot      :      0.35s CPU      8.82s WALL (     175 calls)
     psymdvscf    :      4.15s CPU      4.20s WALL (     170 calls)
     newdq        :      7.71s CPU      7.76s WALL (     175 calls)
     adddvscf     :      0.46s CPU      0.43s WALL (   11122 calls)
     drhodvus     :      0.01s CPU      0.02s WALL (      32 calls)

     dvqpsi_us    :      2.13s CPU      2.28s WALL (    2508 calls)
     dvqpsi_us_on :      0.92s CPU      0.96s WALL (    2508 calls)

     cgsolve      :     76.47s CPU     83.15s WALL (   13630 calls)
     ch_psi       :     75.35s CPU     81.40s WALL (  143193 calls)

     ch_psi       :     75.35s CPU     81.40s WALL (  143193 calls)
     h_psi        :     68.76s CPU     73.75s WALL (  154451 calls)
     last         :      9.01s CPU      9.19s WALL (  143193 calls)

     h_psi        :     68.76s CPU     73.75s WALL (  154451 calls)
     add_vuspsi   :      4.24s CPU      3.68s WALL (  154451 calls)

     incdrhoscf   :      6.23s CPU      6.82s WALL (   13630 calls)
     addusdbec    :      0.47s CPU      0.52s WALL (   16078 calls)

     drhodvus     :      0.01s CPU      0.02s WALL (      32 calls)

      General routines
     calbec       :      8.17s CPU      8.52s WALL (  345756 calls)
     fft          :      1.37s CPU      1.43s WALL (    5265 calls)
     ffts         :      0.21s CPU      0.23s WALL (    3320 calls)
     fftw         :     63.43s CPU     67.63s WALL ( 1383582 calls)
     davcio       :      0.32s CPU      1.01s WALL (   69876 calls)
     write_rec    :      0.22s CPU     10.05s WALL (     207 calls)


     PHONON       :  2m12.40s CPU     2m44.42s WALL


   This run was terminated on:  15:46: 1  10Nov2017            

=------------------------------------------------------------------------------=
   JOB DONE.
=------------------------------------------------------------------------------=
