
     Program PHONON v.6.1 (svn rev. 13369) starts on  9Nov2017 at 17:31:29 

     This program is part of the open-source Quantum ESPRESSO suite
     for quantum simulation of materials; please cite
         "P. Giannozzi et al., J. Phys.:Condens. Matter 21 395502 (2009);
          URL http://www.quantum-espresso.org", 
     in publications or presentations arising from this work. More details at
     http://www.quantum-espresso.org/quote

     Parallel version (MPI), running on     4 processors
     R & G space division:  proc/nbgrp/npool/nimage =       4

     Reading data from directory:
     ./silicon.10.399.save

   Info: using nr1, nr2, nr3 values from input

   Info: using nr1, nr2, nr3 values from input

     IMPORTANT: XC functional enforced from input :
     Exchange-correlation      = SLA  PW   PBE  PBE ( 1  4  3  4 0 0)
     Any further DFT definition will be discarded
     Please, verify this is what you really want


     Parallelization info
     --------------------
     sticks:   dense  smooth     PW     G-vecs:    dense   smooth      PW
     Min          66      66     22                  722      722     152
     Max          67      67     23                  724      724     153
     Sum         265     265     91                 2891     2891     609


     Check: negative/imaginary core charge=   -0.000006    0.000000


     Dynamical matrices for ( 4, 4, 4)  uniform grid of q-points
     (   8q-points):
       N         xq(1)         xq(2)         xq(3) 
       1   0.000000000   0.000000000   0.000000000
       2  -0.250000000   0.250000000  -0.250000000
       3   0.500000000  -0.500000000   0.500000000
       4   0.000000000   0.500000000   0.000000000
       5   0.750000000  -0.250000000   0.750000000
       6   0.500000000   0.000000000   0.500000000
       7   0.000000000  -1.000000000   0.000000000
       8  -0.500000000  -1.000000000   0.000000000

     Calculation of q =    0.0000000   0.0000000   0.0000000

                                                                                

     bravais-lattice index     =            2
     lattice parameter (alat)  =      10.3990  a.u.
     unit-cell volume          =     281.1349 (a.u.)^3
     number of atoms/cell      =            2
     number of atomic types    =            1
     kinetic-energy cut-off    =      18.0000  Ry
     charge density cut-off    =      72.0000  Ry
     convergence threshold     =      1.0E-12
     beta                      =       0.7000
     number of iterations used =            4
     Exchange-correlation      = SLA  PW   PBE  PBE ( 1  4  3  4 0 0)


     celldm(1)=   10.39900  celldm(2)=    0.00000  celldm(3)=    0.00000
     celldm(4)=    0.00000  celldm(5)=    0.00000  celldm(6)=    0.00000

     crystal axes: (cart. coord. in units of alat)
               a(1) = ( -0.5000  0.0000  0.5000 )  
               a(2) = (  0.0000  0.5000  0.5000 )  
               a(3) = ( -0.5000  0.5000  0.0000 )  

     reciprocal axes: (cart. coord. in units 2 pi/alat)
               b(1) = ( -1.0000 -1.0000  1.0000 )  
               b(2) = (  1.0000  1.0000  1.0000 )  
               b(3) = ( -1.0000  1.0000 -1.0000 )  


     Atoms inside the unit cell: 

     Cartesian axes

     site n.  atom      mass           positions (alat units)
        1     Si  28.0860   tau(    1) = (    0.00000    0.00000    0.00000  )
        2     Si  28.0860   tau(    2) = (    0.25000    0.25000    0.25000  )

     Computing dynamical matrix for 
                    q = (   0.0000000   0.0000000   0.0000000 )

     49 Sym.Ops. (with q -> -q+G )


     G cutoff =  197.2223  (    722 G-vectors)     FFT grid: ( 20, 20, 20)
     number of k points=    10

     PseudoPot. # 1 for Si read from file:
     /home/max/quantum_espresso/qe-6.1/pseudo/si_pbe_v1.uspp.F.UPF.txt
     MD5 check sum: a056efeee980c13900f22a371efd63c1
     Pseudo is Ultrasoft + core correction, Zval =  4.0
     Generated by new atomic code, or converted to UPF format
     Using radial grid of  899 points,  6 beta functions with: 
                l(1) =   0
                l(2) =   0
                l(3) =   1
                l(4) =   1
                l(5) =   2
                l(6) =   2
     Q(r) pseudized with  8 coefficients,  rinner =    0.900   0.900   0.900
                                                       0.900   0.900

     Mode symmetry, O_h (m-3m)  point group:


     Electric field:
     Dielectric constant
     Born effective charges in two ways 


     Atomic displacements:
     There are   2 irreducible representations

     Representation     1      3 modes -T_2g G_25' G_5+  To be done

     Representation     2      3 modes -T_1u G_15  G_4-  To be done



     Alpha used in Ewald sum =   0.7000
     PHONON       :     0.39s CPU         0.41s WALL


     Electric Fields Calculation

      iter #   1 total cpu time :     0.8 secs   av.it.:   5.6
      thresh= 1.000E-02 alpha_mix =  0.700 |ddv_scf|^2 =  9.565E-07

      iter #   2 total cpu time :     1.0 secs   av.it.:   9.9
      thresh= 9.780E-05 alpha_mix =  0.700 |ddv_scf|^2 =  6.240E-08

      iter #   3 total cpu time :     1.2 secs   av.it.:   9.8
      thresh= 2.498E-05 alpha_mix =  0.700 |ddv_scf|^2 =  4.956E-09

      iter #   4 total cpu time :     1.5 secs   av.it.:   9.0
      thresh= 7.040E-06 alpha_mix =  0.700 |ddv_scf|^2 =  3.004E-11

      iter #   5 total cpu time :     1.7 secs   av.it.:   9.2
      thresh= 5.481E-07 alpha_mix =  0.700 |ddv_scf|^2 =  1.541E-14

     End of electric fields calculation

          Dielectric constant in cartesian axis 

          (      14.018202188       0.000000000       0.000000000 )
          (       0.000000000      14.018202188      -0.000000000 )
          (      -0.000000000      -0.000000000      14.018202188 )

          Effective charges (d Force / dE) in cartesian axis

           atom      1   Si 
      Ex  (       -0.03361        0.00000       -0.00000 )
      Ey  (        0.00000       -0.03361        0.00000 )
      Ez  (        0.00000       -0.00000       -0.03361 )
           atom      2   Si 
      Ex  (       -0.03361        0.00000       -0.00000 )
      Ey  (        0.00000       -0.03361       -0.00000 )
      Ez  (       -0.00000        0.00000       -0.03361 )


     Representation #  1 modes #   1  2  3

     Self-consistent Calculation

      iter #   1 total cpu time :     2.1 secs   av.it.:   5.0
      thresh= 1.000E-02 alpha_mix =  0.700 |ddv_scf|^2 =  1.852E-07

      iter #   2 total cpu time :     2.2 secs   av.it.:  10.0
      thresh= 4.303E-05 alpha_mix =  0.700 |ddv_scf|^2 =  1.023E-08

      iter #   3 total cpu time :     2.4 secs   av.it.:   9.5
      thresh= 1.011E-05 alpha_mix =  0.700 |ddv_scf|^2 =  7.073E-10

      iter #   4 total cpu time :     2.6 secs   av.it.:   9.1
      thresh= 2.659E-06 alpha_mix =  0.700 |ddv_scf|^2 =  1.821E-12

      iter #   5 total cpu time :     2.8 secs   av.it.:   9.4
      thresh= 1.349E-07 alpha_mix =  0.700 |ddv_scf|^2 =  1.538E-14

     End of self-consistent calculation

     Convergence has been achieved 


     Representation #  2 modes #   4  5  6

     Self-consistent Calculation

      iter #   1 total cpu time :     3.0 secs   av.it.:   5.0
      thresh= 1.000E-02 alpha_mix =  0.700 |ddv_scf|^2 =  1.924E-07

      iter #   2 total cpu time :     3.3 secs   av.it.:   9.6
      thresh= 4.386E-05 alpha_mix =  0.700 |ddv_scf|^2 =  1.588E-08

      iter #   3 total cpu time :     3.5 secs   av.it.:   9.2
      thresh= 1.260E-05 alpha_mix =  0.700 |ddv_scf|^2 =  9.536E-10

      iter #   4 total cpu time :     3.7 secs   av.it.:   9.5
      thresh= 3.088E-06 alpha_mix =  0.700 |ddv_scf|^2 =  5.550E-12

      iter #   5 total cpu time :     3.9 secs   av.it.:   9.1
      thresh= 2.356E-07 alpha_mix =  0.700 |ddv_scf|^2 =  5.095E-15

     End of self-consistent calculation

     Convergence has been achieved 

     Number of q in the star =    1
     List of q in the star:
          1   0.000000000   0.000000000   0.000000000

          Dielectric constant in cartesian axis 

          (      14.018202188       0.000000000       0.000000000 )
          (       0.000000000      14.018202188      -0.000000000 )
          (      -0.000000000      -0.000000000      14.018202188 )

          Effective charges (d Force / dE) in cartesian axis

           atom      1   Si 
      Ex  (       -0.03361        0.00000       -0.00000 )
      Ey  (        0.00000       -0.03361        0.00000 )
      Ez  (        0.00000       -0.00000       -0.03361 )
           atom      2   Si 
      Ex  (       -0.03361        0.00000       -0.00000 )
      Ey  (        0.00000       -0.03361       -0.00000 )
      Ez  (       -0.00000        0.00000       -0.03361 )

          Effective charges (d P / du) in cartesian axis 

           atom      1   Si 
      Px  (       -0.07590       -0.00000       -0.00000 )
      Py  (       -0.00000       -0.07590        0.00000 )
      Pz  (       -0.00000        0.00000       -0.07590 )
           atom      2   Si 
      Px  (       -0.07590       -0.00000        0.00000 )
      Py  (        0.00000       -0.07590        0.00000 )
      Pz  (       -0.00000        0.00000       -0.07590 )

     Diagonalizing the dynamical matrix

     q = (    0.000000000   0.000000000   0.000000000 ) 

 **************************************************************************
     freq (    1) =       1.787359 [THz] =      59.619879 [cm-1]
     freq (    2) =       1.787359 [THz] =      59.619879 [cm-1]
     freq (    3) =       1.787359 [THz] =      59.619879 [cm-1]
     freq (    4) =      15.573846 [THz] =     519.487588 [cm-1]
     freq (    5) =      15.573846 [THz] =     519.487588 [cm-1]
     freq (    6) =      15.573846 [THz] =     519.487588 [cm-1]
 **************************************************************************

     Mode symmetry, O_h (m-3m)  point group:

     freq (  1 -  3) =         59.6  [cm-1]   --> T_1u G_15  G_4- I  
     freq (  4 -  6) =        519.5  [cm-1]   --> T_2g G_25' G_5+ R  

     Calculation of q =   -0.2500000   0.2500000  -0.2500000

   Info: using nr1, nr2, nr3 values from input

   Info: using nr1, nr2, nr3 values from input

     Parallelization info
     --------------------
     sticks:   dense  smooth     PW     G-vecs:    dense   smooth      PW
     Min          66      66     24                  722      722     161
     Max          67      67     25                  724      724     162
     Sum         265     265     97                 2891     2891     645



     bravais-lattice index     =            2
     lattice parameter (alat)  =      10.3990  a.u.
     unit-cell volume          =     281.1349 (a.u.)^3
     number of atoms/cell      =            2
     number of atomic types    =            1
     number of electrons       =         8.00
     number of Kohn-Sham states=            4
     kinetic-energy cutoff     =      18.0000  Ry
     charge density cutoff     =      72.0000  Ry
     Exchange-correlation      = SLA  PW   PBE  PBE ( 1  4  3  4 0 0)

     celldm(1)=  10.399000  celldm(2)=   0.000000  celldm(3)=   0.000000
     celldm(4)=   0.000000  celldm(5)=   0.000000  celldm(6)=   0.000000

     crystal axes: (cart. coord. in units of alat)
               a(1) = (  -0.500000   0.000000   0.500000 )  
               a(2) = (   0.000000   0.500000   0.500000 )  
               a(3) = (  -0.500000   0.500000   0.000000 )  

     reciprocal axes: (cart. coord. in units 2 pi/alat)
               b(1) = ( -1.000000 -1.000000  1.000000 )  
               b(2) = (  1.000000  1.000000  1.000000 )  
               b(3) = ( -1.000000  1.000000 -1.000000 )  


     PseudoPot. # 1 for Si read from file:
     /home/max/quantum_espresso/qe-6.1/pseudo/si_pbe_v1.uspp.F.UPF.txt
     MD5 check sum: a056efeee980c13900f22a371efd63c1
     Pseudo is Ultrasoft + core correction, Zval =  4.0
     Generated by new atomic code, or converted to UPF format
     Using radial grid of  899 points,  6 beta functions with: 
                l(1) =   0
                l(2) =   0
                l(3) =   1
                l(4) =   1
                l(5) =   2
                l(6) =   2
     Q(r) pseudized with  8 coefficients,  rinner =    0.900   0.900   0.900
                                                       0.900   0.900

     atomic species   valence    mass     pseudopotential
        Si             4.00    28.08600     Si( 1.00)

     48 Sym. Ops., with inversion, found



   Cartesian axes

     site n.     atom                  positions (alat units)
         1           Si  tau(   1) = (   0.0000000   0.0000000   0.0000000  )
         2           Si  tau(   2) = (   0.2500000   0.2500000   0.2500000  )

     number of k points=   120

     Number of k-points >= 100: set verbosity='high' to print them.

     Dense  grid:     2891 G-vectors     FFT dimensions: (  20,  20,  20)

     Estimated max dynamical RAM per process >       0.33MB

     Estimated total allocated dynamical RAM >       1.33MB

     Check: negative/imaginary core charge=   -0.000006    0.000000

     The potential is recalculated from file :
     ./_ph0/silicon.10.399.save/charge-density.dat

     Starting wfc are    8 atomic wfcs

     Band Structure Calculation
     Davidson diagonalization with overlap

     ethr =  1.25E-10,  avg # of iterations = 11.7

     total cpu time spent up to now is        0.8 secs

     End of band structure calculation

     Number of k-points >= 100: set verbosity='high' to print the bands.

     highest occupied level (ev):     5.5129

     Writing output data file silicon.10.399.save

                                                                                

     bravais-lattice index     =            2
     lattice parameter (alat)  =      10.3990  a.u.
     unit-cell volume          =     281.1349 (a.u.)^3
     number of atoms/cell      =            2
     number of atomic types    =            1
     kinetic-energy cut-off    =      18.0000  Ry
     charge density cut-off    =      72.0000  Ry
     convergence threshold     =      1.0E-12
     beta                      =       0.7000
     number of iterations used =            4
     Exchange-correlation      = SLA  PW   PBE  PBE ( 1  4  3  4 0 0)


     celldm(1)=   10.39900  celldm(2)=    0.00000  celldm(3)=    0.00000
     celldm(4)=    0.00000  celldm(5)=    0.00000  celldm(6)=    0.00000

     crystal axes: (cart. coord. in units of alat)
               a(1) = ( -0.5000  0.0000  0.5000 )  
               a(2) = (  0.0000  0.5000  0.5000 )  
               a(3) = ( -0.5000  0.5000  0.0000 )  

     reciprocal axes: (cart. coord. in units 2 pi/alat)
               b(1) = ( -1.0000 -1.0000  1.0000 )  
               b(2) = (  1.0000  1.0000  1.0000 )  
               b(3) = ( -1.0000  1.0000 -1.0000 )  


     Atoms inside the unit cell: 

     Cartesian axes

     site n.  atom      mass           positions (alat units)
        1     Si  28.0860   tau(    1) = (    0.00000    0.00000    0.00000  )
        2     Si  28.0860   tau(    2) = (    0.25000    0.25000    0.25000  )

     Computing dynamical matrix for 
                    q = (  -0.2500000   0.2500000  -0.2500000 )

      6 Sym.Ops. (no q -> -q+G )


     G cutoff =  197.2223  (    722 G-vectors)     FFT grid: ( 20, 20, 20)
     number of k points=   120

     PseudoPot. # 1 for Si read from file:
     /home/max/quantum_espresso/qe-6.1/pseudo/si_pbe_v1.uspp.F.UPF.txt
     MD5 check sum: a056efeee980c13900f22a371efd63c1
     Pseudo is Ultrasoft + core correction, Zval =  4.0
     Generated by new atomic code, or converted to UPF format
     Using radial grid of  899 points,  6 beta functions with: 
                l(1) =   0
                l(2) =   0
                l(3) =   1
                l(4) =   1
                l(5) =   2
                l(6) =   2
     Q(r) pseudized with  8 coefficients,  rinner =    0.900   0.900   0.900
                                                       0.900   0.900

     Mode symmetry, C_3v (3m)   point group:


     Atomic displacements:
     There are   4 irreducible representations

     Representation     1      1 modes -A_1  L_1  To be done

     Representation     2      1 modes -A_1  L_1  To be done

     Representation     3      2 modes -E    L_3  To be done

     Representation     4      2 modes -E    L_3  To be done



     Alpha used in Ewald sum =   0.7000
     PHONON       :     4.89s CPU         5.12s WALL



     Representation #  1 mode #   1

     Self-consistent Calculation

      iter #   1 total cpu time :     5.5 secs   av.it.:   5.5
      thresh= 1.000E-02 alpha_mix =  0.700 |ddv_scf|^2 =  2.433E-03

      iter #   2 total cpu time :     5.7 secs   av.it.:   7.5
      thresh= 4.933E-03 alpha_mix =  0.700 |ddv_scf|^2 =  3.698E-02

      iter #   3 total cpu time :     5.9 secs   av.it.:   6.3
      thresh= 1.000E-02 alpha_mix =  0.700 |ddv_scf|^2 =  1.651E-06

      iter #   4 total cpu time :     6.2 secs   av.it.:   8.2
      thresh= 1.285E-04 alpha_mix =  0.700 |ddv_scf|^2 =  1.056E-07

      iter #   5 total cpu time :     6.5 secs   av.it.:   8.1
      thresh= 3.249E-05 alpha_mix =  0.700 |ddv_scf|^2 =  5.406E-09

      iter #   6 total cpu time :     6.7 secs   av.it.:   8.0
      thresh= 7.352E-06 alpha_mix =  0.700 |ddv_scf|^2 =  4.029E-09

      iter #   7 total cpu time :     6.9 secs   av.it.:   6.3
      thresh= 6.348E-06 alpha_mix =  0.700 |ddv_scf|^2 =  8.477E-10

      iter #   8 total cpu time :     7.3 secs   av.it.:   7.1
      thresh= 2.912E-06 alpha_mix =  0.700 |ddv_scf|^2 =  1.228E-11

      iter #   9 total cpu time :     7.6 secs   av.it.:   6.8
      thresh= 3.504E-07 alpha_mix =  0.700 |ddv_scf|^2 =  1.076E-12

      iter #  10 total cpu time :     7.8 secs   av.it.:   7.3
      thresh= 1.037E-07 alpha_mix =  0.700 |ddv_scf|^2 =  7.182E-14

     End of self-consistent calculation

     Convergence has been achieved 


     Representation #  2 mode #   2

     Self-consistent Calculation

      iter #   1 total cpu time :     8.1 secs   av.it.:   5.5
      thresh= 1.000E-02 alpha_mix =  0.700 |ddv_scf|^2 =  2.433E-03

      iter #   2 total cpu time :     8.3 secs   av.it.:   7.5
      thresh= 4.933E-03 alpha_mix =  0.700 |ddv_scf|^2 =  3.698E-02

      iter #   3 total cpu time :     8.5 secs   av.it.:   6.3
      thresh= 1.000E-02 alpha_mix =  0.700 |ddv_scf|^2 =  1.651E-06

      iter #   4 total cpu time :     8.8 secs   av.it.:   8.2
      thresh= 1.285E-04 alpha_mix =  0.700 |ddv_scf|^2 =  1.056E-07

      iter #   5 total cpu time :     9.0 secs   av.it.:   8.1
      thresh= 3.249E-05 alpha_mix =  0.700 |ddv_scf|^2 =  5.406E-09

      iter #   6 total cpu time :     9.5 secs   av.it.:   8.0
      thresh= 7.352E-06 alpha_mix =  0.700 |ddv_scf|^2 =  4.029E-09

      iter #   7 total cpu time :     9.7 secs   av.it.:   6.3
      thresh= 6.348E-06 alpha_mix =  0.700 |ddv_scf|^2 =  8.477E-10

      iter #   8 total cpu time :     9.9 secs   av.it.:   7.1
      thresh= 2.912E-06 alpha_mix =  0.700 |ddv_scf|^2 =  1.228E-11

      iter #   9 total cpu time :    10.2 secs   av.it.:   6.8
      thresh= 3.504E-07 alpha_mix =  0.700 |ddv_scf|^2 =  1.076E-12

      iter #  10 total cpu time :    10.4 secs   av.it.:   7.3
      thresh= 1.037E-07 alpha_mix =  0.700 |ddv_scf|^2 =  7.182E-14

     End of self-consistent calculation

     Convergence has been achieved 


     Representation #  3 modes #   3  4

     Self-consistent Calculation

      iter #   1 total cpu time :    10.8 secs   av.it.:   5.0
      thresh= 1.000E-02 alpha_mix =  0.700 |ddv_scf|^2 =  5.354E-07

      iter #   2 total cpu time :    11.5 secs   av.it.:   9.6
      thresh= 7.317E-05 alpha_mix =  0.700 |ddv_scf|^2 =  4.013E-08

      iter #   3 total cpu time :    12.1 secs   av.it.:   9.3
      thresh= 2.003E-05 alpha_mix =  0.700 |ddv_scf|^2 =  3.453E-09

      iter #   4 total cpu time :    12.7 secs   av.it.:   9.0
      thresh= 5.876E-06 alpha_mix =  0.700 |ddv_scf|^2 =  1.141E-11

      iter #   5 total cpu time :    13.4 secs   av.it.:   9.2
      thresh= 3.377E-07 alpha_mix =  0.700 |ddv_scf|^2 =  5.093E-13

     End of self-consistent calculation

     Convergence has been achieved 


     Representation #  4 modes #   5  6

     Self-consistent Calculation

      iter #   1 total cpu time :    13.8 secs   av.it.:   5.0
      thresh= 1.000E-02 alpha_mix =  0.700 |ddv_scf|^2 =  5.352E-07

      iter #   2 total cpu time :    14.4 secs   av.it.:   9.7
      thresh= 7.316E-05 alpha_mix =  0.700 |ddv_scf|^2 =  4.007E-08

      iter #   3 total cpu time :    15.0 secs   av.it.:   9.4
      thresh= 2.002E-05 alpha_mix =  0.700 |ddv_scf|^2 =  3.449E-09

      iter #   4 total cpu time :    15.7 secs   av.it.:   9.1
      thresh= 5.873E-06 alpha_mix =  0.700 |ddv_scf|^2 =  1.141E-11

      iter #   5 total cpu time :    16.2 secs   av.it.:   9.2
      thresh= 3.378E-07 alpha_mix =  0.700 |ddv_scf|^2 =  5.095E-13

     End of self-consistent calculation

     Convergence has been achieved 

     Number of q in the star =    8
     List of q in the star:
          1  -0.250000000   0.250000000  -0.250000000
          2   0.250000000  -0.250000000  -0.250000000
          3   0.250000000  -0.250000000   0.250000000
          4   0.250000000   0.250000000   0.250000000
          5  -0.250000000  -0.250000000  -0.250000000
          6  -0.250000000  -0.250000000   0.250000000
          7  -0.250000000   0.250000000   0.250000000
          8   0.250000000   0.250000000  -0.250000000

     Diagonalizing the dynamical matrix

     q = (   -0.250000000   0.250000000  -0.250000000 ) 

 **************************************************************************
     freq (    1) =       3.411316 [THz] =     113.789269 [cm-1]
     freq (    2) =       3.411316 [THz] =     113.789269 [cm-1]
     freq (    3) =       6.843457 [THz] =     228.273147 [cm-1]
     freq (    4) =      14.676896 [THz] =     489.568552 [cm-1]
     freq (    5) =      14.951027 [THz] =     498.712563 [cm-1]
     freq (    6) =      14.951027 [THz] =     498.712563 [cm-1]
 **************************************************************************

     Mode symmetry, C_3v (3m)   point group:

     freq (  1 -  2) =        113.8  [cm-1]   --> E    L_3           
     freq (  3 -  3) =        228.3  [cm-1]   --> A_1  L_1           
     freq (  4 -  4) =        489.6  [cm-1]   --> A_1  L_1           
     freq (  5 -  6) =        498.7  [cm-1]   --> E    L_3           

     Calculation of q =    0.5000000  -0.5000000   0.5000000

   Info: using nr1, nr2, nr3 values from input

   Info: using nr1, nr2, nr3 values from input

     Parallelization info
     --------------------
     sticks:   dense  smooth     PW     G-vecs:    dense   smooth      PW
     Min          66      66     27                  722      722     186
     Max          67      67     28                  724      724     189
     Sum         265     265    109                 2891     2891     749



     bravais-lattice index     =            2
     lattice parameter (alat)  =      10.3990  a.u.
     unit-cell volume          =     281.1349 (a.u.)^3
     number of atoms/cell      =            2
     number of atomic types    =            1
     number of electrons       =         8.00
     number of Kohn-Sham states=            4
     kinetic-energy cutoff     =      18.0000  Ry
     charge density cutoff     =      72.0000  Ry
     Exchange-correlation      = SLA  PW   PBE  PBE ( 1  4  3  4 0 0)

     celldm(1)=  10.399000  celldm(2)=   0.000000  celldm(3)=   0.000000
     celldm(4)=   0.000000  celldm(5)=   0.000000  celldm(6)=   0.000000

     crystal axes: (cart. coord. in units of alat)
               a(1) = (  -0.500000   0.000000   0.500000 )  
               a(2) = (   0.000000   0.500000   0.500000 )  
               a(3) = (  -0.500000   0.500000   0.000000 )  

     reciprocal axes: (cart. coord. in units 2 pi/alat)
               b(1) = ( -1.000000 -1.000000  1.000000 )  
               b(2) = (  1.000000  1.000000  1.000000 )  
               b(3) = ( -1.000000  1.000000 -1.000000 )  


     PseudoPot. # 1 for Si read from file:
     /home/max/quantum_espresso/qe-6.1/pseudo/si_pbe_v1.uspp.F.UPF.txt
     MD5 check sum: a056efeee980c13900f22a371efd63c1
     Pseudo is Ultrasoft + core correction, Zval =  4.0
     Generated by new atomic code, or converted to UPF format
     Using radial grid of  899 points,  6 beta functions with: 
                l(1) =   0
                l(2) =   0
                l(3) =   1
                l(4) =   1
                l(5) =   2
                l(6) =   2
     Q(r) pseudized with  8 coefficients,  rinner =    0.900   0.900   0.900
                                                       0.900   0.900

     atomic species   valence    mass     pseudopotential
        Si             4.00    28.08600     Si( 1.00)

     48 Sym. Ops., with inversion, found



   Cartesian axes

     site n.     atom                  positions (alat units)
         1           Si  tau(   1) = (   0.0000000   0.0000000   0.0000000  )
         2           Si  tau(   2) = (   0.2500000   0.2500000   0.2500000  )

     number of k points=    60
                       cart. coord. in units 2pi/alat
        k(    1) = (  -0.1250000   0.1250000   0.1250000), wk =   0.0468750
        k(    2) = (   0.3750000  -0.3750000   0.6250000), wk =   0.0000000
        k(    3) = (  -0.3750000   0.3750000  -0.1250000), wk =   0.0468750
        k(    4) = (   0.1250000  -0.1250000   0.3750000), wk =   0.0000000
        k(    5) = (   0.3750000  -0.3750000   0.6250000), wk =   0.0468750
        k(    6) = (   0.8750000  -0.8750000   1.1250000), wk =   0.0000000
        k(    7) = (   0.1250000  -0.1250000   0.3750000), wk =   0.0468750
        k(    8) = (   0.6250000  -0.6250000   0.8750000), wk =   0.0000000
        k(    9) = (  -0.1250000   0.6250000   0.1250000), wk =   0.0937500
        k(   10) = (   0.3750000   0.1250000   0.6250000), wk =   0.0000000
        k(   11) = (   0.6250000  -0.1250000   0.8750000), wk =   0.0937500
        k(   12) = (   1.1250000  -0.6250000   1.3750000), wk =   0.0000000
        k(   13) = (   0.3750000   0.1250000   0.6250000), wk =   0.0937500
        k(   14) = (   0.8750000  -0.3750000   1.1250000), wk =   0.0000000
        k(   15) = (  -0.1250000  -0.8750000   0.1250000), wk =   0.0937500
        k(   16) = (   0.3750000  -1.3750000   0.6250000), wk =   0.0000000
        k(   17) = (  -0.3750000   0.3750000   0.3750000), wk =   0.0468750
        k(   18) = (   0.1250000  -0.1250000   0.8750000), wk =   0.0000000
        k(   19) = (   0.3750000  -0.3750000   1.1250000), wk =   0.0468750
        k(   20) = (   0.8750000  -0.8750000   1.6250000), wk =   0.0000000
        k(   21) = (   0.1250000  -0.1250000   0.1250000), wk =   0.0156250
        k(   22) = (   0.6250000  -0.6250000   0.6250000), wk =   0.0000000
        k(   23) = (  -0.3750000  -0.3750000  -0.1250000), wk =   0.0937500
        k(   24) = (   0.1250000  -0.8750000   0.3750000), wk =   0.0000000
        k(   25) = (  -0.1250000  -0.3750000   0.3750000), wk =   0.0468750
        k(   26) = (   0.3750000  -0.8750000   0.8750000), wk =   0.0000000
        k(   27) = (   0.3750000   0.3750000   0.6250000), wk =   0.0937500
        k(   28) = (   0.8750000  -0.1250000   1.1250000), wk =   0.0000000
        k(   29) = (   0.6250000   0.3750000  -0.3750000), wk =   0.0468750
        k(   30) = (   1.1250000  -0.1250000   0.1250000), wk =   0.0000000
        k(   31) = (   0.1250000   0.1250000   0.3750000), wk =   0.0937500
        k(   32) = (   0.6250000  -0.3750000   0.8750000), wk =   0.0000000
        k(   33) = (   0.3750000   0.1250000  -0.1250000), wk =   0.0468750
        k(   34) = (   0.8750000  -0.3750000   0.3750000), wk =   0.0000000
        k(   35) = (  -0.1250000  -0.6250000  -0.1250000), wk =   0.0468750
        k(   36) = (   0.3750000  -1.1250000   0.3750000), wk =   0.0000000
        k(   37) = (   0.1250000  -0.6250000   0.1250000), wk =   0.0468750
        k(   38) = (   0.6250000  -1.1250000   0.6250000), wk =   0.0000000
        k(   39) = (   0.6250000   0.1250000   0.8750000), wk =   0.0937500
        k(   40) = (   1.1250000  -0.3750000   1.3750000), wk =   0.0000000
        k(   41) = (  -0.8750000   0.1250000   0.6250000), wk =   0.0937500
        k(   42) = (  -0.3750000  -0.3750000   1.1250000), wk =   0.0000000
        k(   43) = (   0.8750000   0.1250000  -0.6250000), wk =   0.0937500
        k(   44) = (   1.3750000  -0.3750000  -0.1250000), wk =   0.0000000
        k(   45) = (   0.3750000  -0.1250000   0.6250000), wk =   0.0937500
        k(   46) = (   0.8750000  -0.6250000   1.1250000), wk =   0.0000000
        k(   47) = (  -0.6250000  -0.1250000   0.3750000), wk =   0.0937500
        k(   48) = (  -0.1250000  -0.6250000   0.8750000), wk =   0.0000000
        k(   49) = (   0.6250000  -0.1250000  -0.3750000), wk =   0.0937500
        k(   50) = (   1.1250000  -0.6250000   0.1250000), wk =   0.0000000
        k(   51) = (  -0.1250000   0.8750000  -0.1250000), wk =   0.0468750
        k(   52) = (   0.3750000   0.3750000   0.3750000), wk =   0.0000000
        k(   53) = (   0.1250000   0.8750000   0.1250000), wk =   0.0468750
        k(   54) = (   0.6250000   0.3750000   0.6250000), wk =   0.0000000
        k(   55) = (   0.3750000  -0.3750000   0.3750000), wk =   0.0156250
        k(   56) = (   0.8750000  -0.8750000   0.8750000), wk =   0.0000000
        k(   57) = (   0.3750000   0.3750000   1.1250000), wk =   0.0937500
        k(   58) = (   0.8750000  -0.1250000   1.6250000), wk =   0.0000000
        k(   59) = (   1.1250000   0.3750000  -0.3750000), wk =   0.0468750
        k(   60) = (   1.6250000  -0.1250000   0.1250000), wk =   0.0000000

     Dense  grid:     2891 G-vectors     FFT dimensions: (  20,  20,  20)

     Estimated max dynamical RAM per process >       0.33MB

     Estimated total allocated dynamical RAM >       1.33MB

     Check: negative/imaginary core charge=   -0.000006    0.000000

     The potential is recalculated from file :
     ./_ph0/silicon.10.399.save/charge-density.dat

     Starting wfc are    8 atomic wfcs

     Band Structure Calculation
     Davidson diagonalization with overlap

     ethr =  1.25E-10,  avg # of iterations = 11.7

     total cpu time spent up to now is        1.3 secs

     End of band structure calculation

          k =-0.1250 0.1250 0.1250 (   353 PWs)   bands (ev):

    -5.6997   4.2017   5.5129   5.5129

          k = 0.3750-0.3750 0.6250 (   364 PWs)   bands (ev):

    -3.5831  -0.7897   3.5741   4.2816

          k =-0.3750 0.3750-0.1250 (   362 PWs)   bands (ev):

    -4.6933   1.2417   3.5643   5.0359

          k = 0.1250-0.1250 0.3750 (   358 PWs)   bands (ev):

    -5.1815   2.5924   4.5262   4.5789

          k = 0.3750-0.3750 0.6250 (   364 PWs)   bands (ev):

    -3.5831  -0.7897   3.5741   4.2816

          k = 0.8750-0.8750 1.1250 (   353 PWs)   bands (ev):

    -5.6997   4.2017   5.5129   5.5129

          k = 0.1250-0.1250 0.3750 (   358 PWs)   bands (ev):

    -5.1815   2.5924   4.5262   4.5789

          k = 0.6250-0.6250 0.8750 (   362 PWs)   bands (ev):

    -4.6933   1.2417   3.5643   5.0359

          k =-0.1250 0.6250 0.1250 (   357 PWs)   bands (ev):

    -4.1696   0.8868   3.2273   3.6674

          k = 0.3750 0.1250 0.6250 (   365 PWs)   bands (ev):

    -3.7651   0.0419   2.5954   3.9385

          k = 0.6250-0.1250 0.8750 (   368 PWs)   bands (ev):

    -2.5677  -1.0461   1.9112   2.9610

          k = 1.1250-0.6250 1.3750 (   362 PWs)   bands (ev):

    -4.6933   1.2417   3.5643   5.0359

          k = 0.3750 0.1250 0.6250 (   365 PWs)   bands (ev):

    -3.7651   0.0419   2.5954   3.9385

          k = 0.8750-0.3750 1.1250 (   357 PWs)   bands (ev):

    -4.1696   0.8868   3.2273   3.6674

          k =-0.1250-0.8750 0.1250 (   364 PWs)   bands (ev):

    -2.7261  -0.9533   2.5042   3.2082

          k = 0.3750-1.3750 0.6250 (   364 PWs)   bands (ev):

    -3.5831  -0.7897   3.5741   4.2816

          k =-0.3750 0.3750 0.3750 (   359 PWs)   bands (ev):

    -4.2710  -0.0146   4.7351   4.7351

          k = 0.1250-0.1250 0.8750 (   364 PWs)   bands (ev):

    -2.7261  -0.9533   2.5042   3.2082

          k = 0.3750-0.3750 1.1250 (   369 PWs)   bands (ev):

    -3.0962  -0.7308   1.9601   3.9720

          k = 0.8750-0.8750 1.6250 (   357 PWs)   bands (ev):

    -4.1696   0.8868   3.2273   3.6674

          k = 0.1250-0.1250 0.1250 (   353 PWs)   bands (ev):

    -5.6997   4.2017   5.5129   5.5129

          k = 0.6250-0.6250 0.6250 (   359 PWs)   bands (ev):

    -4.2710  -0.0146   4.7351   4.7351

          k =-0.3750-0.3750-0.1250 (   362 PWs)   bands (ev):

    -4.6933   1.2417   3.5643   5.0359

          k = 0.1250-0.8750 0.3750 (   368 PWs)   bands (ev):

    -2.5677  -1.0461   1.9112   2.9610

          k =-0.1250-0.3750 0.3750 (   362 PWs)   bands (ev):

    -4.6933   1.2417   3.5643   5.0359

          k = 0.3750-0.8750 0.8750 (   357 PWs)   bands (ev):

    -4.1696   0.8868   3.2273   3.6674

          k = 0.3750 0.3750 0.6250 (   364 PWs)   bands (ev):

    -3.5831  -0.7897   3.5741   4.2816

          k = 0.8750-0.1250 1.1250 (   364 PWs)   bands (ev):

    -2.7261  -0.9533   2.5042   3.2082

          k = 0.6250 0.3750-0.3750 (   364 PWs)   bands (ev):

    -3.5831  -0.7897   3.5741   4.2816

          k = 1.1250-0.1250 0.1250 (   364 PWs)   bands (ev):

    -2.7261  -0.9533   2.5042   3.2082

          k = 0.1250 0.1250 0.3750 (   358 PWs)   bands (ev):

    -5.1815   2.5924   4.5262   4.5789

          k = 0.6250-0.3750 0.8750 (   365 PWs)   bands (ev):

    -3.7651   0.0419   2.5954   3.9385

          k = 0.3750 0.1250-0.1250 (   358 PWs)   bands (ev):

    -5.1815   2.5924   4.5262   4.5789

          k = 0.8750-0.3750 0.3750 (   369 PWs)   bands (ev):

    -3.0962  -0.7308   1.9601   3.9720

          k =-0.1250-0.6250-0.1250 (   357 PWs)   bands (ev):

    -4.1696   0.8868   3.2273   3.6674

          k = 0.3750-1.1250 0.3750 (   369 PWs)   bands (ev):

    -3.0962  -0.7308   1.9601   3.9720

          k = 0.1250-0.6250 0.1250 (   357 PWs)   bands (ev):

    -4.1696   0.8868   3.2273   3.6674

          k = 0.6250-1.1250 0.6250 (   362 PWs)   bands (ev):

    -4.6933   1.2417   3.5643   5.0359

          k = 0.6250 0.1250 0.8750 (   368 PWs)   bands (ev):

    -2.5677  -1.0461   1.9112   2.9610

          k = 1.1250-0.3750 1.3750 (   365 PWs)   bands (ev):

    -3.7651   0.0419   2.5954   3.9385

          k =-0.8750 0.1250 0.6250 (   368 PWs)   bands (ev):

    -2.5677  -1.0461   1.9112   2.9610

          k =-0.3750-0.3750 1.1250 (   369 PWs)   bands (ev):

    -3.0962  -0.7308   1.9601   3.9720

          k = 0.8750 0.1250-0.6250 (   368 PWs)   bands (ev):

    -2.5677  -1.0461   1.9112   2.9610

          k = 1.3750-0.3750-0.1250 (   365 PWs)   bands (ev):

    -3.7651   0.0419   2.5954   3.9385

          k = 0.3750-0.1250 0.6250 (   365 PWs)   bands (ev):

    -3.7651   0.0419   2.5954   3.9385

          k = 0.8750-0.6250 1.1250 (   358 PWs)   bands (ev):

    -5.1815   2.5924   4.5262   4.5789

          k =-0.6250-0.1250 0.3750 (   365 PWs)   bands (ev):

    -3.7651   0.0419   2.5954   3.9385

          k =-0.1250-0.6250 0.8750 (   368 PWs)   bands (ev):

    -2.5677  -1.0461   1.9112   2.9610

          k = 0.6250-0.1250-0.3750 (   365 PWs)   bands (ev):

    -3.7651   0.0419   2.5954   3.9385

          k = 1.1250-0.6250 0.1250 (   368 PWs)   bands (ev):

    -2.5677  -1.0461   1.9112   2.9610

          k =-0.1250 0.8750-0.1250 (   364 PWs)   bands (ev):

    -2.7261  -0.9533   2.5042   3.2082

          k = 0.3750 0.3750 0.3750 (   359 PWs)   bands (ev):

    -4.2710  -0.0146   4.7351   4.7351

          k = 0.1250 0.8750 0.1250 (   364 PWs)   bands (ev):

    -2.7261  -0.9533   2.5042   3.2082

          k = 0.6250 0.3750 0.6250 (   364 PWs)   bands (ev):

    -3.5831  -0.7897   3.5741   4.2816

          k = 0.3750-0.3750 0.3750 (   359 PWs)   bands (ev):

    -4.2710  -0.0146   4.7351   4.7351

          k = 0.8750-0.8750 0.8750 (   353 PWs)   bands (ev):

    -5.6997   4.2017   5.5129   5.5129

          k = 0.3750 0.3750 1.1250 (   369 PWs)   bands (ev):

    -3.0962  -0.7308   1.9601   3.9720

          k = 0.8750-0.1250 1.6250 (   368 PWs)   bands (ev):

    -2.5677  -1.0461   1.9112   2.9610

          k = 1.1250 0.3750-0.3750 (   369 PWs)   bands (ev):

    -3.0962  -0.7308   1.9601   3.9720

          k = 1.6250-0.1250 0.1250 (   358 PWs)   bands (ev):

    -5.1815   2.5924   4.5262   4.5789

     highest occupied level (ev):     5.5129

     Writing output data file silicon.10.399.save

                                                                                

     bravais-lattice index     =            2
     lattice parameter (alat)  =      10.3990  a.u.
     unit-cell volume          =     281.1349 (a.u.)^3
     number of atoms/cell      =            2
     number of atomic types    =            1
     kinetic-energy cut-off    =      18.0000  Ry
     charge density cut-off    =      72.0000  Ry
     convergence threshold     =      1.0E-12
     beta                      =       0.7000
     number of iterations used =            4
     Exchange-correlation      = SLA  PW   PBE  PBE ( 1  4  3  4 0 0)


     celldm(1)=   10.39900  celldm(2)=    0.00000  celldm(3)=    0.00000
     celldm(4)=    0.00000  celldm(5)=    0.00000  celldm(6)=    0.00000

     crystal axes: (cart. coord. in units of alat)
               a(1) = ( -0.5000  0.0000  0.5000 )  
               a(2) = (  0.0000  0.5000  0.5000 )  
               a(3) = ( -0.5000  0.5000  0.0000 )  

     reciprocal axes: (cart. coord. in units 2 pi/alat)
               b(1) = ( -1.0000 -1.0000  1.0000 )  
               b(2) = (  1.0000  1.0000  1.0000 )  
               b(3) = ( -1.0000  1.0000 -1.0000 )  


     Atoms inside the unit cell: 

     Cartesian axes

     site n.  atom      mass           positions (alat units)
        1     Si  28.0860   tau(    1) = (    0.00000    0.00000    0.00000  )
        2     Si  28.0860   tau(    2) = (    0.25000    0.25000    0.25000  )

     Computing dynamical matrix for 
                    q = (   0.5000000  -0.5000000   0.5000000 )

     13 Sym.Ops. (with q -> -q+G )


     G cutoff =  197.2223  (    722 G-vectors)     FFT grid: ( 20, 20, 20)
     number of k points=    60

     PseudoPot. # 1 for Si read from file:
     /home/max/quantum_espresso/qe-6.1/pseudo/si_pbe_v1.uspp.F.UPF.txt
     MD5 check sum: a056efeee980c13900f22a371efd63c1
     Pseudo is Ultrasoft + core correction, Zval =  4.0
     Generated by new atomic code, or converted to UPF format
     Using radial grid of  899 points,  6 beta functions with: 
                l(1) =   0
                l(2) =   0
                l(3) =   1
                l(4) =   1
                l(5) =   2
                l(6) =   2
     Q(r) pseudized with  8 coefficients,  rinner =    0.900   0.900   0.900
                                                       0.900   0.900


     Atomic displacements:
     There are   4 irreducible representations

     Representation     1      1 modes -  To be done

     Representation     2      1 modes -  To be done

     Representation     3      2 modes -  To be done

     Representation     4      2 modes -  To be done



     Alpha used in Ewald sum =   0.7000
     PHONON       :    15.94s CPU        16.97s WALL



     Representation #  1 mode #   1

     Self-consistent Calculation

      iter #   1 total cpu time :    17.1 secs   av.it.:   4.8
      thresh= 1.000E-02 alpha_mix =  0.700 |ddv_scf|^2 =  2.436E-05

      iter #   2 total cpu time :    17.4 secs   av.it.:   8.4
      thresh= 4.935E-04 alpha_mix =  0.700 |ddv_scf|^2 =  2.220E-05

      iter #   3 total cpu time :    17.5 secs   av.it.:   7.5
      thresh= 4.712E-04 alpha_mix =  0.700 |ddv_scf|^2 =  3.797E-08

      iter #   4 total cpu time :    17.7 secs   av.it.:   7.5
      thresh= 1.948E-05 alpha_mix =  0.700 |ddv_scf|^2 =  2.437E-10

      iter #   5 total cpu time :    17.8 secs   av.it.:   7.3
      thresh= 1.561E-06 alpha_mix =  0.700 |ddv_scf|^2 =  3.113E-12

      iter #   6 total cpu time :    17.9 secs   av.it.:   7.5
      thresh= 1.764E-07 alpha_mix =  0.700 |ddv_scf|^2 =  7.202E-14

     End of self-consistent calculation

     Convergence has been achieved 


     Representation #  2 mode #   2

     Self-consistent Calculation

      iter #   1 total cpu time :    18.1 secs   av.it.:   5.6
      thresh= 1.000E-02 alpha_mix =  0.700 |ddv_scf|^2 =  3.504E-04

      iter #   2 total cpu time :    18.2 secs   av.it.:   8.3
      thresh= 1.872E-03 alpha_mix =  0.700 |ddv_scf|^2 =  1.079E-03

      iter #   3 total cpu time :    18.3 secs   av.it.:   7.1
      thresh= 3.284E-03 alpha_mix =  0.700 |ddv_scf|^2 =  1.787E-07

      iter #   4 total cpu time :    18.5 secs   av.it.:   8.1
      thresh= 4.227E-05 alpha_mix =  0.700 |ddv_scf|^2 =  1.248E-08

      iter #   5 total cpu time :    18.6 secs   av.it.:   8.3
      thresh= 1.117E-05 alpha_mix =  0.700 |ddv_scf|^2 =  3.714E-10

      iter #   6 total cpu time :    18.8 secs   av.it.:   8.2
      thresh= 1.927E-06 alpha_mix =  0.700 |ddv_scf|^2 =  4.654E-12

      iter #   7 total cpu time :    18.9 secs   av.it.:   7.4
      thresh= 2.157E-07 alpha_mix =  0.700 |ddv_scf|^2 =  1.277E-13

     End of self-consistent calculation

     Convergence has been achieved 


     Representation #  3 modes #   3  4

     Self-consistent Calculation

      iter #   1 total cpu time :    19.1 secs   av.it.:   4.7
      thresh= 1.000E-02 alpha_mix =  0.700 |ddv_scf|^2 =  3.411E-07

      iter #   2 total cpu time :    19.6 secs   av.it.:   8.9
      thresh= 5.840E-05 alpha_mix =  0.700 |ddv_scf|^2 =  2.940E-08

      iter #   3 total cpu time :    19.9 secs   av.it.:   8.3
      thresh= 1.715E-05 alpha_mix =  0.700 |ddv_scf|^2 =  5.115E-10

      iter #   4 total cpu time :    20.1 secs   av.it.:   8.9
      thresh= 2.262E-06 alpha_mix =  0.700 |ddv_scf|^2 =  6.438E-12

      iter #   5 total cpu time :    20.4 secs   av.it.:   8.7
      thresh= 2.537E-07 alpha_mix =  0.700 |ddv_scf|^2 =  3.586E-14

     End of self-consistent calculation

     Convergence has been achieved 


     Representation #  4 modes #   5  6

     Self-consistent Calculation

      iter #   1 total cpu time :    20.7 secs   av.it.:   5.0
      thresh= 1.000E-02 alpha_mix =  0.700 |ddv_scf|^2 =  9.414E-07

      iter #   2 total cpu time :    21.0 secs   av.it.:   9.5
      thresh= 9.703E-05 alpha_mix =  0.700 |ddv_scf|^2 =  7.484E-08

      iter #   3 total cpu time :    21.5 secs   av.it.:   9.3
      thresh= 2.736E-05 alpha_mix =  0.700 |ddv_scf|^2 =  4.465E-09

      iter #   4 total cpu time :    21.8 secs   av.it.:   8.5
      thresh= 6.682E-06 alpha_mix =  0.700 |ddv_scf|^2 =  6.513E-12

      iter #   5 total cpu time :    22.0 secs   av.it.:   8.9
      thresh= 2.552E-07 alpha_mix =  0.700 |ddv_scf|^2 =  2.552E-14

     End of self-consistent calculation

     Convergence has been achieved 

     Number of q in the star =    4
     List of q in the star:
          1   0.500000000  -0.500000000   0.500000000
          2   0.500000000   0.500000000   0.500000000
          3  -0.500000000   0.500000000   0.500000000
          4   0.500000000   0.500000000  -0.500000000

     Diagonalizing the dynamical matrix

     q = (    0.500000000  -0.500000000   0.500000000 ) 

 **************************************************************************
     freq (    1) =       5.098377 [THz] =     170.063563 [cm-1]
     freq (    2) =       5.098377 [THz] =     170.063563 [cm-1]
     freq (    3) =      11.955074 [THz] =     398.778359 [cm-1]
     freq (    4) =      12.179217 [THz] =     406.254936 [cm-1]
     freq (    5) =      14.718444 [THz] =     490.954456 [cm-1]
     freq (    6) =      14.718444 [THz] =     490.954456 [cm-1]
 **************************************************************************

     Calculation of q =    0.0000000   0.5000000   0.0000000

   Info: using nr1, nr2, nr3 values from input

   Info: using nr1, nr2, nr3 values from input

     Parallelization info
     --------------------
     sticks:   dense  smooth     PW     G-vecs:    dense   smooth      PW
     Min          66      66     27                  722      722     181
     Max          67      67     28                  724      724     182
     Sum         265     265    109                 2891     2891     725



     bravais-lattice index     =            2
     lattice parameter (alat)  =      10.3990  a.u.
     unit-cell volume          =     281.1349 (a.u.)^3
     number of atoms/cell      =            2
     number of atomic types    =            1
     number of electrons       =         8.00
     number of Kohn-Sham states=            4
     kinetic-energy cutoff     =      18.0000  Ry
     charge density cutoff     =      72.0000  Ry
     Exchange-correlation      = SLA  PW   PBE  PBE ( 1  4  3  4 0 0)

     celldm(1)=  10.399000  celldm(2)=   0.000000  celldm(3)=   0.000000
     celldm(4)=   0.000000  celldm(5)=   0.000000  celldm(6)=   0.000000

     crystal axes: (cart. coord. in units of alat)
               a(1) = (  -0.500000   0.000000   0.500000 )  
               a(2) = (   0.000000   0.500000   0.500000 )  
               a(3) = (  -0.500000   0.500000   0.000000 )  

     reciprocal axes: (cart. coord. in units 2 pi/alat)
               b(1) = ( -1.000000 -1.000000  1.000000 )  
               b(2) = (  1.000000  1.000000  1.000000 )  
               b(3) = ( -1.000000  1.000000 -1.000000 )  


     PseudoPot. # 1 for Si read from file:
     /home/max/quantum_espresso/qe-6.1/pseudo/si_pbe_v1.uspp.F.UPF.txt
     MD5 check sum: a056efeee980c13900f22a371efd63c1
     Pseudo is Ultrasoft + core correction, Zval =  4.0
     Generated by new atomic code, or converted to UPF format
     Using radial grid of  899 points,  6 beta functions with: 
                l(1) =   0
                l(2) =   0
                l(3) =   1
                l(4) =   1
                l(5) =   2
                l(6) =   2
     Q(r) pseudized with  8 coefficients,  rinner =    0.900   0.900   0.900
                                                       0.900   0.900

     atomic species   valence    mass     pseudopotential
        Si             4.00    28.08600     Si( 1.00)

     48 Sym. Ops., with inversion, found



   Cartesian axes

     site n.     atom                  positions (alat units)
         1           Si  tau(   1) = (   0.0000000   0.0000000   0.0000000  )
         2           Si  tau(   2) = (   0.2500000   0.2500000   0.2500000  )

     number of k points=    80
                       cart. coord. in units 2pi/alat
        k(    1) = (  -0.1250000   0.1250000   0.1250000), wk =   0.0312500
        k(    2) = (  -0.1250000   0.6250000   0.1250000), wk =   0.0000000
        k(    3) = (  -0.3750000   0.3750000  -0.1250000), wk =   0.0625000
        k(    4) = (  -0.3750000   0.8750000  -0.1250000), wk =   0.0000000
        k(    5) = (   0.3750000  -0.3750000   0.6250000), wk =   0.0625000
        k(    6) = (   0.3750000   0.1250000   0.6250000), wk =   0.0000000
        k(    7) = (   0.1250000  -0.1250000   0.3750000), wk =   0.0625000
        k(    8) = (   0.1250000   0.3750000   0.3750000), wk =   0.0000000
        k(    9) = (  -0.1250000   0.6250000   0.1250000), wk =   0.0312500
        k(   10) = (  -0.1250000   1.1250000   0.1250000), wk =   0.0000000
        k(   11) = (   0.6250000  -0.1250000   0.8750000), wk =   0.0625000
        k(   12) = (   0.6250000   0.3750000   0.8750000), wk =   0.0000000
        k(   13) = (   0.3750000   0.1250000   0.6250000), wk =   0.0625000
        k(   14) = (   0.3750000   0.6250000   0.6250000), wk =   0.0000000
        k(   15) = (  -0.1250000  -0.8750000   0.1250000), wk =   0.0312500
        k(   16) = (  -0.1250000  -0.3750000   0.1250000), wk =   0.0000000
        k(   17) = (  -0.3750000   0.3750000   0.3750000), wk =   0.0312500
        k(   18) = (  -0.3750000   0.8750000   0.3750000), wk =   0.0000000
        k(   19) = (   0.3750000  -0.3750000   1.1250000), wk =   0.0625000
        k(   20) = (   0.3750000   0.1250000   1.1250000), wk =   0.0000000
        k(   21) = (  -0.1250000  -0.1250000   0.1250000), wk =   0.0312500
        k(   22) = (  -0.1250000   0.3750000   0.1250000), wk =   0.0000000
        k(   23) = (   0.1250000  -0.3750000   0.3750000), wk =   0.0625000
        k(   24) = (   0.1250000   0.1250000   0.3750000), wk =   0.0000000
        k(   25) = (   0.3750000  -0.1250000   0.3750000), wk =   0.0312500
        k(   26) = (   0.3750000   0.3750000   0.3750000), wk =   0.0000000
        k(   27) = (   0.3750000   0.1250000   0.3750000), wk =   0.0312500
        k(   28) = (   0.3750000   0.6250000   0.3750000), wk =   0.0000000
        k(   29) = (  -0.6250000   0.3750000  -0.3750000), wk =   0.0625000
        k(   30) = (  -0.6250000   0.8750000  -0.3750000), wk =   0.0000000
        k(   31) = (  -0.3750000   0.6250000  -0.3750000), wk =   0.0312500
        k(   32) = (  -0.3750000   1.1250000  -0.3750000), wk =   0.0000000
        k(   33) = (  -0.3750000  -0.6250000  -0.3750000), wk =   0.0312500
        k(   34) = (  -0.3750000  -0.1250000  -0.3750000), wk =   0.0000000
        k(   35) = (  -0.3750000   0.1250000  -0.1250000), wk =   0.0625000
        k(   36) = (  -0.3750000   0.6250000  -0.1250000), wk =   0.0000000
        k(   37) = (  -0.1250000   0.3750000  -0.1250000), wk =   0.0312500
        k(   38) = (  -0.1250000   0.8750000  -0.1250000), wk =   0.0000000
        k(   39) = (  -0.1250000  -0.3750000  -0.1250000), wk =   0.0312500
        k(   40) = (  -0.1250000   0.1250000  -0.1250000), wk =   0.0000000
        k(   41) = (  -0.1250000  -0.6250000   0.1250000), wk =   0.0312500
        k(   42) = (  -0.1250000  -0.1250000   0.1250000), wk =   0.0000000
        k(   43) = (   0.6250000  -0.1250000  -0.1250000), wk =   0.0625000
        k(   44) = (   0.6250000   0.3750000  -0.1250000), wk =   0.0000000
        k(   45) = (   0.6250000   0.1250000   0.1250000), wk =   0.0625000
        k(   46) = (   0.6250000   0.6250000   0.1250000), wk =   0.0000000
        k(   47) = (  -0.8750000   0.1250000  -0.6250000), wk =   0.0625000
        k(   48) = (  -0.8750000   0.6250000  -0.6250000), wk =   0.0000000
        k(   49) = (  -0.1250000   0.6250000  -0.8750000), wk =   0.0625000
        k(   50) = (  -0.1250000   1.1250000  -0.8750000), wk =   0.0000000
        k(   51) = (  -0.1250000   0.8750000  -0.6250000), wk =   0.0625000
        k(   52) = (  -0.1250000   1.3750000  -0.6250000), wk =   0.0000000
        k(   53) = (  -0.1250000  -0.8750000  -0.6250000), wk =   0.0625000
        k(   54) = (  -0.1250000  -0.3750000  -0.6250000), wk =   0.0000000
        k(   55) = (   0.8750000  -0.6250000   0.1250000), wk =   0.0625000
        k(   56) = (   0.8750000  -0.1250000   0.1250000), wk =   0.0000000
        k(   57) = (  -0.6250000  -0.1250000  -0.3750000), wk =   0.0625000
        k(   58) = (  -0.6250000   0.3750000  -0.3750000), wk =   0.0000000
        k(   59) = (   0.1250000   0.3750000  -0.6250000), wk =   0.0625000
        k(   60) = (   0.1250000   0.8750000  -0.6250000), wk =   0.0000000
        k(   61) = (   0.1250000   0.6250000  -0.3750000), wk =   0.0625000
        k(   62) = (   0.1250000   1.1250000  -0.3750000), wk =   0.0000000
        k(   63) = (   0.1250000  -0.6250000  -0.3750000), wk =   0.0625000
        k(   64) = (   0.1250000  -0.1250000  -0.3750000), wk =   0.0000000
        k(   65) = (   0.6250000  -0.3750000  -0.1250000), wk =   0.0625000
        k(   66) = (   0.6250000   0.1250000  -0.1250000), wk =   0.0000000
        k(   67) = (  -0.1250000   0.8750000   0.1250000), wk =   0.0312500
        k(   68) = (  -0.1250000   1.3750000   0.1250000), wk =   0.0000000
        k(   69) = (  -0.8750000  -0.1250000  -0.1250000), wk =   0.0625000
        k(   70) = (  -0.8750000   0.3750000  -0.1250000), wk =   0.0000000
        k(   71) = (  -0.8750000   0.1250000   0.1250000), wk =   0.0625000
        k(   72) = (  -0.8750000   0.6250000   0.1250000), wk =   0.0000000
        k(   73) = (  -0.3750000  -0.3750000   0.3750000), wk =   0.0312500
        k(   74) = (  -0.3750000   0.1250000   0.3750000), wk =   0.0000000
        k(   75) = (  -1.1250000   0.3750000  -0.3750000), wk =   0.0625000
        k(   76) = (  -1.1250000   0.8750000  -0.3750000), wk =   0.0000000
        k(   77) = (  -0.3750000   1.1250000  -0.3750000), wk =   0.0312500
        k(   78) = (  -0.3750000   1.6250000  -0.3750000), wk =   0.0000000
        k(   79) = (  -0.3750000  -1.1250000  -0.3750000), wk =   0.0312500
        k(   80) = (  -0.3750000  -0.6250000  -0.3750000), wk =   0.0000000

     Dense  grid:     2891 G-vectors     FFT dimensions: (  20,  20,  20)

     Estimated max dynamical RAM per process >       0.33MB

     Estimated total allocated dynamical RAM >       1.33MB

     Check: negative/imaginary core charge=   -0.000006    0.000000

     The potential is recalculated from file :
     ./_ph0/silicon.10.399.save/charge-density.dat

     Starting wfc are    8 atomic wfcs

     Band Structure Calculation
     Davidson diagonalization with overlap

     ethr =  1.25E-10,  avg # of iterations = 11.7

     total cpu time spent up to now is        1.9 secs

     End of band structure calculation

          k =-0.1250 0.1250 0.1250 (   353 PWs)   bands (ev):

    -5.6997   4.2017   5.5129   5.5129

          k =-0.1250 0.6250 0.1250 (   357 PWs)   bands (ev):

    -4.1696   0.8868   3.2273   3.6674

          k =-0.3750 0.3750-0.1250 (   362 PWs)   bands (ev):

    -4.6933   1.2417   3.5643   5.0359

          k =-0.3750 0.8750-0.1250 (   368 PWs)   bands (ev):

    -2.5677  -1.0461   1.9112   2.9610

          k = 0.3750-0.3750 0.6250 (   364 PWs)   bands (ev):

    -3.5831  -0.7897   3.5741   4.2816

          k = 0.3750 0.1250 0.6250 (   365 PWs)   bands (ev):

    -3.7651   0.0419   2.5954   3.9385

          k = 0.1250-0.1250 0.3750 (   358 PWs)   bands (ev):

    -5.1815   2.5924   4.5262   4.5789

          k = 0.1250 0.3750 0.3750 (   362 PWs)   bands (ev):

    -4.6933   1.2417   3.5643   5.0359

          k =-0.1250 0.6250 0.1250 (   357 PWs)   bands (ev):

    -4.1696   0.8868   3.2273   3.6674

          k =-0.1250 1.1250 0.1250 (   364 PWs)   bands (ev):

    -2.7261  -0.9533   2.5042   3.2082

          k = 0.6250-0.1250 0.8750 (   368 PWs)   bands (ev):

    -2.5677  -1.0461   1.9112   2.9610

          k = 0.6250 0.3750 0.8750 (   365 PWs)   bands (ev):

    -3.7651   0.0419   2.5954   3.9385

          k = 0.3750 0.1250 0.6250 (   365 PWs)   bands (ev):

    -3.7651   0.0419   2.5954   3.9385

          k = 0.3750 0.6250 0.6250 (   364 PWs)   bands (ev):

    -3.5831  -0.7897   3.5741   4.2816

          k =-0.1250-0.8750 0.1250 (   364 PWs)   bands (ev):

    -2.7261  -0.9533   2.5042   3.2082

          k =-0.1250-0.3750 0.1250 (   358 PWs)   bands (ev):

    -5.1815   2.5924   4.5262   4.5789

          k =-0.3750 0.3750 0.3750 (   359 PWs)   bands (ev):

    -4.2710  -0.0146   4.7351   4.7351

          k =-0.3750 0.8750 0.3750 (   369 PWs)   bands (ev):

    -3.0962  -0.7308   1.9601   3.9720

          k = 0.3750-0.3750 1.1250 (   369 PWs)   bands (ev):

    -3.0962  -0.7308   1.9601   3.9720

          k = 0.3750 0.1250 1.1250 (   368 PWs)   bands (ev):

    -2.5677  -1.0461   1.9112   2.9610

          k =-0.1250-0.1250 0.1250 (   353 PWs)   bands (ev):

    -5.6997   4.2017   5.5129   5.5129

          k =-0.1250 0.3750 0.1250 (   358 PWs)   bands (ev):

    -5.1815   2.5924   4.5262   4.5789

          k = 0.1250-0.3750 0.3750 (   362 PWs)   bands (ev):

    -4.6933   1.2417   3.5643   5.0359

          k = 0.1250 0.1250 0.3750 (   358 PWs)   bands (ev):

    -5.1815   2.5924   4.5262   4.5789

          k = 0.3750-0.1250 0.3750 (   362 PWs)   bands (ev):

    -4.6933   1.2417   3.5643   5.0359

          k = 0.3750 0.3750 0.3750 (   359 PWs)   bands (ev):

    -4.2710  -0.0146   4.7351   4.7351

          k = 0.3750 0.1250 0.3750 (   362 PWs)   bands (ev):

    -4.6933   1.2417   3.5643   5.0359

          k = 0.3750 0.6250 0.3750 (   364 PWs)   bands (ev):

    -3.5831  -0.7897   3.5741   4.2816

          k =-0.6250 0.3750-0.3750 (   364 PWs)   bands (ev):

    -3.5831  -0.7897   3.5741   4.2816

          k =-0.6250 0.8750-0.3750 (   365 PWs)   bands (ev):

    -3.7651   0.0419   2.5954   3.9385

          k =-0.3750 0.6250-0.3750 (   364 PWs)   bands (ev):

    -3.5831  -0.7897   3.5741   4.2816

          k =-0.3750 1.1250-0.3750 (   369 PWs)   bands (ev):

    -3.0962  -0.7308   1.9601   3.9720

          k =-0.3750-0.6250-0.3750 (   364 PWs)   bands (ev):

    -3.5831  -0.7897   3.5741   4.2816

          k =-0.3750-0.1250-0.3750 (   362 PWs)   bands (ev):

    -4.6933   1.2417   3.5643   5.0359

          k =-0.3750 0.1250-0.1250 (   358 PWs)   bands (ev):

    -5.1815   2.5924   4.5262   4.5789

          k =-0.3750 0.6250-0.1250 (   365 PWs)   bands (ev):

    -3.7651   0.0419   2.5954   3.9385

          k =-0.1250 0.3750-0.1250 (   358 PWs)   bands (ev):

    -5.1815   2.5924   4.5262   4.5789

          k =-0.1250 0.8750-0.1250 (   364 PWs)   bands (ev):

    -2.7261  -0.9533   2.5042   3.2082

          k =-0.1250-0.3750-0.1250 (   358 PWs)   bands (ev):

    -5.1815   2.5924   4.5262   4.5789

          k =-0.1250 0.1250-0.1250 (   353 PWs)   bands (ev):

    -5.6997   4.2017   5.5129   5.5129

          k =-0.1250-0.6250 0.1250 (   357 PWs)   bands (ev):

    -4.1696   0.8868   3.2273   3.6674

          k =-0.1250-0.1250 0.1250 (   353 PWs)   bands (ev):

    -5.6997   4.2017   5.5129   5.5129

          k = 0.6250-0.1250-0.1250 (   357 PWs)   bands (ev):

    -4.1696   0.8868   3.2273   3.6674

          k = 0.6250 0.3750-0.1250 (   365 PWs)   bands (ev):

    -3.7651   0.0419   2.5954   3.9385

          k = 0.6250 0.1250 0.1250 (   357 PWs)   bands (ev):

    -4.1696   0.8868   3.2273   3.6674

          k = 0.6250 0.6250 0.1250 (   369 PWs)   bands (ev):

    -3.0962  -0.7308   1.9601   3.9720

          k =-0.8750 0.1250-0.6250 (   368 PWs)   bands (ev):

    -2.5677  -1.0461   1.9112   2.9610

          k =-0.8750 0.6250-0.6250 (   362 PWs)   bands (ev):

    -4.6933   1.2417   3.5643   5.0359

          k =-0.1250 0.6250-0.8750 (   368 PWs)   bands (ev):

    -2.5677  -1.0461   1.9112   2.9610

          k =-0.1250 1.1250-0.8750 (   364 PWs)   bands (ev):

    -2.7261  -0.9533   2.5042   3.2082

          k =-0.1250 0.8750-0.6250 (   368 PWs)   bands (ev):

    -2.5677  -1.0461   1.9112   2.9610

          k =-0.1250 1.3750-0.6250 (   369 PWs)   bands (ev):

    -3.0962  -0.7308   1.9601   3.9720

          k =-0.1250-0.8750-0.6250 (   368 PWs)   bands (ev):

    -2.5677  -1.0461   1.9112   2.9610

          k =-0.1250-0.3750-0.6250 (   365 PWs)   bands (ev):

    -3.7651   0.0419   2.5954   3.9385

          k = 0.8750-0.6250 0.1250 (   368 PWs)   bands (ev):

    -2.5677  -1.0461   1.9112   2.9610

          k = 0.8750-0.1250 0.1250 (   364 PWs)   bands (ev):

    -2.7261  -0.9533   2.5042   3.2082

          k =-0.6250-0.1250-0.3750 (   365 PWs)   bands (ev):

    -3.7651   0.0419   2.5954   3.9385

          k =-0.6250 0.3750-0.3750 (   364 PWs)   bands (ev):

    -3.5831  -0.7897   3.5741   4.2816

          k = 0.1250 0.3750-0.6250 (   365 PWs)   bands (ev):

    -3.7651   0.0419   2.5954   3.9385

          k = 0.1250 0.8750-0.6250 (   368 PWs)   bands (ev):

    -2.5677  -1.0461   1.9112   2.9610

          k = 0.1250 0.6250-0.3750 (   365 PWs)   bands (ev):

    -3.7651   0.0419   2.5954   3.9385

          k = 0.1250 1.1250-0.3750 (   368 PWs)   bands (ev):

    -2.5677  -1.0461   1.9112   2.9610

          k = 0.1250-0.6250-0.3750 (   365 PWs)   bands (ev):

    -3.7651   0.0419   2.5954   3.9385

          k = 0.1250-0.1250-0.3750 (   358 PWs)   bands (ev):

    -5.1815   2.5924   4.5262   4.5789

          k = 0.6250-0.3750-0.1250 (   365 PWs)   bands (ev):

    -3.7651   0.0419   2.5954   3.9385

          k = 0.6250 0.1250-0.1250 (   357 PWs)   bands (ev):

    -4.1696   0.8868   3.2273   3.6674

          k =-0.1250 0.8750 0.1250 (   364 PWs)   bands (ev):

    -2.7261  -0.9533   2.5042   3.2082

          k =-0.1250 1.3750 0.1250 (   357 PWs)   bands (ev):

    -4.1696   0.8868   3.2273   3.6674

          k =-0.8750-0.1250-0.1250 (   364 PWs)   bands (ev):

    -2.7261  -0.9533   2.5042   3.2082

          k =-0.8750 0.3750-0.1250 (   368 PWs)   bands (ev):

    -2.5677  -1.0461   1.9112   2.9610

          k =-0.8750 0.1250 0.1250 (   364 PWs)   bands (ev):

    -2.7261  -0.9533   2.5042   3.2082

          k =-0.8750 0.6250 0.1250 (   368 PWs)   bands (ev):

    -2.5677  -1.0461   1.9112   2.9610

          k =-0.3750-0.3750 0.3750 (   359 PWs)   bands (ev):

    -4.2710  -0.0146   4.7351   4.7351

          k =-0.3750 0.1250 0.3750 (   362 PWs)   bands (ev):

    -4.6933   1.2417   3.5643   5.0359

          k =-1.1250 0.3750-0.3750 (   369 PWs)   bands (ev):

    -3.0962  -0.7308   1.9601   3.9720

          k =-1.1250 0.8750-0.3750 (   357 PWs)   bands (ev):

    -4.1696   0.8868   3.2273   3.6674

          k =-0.3750 1.1250-0.3750 (   369 PWs)   bands (ev):

    -3.0962  -0.7308   1.9601   3.9720

          k =-0.3750 1.6250-0.3750 (   359 PWs)   bands (ev):

    -4.2710  -0.0146   4.7351   4.7351

          k =-0.3750-1.1250-0.3750 (   369 PWs)   bands (ev):

    -3.0962  -0.7308   1.9601   3.9720

          k =-0.3750-0.6250-0.3750 (   364 PWs)   bands (ev):

    -3.5831  -0.7897   3.5741   4.2816

     highest occupied level (ev):     5.5129

     Writing output data file silicon.10.399.save

                                                                                

     bravais-lattice index     =            2
     lattice parameter (alat)  =      10.3990  a.u.
     unit-cell volume          =     281.1349 (a.u.)^3
     number of atoms/cell      =            2
     number of atomic types    =            1
     kinetic-energy cut-off    =      18.0000  Ry
     charge density cut-off    =      72.0000  Ry
     convergence threshold     =      1.0E-12
     beta                      =       0.7000
     number of iterations used =            4
     Exchange-correlation      = SLA  PW   PBE  PBE ( 1  4  3  4 0 0)


     celldm(1)=   10.39900  celldm(2)=    0.00000  celldm(3)=    0.00000
     celldm(4)=    0.00000  celldm(5)=    0.00000  celldm(6)=    0.00000

     crystal axes: (cart. coord. in units of alat)
               a(1) = ( -0.5000  0.0000  0.5000 )  
               a(2) = (  0.0000  0.5000  0.5000 )  
               a(3) = ( -0.5000  0.5000  0.0000 )  

     reciprocal axes: (cart. coord. in units 2 pi/alat)
               b(1) = ( -1.0000 -1.0000  1.0000 )  
               b(2) = (  1.0000  1.0000  1.0000 )  
               b(3) = ( -1.0000  1.0000 -1.0000 )  


     Atoms inside the unit cell: 

     Cartesian axes

     site n.  atom      mass           positions (alat units)
        1     Si  28.0860   tau(    1) = (    0.00000    0.00000    0.00000  )
        2     Si  28.0860   tau(    2) = (    0.25000    0.25000    0.25000  )

     Computing dynamical matrix for 
                    q = (   0.0000000   0.5000000   0.0000000 )

      8 Sym.Ops. (no q -> -q+G )


     G cutoff =  197.2223  (    722 G-vectors)     FFT grid: ( 20, 20, 20)
     number of k points=    80

     PseudoPot. # 1 for Si read from file:
     /home/max/quantum_espresso/qe-6.1/pseudo/si_pbe_v1.uspp.F.UPF.txt
     MD5 check sum: a056efeee980c13900f22a371efd63c1
     Pseudo is Ultrasoft + core correction, Zval =  4.0
     Generated by new atomic code, or converted to UPF format
     Using radial grid of  899 points,  6 beta functions with: 
                l(1) =   0
                l(2) =   0
                l(3) =   1
                l(4) =   1
                l(5) =   2
                l(6) =   2
     Q(r) pseudized with  8 coefficients,  rinner =    0.900   0.900   0.900
                                                       0.900   0.900

     Mode symmetry, C_4v (4mm)  point group:


     Atomic displacements:
     There are   4 irreducible representations

     Representation     1      1 modes -A_1  G_1 D_1  To be done

     Representation     2      1 modes -B_2  G_4 D_2'  To be done

     Representation     3      2 modes -E    G_5 D_5  To be done

     Representation     4      2 modes -E    G_5 D_5  To be done



     Alpha used in Ewald sum =   0.7000
     PHONON       :    21.54s CPU        22.92s WALL



     Representation #  1 mode #   1

     Self-consistent Calculation

      iter #   1 total cpu time :    23.1 secs   av.it.:   5.8
      thresh= 1.000E-02 alpha_mix =  0.700 |ddv_scf|^2 =  2.932E-03

      iter #   2 total cpu time :    23.4 secs   av.it.:   7.7
      thresh= 5.415E-03 alpha_mix =  0.700 |ddv_scf|^2 =  3.891E-02

      iter #   3 total cpu time :    23.6 secs   av.it.:   6.7
      thresh= 1.000E-02 alpha_mix =  0.700 |ddv_scf|^2 =  1.447E-07

      iter #   4 total cpu time :    23.8 secs   av.it.:   8.1
      thresh= 3.804E-05 alpha_mix =  0.700 |ddv_scf|^2 =  2.005E-08

      iter #   5 total cpu time :    23.9 secs   av.it.:   7.5
      thresh= 1.416E-05 alpha_mix =  0.700 |ddv_scf|^2 =  8.244E-10

      iter #   6 total cpu time :    24.1 secs   av.it.:   7.8
      thresh= 2.871E-06 alpha_mix =  0.700 |ddv_scf|^2 =  4.554E-12

      iter #   7 total cpu time :    24.3 secs   av.it.:   7.7
      thresh= 2.134E-07 alpha_mix =  0.700 |ddv_scf|^2 =  8.881E-13

     End of self-consistent calculation

     Convergence has been achieved 


     Representation #  2 mode #   2

     Self-consistent Calculation

      iter #   1 total cpu time :    24.4 secs   av.it.:   4.9
      thresh= 1.000E-02 alpha_mix =  0.700 |ddv_scf|^2 =  5.206E-06

      iter #   2 total cpu time :    24.6 secs   av.it.:   8.7
      thresh= 2.282E-04 alpha_mix =  0.700 |ddv_scf|^2 =  1.343E-06

      iter #   3 total cpu time :    24.8 secs   av.it.:   8.5
      thresh= 1.159E-04 alpha_mix =  0.700 |ddv_scf|^2 =  3.248E-08

      iter #   4 total cpu time :    25.0 secs   av.it.:   8.2
      thresh= 1.802E-05 alpha_mix =  0.700 |ddv_scf|^2 =  8.748E-10

      iter #   5 total cpu time :    25.4 secs   av.it.:   8.5
      thresh= 2.958E-06 alpha_mix =  0.700 |ddv_scf|^2 =  1.355E-11

      iter #   6 total cpu time :    25.5 secs   av.it.:   7.3
      thresh= 3.681E-07 alpha_mix =  0.700 |ddv_scf|^2 =  7.730E-14

     End of self-consistent calculation

     Convergence has been achieved 


     Representation #  3 modes #   3  4

     Self-consistent Calculation

      iter #   1 total cpu time :    25.8 secs   av.it.:   5.0
      thresh= 1.000E-02 alpha_mix =  0.700 |ddv_scf|^2 =  9.392E-07

      iter #   2 total cpu time :    26.2 secs   av.it.:   9.8
      thresh= 9.691E-05 alpha_mix =  0.700 |ddv_scf|^2 =  1.192E-07

      iter #   3 total cpu time :    26.6 secs   av.it.:   9.5
      thresh= 3.453E-05 alpha_mix =  0.700 |ddv_scf|^2 =  4.928E-09

      iter #   4 total cpu time :    27.0 secs   av.it.:   8.9
      thresh= 7.020E-06 alpha_mix =  0.700 |ddv_scf|^2 =  8.820E-12

      iter #   5 total cpu time :    27.6 secs   av.it.:   9.1
      thresh= 2.970E-07 alpha_mix =  0.700 |ddv_scf|^2 =  3.013E-13

     End of self-consistent calculation

     Convergence has been achieved 


     Representation #  4 modes #   5  6

     Self-consistent Calculation

      iter #   1 total cpu time :    27.9 secs   av.it.:   5.0
      thresh= 1.000E-02 alpha_mix =  0.700 |ddv_scf|^2 =  9.424E-07

      iter #   2 total cpu time :    28.3 secs   av.it.:   9.8
      thresh= 9.708E-05 alpha_mix =  0.700 |ddv_scf|^2 =  1.196E-07

      iter #   3 total cpu time :    28.7 secs   av.it.:   9.5
      thresh= 3.459E-05 alpha_mix =  0.700 |ddv_scf|^2 =  7.345E-09

      iter #   4 total cpu time :    29.1 secs   av.it.:   8.9
      thresh= 8.571E-06 alpha_mix =  0.700 |ddv_scf|^2 =  1.546E-11

      iter #   5 total cpu time :    29.6 secs   av.it.:   9.2
      thresh= 3.932E-07 alpha_mix =  0.700 |ddv_scf|^2 =  4.585E-14

     End of self-consistent calculation

     Convergence has been achieved 

     Number of q in the star =    6
     List of q in the star:
          1   0.000000000   0.500000000   0.000000000
          2   0.000000000  -0.500000000   0.000000000
          3   0.500000000   0.000000000   0.000000000
          4   0.000000000   0.000000000   0.500000000
          5   0.000000000   0.000000000  -0.500000000
          6  -0.500000000   0.000000000   0.000000000

     Diagonalizing the dynamical matrix

     q = (    0.000000000   0.500000000   0.000000000 ) 

 **************************************************************************
     freq (    1) =       4.410383 [THz] =     147.114553 [cm-1]
     freq (    2) =       4.410383 [THz] =     147.114553 [cm-1]
     freq (    3) =       7.036239 [THz] =     234.703682 [cm-1]
     freq (    4) =      14.226352 [THz] =     474.540017 [cm-1]
     freq (    5) =      14.226352 [THz] =     474.540017 [cm-1]
     freq (    6) =      14.931308 [THz] =     498.054828 [cm-1]
 **************************************************************************

     Mode symmetry, C_4v (4mm)  point group:

     freq (  1 -  2) =        147.1  [cm-1]   --> E    G_5 D_5       
     freq (  3 -  3) =        234.7  [cm-1]   --> A_1  G_1 D_1       
     freq (  4 -  5) =        474.5  [cm-1]   --> E    G_5 D_5       
     freq (  6 -  6) =        498.1  [cm-1]   --> B_2  G_4 D_2'      

     Calculation of q =    0.7500000  -0.2500000   0.7500000

   Info: using nr1, nr2, nr3 values from input

   Info: using nr1, nr2, nr3 values from input

     Parallelization info
     --------------------
     sticks:   dense  smooth     PW     G-vecs:    dense   smooth      PW
     Min          65      65     30                  722      722     216
     Max          67      67     31                  723      723     218
     Sum         265     265    121                 2891     2891     869



     bravais-lattice index     =            2
     lattice parameter (alat)  =      10.3990  a.u.
     unit-cell volume          =     281.1349 (a.u.)^3
     number of atoms/cell      =            2
     number of atomic types    =            1
     number of electrons       =         8.00
     number of Kohn-Sham states=            4
     kinetic-energy cutoff     =      18.0000  Ry
     charge density cutoff     =      72.0000  Ry
     Exchange-correlation      = SLA  PW   PBE  PBE ( 1  4  3  4 0 0)

     celldm(1)=  10.399000  celldm(2)=   0.000000  celldm(3)=   0.000000
     celldm(4)=   0.000000  celldm(5)=   0.000000  celldm(6)=   0.000000

     crystal axes: (cart. coord. in units of alat)
               a(1) = (  -0.500000   0.000000   0.500000 )  
               a(2) = (   0.000000   0.500000   0.500000 )  
               a(3) = (  -0.500000   0.500000   0.000000 )  

     reciprocal axes: (cart. coord. in units 2 pi/alat)
               b(1) = ( -1.000000 -1.000000  1.000000 )  
               b(2) = (  1.000000  1.000000  1.000000 )  
               b(3) = ( -1.000000  1.000000 -1.000000 )  


     PseudoPot. # 1 for Si read from file:
     /home/max/quantum_espresso/qe-6.1/pseudo/si_pbe_v1.uspp.F.UPF.txt
     MD5 check sum: a056efeee980c13900f22a371efd63c1
     Pseudo is Ultrasoft + core correction, Zval =  4.0
     Generated by new atomic code, or converted to UPF format
     Using radial grid of  899 points,  6 beta functions with: 
                l(1) =   0
                l(2) =   0
                l(3) =   1
                l(4) =   1
                l(5) =   2
                l(6) =   2
     Q(r) pseudized with  8 coefficients,  rinner =    0.900   0.900   0.900
                                                       0.900   0.900

     atomic species   valence    mass     pseudopotential
        Si             4.00    28.08600     Si( 1.00)

     48 Sym. Ops., with inversion, found



   Cartesian axes

     site n.     atom                  positions (alat units)
         1           Si  tau(   1) = (   0.0000000   0.0000000   0.0000000  )
         2           Si  tau(   2) = (   0.2500000   0.2500000   0.2500000  )

     number of k points=   288

     Number of k-points >= 100: set verbosity='high' to print them.

     Dense  grid:     2891 G-vectors     FFT dimensions: (  20,  20,  20)

     Estimated max dynamical RAM per process >       0.33MB

     Estimated total allocated dynamical RAM >       1.33MB

     Check: negative/imaginary core charge=   -0.000006    0.000000

     The potential is recalculated from file :
     ./_ph0/silicon.10.399.save/charge-density.dat

     Starting wfc are    8 atomic wfcs

     Band Structure Calculation
     Davidson diagonalization with overlap

     ethr =  1.25E-10,  avg # of iterations = 11.6

     total cpu time spent up to now is        4.0 secs

     End of band structure calculation

     Number of k-points >= 100: set verbosity='high' to print the bands.

     highest occupied level (ev):     5.5129

     Writing output data file silicon.10.399.save

                                                                                

     bravais-lattice index     =            2
     lattice parameter (alat)  =      10.3990  a.u.
     unit-cell volume          =     281.1349 (a.u.)^3
     number of atoms/cell      =            2
     number of atomic types    =            1
     kinetic-energy cut-off    =      18.0000  Ry
     charge density cut-off    =      72.0000  Ry
     convergence threshold     =      1.0E-12
     beta                      =       0.7000
     number of iterations used =            4
     Exchange-correlation      = SLA  PW   PBE  PBE ( 1  4  3  4 0 0)


     celldm(1)=   10.39900  celldm(2)=    0.00000  celldm(3)=    0.00000
     celldm(4)=    0.00000  celldm(5)=    0.00000  celldm(6)=    0.00000

     crystal axes: (cart. coord. in units of alat)
               a(1) = ( -0.5000  0.0000  0.5000 )  
               a(2) = (  0.0000  0.5000  0.5000 )  
               a(3) = ( -0.5000  0.5000  0.0000 )  

     reciprocal axes: (cart. coord. in units 2 pi/alat)
               b(1) = ( -1.0000 -1.0000  1.0000 )  
               b(2) = (  1.0000  1.0000  1.0000 )  
               b(3) = ( -1.0000  1.0000 -1.0000 )  


     Atoms inside the unit cell: 

     Cartesian axes

     site n.  atom      mass           positions (alat units)
        1     Si  28.0860   tau(    1) = (    0.00000    0.00000    0.00000  )
        2     Si  28.0860   tau(    2) = (    0.25000    0.25000    0.25000  )

     Computing dynamical matrix for 
                    q = (   0.7500000  -0.2500000   0.7500000 )

      2 Sym.Ops. (no q -> -q+G )


     G cutoff =  197.2223  (    723 G-vectors)     FFT grid: ( 20, 20, 20)
     number of k points=   288

     PseudoPot. # 1 for Si read from file:
     /home/max/quantum_espresso/qe-6.1/pseudo/si_pbe_v1.uspp.F.UPF.txt
     MD5 check sum: a056efeee980c13900f22a371efd63c1
     Pseudo is Ultrasoft + core correction, Zval =  4.0
     Generated by new atomic code, or converted to UPF format
     Using radial grid of  899 points,  6 beta functions with: 
                l(1) =   0
                l(2) =   0
                l(3) =   1
                l(4) =   1
                l(5) =   2
                l(6) =   2
     Q(r) pseudized with  8 coefficients,  rinner =    0.900   0.900   0.900
                                                       0.900   0.900

     Mode symmetry, C_s (m)     point group:


     Atomic displacements:
     There are   6 irreducible representations

     Representation     1      1 modes -A'  To be done

     Representation     2      1 modes -A'  To be done

     Representation     3      1 modes -A'  To be done

     Representation     4      1 modes -A'  To be done

     Representation     5      1 modes -A''  To be done

     Representation     6      1 modes -A''  To be done



     Alpha used in Ewald sum =   0.7000
     PHONON       :    30.26s CPU        32.34s WALL



     Representation #  1 mode #   1

     Self-consistent Calculation

      iter #   1 total cpu time :    32.8 secs   av.it.:   5.3
      thresh= 1.000E-02 alpha_mix =  0.700 |ddv_scf|^2 =  6.086E-05

      iter #   2 total cpu time :    33.7 secs   av.it.:   8.9
      thresh= 7.801E-04 alpha_mix =  0.700 |ddv_scf|^2 =  1.629E-04

      iter #   3 total cpu time :    34.3 secs   av.it.:   7.6
      thresh= 1.276E-03 alpha_mix =  0.700 |ddv_scf|^2 =  1.129E-06

      iter #   4 total cpu time :    34.9 secs   av.it.:   8.4
      thresh= 1.063E-04 alpha_mix =  0.700 |ddv_scf|^2 =  6.208E-08

      iter #   5 total cpu time :    35.7 secs   av.it.:   8.3
      thresh= 2.492E-05 alpha_mix =  0.700 |ddv_scf|^2 =  7.745E-09

      iter #   6 total cpu time :    36.3 secs   av.it.:   8.5
      thresh= 8.800E-06 alpha_mix =  0.700 |ddv_scf|^2 =  1.281E-10

      iter #   7 total cpu time :    37.0 secs   av.it.:   8.6
      thresh= 1.132E-06 alpha_mix =  0.700 |ddv_scf|^2 =  5.292E-12

      iter #   8 total cpu time :    37.8 secs   av.it.:   8.5
      thresh= 2.300E-07 alpha_mix =  0.700 |ddv_scf|^2 =  5.614E-13

     End of self-consistent calculation

     Convergence has been achieved 


     Representation #  2 mode #   2

     Self-consistent Calculation

      iter #   1 total cpu time :    38.3 secs   av.it.:   5.4
      thresh= 1.000E-02 alpha_mix =  0.700 |ddv_scf|^2 =  1.110E-04

      iter #   2 total cpu time :    39.0 secs   av.it.:   8.7
      thresh= 1.054E-03 alpha_mix =  0.700 |ddv_scf|^2 =  3.167E-04

      iter #   3 total cpu time :    39.7 secs   av.it.:   7.4
      thresh= 1.780E-03 alpha_mix =  0.700 |ddv_scf|^2 =  8.642E-07

      iter #   4 total cpu time :    40.4 secs   av.it.:   8.5
      thresh= 9.296E-05 alpha_mix =  0.700 |ddv_scf|^2 =  5.482E-08

      iter #   5 total cpu time :    41.0 secs   av.it.:   8.3
      thresh= 2.341E-05 alpha_mix =  0.700 |ddv_scf|^2 =  1.135E-08

      iter #   6 total cpu time :    41.8 secs   av.it.:   8.5
      thresh= 1.065E-05 alpha_mix =  0.700 |ddv_scf|^2 =  1.665E-10

      iter #   7 total cpu time :    42.4 secs   av.it.:   8.5
      thresh= 1.290E-06 alpha_mix =  0.700 |ddv_scf|^2 =  3.407E-12

      iter #   8 total cpu time :    43.1 secs   av.it.:   8.6
      thresh= 1.846E-07 alpha_mix =  0.700 |ddv_scf|^2 =  8.615E-13

     End of self-consistent calculation

     Convergence has been achieved 


     Representation #  3 mode #   3

     Self-consistent Calculation

      iter #   1 total cpu time :    43.8 secs   av.it.:   5.3
      thresh= 1.000E-02 alpha_mix =  0.700 |ddv_scf|^2 =  8.789E-05

      iter #   2 total cpu time :    44.5 secs   av.it.:   8.7
      thresh= 9.375E-04 alpha_mix =  0.700 |ddv_scf|^2 =  2.323E-04

      iter #   3 total cpu time :    45.0 secs   av.it.:   7.4
      thresh= 1.524E-03 alpha_mix =  0.700 |ddv_scf|^2 =  1.467E-06

      iter #   4 total cpu time :    45.9 secs   av.it.:   8.2
      thresh= 1.211E-04 alpha_mix =  0.700 |ddv_scf|^2 =  6.020E-08

      iter #   5 total cpu time :    46.5 secs   av.it.:   8.4
      thresh= 2.454E-05 alpha_mix =  0.700 |ddv_scf|^2 =  1.112E-08

      iter #   6 total cpu time :    47.1 secs   av.it.:   8.5
      thresh= 1.054E-05 alpha_mix =  0.700 |ddv_scf|^2 =  1.231E-10

      iter #   7 total cpu time :    47.9 secs   av.it.:   8.4
      thresh= 1.110E-06 alpha_mix =  0.700 |ddv_scf|^2 =  3.283E-12

      iter #   8 total cpu time :    48.6 secs   av.it.:   8.7
      thresh= 1.812E-07 alpha_mix =  0.700 |ddv_scf|^2 =  9.311E-13

     End of self-consistent calculation

     Convergence has been achieved 


     Representation #  4 mode #   4

[...]
        k(   59) = (  -0.8750000   0.1250000  -0.1250000), wk =   0.0625000
        k(   60) = (  -1.3750000  -0.8750000  -0.1250000), wk =   0.0000000
        k(   61) = (  -1.1250000   0.3750000  -0.3750000), wk =   0.0625000
        k(   62) = (  -1.6250000  -0.6250000  -0.3750000), wk =   0.0000000
        k(   63) = (  -0.3750000   0.3750000   1.1250000), wk =   0.0625000
        k(   64) = (  -0.8750000  -0.6250000   1.1250000), wk =   0.0000000

     Dense  grid:     2891 G-vectors     FFT dimensions: (  20,  20,  20)

     Estimated max dynamical RAM per process >       0.33MB

     Estimated total allocated dynamical RAM >       1.33MB

     Check: negative/imaginary core charge=   -0.000006    0.000000

     The potential is recalculated from file :
     ./_ph0/silicon.10.399.save/charge-density.dat

     Starting wfc are    8 atomic wfcs

     Band Structure Calculation
     Davidson diagonalization with overlap

     ethr =  1.25E-10,  avg # of iterations = 11.6

     total cpu time spent up to now is        6.5 secs

     End of band structure calculation

          k =-0.1250 0.1250 0.1250 (   353 PWs)   bands (ev):

    -5.6997   4.2017   5.5129   5.5129

          k =-0.6250-0.8750 0.1250 (   368 PWs)   bands (ev):

    -2.5677  -1.0461   1.9112   2.9610

          k =-0.3750 0.3750-0.1250 (   362 PWs)   bands (ev):

    -4.6933   1.2417   3.5643   5.0359

          k =-0.8750-0.6250-0.1250 (   368 PWs)   bands (ev):

    -2.5677  -1.0461   1.9112   2.9610

          k = 0.3750-0.3750 0.6250 (   364 PWs)   bands (ev):

    -3.5831  -0.7897   3.5741   4.2816

          k =-0.1250-1.3750 0.6250 (   369 PWs)   bands (ev):

    -3.0962  -0.7308   1.9601   3.9720

          k = 0.1250-0.1250 0.3750 (   358 PWs)   bands (ev):

    -5.1815   2.5924   4.5262   4.5789

          k =-0.3750-1.1250 0.3750 (   369 PWs)   bands (ev):

    -3.0962  -0.7308   1.9601   3.9720

          k =-0.1250 0.6250 0.1250 (   357 PWs)   bands (ev):

    -4.1696   0.8868   3.2273   3.6674

          k =-0.6250-0.3750 0.1250 (   365 PWs)   bands (ev):

    -3.7651   0.0419   2.5954   3.9385

          k = 0.6250-0.1250 0.8750 (   368 PWs)   bands (ev):

    -2.5677  -1.0461   1.9112   2.9610

          k = 0.1250-1.1250 0.8750 (   364 PWs)   bands (ev):

    -2.7261  -0.9533   2.5042   3.2082

          k = 0.3750 0.1250 0.6250 (   365 PWs)   bands (ev):

    -3.7651   0.0419   2.5954   3.9385

          k =-0.1250-0.8750 0.6250 (   368 PWs)   bands (ev):

    -2.5677  -1.0461   1.9112   2.9610

          k =-0.1250-0.8750 0.1250 (   364 PWs)   bands (ev):

    -2.7261  -0.9533   2.5042   3.2082

          k =-0.6250-1.8750 0.1250 (   357 PWs)   bands (ev):

    -4.1696   0.8868   3.2273   3.6674

          k =-0.3750 0.3750 0.3750 (   359 PWs)   bands (ev):

    -4.2710  -0.0146   4.7351   4.7351

          k =-0.8750-0.6250 0.3750 (   365 PWs)   bands (ev):

    -3.7651   0.0419   2.5954   3.9385

          k = 0.3750-0.3750 1.1250 (   369 PWs)   bands (ev):

    -3.0962  -0.7308   1.9601   3.9720

          k =-0.1250-1.3750 1.1250 (   368 PWs)   bands (ev):

    -2.5677  -1.0461   1.9112   2.9610

          k = 0.1250-0.3750 0.3750 (   362 PWs)   bands (ev):

    -4.6933   1.2417   3.5643   5.0359

          k =-0.3750-1.3750 0.3750 (   364 PWs)   bands (ev):

    -3.5831  -0.7897   3.5741   4.2816

          k = 0.3750-0.3750-0.1250 (   362 PWs)   bands (ev):

    -4.6933   1.2417   3.5643   5.0359

          k =-0.1250-1.3750-0.1250 (   357 PWs)   bands (ev):

    -4.1696   0.8868   3.2273   3.6674

          k =-0.6250 0.3750-0.3750 (   364 PWs)   bands (ev):

    -3.5831  -0.7897   3.5741   4.2816

          k =-1.1250-0.6250-0.3750 (   365 PWs)   bands (ev):

    -3.7651   0.0419   2.5954   3.9385

          k =-0.3750 0.3750 0.6250 (   364 PWs)   bands (ev):

    -3.5831  -0.7897   3.5741   4.2816

          k =-0.8750-0.6250 0.6250 (   362 PWs)   bands (ev):

    -4.6933   1.2417   3.5643   5.0359

          k =-0.3750 0.1250-0.1250 (   358 PWs)   bands (ev):

    -5.1815   2.5924   4.5262   4.5789

          k =-0.8750-0.8750-0.1250 (   364 PWs)   bands (ev):

    -2.7261  -0.9533   2.5042   3.2082

          k =-0.1250 0.1250 0.3750 (   358 PWs)   bands (ev):

    -5.1815   2.5924   4.5262   4.5789

          k =-0.6250-0.8750 0.3750 (   365 PWs)   bands (ev):

    -3.7651   0.0419   2.5954   3.9385

          k = 0.1250 0.6250-0.1250 (   357 PWs)   bands (ev):

    -4.1696   0.8868   3.2273   3.6674

          k =-0.3750-0.3750-0.1250 (   362 PWs)   bands (ev):

    -4.6933   1.2417   3.5643   5.0359

          k = 0.6250 0.1250-0.1250 (   357 PWs)   bands (ev):

    -4.1696   0.8868   3.2273   3.6674

          k = 0.1250-0.8750-0.1250 (   364 PWs)   bands (ev):

    -2.7261  -0.9533   2.5042   3.2082

          k =-0.8750 0.1250-0.6250 (   368 PWs)   bands (ev):

    -2.5677  -1.0461   1.9112   2.9610

          k =-1.3750-0.8750-0.6250 (   362 PWs)   bands (ev):

    -4.6933   1.2417   3.5643   5.0359

          k = 0.8750-0.1250 0.6250 (   368 PWs)   bands (ev):

    -2.5677  -1.0461   1.9112   2.9610

          k = 0.3750-1.1250 0.6250 (   365 PWs)   bands (ev):

    -3.7651   0.0419   2.5954   3.9385

          k =-0.6250 0.1250 0.8750 (   368 PWs)   bands (ev):

    -2.5677  -1.0461   1.9112   2.9610

          k =-1.1250-0.8750 0.8750 (   353 PWs)   bands (ev):

    -5.6997   4.2017   5.5129   5.5129

          k =-0.1250 0.8750 0.6250 (   368 PWs)   bands (ev):

    -2.5677  -1.0461   1.9112   2.9610

          k =-0.6250-0.1250 0.6250 (   369 PWs)   bands (ev):

    -3.0962  -0.7308   1.9601   3.9720

          k = 0.1250 0.8750-0.6250 (   368 PWs)   bands (ev):

    -2.5677  -1.0461   1.9112   2.9610

          k =-0.3750-0.1250-0.6250 (   365 PWs)   bands (ev):

    -3.7651   0.0419   2.5954   3.9385

          k =-0.6250-0.1250-0.3750 (   365 PWs)   bands (ev):

    -3.7651   0.0419   2.5954   3.9385

          k =-1.1250-1.1250-0.3750 (   357 PWs)   bands (ev):

    -4.1696   0.8868   3.2273   3.6674

          k = 0.6250 0.1250 0.3750 (   365 PWs)   bands (ev):

    -3.7651   0.0419   2.5954   3.9385

          k = 0.1250-0.8750 0.3750 (   368 PWs)   bands (ev):

    -2.5677  -1.0461   1.9112   2.9610

          k =-0.3750-0.1250 0.6250 (   365 PWs)   bands (ev):

    -3.7651   0.0419   2.5954   3.9385

          k =-0.8750-1.1250 0.6250 (   358 PWs)   bands (ev):

    -5.1815   2.5924   4.5262   4.5789

          k = 0.1250 0.6250 0.3750 (   365 PWs)   bands (ev):

    -3.7651   0.0419   2.5954   3.9385

          k =-0.3750-0.3750 0.3750 (   359 PWs)   bands (ev):

    -4.2710  -0.0146   4.7351   4.7351

          k =-0.1250 0.6250-0.3750 (   365 PWs)   bands (ev):

    -3.7651   0.0419   2.5954   3.9385

          k =-0.6250-0.3750-0.3750 (   364 PWs)   bands (ev):

    -3.5831  -0.7897   3.5741   4.2816

          k = 0.1250-0.8750-0.1250 (   364 PWs)   bands (ev):

    -2.7261  -0.9533   2.5042   3.2082

          k =-0.3750-1.8750-0.1250 (   358 PWs)   bands (ev):

    -5.1815   2.5924   4.5262   4.5789

          k =-0.8750 0.1250-0.1250 (   364 PWs)   bands (ev):

    -2.7261  -0.9533   2.5042   3.2082

          k =-1.3750-0.8750-0.1250 (   368 PWs)   bands (ev):

    -2.5677  -1.0461   1.9112   2.9610

          k =-1.1250 0.3750-0.3750 (   369 PWs)   bands (ev):

    -3.0962  -0.7308   1.9601   3.9720

          k =-1.6250-0.6250-0.3750 (   364 PWs)   bands (ev):

    -3.5831  -0.7897   3.5741   4.2816

          k =-0.3750 0.3750 1.1250 (   369 PWs)   bands (ev):

    -3.0962  -0.7308   1.9601   3.9720

          k =-0.8750-0.6250 1.1250 (   358 PWs)   bands (ev):

    -5.1815   2.5924   4.5262   4.5789

     highest occupied level (ev):     5.5129

     Writing output data file silicon.10.399.save

                                                                                

     bravais-lattice index     =            2
     lattice parameter (alat)  =      10.3990  a.u.
     unit-cell volume          =     281.1349 (a.u.)^3
     number of atoms/cell      =            2
     number of atomic types    =            1
     kinetic-energy cut-off    =      18.0000  Ry
     charge density cut-off    =      72.0000  Ry
     convergence threshold     =      1.0E-12
     beta                      =       0.7000
     number of iterations used =            4
     Exchange-correlation      = SLA  PW   PBE  PBE ( 1  4  3  4 0 0)


     celldm(1)=   10.39900  celldm(2)=    0.00000  celldm(3)=    0.00000
     celldm(4)=    0.00000  celldm(5)=    0.00000  celldm(6)=    0.00000

     crystal axes: (cart. coord. in units of alat)
               a(1) = ( -0.5000  0.0000  0.5000 )  
               a(2) = (  0.0000  0.5000  0.5000 )  
               a(3) = ( -0.5000  0.5000  0.0000 )  

     reciprocal axes: (cart. coord. in units 2 pi/alat)
               b(1) = ( -1.0000 -1.0000  1.0000 )  
               b(2) = (  1.0000  1.0000  1.0000 )  
               b(3) = ( -1.0000  1.0000 -1.0000 )  


     Atoms inside the unit cell: 

     Cartesian axes

     site n.  atom      mass           positions (alat units)
        1     Si  28.0860   tau(    1) = (    0.00000    0.00000    0.00000  )
        2     Si  28.0860   tau(    2) = (    0.25000    0.25000    0.25000  )

     Computing dynamical matrix for 
                    q = (  -0.5000000  -1.0000000   0.0000000 )

      8 Sym.Ops. (no q -> -q+G )


     G cutoff =  197.2223  (    722 G-vectors)     FFT grid: ( 20, 20, 20)
     number of k points=    64

     PseudoPot. # 1 for Si read from file:
     /home/max/quantum_espresso/qe-6.1/pseudo/si_pbe_v1.uspp.F.UPF.txt
     MD5 check sum: a056efeee980c13900f22a371efd63c1
     Pseudo is Ultrasoft + core correction, Zval =  4.0
     Generated by new atomic code, or converted to UPF format
     Using radial grid of  899 points,  6 beta functions with: 
                l(1) =   0
                l(2) =   0
                l(3) =   1
                l(4) =   1
                l(5) =   2
                l(6) =   2
     Q(r) pseudized with  8 coefficients,  rinner =    0.900   0.900   0.900
                                                       0.900   0.900


     Atomic displacements:
     There are   3 irreducible representations

     Representation     1      2 modes -  To be done

     Representation     2      2 modes -  To be done

     Representation     3      2 modes -  To be done



     Alpha used in Ewald sum =   0.7000
     PHONON       :  1m14.71s CPU     1m19.85s WALL



     Representation #  1 modes #   1  2

     Self-consistent Calculation

      iter #   1 total cpu time :    80.1 secs   av.it.:   5.3
      thresh= 1.000E-02 alpha_mix =  0.700 |ddv_scf|^2 =  6.802E-06

      iter #   2 total cpu time :    80.4 secs   av.it.:   9.8
      thresh= 2.608E-04 alpha_mix =  0.700 |ddv_scf|^2 =  3.678E-06

      iter #   3 total cpu time :    80.7 secs   av.it.:   9.2
      thresh= 1.918E-04 alpha_mix =  0.700 |ddv_scf|^2 =  8.498E-09

      iter #   4 total cpu time :    81.0 secs   av.it.:   9.1
      thresh= 9.218E-06 alpha_mix =  0.700 |ddv_scf|^2 =  8.980E-11

      iter #   5 total cpu time :    81.5 secs   av.it.:   8.6
      thresh= 9.476E-07 alpha_mix =  0.700 |ddv_scf|^2 =  8.682E-13

     End of self-consistent calculation

     Convergence has been achieved 


     Representation #  2 modes #   3  4

     Self-consistent Calculation

      iter #   1 total cpu time :    81.8 secs   av.it.:   5.3
      thresh= 1.000E-02 alpha_mix =  0.700 |ddv_scf|^2 =  9.703E-06

      iter #   2 total cpu time :    82.1 secs   av.it.:   9.9
      thresh= 3.115E-04 alpha_mix =  0.700 |ddv_scf|^2 =  1.319E-05

      iter #   3 total cpu time :    82.4 secs   av.it.:   9.1
      thresh= 3.632E-04 alpha_mix =  0.700 |ddv_scf|^2 =  1.017E-08

      iter #   4 total cpu time :    82.7 secs   av.it.:   8.9
      thresh= 1.008E-05 alpha_mix =  0.700 |ddv_scf|^2 =  9.684E-11

      iter #   5 total cpu time :    83.0 secs   av.it.:   9.4
      thresh= 9.841E-07 alpha_mix =  0.700 |ddv_scf|^2 =  1.855E-12

      iter #   6 total cpu time :    83.6 secs   av.it.:   9.1
      thresh= 1.362E-07 alpha_mix =  0.700 |ddv_scf|^2 =  1.656E-14

     End of self-consistent calculation

     Convergence has been achieved 


     Representation #  3 modes #   5  6

     Self-consistent Calculation

      iter #   1 total cpu time :    83.8 secs   av.it.:   5.1
      thresh= 1.000E-02 alpha_mix =  0.700 |ddv_scf|^2 =  2.727E-06

      iter #   2 total cpu time :    84.1 secs   av.it.:   9.7
      thresh= 1.651E-04 alpha_mix =  0.700 |ddv_scf|^2 =  1.541E-06

      iter #   3 total cpu time :    84.4 secs   av.it.:   9.0
      thresh= 1.241E-04 alpha_mix =  0.700 |ddv_scf|^2 =  7.928E-09

      iter #   4 total cpu time :    84.7 secs   av.it.:   8.8
      thresh= 8.904E-06 alpha_mix =  0.700 |ddv_scf|^2 =  9.069E-11

      iter #   5 total cpu time :    85.0 secs   av.it.:   9.0
      thresh= 9.523E-07 alpha_mix =  0.700 |ddv_scf|^2 =  9.336E-13

     End of self-consistent calculation

     Convergence has been achieved 

     Number of q in the star =    6
     List of q in the star:
          1  -0.500000000  -1.000000000   0.000000000
          2   0.000000000   1.000000000   0.500000000
          3   0.000000000  -1.000000000  -0.500000000
          4   0.500000000   1.000000000   0.000000000
          5  -1.000000000  -0.500000000   0.000000000
          6   0.000000000  -0.500000000  -1.000000000

     Diagonalizing the dynamical matrix

     q = (   -0.500000000  -1.000000000   0.000000000 ) 

 **************************************************************************
     freq (    1) =       7.800402 [THz] =     260.193407 [cm-1]
     freq (    2) =       7.800402 [THz] =     260.193407 [cm-1]
     freq (    3) =      11.029056 [THz] =     367.889710 [cm-1]
     freq (    4) =      11.029056 [THz] =     367.889710 [cm-1]
     freq (    5) =      13.777231 [THz] =     459.558946 [cm-1]
     freq (    6) =      13.777231 [THz] =     459.558946 [cm-1]
 **************************************************************************

     init_run     :      0.53s CPU      0.63s WALL (       7 calls)
     electrons    :      4.67s CPU      5.15s WALL (       7 calls)

     Called by init_run:
     wfcinit      :      0.00s CPU      0.00s WALL (       7 calls)
     potinit      :      0.01s CPU      0.02s WALL (       7 calls)

     Called by electrons:
     c_bands      :      4.67s CPU      5.14s WALL (       7 calls)
     v_of_rho     :      0.01s CPU      0.01s WALL (       8 calls)
     newd         :      0.03s CPU      0.04s WALL (       8 calls)

     Called by c_bands:
     init_us_2    :      0.68s CPU      0.73s WALL (   17708 calls)
     cegterg      :      3.92s CPU      4.29s WALL (     796 calls)

     Called by sum_band:

     Called by *egterg:
     h_psi        :     43.86s CPU     46.85s WALL (  152889 calls)
     s_psi        :      5.85s CPU      6.21s WALL (  310618 calls)
     g_psi        :      0.03s CPU      0.03s WALL (    9268 calls)
     cdiaghg      :      0.45s CPU      0.48s WALL (   10064 calls)

     Called by h_psi:
     h_psi:pot    :     43.67s CPU     46.65s WALL (  152889 calls)
     h_psi:calbec :      4.68s CPU      4.96s WALL (  152889 calls)
     vloc_psi     :     35.85s CPU     38.36s WALL (  152889 calls)
     add_vuspsi   :      2.92s CPU      3.11s WALL (  152889 calls)

     General routines
     calbec       :     10.08s CPU     10.75s WALL (  347110 calls)
     fft          :      0.39s CPU      0.46s WALL (    5267 calls)
     ffts         :      0.13s CPU      0.14s WALL (    2748 calls)
     fftw         :     41.52s CPU     44.41s WALL ( 1385258 calls)
     davcio       :      0.31s CPU      0.34s WALL (   79671 calls)

     Parallel routines
     fft_scatter  :      9.59s CPU     10.76s WALL ( 1393273 calls)

     PHONON       :  1m19.55s CPU     1m25.07s WALL

     INITIALIZATION: 
     phq_setup    :      0.05s CPU      0.05s WALL (       8 calls)
     phq_init     :      1.95s CPU      1.98s WALL (       8 calls)

     phq_init     :      1.95s CPU      1.98s WALL (       8 calls)
     set_drhoc    :      0.29s CPU      0.29s WALL (      24 calls)
     init_vloc    :      0.01s CPU      0.01s WALL (       8 calls)
     init_us_1    :      0.48s CPU      0.55s WALL (       8 calls)
     newd         :      0.03s CPU      0.04s WALL (       8 calls)
     dvanqq       :      0.23s CPU      0.24s WALL (       8 calls)
     drho         :      0.99s CPU      1.01s WALL (       8 calls)

     DYNAMICAL MATRIX:
     dynmat0      :      0.49s CPU      0.50s WALL (       8 calls)
     phqscf       :     69.78s CPU     74.59s WALL (       8 calls)
     dynmatrix    :      0.01s CPU      0.02s WALL (       8 calls)

     phqscf       :     69.78s CPU     74.59s WALL (       8 calls)
     solve_linter :     69.09s CPU     73.86s WALL (      32 calls)
     drhodv       :      0.49s CPU      0.51s WALL (      32 calls)

     dynmat0      :      0.49s CPU      0.50s WALL (       8 calls)
     dynmat_us    :      0.26s CPU      0.27s WALL (       8 calls)
     d2ionq       :      0.01s CPU      0.01s WALL (       8 calls)
     dynmatcc     :      0.21s CPU      0.21s WALL (       8 calls)

     dynmat_us    :      0.26s CPU      0.27s WALL (       8 calls)
     addusdynmat  :      0.00s CPU      0.00s WALL (       8 calls)

     phqscf       :     69.78s CPU     74.59s WALL (       8 calls)
     solve_linter :     69.09s CPU     73.86s WALL (      32 calls)

     solve_linter :     69.09s CPU     73.86s WALL (      32 calls)
     dvqpsi_us    :      1.60s CPU      1.69s WALL (    2508 calls)
     ortho        :      1.13s CPU      1.19s WALL (   15670 calls)
     cgsolve      :     54.18s CPU     57.93s WALL (   15670 calls)
     incdrhoscf   :      4.67s CPU      5.01s WALL (   15670 calls)
     addusddens   :      1.15s CPU      1.18s WALL (     230 calls)
     vpsifft      :      3.40s CPU      3.62s WALL (   13042 calls)
     dv_of_drho   :      0.21s CPU      0.23s WALL (     297 calls)
     mix_pot      :      0.06s CPU      0.08s WALL (     203 calls)
     psymdvscf    :      0.84s CPU      0.84s WALL (     198 calls)
     newdq        :      1.29s CPU      1.40s WALL (     203 calls)
     adddvscf     :      0.47s CPU      0.52s WALL (   13162 calls)
     drhodvus     :      0.00s CPU      0.00s WALL (      32 calls)

     dvqpsi_us    :      1.60s CPU      1.69s WALL (    2508 calls)
     dvqpsi_us_on :      0.82s CPU      0.86s WALL (    2508 calls)

     cgsolve      :     54.18s CPU     57.93s WALL (   15670 calls)
     ch_psi       :     52.35s CPU     55.80s WALL (  142029 calls)

     ch_psi       :     52.35s CPU     55.80s WALL (  142029 calls)
     h_psi        :     43.86s CPU     46.85s WALL (  152889 calls)
     last         :      8.69s CPU      9.29s WALL (  142029 calls)

     h_psi        :     43.86s CPU     46.85s WALL (  152889 calls)
     add_vuspsi   :      2.92s CPU      3.11s WALL (  152889 calls)

     incdrhoscf   :      4.67s CPU      5.01s WALL (   15670 calls)
     addusdbec    :      0.63s CPU      0.67s WALL (   18118 calls)

     drhodvus     :      0.00s CPU      0.00s WALL (      32 calls)

      General routines
     calbec       :     10.08s CPU     10.75s WALL (  347110 calls)
     fft          :      0.39s CPU      0.46s WALL (    5267 calls)
     ffts         :      0.13s CPU      0.14s WALL (    2748 calls)
     fftw         :     41.52s CPU     44.41s WALL ( 1385258 calls)
     davcio       :      0.31s CPU      0.34s WALL (   79671 calls)
     write_rec    :      0.21s CPU      0.22s WALL (     235 calls)


     PHONON       :  1m19.55s CPU     1m25.07s WALL


   This run was terminated on:  17:32:54   9Nov2017            

=------------------------------------------------------------------------------=
   JOB DONE.
=------------------------------------------------------------------------------=
