
     Program PWSCF v.6.1 (svn rev. 13369) starts on 10Nov2017 at 10:15:26 

     This program is part of the open-source Quantum ESPRESSO suite
     for quantum simulation of materials; please cite
         "P. Giannozzi et al., J. Phys.:Condens. Matter 21 395502 (2009);
          URL http://www.quantum-espresso.org", 
     in publications or presentations arising from this work. More details at
     http://www.quantum-espresso.org/quote

     Parallel version (MPI), running on     4 processors
     R & G space division:  proc/nbgrp/npool/nimage =       4
     Waiting for input...
     Reading input from standard input
     Message from routine read_cards :
     DEPRECATED: no units specified in ATOMIC_POSITIONS card
     Message from routine read_cards :
     ATOMIC_POSITIONS: units set to alat

     Current dimensions of program PWSCF are:
     Max number of different atomic species (ntypx) = 10
     Max number of k-points (npk) =  40000
     Max angular momentum in pseudopotentials (lmaxx) =  3

     Subspace diagonalization in iterative solution of the eigenvalue problem:
     a serial algorithm will be used


     Parallelization info
     --------------------
     sticks:   dense  smooth     PW     G-vecs:    dense   smooth      PW
     Min         228     112     37                 4535     1593     309
     Max         229     113     38                 4538     1594     312
     Sum         913     451    151                18149     6375    1243



     bravais-lattice index     =            2
     lattice parameter (alat)  =      10.4900  a.u.
     unit-cell volume          =     288.5802 (a.u.)^3
     number of atoms/cell      =            2
     number of atomic types    =            1
     number of electrons       =         8.00
     number of Kohn-Sham states=            4
     kinetic-energy cutoff     =      30.0000  Ry
     charge density cutoff     =     240.0000  Ry
     convergence threshold     =      1.0E-08
     mixing beta               =       0.7000
     number of iterations used =            8  plain     mixing
     Exchange-correlation      = SLA  PW   PBE  PBE ( 1  4  3  4 0 0)

     celldm(1)=  10.490000  celldm(2)=   0.000000  celldm(3)=   0.000000
     celldm(4)=   0.000000  celldm(5)=   0.000000  celldm(6)=   0.000000

     crystal axes: (cart. coord. in units of alat)
               a(1) = (  -0.500000   0.000000   0.500000 )  
               a(2) = (   0.000000   0.500000   0.500000 )  
               a(3) = (  -0.500000   0.500000   0.000000 )  

     reciprocal axes: (cart. coord. in units 2 pi/alat)
               b(1) = ( -1.000000 -1.000000  1.000000 )  
               b(2) = (  1.000000  1.000000  1.000000 )  
               b(3) = ( -1.000000  1.000000 -1.000000 )  


     PseudoPot. # 1 for Si read from file:
     /home/max/quantum_espresso/qe-6.1/pseudo/si_pbe_v1.uspp.F.UPF.txt
     MD5 check sum: a056efeee980c13900f22a371efd63c1
     Pseudo is Ultrasoft + core correction, Zval =  4.0
     Generated by new atomic code, or converted to UPF format
     Using radial grid of  899 points,  6 beta functions with: 
                l(1) =   0
                l(2) =   0
                l(3) =   1
                l(4) =   1
                l(5) =   2
                l(6) =   2
     Q(r) pseudized with  8 coefficients,  rinner =    0.900   0.900   0.900
                                                       0.900   0.900

     atomic species   valence    mass     pseudopotential
        Si             4.00    28.08600     Si( 1.00)

     48 Sym. Ops., with inversion, found (24 have fractional translation)



   Cartesian axes

     site n.     atom                  positions (alat units)
         1           Si  tau(   1) = (   0.0000000   0.0000000   0.0000000  )
         2           Si  tau(   2) = (   0.2500000   0.2500000   0.2500000  )

     number of k points=    28
                       cart. coord. in units 2pi/alat
        k(    1) = (  -0.0833333   0.0833333   0.0833333), wk =   0.0185185
        k(    2) = (  -0.2500000   0.2500000  -0.0833333), wk =   0.0555556
        k(    3) = (  -0.4166667   0.4166667  -0.2500000), wk =   0.0555556
        k(    4) = (   0.4166667  -0.4166667   0.5833333), wk =   0.0555556
        k(    5) = (   0.2500000  -0.2500000   0.4166667), wk =   0.0555556
        k(    6) = (   0.0833333  -0.0833333   0.2500000), wk =   0.0555556
        k(    7) = (  -0.0833333   0.4166667   0.0833333), wk =   0.0555556
        k(    8) = (  -0.2500000   0.5833333  -0.0833333), wk =   0.1111111
        k(    9) = (   0.5833333  -0.2500000   0.7500000), wk =   0.1111111
        k(   10) = (   0.4166667  -0.0833333   0.5833333), wk =   0.1111111
        k(   11) = (   0.2500000   0.0833333   0.4166667), wk =   0.1111111
        k(   12) = (  -0.0833333   0.7500000   0.0833333), wk =   0.0555556
        k(   13) = (   0.7500000  -0.0833333   0.9166667), wk =   0.1111111
        k(   14) = (   0.5833333   0.0833333   0.7500000), wk =   0.1111111
        k(   15) = (   0.4166667   0.2500000   0.5833333), wk =   0.1111111
        k(   16) = (  -0.0833333  -0.9166667   0.0833333), wk =   0.0555556
        k(   17) = (  -0.2500000  -0.7500000  -0.0833333), wk =   0.1111111
        k(   18) = (  -0.0833333  -0.5833333   0.0833333), wk =   0.0555556
        k(   19) = (  -0.2500000   0.2500000   0.2500000), wk =   0.0185185
        k(   20) = (  -0.4166667   0.4166667   0.0833333), wk =   0.0555556
        k(   21) = (   0.4166667  -0.4166667   0.9166667), wk =   0.0555556
        k(   22) = (   0.2500000  -0.2500000   0.7500000), wk =   0.0555556
        k(   23) = (  -0.2500000   0.5833333   0.2500000), wk =   0.0555556
        k(   24) = (   0.5833333  -0.2500000   1.0833333), wk =   0.1111111
        k(   25) = (   0.4166667  -0.0833333   0.9166667), wk =   0.1111111
        k(   26) = (  -0.2500000  -1.0833333   0.2500000), wk =   0.0555556
        k(   27) = (  -0.4166667   0.4166667   0.4166667), wk =   0.0185185
        k(   28) = (   0.4166667  -0.4166667   1.2500000), wk =   0.0555556

     Dense  grid:    18149 G-vectors     FFT dimensions: (  40,  40,  40)

     Smooth grid:     6375 G-vectors     FFT dimensions: (  25,  25,  25)

     Estimated max dynamical RAM per process >       3.47MB

     Estimated total allocated dynamical RAM >      13.86MB

     Initial potential from superposition of free atoms

     starting charge    7.99866, renormalised to    8.00000
     Starting wfc are    8 randomized atomic wfcs

     total cpu time spent up to now is        0.5 secs

     per-process dynamical memory:    11.0 Mb

     Self-consistent Calculation

     iteration #  1     ecut=    30.00 Ry     beta=0.70
     Davidson diagonalization with overlap
     ethr =  1.00E-02,  avg # of iterations =  2.0

     Threshold (ethr) on eigenvalues was too large:
     Diagonalizing with lowered threshold

     Davidson diagonalization with overlap
     ethr =  6.28E-04,  avg # of iterations =  1.0

     total cpu time spent up to now is        0.9 secs

     total energy              =     -19.18990340 Ry
     Harris-Foulkes estimate   =     -19.20059983 Ry
     estimated scf accuracy    <       0.04982702 Ry

     iteration #  2     ecut=    30.00 Ry     beta=0.70
     Davidson diagonalization with overlap
     ethr =  6.23E-04,  avg # of iterations =  1.0

     total cpu time spent up to now is        1.2 secs

     total energy              =     -19.19138466 Ry
     Harris-Foulkes estimate   =     -19.19155190 Ry
     estimated scf accuracy    <       0.00245337 Ry

     iteration #  3     ecut=    30.00 Ry     beta=0.70
     Davidson diagonalization with overlap
     ethr =  3.07E-05,  avg # of iterations =  2.2

     total cpu time spent up to now is        1.5 secs

     total energy              =     -19.19168960 Ry
     Harris-Foulkes estimate   =     -19.19169882 Ry
     estimated scf accuracy    <       0.00003395 Ry

     iteration #  4     ecut=    30.00 Ry     beta=0.70
     Davidson diagonalization with overlap
     ethr =  4.24E-07,  avg # of iterations =  3.3

     total cpu time spent up to now is        2.0 secs

     total energy              =     -19.19172368 Ry
     Harris-Foulkes estimate   =     -19.19172394 Ry
     estimated scf accuracy    <       0.00000133 Ry

     iteration #  5     ecut=    30.00 Ry     beta=0.70
     Davidson diagonalization with overlap
     ethr =  1.66E-08,  avg # of iterations =  2.2

     total cpu time spent up to now is        2.3 secs

     End of self-consistent calculation

          k =-0.0833 0.0833 0.0833 (   809 PWs)   bands (ev):

    -5.9067   4.6615   5.3922   5.3922

          k =-0.2500 0.2500-0.0833 (   809 PWs)   bands (ev):

    -5.4557   2.6316   4.2273   5.1851

          k =-0.4167 0.4167-0.2500 (   804 PWs)   bands (ev):

    -4.4289   0.0111   3.7672   4.5805

          k = 0.4167-0.4167 0.5833 (   799 PWs)   bands (ev):

    -3.7858  -1.0573   3.8192   4.2236

          k = 0.2500-0.2500 0.4167 (   800 PWs)   bands (ev):

    -4.8142   0.8115   4.2884   4.2925

          k = 0.0833-0.0833 0.2500 (   807 PWs)   bands (ev):

    -5.6788   3.5993   4.7888   4.9418

          k =-0.0833 0.4167 0.0833 (   812 PWs)   bands (ev):

    -5.2271   2.4057   4.0687   4.0994

          k =-0.2500 0.5833-0.0833 (   807 PWs)   bands (ev):

    -4.3679   0.6426   2.8359   3.7291

          k = 0.5833-0.2500 0.7500 (   801 PWs)   bands (ev):

    -3.3317  -0.9846   2.2488   3.5202

          k = 0.4167-0.0833 0.5833 (   800 PWs)   bands (ev):

    -3.9997  -0.0047   2.2307   3.9720

          k = 0.2500 0.0833 0.4167 (   810 PWs)   bands (ev):

    -5.0147   1.6307   3.4918   4.5915

          k =-0.0833 0.7500 0.0833 (   796 PWs)   bands (ev):

    -3.6927  -0.1776   2.8106   3.1219

          k = 0.7500-0.0833 0.9167 (   791 PWs)   bands (ev):

    -2.5693  -1.4529   2.0325   2.7488

          k = 0.5833 0.0833 0.7500 (   801 PWs)   bands (ev):

    -2.9336  -1.1077   1.5735   3.2608

          k = 0.4167 0.2500 0.5833 (   803 PWs)   bands (ev):

    -3.9008  -0.6067   3.0860   4.0608

          k =-0.0833-0.9167 0.0833 (   792 PWs)   bands (ev):

    -2.6489  -1.4574   2.5572   2.9168

          k =-0.2500-0.7500-0.0833 (   795 PWs)   bands (ev):

    -3.5375  -0.3840   2.3238   3.0707

          k =-0.0833-0.5833 0.0833 (   810 PWs)   bands (ev):

    -4.5601   1.1327   3.3191   3.5236

          k =-0.2500 0.2500 0.2500 (   806 PWs)   bands (ev):

    -5.2392   1.7122   4.8085   4.8085

          k =-0.4167 0.4167 0.0833 (   803 PWs)   bands (ev):

    -4.5987   0.7817   2.8003   4.6433

          k = 0.4167-0.4167 0.9167 (   796 PWs)   bands (ev):

    -3.4948  -0.6105   1.7668   3.9061

          k = 0.2500-0.2500 0.7500 (   797 PWs)   bands (ev):

    -3.4424  -0.6874   2.2070   3.4541

          k =-0.2500 0.5833 0.2500 (   800 PWs)   bands (ev):

    -4.2005   0.0239   3.2093   3.8070

          k = 0.5833-0.2500 1.0833 (   799 PWs)   bands (ev):

    -3.2592  -0.7413   1.8647   3.0748

          k = 0.4167-0.0833 0.9167 (   792 PWs)   bands (ev):

    -2.4782  -1.4604   1.7271   2.4535

          k =-0.2500-1.0833 0.2500 (   798 PWs)   bands (ev):

    -2.6790  -1.3551   1.6078   3.2699

          k =-0.4167 0.4167 0.4167 (   799 PWs)   bands (ev):

    -4.1256  -0.6803   4.4337   4.4337

          k = 0.4167-0.4167 1.2500 (   802 PWs)   bands (ev):

    -3.5617  -0.9865   2.6876   4.0241

     highest occupied level (ev):     5.3922

!    total energy              =     -19.19172392 Ry
     Harris-Foulkes estimate   =     -19.19172392 Ry
     estimated scf accuracy    <          5.1E-09 Ry

     The total energy is the sum of the following terms:

     one-electron contribution =       4.61137698 Ry
     hartree contribution      =       1.17400713 Ry
     xc contribution           =      -8.54454965 Ry
     ewald contribution        =     -16.43255838 Ry

     convergence has been achieved in   5 iterations

     Writing output data file silicon.10.49.save

     init_run     :      0.35s CPU      0.41s WALL (       1 calls)
     electrons    :      1.40s CPU      1.75s WALL (       1 calls)

     Called by init_run:
     wfcinit      :      0.09s CPU      0.10s WALL (       1 calls)
     potinit      :      0.03s CPU      0.03s WALL (       1 calls)

     Called by electrons:
     c_bands      :      0.82s CPU      1.04s WALL (       6 calls)
     sum_band     :      0.33s CPU      0.36s WALL (       6 calls)
     v_of_rho     :      0.11s CPU      0.16s WALL (       6 calls)
     newd         :      0.14s CPU      0.20s WALL (       6 calls)
     mix_rho      :      0.01s CPU      0.02s WALL (       6 calls)

     Called by c_bands:
     init_us_2    :      0.05s CPU      0.06s WALL (     364 calls)
     cegterg      :      0.70s CPU      0.90s WALL (     168 calls)

     Called by sum_band:
     sum_band:bec :      0.00s CPU      0.00s WALL (     168 calls)
     addusdens    :      0.16s CPU      0.17s WALL (       6 calls)

     Called by *egterg:
     h_psi        :      0.60s CPU      0.76s WALL (     525 calls)
     s_psi        :      0.05s CPU      0.05s WALL (     525 calls)
     g_psi        :      0.00s CPU      0.00s WALL (     329 calls)
     cdiaghg      :      0.04s CPU      0.04s WALL (     469 calls)

     Called by h_psi:
     h_psi:pot    :      0.59s CPU      0.76s WALL (     525 calls)
     h_psi:calbec :      0.07s CPU      0.11s WALL (     525 calls)
     vloc_psi     :      0.48s CPU      0.59s WALL (     525 calls)
     add_vuspsi   :      0.05s CPU      0.05s WALL (     525 calls)

     General routines
     calbec       :      0.09s CPU      0.13s WALL (     693 calls)
     fft          :      0.10s CPU      0.18s WALL (      96 calls)
     ffts         :      0.00s CPU      0.00s WALL (      12 calls)
     fftw         :      0.48s CPU      0.60s WALL (    4644 calls)
     interpolate  :      0.01s CPU      0.02s WALL (      12 calls)
     davcio       :      0.00s CPU      0.00s WALL (      28 calls)

     Parallel routines
     fft_scatter  :      0.28s CPU      0.45s WALL (    4752 calls)

     PWSCF        :     1.96s CPU         2.39s WALL


   This run was terminated on:  10:15:29  10Nov2017            

=------------------------------------------------------------------------------=
   JOB DONE.
=------------------------------------------------------------------------------=
