
     Program PWSCF v.6.1 (svn rev. 13369) starts on 10Nov2017 at 10:27:53 

     This program is part of the open-source Quantum ESPRESSO suite
     for quantum simulation of materials; please cite
         "P. Giannozzi et al., J. Phys.:Condens. Matter 21 395502 (2009);
          URL http://www.quantum-espresso.org", 
     in publications or presentations arising from this work. More details at
     http://www.quantum-espresso.org/quote

     Parallel version (MPI), running on     4 processors
     R & G space division:  proc/nbgrp/npool/nimage =       4
     Waiting for input...
     Reading input from standard input
     Message from routine read_cards :
     DEPRECATED: no units specified in ATOMIC_POSITIONS card
     Message from routine read_cards :
     ATOMIC_POSITIONS: units set to alat

     Current dimensions of program PWSCF are:
     Max number of different atomic species (ntypx) = 10
     Max number of k-points (npk) =  40000
     Max angular momentum in pseudopotentials (lmaxx) =  3

     Subspace diagonalization in iterative solution of the eigenvalue problem:
     a serial algorithm will be used


     Parallelization info
     --------------------
     sticks:   dense  smooth     PW     G-vecs:    dense   smooth      PW
     Min         211     105     34                 4088     1441     266
     Max         212     106     35                 4091     1445     267
     Sum         847     421    139                16361     5769    1067



     bravais-lattice index     =            2
     lattice parameter (alat)  =      10.1100  a.u.
     unit-cell volume          =     258.3411 (a.u.)^3
     number of atoms/cell      =            2
     number of atomic types    =            1
     number of electrons       =         8.00
     number of Kohn-Sham states=            4
     kinetic-energy cutoff     =      30.0000  Ry
     charge density cutoff     =     240.0000  Ry
     convergence threshold     =      1.0E-08
     mixing beta               =       0.7000
     number of iterations used =            8  plain     mixing
     Exchange-correlation      = SLA  PW   PBE  PBE ( 1  4  3  4 0 0)

     celldm(1)=  10.110000  celldm(2)=   0.000000  celldm(3)=   0.000000
     celldm(4)=   0.000000  celldm(5)=   0.000000  celldm(6)=   0.000000

     crystal axes: (cart. coord. in units of alat)
               a(1) = (  -0.500000   0.000000   0.500000 )  
               a(2) = (   0.000000   0.500000   0.500000 )  
               a(3) = (  -0.500000   0.500000   0.000000 )  

     reciprocal axes: (cart. coord. in units 2 pi/alat)
               b(1) = ( -1.000000 -1.000000  1.000000 )  
               b(2) = (  1.000000  1.000000  1.000000 )  
               b(3) = ( -1.000000  1.000000 -1.000000 )  


     PseudoPot. # 1 for Si read from file:
     /home/max/quantum_espresso/qe-6.1/pseudo/si_pbe_v1.uspp.F.UPF.txt
     MD5 check sum: a056efeee980c13900f22a371efd63c1
     Pseudo is Ultrasoft + core correction, Zval =  4.0
     Generated by new atomic code, or converted to UPF format
     Using radial grid of  899 points,  6 beta functions with: 
                l(1) =   0
                l(2) =   0
                l(3) =   1
                l(4) =   1
                l(5) =   2
                l(6) =   2
     Q(r) pseudized with  8 coefficients,  rinner =    0.900   0.900   0.900
                                                       0.900   0.900

     atomic species   valence    mass     pseudopotential
        Si             4.00    28.08600     Si( 1.00)

     48 Sym. Ops., with inversion, found (24 have fractional translation)



   Cartesian axes

     site n.     atom                  positions (alat units)
         1           Si  tau(   1) = (   0.0000000   0.0000000   0.0000000  )
         2           Si  tau(   2) = (   0.2500000   0.2500000   0.2500000  )

     number of k points=    28
                       cart. coord. in units 2pi/alat
        k(    1) = (  -0.0833333   0.0833333   0.0833333), wk =   0.0185185
        k(    2) = (  -0.2500000   0.2500000  -0.0833333), wk =   0.0555556
        k(    3) = (  -0.4166667   0.4166667  -0.2500000), wk =   0.0555556
        k(    4) = (   0.4166667  -0.4166667   0.5833333), wk =   0.0555556
        k(    5) = (   0.2500000  -0.2500000   0.4166667), wk =   0.0555556
        k(    6) = (   0.0833333  -0.0833333   0.2500000), wk =   0.0555556
        k(    7) = (  -0.0833333   0.4166667   0.0833333), wk =   0.0555556
        k(    8) = (  -0.2500000   0.5833333  -0.0833333), wk =   0.1111111
        k(    9) = (   0.5833333  -0.2500000   0.7500000), wk =   0.1111111
        k(   10) = (   0.4166667  -0.0833333   0.5833333), wk =   0.1111111
        k(   11) = (   0.2500000   0.0833333   0.4166667), wk =   0.1111111
        k(   12) = (  -0.0833333   0.7500000   0.0833333), wk =   0.0555556
        k(   13) = (   0.7500000  -0.0833333   0.9166667), wk =   0.1111111
        k(   14) = (   0.5833333   0.0833333   0.7500000), wk =   0.1111111
        k(   15) = (   0.4166667   0.2500000   0.5833333), wk =   0.1111111
        k(   16) = (  -0.0833333  -0.9166667   0.0833333), wk =   0.0555556
        k(   17) = (  -0.2500000  -0.7500000  -0.0833333), wk =   0.1111111
        k(   18) = (  -0.0833333  -0.5833333   0.0833333), wk =   0.0555556
        k(   19) = (  -0.2500000   0.2500000   0.2500000), wk =   0.0185185
        k(   20) = (  -0.4166667   0.4166667   0.0833333), wk =   0.0555556
        k(   21) = (   0.4166667  -0.4166667   0.9166667), wk =   0.0555556
        k(   22) = (   0.2500000  -0.2500000   0.7500000), wk =   0.0555556
        k(   23) = (  -0.2500000   0.5833333   0.2500000), wk =   0.0555556
        k(   24) = (   0.5833333  -0.2500000   1.0833333), wk =   0.1111111
        k(   25) = (   0.4166667  -0.0833333   0.9166667), wk =   0.1111111
        k(   26) = (  -0.2500000  -1.0833333   0.2500000), wk =   0.0555556
        k(   27) = (  -0.4166667   0.4166667   0.4166667), wk =   0.0185185
        k(   28) = (   0.4166667  -0.4166667   1.2500000), wk =   0.0555556

     Dense  grid:    16361 G-vectors     FFT dimensions: (  36,  36,  36)

     Smooth grid:     5769 G-vectors     FFT dimensions: (  25,  25,  25)

     Estimated max dynamical RAM per process >       2.93MB

     Estimated total allocated dynamical RAM >      11.72MB

     Initial potential from superposition of free atoms

     starting charge    7.99866, renormalised to    8.00000
     Starting wfc are    8 randomized atomic wfcs

     total cpu time spent up to now is        0.9 secs

     per-process dynamical memory:    10.0 Mb

     Self-consistent Calculation

     iteration #  1     ecut=    30.00 Ry     beta=0.70
     Davidson diagonalization with overlap
     ethr =  1.00E-02,  avg # of iterations =  2.0

     Threshold (ethr) on eigenvalues was too large:
     Diagonalizing with lowered threshold

     Davidson diagonalization with overlap
     ethr =  7.54E-04,  avg # of iterations =  1.0

     total cpu time spent up to now is        1.3 secs

     total energy              =     -19.18692816 Ry
     Harris-Foulkes estimate   =     -19.20221315 Ry
     estimated scf accuracy    <       0.05963041 Ry

     iteration #  2     ecut=    30.00 Ry     beta=0.70
     Davidson diagonalization with overlap
     ethr =  7.45E-04,  avg # of iterations =  1.0

     total cpu time spent up to now is        1.5 secs

     total energy              =     -19.18918238 Ry
     Harris-Foulkes estimate   =     -19.18934840 Ry
     estimated scf accuracy    <       0.00242631 Ry

     iteration #  3     ecut=    30.00 Ry     beta=0.70
     Davidson diagonalization with overlap
     ethr =  3.03E-05,  avg # of iterations =  2.2

     total cpu time spent up to now is        1.7 secs

     total energy              =     -19.18958430 Ry
     Harris-Foulkes estimate   =     -19.18960227 Ry
     estimated scf accuracy    <       0.00005351 Ry

     iteration #  4     ecut=    30.00 Ry     beta=0.70
     Davidson diagonalization with overlap
     ethr =  6.69E-07,  avg # of iterations =  3.4

     total cpu time spent up to now is        2.0 secs

     total energy              =     -19.18962665 Ry
     Harris-Foulkes estimate   =     -19.18962857 Ry
     estimated scf accuracy    <       0.00000596 Ry

     iteration #  5     ecut=    30.00 Ry     beta=0.70
     Davidson diagonalization with overlap
     ethr =  7.44E-08,  avg # of iterations =  2.0

     total cpu time spent up to now is        2.3 secs

     total energy              =     -19.18962745 Ry
     Harris-Foulkes estimate   =     -19.18962745 Ry
     estimated scf accuracy    <       0.00000003 Ry

     iteration #  6     ecut=    30.00 Ry     beta=0.70
     Davidson diagonalization with overlap
     ethr =  3.14E-10,  avg # of iterations =  3.7

     total cpu time spent up to now is        3.0 secs

     End of self-consistent calculation

          k =-0.0833 0.0833 0.0833 (   719 PWs)   bands (ev):

    -5.5090   5.8082   6.5200   6.5200

          k =-0.2500 0.2500-0.0833 (   714 PWs)   bands (ev):

    -5.0117   3.6851   5.2250   6.3089

          k =-0.4167 0.4167-0.2500 (   728 PWs)   bands (ev):

    -3.8661   0.8069   4.7588   5.6448

          k = 0.4167-0.4167 0.5833 (   721 PWs)   bands (ev):

    -3.1204  -0.4012   4.8385   5.2438

          k = 0.2500-0.2500 0.4167 (   720 PWs)   bands (ev):

    -4.2996   1.6913   5.2983   5.3599

          k = 0.0833-0.0833 0.2500 (   711 PWs)   bands (ev):

    -5.2581   4.7318   5.8370   6.0560

          k =-0.0833 0.4167 0.0833 (   706 PWs)   bands (ev):

    -4.7604   3.5321   5.0731   5.0759

          k =-0.2500 0.5833-0.0833 (   718 PWs)   bands (ev):

    -3.8086   1.6318   3.6829   4.6730

          k = 0.5833-0.2500 0.7500 (   717 PWs)   bands (ev):

    -2.6245  -0.2256   3.0721   4.4291

          k = 0.4167-0.0833 0.5833 (   717 PWs)   bands (ev):

    -3.3924   0.8999   3.0077   4.9462

          k = 0.2500 0.0833 0.4167 (   714 PWs)   bands (ev):

    -4.5244   2.6424   4.4143   5.6578

          k =-0.0833 0.7500 0.0833 (   718 PWs)   bands (ev):

    -3.0677   0.8044   3.6359   4.0018

          k = 0.7500-0.0833 0.9167 (   722 PWs)   bands (ev):

    -1.8117  -0.5883   2.7379   3.5650

          k = 0.5833 0.0833 0.7500 (   714 PWs)   bands (ev):

    -2.1865  -0.2651   2.2361   4.1391

          k = 0.4167 0.2500 0.5833 (   720 PWs)   bands (ev):

    -3.2688   0.1432   4.0250   5.0522

          k =-0.0833-0.9167 0.0833 (   718 PWs)   bands (ev):

    -1.9143  -0.5999   3.3526   3.7780

          k =-0.2500-0.7500-0.0833 (   718 PWs)   bands (ev):

    -2.8878   0.5662   3.0873   3.9206

          k =-0.0833-0.5833 0.0833 (   714 PWs)   bands (ev):

    -4.0251   2.2140   4.2129   4.4410

          k =-0.2500 0.2500 0.2500 (   715 PWs)   bands (ev):

    -4.7716   2.6570   5.8817   5.8817

          k =-0.4167 0.4167 0.0833 (   722 PWs)   bands (ev):

    -4.0612   1.7230   3.6467   5.7098

          k = 0.4167-0.4167 0.9167 (   710 PWs)   bands (ev):

    -2.8199   0.2436   2.4772   4.8809

          k = 0.2500-0.2500 0.7500 (   711 PWs)   bands (ev):

    -2.7681   0.1624   2.9896   4.3731

          k =-0.2500 0.5833 0.2500 (   715 PWs)   bands (ev):

    -3.6160   0.8734   4.1616   4.7633

          k = 0.5833-0.2500 1.0833 (   719 PWs)   bands (ev):

    -2.5637   0.1484   2.5784   3.9121

          k = 0.4167-0.0833 0.9167 (   716 PWs)   bands (ev):

    -1.6907  -0.5963   2.3880   3.2048

          k =-0.2500-1.0833 0.2500 (   719 PWs)   bands (ev):

    -1.9093  -0.5136   2.2559   4.1700

          k =-0.4167 0.4167 0.4167 (   721 PWs)   bands (ev):

    -3.5149   0.0199   5.4828   5.4828

          k = 0.4167-0.4167 1.2500 (   712 PWs)   bands (ev):

    -2.8754  -0.2801   3.5767   5.0155

     highest occupied level (ev):     6.5200

!    total energy              =     -19.18962750 Ry
     Harris-Foulkes estimate   =     -19.18962750 Ry
     estimated scf accuracy    <          1.7E-09 Ry

     The total energy is the sum of the following terms:

     one-electron contribution =       5.45946567 Ry
     hartree contribution      =       1.07680324 Ry
     xc contribution           =      -8.67569488 Ry
     ewald contribution        =     -17.05020153 Ry

     convergence has been achieved in   6 iterations

     Writing output data file silicon.10.11.save

     init_run     :      0.38s CPU      0.78s WALL (       1 calls)
     electrons    :      1.62s CPU      2.12s WALL (       1 calls)

     Called by init_run:
     wfcinit      :      0.10s CPU      0.28s WALL (       1 calls)
     potinit      :      0.02s CPU      0.07s WALL (       1 calls)

     Called by electrons:
     c_bands      :      0.99s CPU      1.32s WALL (       7 calls)
     sum_band     :      0.34s CPU      0.40s WALL (       7 calls)
     v_of_rho     :      0.12s CPU      0.17s WALL (       7 calls)
     newd         :      0.17s CPU      0.22s WALL (       7 calls)
     mix_rho      :      0.01s CPU      0.03s WALL (       7 calls)

     Called by c_bands:
     init_us_2    :      0.05s CPU      0.06s WALL (     420 calls)
     cegterg      :      0.85s CPU      1.14s WALL (     196 calls)

     Called by sum_band:
     sum_band:bec :      0.00s CPU      0.00s WALL (     196 calls)
     addusdens    :      0.16s CPU      0.19s WALL (       7 calls)

     Called by *egterg:
     h_psi        :      0.71s CPU      1.03s WALL (     656 calls)
     s_psi        :      0.05s CPU      0.05s WALL (     656 calls)
     g_psi        :      0.00s CPU      0.00s WALL (     432 calls)
     cdiaghg      :      0.05s CPU      0.08s WALL (     600 calls)

     Called by h_psi:
     h_psi:pot    :      0.71s CPU      1.03s WALL (     656 calls)
     h_psi:calbec :      0.09s CPU      0.14s WALL (     656 calls)
     vloc_psi     :      0.57s CPU      0.83s WALL (     656 calls)
     add_vuspsi   :      0.05s CPU      0.06s WALL (     656 calls)

     General routines
     calbec       :      0.11s CPU      0.16s WALL (     852 calls)
     fft          :      0.11s CPU      0.23s WALL (     112 calls)
     ffts         :      0.01s CPU      0.02s WALL (      14 calls)
     fftw         :      0.57s CPU      0.84s WALL (    5654 calls)
     interpolate  :      0.02s CPU      0.03s WALL (      14 calls)
     davcio       :      0.00s CPU      0.00s WALL (      28 calls)

     Parallel routines
     fft_scatter  :      0.34s CPU      0.70s WALL (    5780 calls)

     PWSCF        :     2.21s CPU         3.14s WALL


   This run was terminated on:  10:27:56  10Nov2017            

=------------------------------------------------------------------------------=
   JOB DONE.
=------------------------------------------------------------------------------=
