
     Program PWSCF v.6.1 (svn rev. 13369) starts on 10Nov2017 at 10:28: 5 

     This program is part of the open-source Quantum ESPRESSO suite
     for quantum simulation of materials; please cite
         "P. Giannozzi et al., J. Phys.:Condens. Matter 21 395502 (2009);
          URL http://www.quantum-espresso.org", 
     in publications or presentations arising from this work. More details at
     http://www.quantum-espresso.org/quote

     Parallel version (MPI), running on     4 processors
     R & G space division:  proc/nbgrp/npool/nimage =       4
     Waiting for input...
     Reading input from standard input
     Message from routine read_cards :
     DEPRECATED: no units specified in ATOMIC_POSITIONS card
     Message from routine read_cards :
     ATOMIC_POSITIONS: units set to alat

     Current dimensions of program PWSCF are:
     Max number of different atomic species (ntypx) = 10
     Max number of k-points (npk) =  40000
     Max angular momentum in pseudopotentials (lmaxx) =  3

     Subspace diagonalization in iterative solution of the eigenvalue problem:
     a serial algorithm will be used


     Parallelization info
     --------------------
     sticks:   dense  smooth     PW     G-vecs:    dense   smooth      PW
     Min         211     107     37                 4088     1454     284
     Max         212     109     38                 4091     1455     285
     Sum         847     433    151                16361     5817    1139



     bravais-lattice index     =            2
     lattice parameter (alat)  =      10.1500  a.u.
     unit-cell volume          =     261.4196 (a.u.)^3
     number of atoms/cell      =            2
     number of atomic types    =            1
     number of electrons       =         8.00
     number of Kohn-Sham states=            4
     kinetic-energy cutoff     =      30.0000  Ry
     charge density cutoff     =     240.0000  Ry
     convergence threshold     =      1.0E-08
     mixing beta               =       0.7000
     number of iterations used =            8  plain     mixing
     Exchange-correlation      = SLA  PW   PBE  PBE ( 1  4  3  4 0 0)

     celldm(1)=  10.150000  celldm(2)=   0.000000  celldm(3)=   0.000000
     celldm(4)=   0.000000  celldm(5)=   0.000000  celldm(6)=   0.000000

     crystal axes: (cart. coord. in units of alat)
               a(1) = (  -0.500000   0.000000   0.500000 )  
               a(2) = (   0.000000   0.500000   0.500000 )  
               a(3) = (  -0.500000   0.500000   0.000000 )  

     reciprocal axes: (cart. coord. in units 2 pi/alat)
               b(1) = ( -1.000000 -1.000000  1.000000 )  
               b(2) = (  1.000000  1.000000  1.000000 )  
               b(3) = ( -1.000000  1.000000 -1.000000 )  


     PseudoPot. # 1 for Si read from file:
     /home/max/quantum_espresso/qe-6.1/pseudo/si_pbe_v1.uspp.F.UPF.txt
     MD5 check sum: a056efeee980c13900f22a371efd63c1
     Pseudo is Ultrasoft + core correction, Zval =  4.0
     Generated by new atomic code, or converted to UPF format
     Using radial grid of  899 points,  6 beta functions with: 
                l(1) =   0
                l(2) =   0
                l(3) =   1
                l(4) =   1
                l(5) =   2
                l(6) =   2
     Q(r) pseudized with  8 coefficients,  rinner =    0.900   0.900   0.900
                                                       0.900   0.900

     atomic species   valence    mass     pseudopotential
        Si             4.00    28.08600     Si( 1.00)

     48 Sym. Ops., with inversion, found (24 have fractional translation)



   Cartesian axes

     site n.     atom                  positions (alat units)
         1           Si  tau(   1) = (   0.0000000   0.0000000   0.0000000  )
         2           Si  tau(   2) = (   0.2500000   0.2500000   0.2500000  )

     number of k points=    28
                       cart. coord. in units 2pi/alat
        k(    1) = (  -0.0833333   0.0833333   0.0833333), wk =   0.0185185
        k(    2) = (  -0.2500000   0.2500000  -0.0833333), wk =   0.0555556
        k(    3) = (  -0.4166667   0.4166667  -0.2500000), wk =   0.0555556
        k(    4) = (   0.4166667  -0.4166667   0.5833333), wk =   0.0555556
        k(    5) = (   0.2500000  -0.2500000   0.4166667), wk =   0.0555556
        k(    6) = (   0.0833333  -0.0833333   0.2500000), wk =   0.0555556
        k(    7) = (  -0.0833333   0.4166667   0.0833333), wk =   0.0555556
        k(    8) = (  -0.2500000   0.5833333  -0.0833333), wk =   0.1111111
        k(    9) = (   0.5833333  -0.2500000   0.7500000), wk =   0.1111111
        k(   10) = (   0.4166667  -0.0833333   0.5833333), wk =   0.1111111
        k(   11) = (   0.2500000   0.0833333   0.4166667), wk =   0.1111111
        k(   12) = (  -0.0833333   0.7500000   0.0833333), wk =   0.0555556
        k(   13) = (   0.7500000  -0.0833333   0.9166667), wk =   0.1111111
        k(   14) = (   0.5833333   0.0833333   0.7500000), wk =   0.1111111
        k(   15) = (   0.4166667   0.2500000   0.5833333), wk =   0.1111111
        k(   16) = (  -0.0833333  -0.9166667   0.0833333), wk =   0.0555556
        k(   17) = (  -0.2500000  -0.7500000  -0.0833333), wk =   0.1111111
        k(   18) = (  -0.0833333  -0.5833333   0.0833333), wk =   0.0555556
        k(   19) = (  -0.2500000   0.2500000   0.2500000), wk =   0.0185185
        k(   20) = (  -0.4166667   0.4166667   0.0833333), wk =   0.0555556
        k(   21) = (   0.4166667  -0.4166667   0.9166667), wk =   0.0555556
        k(   22) = (   0.2500000  -0.2500000   0.7500000), wk =   0.0555556
        k(   23) = (  -0.2500000   0.5833333   0.2500000), wk =   0.0555556
        k(   24) = (   0.5833333  -0.2500000   1.0833333), wk =   0.1111111
        k(   25) = (   0.4166667  -0.0833333   0.9166667), wk =   0.1111111
        k(   26) = (  -0.2500000  -1.0833333   0.2500000), wk =   0.0555556
        k(   27) = (  -0.4166667   0.4166667   0.4166667), wk =   0.0185185
        k(   28) = (   0.4166667  -0.4166667   1.2500000), wk =   0.0555556

     Dense  grid:    16361 G-vectors     FFT dimensions: (  36,  36,  36)

     Smooth grid:     5817 G-vectors     FFT dimensions: (  25,  25,  25)

     Estimated max dynamical RAM per process >       2.94MB

     Estimated total allocated dynamical RAM >      11.75MB

     Initial potential from superposition of free atoms

     starting charge    7.99866, renormalised to    8.00000
     Starting wfc are    8 randomized atomic wfcs

     total cpu time spent up to now is        0.9 secs

     per-process dynamical memory:    10.0 Mb

     Self-consistent Calculation

     iteration #  1     ecut=    30.00 Ry     beta=0.70
     Davidson diagonalization with overlap
     ethr =  1.00E-02,  avg # of iterations =  2.0

     Threshold (ethr) on eigenvalues was too large:
     Diagonalizing with lowered threshold

     Davidson diagonalization with overlap
     ethr =  7.39E-04,  avg # of iterations =  1.0

     total cpu time spent up to now is        1.4 secs

     total energy              =     -19.18828517 Ry
     Harris-Foulkes estimate   =     -19.20304136 Ry
     estimated scf accuracy    <       0.05852634 Ry

     iteration #  2     ecut=    30.00 Ry     beta=0.70
     Davidson diagonalization with overlap
     ethr =  7.32E-04,  avg # of iterations =  1.0

     total cpu time spent up to now is        1.5 secs

     total energy              =     -19.19045026 Ry
     Harris-Foulkes estimate   =     -19.19061654 Ry
     estimated scf accuracy    <       0.00243137 Ry

     iteration #  3     ecut=    30.00 Ry     beta=0.70
     Davidson diagonalization with overlap
     ethr =  3.04E-05,  avg # of iterations =  2.2

     total cpu time spent up to now is        1.8 secs

     total energy              =     -19.19083971 Ry
     Harris-Foulkes estimate   =     -19.19085668 Ry
     estimated scf accuracy    <       0.00005134 Ry

     iteration #  4     ecut=    30.00 Ry     beta=0.70
     Davidson diagonalization with overlap
     ethr =  6.42E-07,  avg # of iterations =  3.4

     total cpu time spent up to now is        2.1 secs

     total energy              =     -19.19088146 Ry
     Harris-Foulkes estimate   =     -19.19088314 Ry
     estimated scf accuracy    <       0.00000531 Ry

     iteration #  5     ecut=    30.00 Ry     beta=0.70
     Davidson diagonalization with overlap
     ethr =  6.64E-08,  avg # of iterations =  2.0

     total cpu time spent up to now is        2.4 secs

     total energy              =     -19.19088220 Ry
     Harris-Foulkes estimate   =     -19.19088220 Ry
     estimated scf accuracy    <       0.00000002 Ry

     iteration #  6     ecut=    30.00 Ry     beta=0.70
     Davidson diagonalization with overlap
     ethr =  3.09E-10,  avg # of iterations =  3.8

     total cpu time spent up to now is        3.1 secs

     End of self-consistent calculation

          k =-0.0833 0.0833 0.0833 (   728 PWs)   bands (ev):

    -5.5536   5.6818   6.3938   6.3938

          k =-0.2500 0.2500-0.0833 (   723 PWs)   bands (ev):

    -5.0614   3.5694   5.1131   6.1828

          k =-0.4167 0.4167-0.2500 (   737 PWs)   bands (ev):

    -3.9290   0.7192   4.6475   5.5253

          k = 0.4167-0.4167 0.5833 (   728 PWs)   bands (ev):

    -3.1949  -0.4732   4.7241   5.1292

          k = 0.2500-0.2500 0.4167 (   726 PWs)   bands (ev):

    -4.3571   1.5944   5.1851   5.2401

          k = 0.0833-0.0833 0.2500 (   720 PWs)   bands (ev):

    -5.3052   4.6077   5.7197   5.9309

          k =-0.0833 0.4167 0.0833 (   724 PWs)   bands (ev):

    -4.8127   3.4083   4.9624   4.9639

          k =-0.2500 0.5833-0.0833 (   729 PWs)   bands (ev):

    -3.8710   1.5226   3.5875   4.5671

          k = 0.5833-0.2500 0.7500 (   722 PWs)   bands (ev):

    -2.7036  -0.3088   2.9789   4.3273

          k = 0.4167-0.0833 0.5833 (   726 PWs)   bands (ev):

    -3.4602   0.8002   2.9200   4.8370

          k = 0.2500 0.0833 0.4167 (   728 PWs)   bands (ev):

    -4.5792   2.5312   4.3106   5.5381

          k =-0.0833 0.7500 0.0833 (   726 PWs)   bands (ev):

    -3.1374   0.6952   3.5433   3.9029

          k = 0.7500-0.0833 0.9167 (   728 PWs)   bands (ev):

    -1.8962  -0.6846   2.6589   3.4735

          k = 0.5833 0.0833 0.7500 (   720 PWs)   bands (ev):

    -2.2701  -0.3583   2.1615   4.0407

          k = 0.4167 0.2500 0.5833 (   726 PWs)   bands (ev):

    -3.3394   0.0608   3.9193   4.9410

          k =-0.0833-0.9167 0.0833 (   728 PWs)   bands (ev):

    -1.9961  -0.6953   3.2634   3.6812

          k =-0.2500-0.7500-0.0833 (   724 PWs)   bands (ev):

    -2.9603   0.4607   3.0015   3.8254

          k =-0.0833-0.5833 0.0833 (   722 PWs)   bands (ev):

    -4.0848   2.0943   4.1125   4.3381

          k =-0.2500 0.2500 0.2500 (   733 PWs)   bands (ev):

    -4.8240   2.5529   5.7614   5.7614

          k =-0.4167 0.4167 0.0833 (   729 PWs)   bands (ev):

    -4.1212   1.6195   3.5513   5.5901

          k = 0.4167-0.4167 0.9167 (   722 PWs)   bands (ev):

    -2.8953   0.1494   2.3970   4.7715

          k = 0.2500-0.2500 0.7500 (   724 PWs)   bands (ev):

    -2.8434   0.0687   2.9012   4.2699

          k =-0.2500 0.5833 0.2500 (   722 PWs)   bands (ev):

    -3.6812   0.7800   4.0542   4.6560

          k = 0.5833-0.2500 1.0833 (   724 PWs)   bands (ev):

    -2.6414   0.0499   2.4979   3.8184

          k = 0.4167-0.0833 0.9167 (   722 PWs)   bands (ev):

    -1.7787  -0.6925   2.3139   3.1208

          k =-0.2500-1.0833 0.2500 (   722 PWs)   bands (ev):

    -1.9953  -0.6070   2.1833   4.0689

          k =-0.4167 0.4167 0.4167 (   736 PWs)   bands (ev):

    -3.5832  -0.0572   5.3650   5.3650

          k = 0.4167-0.4167 1.2500 (   725 PWs)   bands (ev):

    -2.9523  -0.3575   3.4764   4.9043

     highest occupied level (ev):     6.3938

!    total energy              =     -19.19088225 Ry
     Harris-Foulkes estimate   =     -19.19088225 Ry
     estimated scf accuracy    <          2.0E-09 Ry

     The total energy is the sum of the following terms:

     one-electron contribution =       5.36626128 Ry
     hartree contribution      =       1.08701663 Ry
     xc contribution           =      -8.66115154 Ry
     ewald contribution        =     -16.98300862 Ry

     convergence has been achieved in   6 iterations

     Writing output data file silicon.10.15.save

     init_run     :      0.49s CPU      0.85s WALL (       1 calls)
     electrons    :      1.49s CPU      2.15s WALL (       1 calls)

     Called by init_run:
     wfcinit      :      0.12s CPU      0.29s WALL (       1 calls)
     potinit      :      0.02s CPU      0.06s WALL (       1 calls)

     Called by electrons:
     c_bands      :      0.88s CPU      1.35s WALL (       7 calls)
     sum_band     :      0.34s CPU      0.44s WALL (       7 calls)
     v_of_rho     :      0.12s CPU      0.16s WALL (       7 calls)
     newd         :      0.14s CPU      0.22s WALL (       7 calls)
     mix_rho      :      0.01s CPU      0.01s WALL (       7 calls)

     Called by c_bands:
     init_us_2    :      0.05s CPU      0.06s WALL (     420 calls)
     cegterg      :      0.76s CPU      1.18s WALL (     196 calls)

     Called by sum_band:
     sum_band:bec :      0.00s CPU      0.00s WALL (     196 calls)
     addusdens    :      0.15s CPU      0.18s WALL (       7 calls)

     Called by *egterg:
     h_psi        :      0.68s CPU      1.13s WALL (     656 calls)
     s_psi        :      0.05s CPU      0.06s WALL (     656 calls)
     g_psi        :      0.00s CPU      0.00s WALL (     432 calls)
     cdiaghg      :      0.04s CPU      0.06s WALL (     600 calls)

     Called by h_psi:
     h_psi:pot    :      0.68s CPU      1.13s WALL (     656 calls)
     h_psi:calbec :      0.07s CPU      0.12s WALL (     656 calls)
     vloc_psi     :      0.56s CPU      0.95s WALL (     656 calls)
     add_vuspsi   :      0.05s CPU      0.06s WALL (     656 calls)

     General routines
     calbec       :      0.09s CPU      0.15s WALL (     852 calls)
     fft          :      0.10s CPU      0.20s WALL (     112 calls)
     ffts         :      0.00s CPU      0.01s WALL (      14 calls)
     fftw         :      0.57s CPU      0.99s WALL (    5648 calls)
     interpolate  :      0.02s CPU      0.02s WALL (      14 calls)
     davcio       :      0.00s CPU      0.00s WALL (      28 calls)

     Parallel routines
     fft_scatter  :      0.34s CPU      0.80s WALL (    5774 calls)

     PWSCF        :     2.20s CPU         3.23s WALL


   This run was terminated on:  10:28: 8  10Nov2017            

=------------------------------------------------------------------------------=
   JOB DONE.
=------------------------------------------------------------------------------=
