
     Program PHONON v.6.1 (svn rev. 13369) starts on 10Nov2017 at 15:46:19 

     This program is part of the open-source Quantum ESPRESSO suite
     for quantum simulation of materials; please cite
         "P. Giannozzi et al., J. Phys.:Condens. Matter 21 395502 (2009);
          URL http://www.quantum-espresso.org", 
     in publications or presentations arising from this work. More details at
     http://www.quantum-espresso.org/quote

     Parallel version (MPI), running on     4 processors
     R & G space division:  proc/nbgrp/npool/nimage =       4

     Reading data from directory:
     ./silicon.10.306.save

   Info: using nr1, nr2, nr3 values from input

   Info: using nr1, nr2, nr3 values from input

     IMPORTANT: XC functional enforced from input :
     Exchange-correlation      = SLA  PW   PBE  PBE ( 1  4  3  4 0 0)
     Any further DFT definition will be discarded
     Please, verify this is what you really want


     Parallelization info
     --------------------
     sticks:   dense  smooth     PW     G-vecs:    dense   smooth      PW
     Min         217     108     37                 4288     1495     284
     Max         219     109     38                 4289     1498     285
     Sum         871     433    151                17153     5985    1139



     Dynamical matrices for ( 4, 4, 4)  uniform grid of q-points
     (   8q-points):
       N         xq(1)         xq(2)         xq(3) 
       1   0.000000000   0.000000000   0.000000000
       2  -0.250000000   0.250000000  -0.250000000
       3   0.500000000  -0.500000000   0.500000000
       4   0.000000000   0.500000000   0.000000000
       5   0.750000000  -0.250000000   0.750000000
       6   0.500000000   0.000000000   0.500000000
       7   0.000000000  -1.000000000   0.000000000
       8  -0.500000000  -1.000000000   0.000000000

     Calculation of q =    0.0000000   0.0000000   0.0000000

                                                                                

     bravais-lattice index     =            2
     lattice parameter (alat)  =      10.3060  a.u.
     unit-cell volume          =     273.6594 (a.u.)^3
     number of atoms/cell      =            2
     number of atomic types    =            1
     kinetic-energy cut-off    =      30.0000  Ry
     charge density cut-off    =     240.0000  Ry
     convergence threshold     =      1.0E-12
     beta                      =       0.7000
     number of iterations used =            4
     Exchange-correlation      = SLA  PW   PBE  PBE ( 1  4  3  4 0 0)


     celldm(1)=   10.30600  celldm(2)=    0.00000  celldm(3)=    0.00000
     celldm(4)=    0.00000  celldm(5)=    0.00000  celldm(6)=    0.00000

     crystal axes: (cart. coord. in units of alat)
               a(1) = ( -0.5000  0.0000  0.5000 )  
               a(2) = (  0.0000  0.5000  0.5000 )  
               a(3) = ( -0.5000  0.5000  0.0000 )  

     reciprocal axes: (cart. coord. in units 2 pi/alat)
               b(1) = ( -1.0000 -1.0000  1.0000 )  
               b(2) = (  1.0000  1.0000  1.0000 )  
               b(3) = ( -1.0000  1.0000 -1.0000 )  


     Atoms inside the unit cell: 

     Cartesian axes

     site n.  atom      mass           positions (alat units)
        1     Si  28.0860   tau(    1) = (    0.00000    0.00000    0.00000  )
        2     Si  28.0860   tau(    2) = (    0.25000    0.25000    0.25000  )

     Computing dynamical matrix for 
                    q = (   0.0000000   0.0000000   0.0000000 )

     49 Sym.Ops. (with q -> -q+G )


     G cutoff =  645.7015  (   4288 G-vectors)     FFT grid: ( 36, 36, 36)
     G cutoff =  322.8507  (   1497 G-vectors)  smooth grid: ( 25, 25, 25)
     number of k points=    10

     PseudoPot. # 1 for Si read from file:
     /home/s1333534/quantum_espresso/qe-6.1/pseudo/si_pbe_v1.uspp.F.UPF.txt
     MD5 check sum: a056efeee980c13900f22a371efd63c1
     Pseudo is Ultrasoft + core correction, Zval =  4.0
     Generated by new atomic code, or converted to UPF format
     Using radial grid of  899 points,  6 beta functions with: 
                l(1) =   0
                l(2) =   0
                l(3) =   1
                l(4) =   1
                l(5) =   2
                l(6) =   2
     Q(r) pseudized with  8 coefficients,  rinner =    0.900   0.900   0.900
                                                       0.900   0.900

     Mode symmetry, O_h (m-3m)  point group:


     Electric field:
     Dielectric constant
     Born effective charges in two ways 


     Atomic displacements:
     There are   2 irreducible representations

     Representation     1      3 modes -T_2g G_25' G_5+  To be done

     Representation     2      3 modes -T_1u G_15  G_4-  To be done



     Alpha used in Ewald sum =   2.5000
     PHONON       :     0.95s CPU         1.52s WALL


     Electric Fields Calculation

      iter #   1 total cpu time :     2.5 secs   av.it.:   5.7
      thresh= 1.000E-02 alpha_mix =  0.700 |ddv_scf|^2 =  1.334E-07

      iter #   2 total cpu time :     3.3 secs   av.it.:  11.8
      thresh= 3.653E-05 alpha_mix =  0.700 |ddv_scf|^2 =  7.773E-09

      iter #   3 total cpu time :     4.0 secs   av.it.:  11.4
      thresh= 8.816E-06 alpha_mix =  0.700 |ddv_scf|^2 =  5.137E-10

      iter #   4 total cpu time :     4.6 secs   av.it.:  10.3
      thresh= 2.267E-06 alpha_mix =  0.700 |ddv_scf|^2 =  3.323E-12

      iter #   5 total cpu time :     5.1 secs   av.it.:  11.1
      thresh= 1.823E-07 alpha_mix =  0.700 |ddv_scf|^2 =  3.316E-15

     End of electric fields calculation

          Dielectric constant in cartesian axis 

          (      13.912247277      -0.000000000       0.000000000 )
          (      -0.000000000      13.912247277      -0.000000000 )
          (       0.000000000      -0.000000000      13.912247277 )

          Effective charges (d Force / dE) in cartesian axis

           atom      1   Si 
      Ex  (       -0.03899        0.00000        0.00000 )
      Ey  (        0.00000       -0.03899       -0.00000 )
      Ez  (        0.00000        0.00000       -0.03899 )
           atom      2   Si 
      Ex  (       -0.03899       -0.00000        0.00000 )
      Ey  (       -0.00000       -0.03899        0.00000 )
      Ez  (        0.00000        0.00000       -0.03899 )


     Representation #  1 modes #   1  2  3

     Self-consistent Calculation

      iter #   1 total cpu time :     6.4 secs   av.it.:   5.1
      thresh= 1.000E-02 alpha_mix =  0.700 |ddv_scf|^2 =  2.355E-08

      iter #   2 total cpu time :     7.0 secs   av.it.:  11.6
      thresh= 1.534E-05 alpha_mix =  0.700 |ddv_scf|^2 =  9.655E-10

      iter #   3 total cpu time :     7.7 secs   av.it.:  11.1
      thresh= 3.107E-06 alpha_mix =  0.700 |ddv_scf|^2 =  6.566E-11

      iter #   4 total cpu time :     8.3 secs   av.it.:  10.1
      thresh= 8.103E-07 alpha_mix =  0.700 |ddv_scf|^2 =  1.602E-13

     End of self-consistent calculation

     Convergence has been achieved 


     Representation #  2 modes #   4  5  6

     Self-consistent Calculation

      iter #   1 total cpu time :     9.1 secs   av.it.:   5.2
      thresh= 1.000E-02 alpha_mix =  0.700 |ddv_scf|^2 =  1.858E-08

      iter #   2 total cpu time :     9.7 secs   av.it.:  11.6
      thresh= 1.363E-05 alpha_mix =  0.700 |ddv_scf|^2 =  1.095E-09

      iter #   3 total cpu time :    10.4 secs   av.it.:  11.2
      thresh= 3.309E-06 alpha_mix =  0.700 |ddv_scf|^2 =  6.778E-11

      iter #   4 total cpu time :    11.0 secs   av.it.:  11.3
      thresh= 8.233E-07 alpha_mix =  0.700 |ddv_scf|^2 =  2.619E-13

     End of self-consistent calculation

     Convergence has been achieved 

     Number of q in the star =    1
     List of q in the star:
          1   0.000000000   0.000000000   0.000000000

          Dielectric constant in cartesian axis 

          (      13.912247277      -0.000000000       0.000000000 )
          (      -0.000000000      13.912247277      -0.000000000 )
          (       0.000000000      -0.000000000      13.912247277 )

          Effective charges (d Force / dE) in cartesian axis

           atom      1   Si 
      Ex  (       -0.03899        0.00000        0.00000 )
      Ey  (        0.00000       -0.03899       -0.00000 )
      Ez  (        0.00000        0.00000       -0.03899 )
           atom      2   Si 
      Ex  (       -0.03899       -0.00000        0.00000 )
      Ey  (       -0.00000       -0.03899        0.00000 )
      Ez  (        0.00000        0.00000       -0.03899 )

          Effective charges (d P / du) in cartesian axis 

           atom      1   Si 
      Px  (       -0.07212        0.00000        0.00000 )
      Py  (        0.00000       -0.07212       -0.00000 )
      Pz  (        0.00000       -0.00000       -0.07212 )
           atom      2   Si 
      Px  (       -0.07212        0.00000        0.00000 )
      Py  (        0.00000       -0.07212       -0.00000 )
      Pz  (        0.00000       -0.00000       -0.07212 )

     Diagonalizing the dynamical matrix

     q = (    0.000000000   0.000000000   0.000000000 ) 

 **************************************************************************
     freq (    1) =      -0.468533 [THz] =     -15.628586 [cm-1]
     freq (    2) =      -0.468533 [THz] =     -15.628586 [cm-1]
     freq (    3) =      -0.468533 [THz] =     -15.628586 [cm-1]
     freq (    4) =      15.187286 [THz] =     506.593330 [cm-1]
     freq (    5) =      15.187286 [THz] =     506.593330 [cm-1]
     freq (    6) =      15.187286 [THz] =     506.593330 [cm-1]
 **************************************************************************

     Mode symmetry, O_h (m-3m)  point group:

     freq (  1 -  3) =        -15.6  [cm-1]   --> T_1u G_15  G_4- I  
     freq (  4 -  6) =        506.6  [cm-1]   --> T_2g G_25' G_5+ R  

     Calculation of q =   -0.2500000   0.2500000  -0.2500000

   Info: using nr1, nr2, nr3 values from input

   Info: using nr1, nr2, nr3 values from input

     Parallelization info
     --------------------
     sticks:   dense  smooth     PW     G-vecs:    dense   smooth      PW
     Min         217     108     37                 4287     1495     309
     Max         218     109     38                 4289     1498     312
     Sum         871     433    151                17153     5985    1243



     bravais-lattice index     =            2
     lattice parameter (alat)  =      10.3060  a.u.
     unit-cell volume          =     273.6594 (a.u.)^3
     number of atoms/cell      =            2
     number of atomic types    =            1
     number of electrons       =         8.00
     number of Kohn-Sham states=            4
     kinetic-energy cutoff     =      30.0000  Ry
     charge density cutoff     =     240.0000  Ry
     Exchange-correlation      = SLA  PW   PBE  PBE ( 1  4  3  4 0 0)

     celldm(1)=  10.306000  celldm(2)=   0.000000  celldm(3)=   0.000000
     celldm(4)=   0.000000  celldm(5)=   0.000000  celldm(6)=   0.000000

     crystal axes: (cart. coord. in units of alat)
               a(1) = (  -0.500000   0.000000   0.500000 )  
               a(2) = (   0.000000   0.500000   0.500000 )  
               a(3) = (  -0.500000   0.500000   0.000000 )  

     reciprocal axes: (cart. coord. in units 2 pi/alat)
               b(1) = ( -1.000000 -1.000000  1.000000 )  
               b(2) = (  1.000000  1.000000  1.000000 )  
               b(3) = ( -1.000000  1.000000 -1.000000 )  


     PseudoPot. # 1 for Si read from file:
     /home/s1333534/quantum_espresso/qe-6.1/pseudo/si_pbe_v1.uspp.F.UPF.txt
     MD5 check sum: a056efeee980c13900f22a371efd63c1
     Pseudo is Ultrasoft + core correction, Zval =  4.0
     Generated by new atomic code, or converted to UPF format
     Using radial grid of  899 points,  6 beta functions with: 
                l(1) =   0
                l(2) =   0
                l(3) =   1
                l(4) =   1
                l(5) =   2
                l(6) =   2
     Q(r) pseudized with  8 coefficients,  rinner =    0.900   0.900   0.900
                                                       0.900   0.900

     atomic species   valence    mass     pseudopotential
        Si             4.00    28.08600     Si( 1.00)

     48 Sym. Ops., with inversion, found



   Cartesian axes

     site n.     atom                  positions (alat units)
         1           Si  tau(   1) = (   0.0000000   0.0000000   0.0000000  )
         2           Si  tau(   2) = (   0.2500000   0.2500000   0.2500000  )

     number of k points=   120

     Number of k-points >= 100: set verbosity='high' to print them.

     Dense  grid:    17153 G-vectors     FFT dimensions: (  36,  36,  36)

     Smooth grid:     5985 G-vectors     FFT dimensions: (  25,  25,  25)

     Estimated max dynamical RAM per process >       1.51MB

     Estimated total allocated dynamical RAM >       6.05MB

     The potential is recalculated from file :
     ./_ph0/silicon.10.306.save/charge-density.dat

     Starting wfc are    8 atomic wfcs

     Band Structure Calculation
     Davidson diagonalization with overlap

     ethr =  1.25E-10,  avg # of iterations = 12.2

     total cpu time spent up to now is        1.4 secs

     End of band structure calculation

     Number of k-points >= 100: set verbosity='high' to print the bands.

     highest occupied level (ev):     5.7763

     Writing output data file silicon.10.306.save

                                                                                

     bravais-lattice index     =            2
     lattice parameter (alat)  =      10.3060  a.u.
     unit-cell volume          =     273.6594 (a.u.)^3
     number of atoms/cell      =            2
     number of atomic types    =            1
     kinetic-energy cut-off    =      30.0000  Ry
     charge density cut-off    =     240.0000  Ry
     convergence threshold     =      1.0E-12
     beta                      =       0.7000
     number of iterations used =            4
     Exchange-correlation      = SLA  PW   PBE  PBE ( 1  4  3  4 0 0)


     celldm(1)=   10.30600  celldm(2)=    0.00000  celldm(3)=    0.00000
     celldm(4)=    0.00000  celldm(5)=    0.00000  celldm(6)=    0.00000

     crystal axes: (cart. coord. in units of alat)
               a(1) = ( -0.5000  0.0000  0.5000 )  
               a(2) = (  0.0000  0.5000  0.5000 )  
               a(3) = ( -0.5000  0.5000  0.0000 )  

     reciprocal axes: (cart. coord. in units 2 pi/alat)
               b(1) = ( -1.0000 -1.0000  1.0000 )  
               b(2) = (  1.0000  1.0000  1.0000 )  
               b(3) = ( -1.0000  1.0000 -1.0000 )  


     Atoms inside the unit cell: 

     Cartesian axes

     site n.  atom      mass           positions (alat units)
        1     Si  28.0860   tau(    1) = (    0.00000    0.00000    0.00000  )
        2     Si  28.0860   tau(    2) = (    0.25000    0.25000    0.25000  )

     Computing dynamical matrix for 
                    q = (  -0.2500000   0.2500000  -0.2500000 )

      6 Sym.Ops. (no q -> -q+G )


     G cutoff =  645.7015  (   4288 G-vectors)     FFT grid: ( 36, 36, 36)
     G cutoff =  322.8507  (   1496 G-vectors)  smooth grid: ( 25, 25, 25)
     number of k points=   120

     PseudoPot. # 1 for Si read from file:
     /home/s1333534/quantum_espresso/qe-6.1/pseudo/si_pbe_v1.uspp.F.UPF.txt
     MD5 check sum: a056efeee980c13900f22a371efd63c1
     Pseudo is Ultrasoft + core correction, Zval =  4.0
     Generated by new atomic code, or converted to UPF format
     Using radial grid of  899 points,  6 beta functions with: 
                l(1) =   0
                l(2) =   0
                l(3) =   1
                l(4) =   1
                l(5) =   2
                l(6) =   2
     Q(r) pseudized with  8 coefficients,  rinner =    0.900   0.900   0.900
                                                       0.900   0.900

     Mode symmetry, C_3v (3m)   point group:


     Atomic displacements:
     There are   4 irreducible representations

     Representation     1      1 modes -A_1  L_1  To be done

     Representation     2      1 modes -A_1  L_1  To be done

     Representation     3      2 modes -E    L_3  To be done

     Representation     4      2 modes -E    L_3  To be done



     Alpha used in Ewald sum =   2.5000
     PHONON       :    10.76s CPU        14.27s WALL



     Representation #  1 mode #   1

     Self-consistent Calculation

      iter #   1 total cpu time :    14.7 secs   av.it.:   5.9
      thresh= 1.000E-02 alpha_mix =  0.700 |ddv_scf|^2 =  4.296E-04

      iter #   2 total cpu time :    15.4 secs   av.it.:   9.1
      thresh= 2.073E-03 alpha_mix =  0.700 |ddv_scf|^2 =  6.528E-03

      iter #   3 total cpu time :    15.9 secs   av.it.:   7.0
      thresh= 8.079E-03 alpha_mix =  0.700 |ddv_scf|^2 =  2.719E-07

      iter #   4 total cpu time :    16.5 secs   av.it.:   9.6
      thresh= 5.214E-05 alpha_mix =  0.700 |ddv_scf|^2 =  1.788E-08

      iter #   5 total cpu time :    17.2 secs   av.it.:   9.6
      thresh= 1.337E-05 alpha_mix =  0.700 |ddv_scf|^2 =  3.375E-10

      iter #   6 total cpu time :    17.8 secs   av.it.:   9.7
      thresh= 1.837E-06 alpha_mix =  0.700 |ddv_scf|^2 =  1.183E-09

      iter #   7 total cpu time :    18.3 secs   av.it.:   7.6
      thresh= 3.440E-06 alpha_mix =  0.700 |ddv_scf|^2 =  3.660E-11

      iter #   8 total cpu time :    18.9 secs   av.it.:   9.3
      thresh= 6.050E-07 alpha_mix =  0.700 |ddv_scf|^2 =  4.710E-13

     End of self-consistent calculation

     Convergence has been achieved 


     Representation #  2 mode #   2

     Self-consistent Calculation

      iter #   1 total cpu time :    19.4 secs   av.it.:   5.9
      thresh= 1.000E-02 alpha_mix =  0.700 |ddv_scf|^2 =  4.296E-04

      iter #   2 total cpu time :    20.0 secs   av.it.:   9.1
      thresh= 2.073E-03 alpha_mix =  0.700 |ddv_scf|^2 =  6.528E-03

      iter #   3 total cpu time :    20.5 secs   av.it.:   7.0
      thresh= 8.079E-03 alpha_mix =  0.700 |ddv_scf|^2 =  2.719E-07

      iter #   4 total cpu time :    21.1 secs   av.it.:   9.6
      thresh= 5.214E-05 alpha_mix =  0.700 |ddv_scf|^2 =  1.788E-08

      iter #   5 total cpu time :    21.7 secs   av.it.:   9.6
      thresh= 1.337E-05 alpha_mix =  0.700 |ddv_scf|^2 =  3.375E-10

      iter #   6 total cpu time :    22.4 secs   av.it.:   9.7
      thresh= 1.837E-06 alpha_mix =  0.700 |ddv_scf|^2 =  1.183E-09

      iter #   7 total cpu time :    23.0 secs   av.it.:   7.6
      thresh= 3.440E-06 alpha_mix =  0.700 |ddv_scf|^2 =  3.660E-11

      iter #   8 total cpu time :    23.6 secs   av.it.:   9.3
      thresh= 6.050E-07 alpha_mix =  0.700 |ddv_scf|^2 =  4.710E-13

     End of self-consistent calculation

     Convergence has been achieved 


     Representation #  3 modes #   3  4

     Self-consistent Calculation

      iter #   1 total cpu time :    24.5 secs   av.it.:   5.2
      thresh= 1.000E-02 alpha_mix =  0.700 |ddv_scf|^2 =  6.631E-08

      iter #   2 total cpu time :    25.8 secs   av.it.:  11.4
      thresh= 2.575E-05 alpha_mix =  0.700 |ddv_scf|^2 =  4.262E-09

      iter #   3 total cpu time :    27.0 secs   av.it.:  11.1
      thresh= 6.528E-06 alpha_mix =  0.700 |ddv_scf|^2 =  2.257E-10

      iter #   4 total cpu time :    28.2 secs   av.it.:  11.0
      thresh= 1.502E-06 alpha_mix =  0.700 |ddv_scf|^2 =  8.541E-13

     End of self-consistent calculation

     Convergence has been achieved 


     Representation #  4 modes #   5  6

     Self-consistent Calculation

      iter #   1 total cpu time :    29.1 secs   av.it.:   5.2
      thresh= 1.000E-02 alpha_mix =  0.700 |ddv_scf|^2 =  6.632E-08

      iter #   2 total cpu time :    30.6 secs   av.it.:  11.4
      thresh= 2.575E-05 alpha_mix =  0.700 |ddv_scf|^2 =  4.261E-09

      iter #   3 total cpu time :    32.6 secs   av.it.:  11.2
      thresh= 6.528E-06 alpha_mix =  0.700 |ddv_scf|^2 =  2.256E-10

      iter #   4 total cpu time :    34.0 secs   av.it.:  11.0
      thresh= 1.502E-06 alpha_mix =  0.700 |ddv_scf|^2 =  8.594E-13

     End of self-consistent calculation

     Convergence has been achieved 

     Number of q in the star =    8
     List of q in the star:
          1  -0.250000000   0.250000000  -0.250000000
          2   0.250000000  -0.250000000  -0.250000000
          3   0.250000000  -0.250000000   0.250000000
          4   0.250000000   0.250000000   0.250000000
          5  -0.250000000  -0.250000000  -0.250000000
          6  -0.250000000  -0.250000000   0.250000000
          7  -0.250000000   0.250000000   0.250000000
          8   0.250000000   0.250000000  -0.250000000

     Diagonalizing the dynamical matrix

     q = (   -0.250000000   0.250000000  -0.250000000 ) 

 **************************************************************************
     freq (    1) =       2.770506 [THz] =      92.414126 [cm-1]
     freq (    2) =       2.770506 [THz] =      92.414126 [cm-1]
     freq (    3) =       6.787131 [THz] =     226.394331 [cm-1]
     freq (    4) =      14.336169 [THz] =     478.203117 [cm-1]
     freq (    5) =      14.623360 [THz] =     487.782789 [cm-1]
     freq (    6) =      14.623360 [THz] =     487.782789 [cm-1]
 **************************************************************************

     Mode symmetry, C_3v (3m)   point group:

     freq (  1 -  2) =         92.4  [cm-1]   --> E    L_3           
     freq (  3 -  3) =        226.4  [cm-1]   --> A_1  L_1           
     freq (  4 -  4) =        478.2  [cm-1]   --> A_1  L_1           
     freq (  5 -  6) =        487.8  [cm-1]   --> E    L_3           

     Calculation of q =    0.5000000  -0.5000000   0.5000000

   Info: using nr1, nr2, nr3 values from input

   Info: using nr1, nr2, nr3 values from input

     Parallelization info
     --------------------
     sticks:   dense  smooth     PW     G-vecs:    dense   smooth      PW
     Min         217     108     40                 4288     1495     351
     Max         219     109     41                 4289     1498     354
     Sum         871     433    163                17153     5985    1411



     bravais-lattice index     =            2
     lattice parameter (alat)  =      10.3060  a.u.
     unit-cell volume          =     273.6594 (a.u.)^3
     number of atoms/cell      =            2
     number of atomic types    =            1
     number of electrons       =         8.00
     number of Kohn-Sham states=            4
     kinetic-energy cutoff     =      30.0000  Ry
     charge density cutoff     =     240.0000  Ry
     Exchange-correlation      = SLA  PW   PBE  PBE ( 1  4  3  4 0 0)

     celldm(1)=  10.306000  celldm(2)=   0.000000  celldm(3)=   0.000000
     celldm(4)=   0.000000  celldm(5)=   0.000000  celldm(6)=   0.000000

     crystal axes: (cart. coord. in units of alat)
               a(1) = (  -0.500000   0.000000   0.500000 )  
               a(2) = (   0.000000   0.500000   0.500000 )  
               a(3) = (  -0.500000   0.500000   0.000000 )  

     reciprocal axes: (cart. coord. in units 2 pi/alat)
               b(1) = ( -1.000000 -1.000000  1.000000 )  
               b(2) = (  1.000000  1.000000  1.000000 )  
               b(3) = ( -1.000000  1.000000 -1.000000 )  


     PseudoPot. # 1 for Si read from file:
     /home/s1333534/quantum_espresso/qe-6.1/pseudo/si_pbe_v1.uspp.F.UPF.txt
     MD5 check sum: a056efeee980c13900f22a371efd63c1
     Pseudo is Ultrasoft + core correction, Zval =  4.0
     Generated by new atomic code, or converted to UPF format
     Using radial grid of  899 points,  6 beta functions with: 
                l(1) =   0
                l(2) =   0
                l(3) =   1
                l(4) =   1
                l(5) =   2
                l(6) =   2
     Q(r) pseudized with  8 coefficients,  rinner =    0.900   0.900   0.900
                                                       0.900   0.900

     atomic species   valence    mass     pseudopotential
        Si             4.00    28.08600     Si( 1.00)

     48 Sym. Ops., with inversion, found



   Cartesian axes

     site n.     atom                  positions (alat units)
         1           Si  tau(   1) = (   0.0000000   0.0000000   0.0000000  )
         2           Si  tau(   2) = (   0.2500000   0.2500000   0.2500000  )

     number of k points=    60
                       cart. coord. in units 2pi/alat
        k(    1) = (  -0.1250000   0.1250000   0.1250000), wk =   0.0468750
        k(    2) = (   0.3750000  -0.3750000   0.6250000), wk =   0.0000000
        k(    3) = (  -0.3750000   0.3750000  -0.1250000), wk =   0.0468750
        k(    4) = (   0.1250000  -0.1250000   0.3750000), wk =   0.0000000
        k(    5) = (   0.3750000  -0.3750000   0.6250000), wk =   0.0468750
        k(    6) = (   0.8750000  -0.8750000   1.1250000), wk =   0.0000000
        k(    7) = (   0.1250000  -0.1250000   0.3750000), wk =   0.0468750
        k(    8) = (   0.6250000  -0.6250000   0.8750000), wk =   0.0000000
        k(    9) = (  -0.1250000   0.6250000   0.1250000), wk =   0.0937500
        k(   10) = (   0.3750000   0.1250000   0.6250000), wk =   0.0000000
        k(   11) = (   0.6250000  -0.1250000   0.8750000), wk =   0.0937500
        k(   12) = (   1.1250000  -0.6250000   1.3750000), wk =   0.0000000
        k(   13) = (   0.3750000   0.1250000   0.6250000), wk =   0.0937500
        k(   14) = (   0.8750000  -0.3750000   1.1250000), wk =   0.0000000
        k(   15) = (  -0.1250000  -0.8750000   0.1250000), wk =   0.0937500
        k(   16) = (   0.3750000  -1.3750000   0.6250000), wk =   0.0000000
        k(   17) = (  -0.3750000   0.3750000   0.3750000), wk =   0.0468750
        k(   18) = (   0.1250000  -0.1250000   0.8750000), wk =   0.0000000
        k(   19) = (   0.3750000  -0.3750000   1.1250000), wk =   0.0468750
        k(   20) = (   0.8750000  -0.8750000   1.6250000), wk =   0.0000000
        k(   21) = (   0.1250000  -0.1250000   0.1250000), wk =   0.0156250
        k(   22) = (   0.6250000  -0.6250000   0.6250000), wk =   0.0000000
        k(   23) = (  -0.3750000  -0.3750000  -0.1250000), wk =   0.0937500
        k(   24) = (   0.1250000  -0.8750000   0.3750000), wk =   0.0000000
        k(   25) = (  -0.1250000  -0.3750000   0.3750000), wk =   0.0468750
        k(   26) = (   0.3750000  -0.8750000   0.8750000), wk =   0.0000000
        k(   27) = (   0.3750000   0.3750000   0.6250000), wk =   0.0937500
        k(   28) = (   0.8750000  -0.1250000   1.1250000), wk =   0.0000000
        k(   29) = (   0.6250000   0.3750000  -0.3750000), wk =   0.0468750
        k(   30) = (   1.1250000  -0.1250000   0.1250000), wk =   0.0000000
        k(   31) = (   0.1250000   0.1250000   0.3750000), wk =   0.0937500
        k(   32) = (   0.6250000  -0.3750000   0.8750000), wk =   0.0000000
        k(   33) = (   0.3750000   0.1250000  -0.1250000), wk =   0.0468750
        k(   34) = (   0.8750000  -0.3750000   0.3750000), wk =   0.0000000
        k(   35) = (  -0.1250000  -0.6250000  -0.1250000), wk =   0.0468750
        k(   36) = (   0.3750000  -1.1250000   0.3750000), wk =   0.0000000
        k(   37) = (   0.1250000  -0.6250000   0.1250000), wk =   0.0468750
        k(   38) = (   0.6250000  -1.1250000   0.6250000), wk =   0.0000000
        k(   39) = (   0.6250000   0.1250000   0.8750000), wk =   0.0937500
        k(   40) = (   1.1250000  -0.3750000   1.3750000), wk =   0.0000000
        k(   41) = (  -0.8750000   0.1250000   0.6250000), wk =   0.0937500
        k(   42) = (  -0.3750000  -0.3750000   1.1250000), wk =   0.0000000
        k(   43) = (   0.8750000   0.1250000  -0.6250000), wk =   0.0937500
        k(   44) = (   1.3750000  -0.3750000  -0.1250000), wk =   0.0000000
        k(   45) = (   0.3750000  -0.1250000   0.6250000), wk =   0.0937500
        k(   46) = (   0.8750000  -0.6250000   1.1250000), wk =   0.0000000
        k(   47) = (  -0.6250000  -0.1250000   0.3750000), wk =   0.0937500
        k(   48) = (  -0.1250000  -0.6250000   0.8750000), wk =   0.0000000
        k(   49) = (   0.6250000  -0.1250000  -0.3750000), wk =   0.0937500
        k(   50) = (   1.1250000  -0.6250000   0.1250000), wk =   0.0000000
        k(   51) = (  -0.1250000   0.8750000  -0.1250000), wk =   0.0468750
        k(   52) = (   0.3750000   0.3750000   0.3750000), wk =   0.0000000
        k(   53) = (   0.1250000   0.8750000   0.1250000), wk =   0.0468750
        k(   54) = (   0.6250000   0.3750000   0.6250000), wk =   0.0000000
        k(   55) = (   0.3750000  -0.3750000   0.3750000), wk =   0.0156250
        k(   56) = (   0.8750000  -0.8750000   0.8750000), wk =   0.0000000
        k(   57) = (   0.3750000   0.3750000   1.1250000), wk =   0.0937500
        k(   58) = (   0.8750000  -0.1250000   1.6250000), wk =   0.0000000
        k(   59) = (   1.1250000   0.3750000  -0.3750000), wk =   0.0468750
        k(   60) = (   1.6250000  -0.1250000   0.1250000), wk =   0.0000000

     Dense  grid:    17153 G-vectors     FFT dimensions: (  36,  36,  36)

     Smooth grid:     5985 G-vectors     FFT dimensions: (  25,  25,  25)

     Estimated max dynamical RAM per process >       1.51MB

     Estimated total allocated dynamical RAM >       6.05MB

     The potential is recalculated from file :
     ./_ph0/silicon.10.306.save/charge-density.dat

     Starting wfc are    8 atomic wfcs

     Band Structure Calculation
     Davidson diagonalization with overlap

     ethr =  1.25E-10,  avg # of iterations = 12.2

     total cpu time spent up to now is        2.5 secs

     End of band structure calculation

          k =-0.1250 0.1250 0.1250 (   752 PWs)   bands (ev):

    -5.6085   4.4673   5.7763   5.7763

          k = 0.3750-0.3750 0.6250 (   760 PWs)   bands (ev):

    -3.4251  -0.6319   3.8021   4.5169

          k =-0.3750 0.3750-0.1250 (   757 PWs)   bands (ev):

    -4.5749   1.4623   3.7777   5.2943

          k = 0.1250-0.1250 0.3750 (   766 PWs)   bands (ev):

    -5.0772   2.8478   4.7606   4.8291

          k = 0.3750-0.3750 0.6250 (   760 PWs)   bands (ev):

    -3.4251  -0.6319   3.8021   4.5169

          k = 0.8750-0.8750 1.1250 (   752 PWs)   bands (ev):

    -5.6085   4.4673   5.7763   5.7763

          k = 0.1250-0.1250 0.3750 (   766 PWs)   bands (ev):

    -5.0772   2.8478   4.7606   4.8291

          k = 0.6250-0.6250 0.8750 (   757 PWs)   bands (ev):

    -4.5749   1.4623   3.7777   5.2943

          k =-0.1250 0.6250 0.1250 (   762 PWs)   bands (ev):

    -4.0390   1.1350   3.4250   3.8810

          k = 0.3750 0.1250 0.6250 (   759 PWs)   bands (ev):

    -3.6198   0.2520   2.7802   4.1573

          k = 0.6250-0.1250 0.8750 (   754 PWs)   bands (ev):

    -2.3862  -0.8375   2.0581   3.1431

          k = 1.1250-0.6250 1.3750 (   757 PWs)   bands (ev):

    -4.5749   1.4623   3.7777   5.2943

          k = 0.3750 0.1250 0.6250 (   759 PWs)   bands (ev):

    -3.6198   0.2520   2.7802   4.1573

          k = 0.8750-0.3750 1.1250 (   762 PWs)   bands (ev):

    -4.0390   1.1350   3.4250   3.8810

          k =-0.1250-0.8750 0.1250 (   759 PWs)   bands (ev):

    -2.5569  -0.7385   2.6732   3.4114

          k = 0.3750-1.3750 0.6250 (   760 PWs)   bands (ev):

    -3.4251  -0.6319   3.8021   4.5169

          k =-0.3750 0.3750 0.3750 (   763 PWs)   bands (ev):

    -4.1382   0.1608   4.9852   4.9852

          k = 0.1250-0.1250 0.8750 (   759 PWs)   bands (ev):

    -2.5569  -0.7385   2.6732   3.4114

          k = 0.3750-0.3750 1.1250 (   759 PWs)   bands (ev):

    -2.9263  -0.5391   2.1197   4.1973

          k = 0.8750-0.8750 1.6250 (   762 PWs)   bands (ev):

    -4.0390   1.1350   3.4250   3.8810

          k = 0.1250-0.1250 0.1250 (   752 PWs)   bands (ev):

    -5.6085   4.4673   5.7763   5.7763

          k = 0.6250-0.6250 0.6250 (   763 PWs)   bands (ev):

    -4.1382   0.1608   4.9852   4.9852

          k =-0.3750-0.3750-0.1250 (   757 PWs)   bands (ev):

    -4.5749   1.4623   3.7777   5.2943

          k = 0.1250-0.8750 0.3750 (   754 PWs)   bands (ev):

    -2.3862  -0.8375   2.0581   3.1431

          k =-0.1250-0.3750 0.3750 (   757 PWs)   bands (ev):

    -4.5749   1.4623   3.7777   5.2943

          k = 0.3750-0.8750 0.8750 (   762 PWs)   bands (ev):

    -4.0390   1.1350   3.4250   3.8810

          k = 0.3750 0.3750 0.6250 (   760 PWs)   bands (ev):

    -3.4251  -0.6319   3.8021   4.5169

          k = 0.8750-0.1250 1.1250 (   759 PWs)   bands (ev):

    -2.5569  -0.7385   2.6732   3.4114

          k = 0.6250 0.3750-0.3750 (   760 PWs)   bands (ev):

    -3.4251  -0.6319   3.8021   4.5169

          k = 1.1250-0.1250 0.1250 (   759 PWs)   bands (ev):

    -2.5569  -0.7385   2.6732   3.4114

          k = 0.1250 0.1250 0.3750 (   766 PWs)   bands (ev):

    -5.0772   2.8478   4.7606   4.8291

          k = 0.6250-0.3750 0.8750 (   759 PWs)   bands (ev):

    -3.6198   0.2520   2.7802   4.1573

          k = 0.3750 0.1250-0.1250 (   766 PWs)   bands (ev):

    -5.0772   2.8478   4.7606   4.8291

          k = 0.8750-0.3750 0.3750 (   759 PWs)   bands (ev):

    -2.9263  -0.5391   2.1197   4.1973

          k =-0.1250-0.6250-0.1250 (   762 PWs)   bands (ev):

    -4.0390   1.1350   3.4250   3.8810

          k = 0.3750-1.1250 0.3750 (   759 PWs)   bands (ev):

    -2.9263  -0.5391   2.1197   4.1973

          k = 0.1250-0.6250 0.1250 (   762 PWs)   bands (ev):

    -4.0390   1.1350   3.4250   3.8810

          k = 0.6250-1.1250 0.6250 (   757 PWs)   bands (ev):

    -4.5749   1.4623   3.7777   5.2943

          k = 0.6250 0.1250 0.8750 (   754 PWs)   bands (ev):

    -2.3862  -0.8375   2.0581   3.1431

          k = 1.1250-0.3750 1.3750 (   759 PWs)   bands (ev):

    -3.6198   0.2520   2.7802   4.1573

          k =-0.8750 0.1250 0.6250 (   754 PWs)   bands (ev):

    -2.3862  -0.8375   2.0581   3.1431

          k =-0.3750-0.3750 1.1250 (   759 PWs)   bands (ev):

    -2.9263  -0.5391   2.1197   4.1973

          k = 0.8750 0.1250-0.6250 (   754 PWs)   bands (ev):

    -2.3862  -0.8375   2.0581   3.1431

          k = 1.3750-0.3750-0.1250 (   759 PWs)   bands (ev):

    -3.6198   0.2520   2.7802   4.1573

          k = 0.3750-0.1250 0.6250 (   759 PWs)   bands (ev):

    -3.6198   0.2520   2.7802   4.1573

          k = 0.8750-0.6250 1.1250 (   766 PWs)   bands (ev):

    -5.0772   2.8478   4.7606   4.8291

          k =-0.6250-0.1250 0.3750 (   759 PWs)   bands (ev):

    -3.6198   0.2520   2.7802   4.1573

          k =-0.1250-0.6250 0.8750 (   754 PWs)   bands (ev):

    -2.3862  -0.8375   2.0581   3.1431

          k = 0.6250-0.1250-0.3750 (   759 PWs)   bands (ev):

    -3.6198   0.2520   2.7802   4.1573

          k = 1.1250-0.6250 0.1250 (   754 PWs)   bands (ev):

    -2.3862  -0.8375   2.0581   3.1431

          k =-0.1250 0.8750-0.1250 (   759 PWs)   bands (ev):

    -2.5569  -0.7385   2.6732   3.4114

          k = 0.3750 0.3750 0.3750 (   763 PWs)   bands (ev):

    -4.1382   0.1608   4.9852   4.9852

          k = 0.1250 0.8750 0.1250 (   759 PWs)   bands (ev):

    -2.5569  -0.7385   2.6732   3.4114

          k = 0.6250 0.3750 0.6250 (   760 PWs)   bands (ev):

    -3.4251  -0.6319   3.8021   4.5169

          k = 0.3750-0.3750 0.3750 (   763 PWs)   bands (ev):

    -4.1382   0.1608   4.9852   4.9852

          k = 0.8750-0.8750 0.8750 (   752 PWs)   bands (ev):

    -5.6085   4.4673   5.7763   5.7763

          k = 0.3750 0.3750 1.1250 (   759 PWs)   bands (ev):

    -2.9263  -0.5391   2.1197   4.1973

          k = 0.8750-0.1250 1.6250 (   754 PWs)   bands (ev):

    -2.3862  -0.8375   2.0581   3.1431

          k = 1.1250 0.3750-0.3750 (   759 PWs)   bands (ev):

    -2.9263  -0.5391   2.1197   4.1973

          k = 1.6250-0.1250 0.1250 (   766 PWs)   bands (ev):

    -5.0772   2.8478   4.7606   4.8291

     highest occupied level (ev):     5.7763

     Writing output data file silicon.10.306.save

                                                                                

     bravais-lattice index     =            2
     lattice parameter (alat)  =      10.3060  a.u.
     unit-cell volume          =     273.6594 (a.u.)^3
     number of atoms/cell      =            2
     number of atomic types    =            1
     kinetic-energy cut-off    =      30.0000  Ry
     charge density cut-off    =     240.0000  Ry
     convergence threshold     =      1.0E-12
     beta                      =       0.7000
     number of iterations used =            4
     Exchange-correlation      = SLA  PW   PBE  PBE ( 1  4  3  4 0 0)


     celldm(1)=   10.30600  celldm(2)=    0.00000  celldm(3)=    0.00000
     celldm(4)=    0.00000  celldm(5)=    0.00000  celldm(6)=    0.00000

     crystal axes: (cart. coord. in units of alat)
               a(1) = ( -0.5000  0.0000  0.5000 )  
               a(2) = (  0.0000  0.5000  0.5000 )  
               a(3) = ( -0.5000  0.5000  0.0000 )  

     reciprocal axes: (cart. coord. in units 2 pi/alat)
               b(1) = ( -1.0000 -1.0000  1.0000 )  
               b(2) = (  1.0000  1.0000  1.0000 )  
               b(3) = ( -1.0000  1.0000 -1.0000 )  


     Atoms inside the unit cell: 

     Cartesian axes

     site n.  atom      mass           positions (alat units)
        1     Si  28.0860   tau(    1) = (    0.00000    0.00000    0.00000  )
        2     Si  28.0860   tau(    2) = (    0.25000    0.25000    0.25000  )

     Computing dynamical matrix for 
                    q = (   0.5000000  -0.5000000   0.5000000 )

     13 Sym.Ops. (with q -> -q+G )


     G cutoff =  645.7015  (   4288 G-vectors)     FFT grid: ( 36, 36, 36)
     G cutoff =  322.8507  (   1497 G-vectors)  smooth grid: ( 25, 25, 25)
     number of k points=    60

     PseudoPot. # 1 for Si read from file:
     /home/s1333534/quantum_espresso/qe-6.1/pseudo/si_pbe_v1.uspp.F.UPF.txt
     MD5 check sum: a056efeee980c13900f22a371efd63c1
     Pseudo is Ultrasoft + core correction, Zval =  4.0
     Generated by new atomic code, or converted to UPF format
     Using radial grid of  899 points,  6 beta functions with: 
                l(1) =   0
                l(2) =   0
                l(3) =   1
                l(4) =   1
                l(5) =   2
                l(6) =   2
     Q(r) pseudized with  8 coefficients,  rinner =    0.900   0.900   0.900
                                                       0.900   0.900


     Atomic displacements:
     There are   4 irreducible representations

     Representation     1      1 modes -  To be done

     Representation     2      1 modes -  To be done

     Representation     3      2 modes -  To be done

     Representation     4      2 modes -  To be done



     Alpha used in Ewald sum =   2.5000
     PHONON       :    28.03s CPU        36.44s WALL



     Representation #  1 mode #   1

     Self-consistent Calculation

      iter #   1 total cpu time :    36.7 secs   av.it.:   5.1
      thresh= 1.000E-02 alpha_mix =  0.700 |ddv_scf|^2 =  4.213E-06

      iter #   2 total cpu time :    37.1 secs   av.it.:   9.9
      thresh= 2.052E-04 alpha_mix =  0.700 |ddv_scf|^2 =  3.840E-06

      iter #   3 total cpu time :    37.5 secs   av.it.:   9.2
      thresh= 1.960E-04 alpha_mix =  0.700 |ddv_scf|^2 =  2.317E-09

      iter #   4 total cpu time :    38.0 secs   av.it.:   9.4
      thresh= 4.814E-06 alpha_mix =  0.700 |ddv_scf|^2 =  2.226E-11

      iter #   5 total cpu time :    38.3 secs   av.it.:   9.3
      thresh= 4.718E-07 alpha_mix =  0.700 |ddv_scf|^2 =  3.071E-13

     End of self-consistent calculation

     Convergence has been achieved 


     Representation #  2 mode #   2

     Self-consistent Calculation

      iter #   1 total cpu time :    38.7 secs   av.it.:   6.0
      thresh= 1.000E-02 alpha_mix =  0.700 |ddv_scf|^2 =  5.994E-05

      iter #   2 total cpu time :    39.1 secs   av.it.:   9.8
      thresh= 7.742E-04 alpha_mix =  0.700 |ddv_scf|^2 =  1.862E-04

      iter #   3 total cpu time :    39.6 secs   av.it.:   8.6
      thresh= 1.365E-03 alpha_mix =  0.700 |ddv_scf|^2 =  1.297E-08

      iter #   4 total cpu time :    40.0 secs   av.it.:   9.8
      thresh= 1.139E-05 alpha_mix =  0.700 |ddv_scf|^2 =  6.594E-10

      iter #   5 total cpu time :    40.4 secs   av.it.:  10.2
      thresh= 2.568E-06 alpha_mix =  0.700 |ddv_scf|^2 =  2.022E-11

      iter #   6 total cpu time :    40.8 secs   av.it.:   9.7
      thresh= 4.497E-07 alpha_mix =  0.700 |ddv_scf|^2 =  1.526E-13

     End of self-consistent calculation

     Convergence has been achieved 


     Representation #  3 modes #   3  4

     Self-consistent Calculation

      iter #   1 total cpu time :    41.4 secs   av.it.:   5.1
      thresh= 1.000E-02 alpha_mix =  0.700 |ddv_scf|^2 =  2.702E-08

      iter #   2 total cpu time :    42.3 secs   av.it.:  10.9
      thresh= 1.644E-05 alpha_mix =  0.700 |ddv_scf|^2 =  1.596E-09

      iter #   3 total cpu time :    43.1 secs   av.it.:  10.7
      thresh= 3.995E-06 alpha_mix =  0.700 |ddv_scf|^2 =  5.304E-11

      iter #   4 total cpu time :    43.7 secs   av.it.:  10.6
      thresh= 7.283E-07 alpha_mix =  0.700 |ddv_scf|^2 =  4.338E-13

     End of self-consistent calculation

     Convergence has been achieved 


     Representation #  4 modes #   5  6

     Self-consistent Calculation

      iter #   1 total cpu time :    44.5 secs   av.it.:   5.1
      thresh= 1.000E-02 alpha_mix =  0.700 |ddv_scf|^2 =  1.381E-07

      iter #   2 total cpu time :    45.3 secs   av.it.:  11.1
      thresh= 3.717E-05 alpha_mix =  0.700 |ddv_scf|^2 =  1.108E-08

      iter #   3 total cpu time :    46.1 secs   av.it.:  10.9
      thresh= 1.053E-05 alpha_mix =  0.700 |ddv_scf|^2 =  2.916E-10

      iter #   4 total cpu time :    46.8 secs   av.it.:   9.8
      thresh= 1.708E-06 alpha_mix =  0.700 |ddv_scf|^2 =  5.256E-13

     End of self-consistent calculation

     Convergence has been achieved 

     Number of q in the star =    4
     List of q in the star:
          1   0.500000000  -0.500000000   0.500000000
          2   0.500000000   0.500000000   0.500000000
          3  -0.500000000   0.500000000   0.500000000
          4   0.500000000   0.500000000  -0.500000000

     Diagonalizing the dynamical matrix

     q = (    0.500000000  -0.500000000   0.500000000 ) 

 **************************************************************************
     freq (    1) =       3.260652 [THz] =     108.763638 [cm-1]
     freq (    2) =       3.260652 [THz] =     108.763638 [cm-1]
     freq (    3) =      11.129473 [THz] =     371.239269 [cm-1]
     freq (    4) =      12.122317 [THz] =     404.356963 [cm-1]
     freq (    5) =      14.422542 [THz] =     481.084219 [cm-1]
     freq (    6) =      14.422542 [THz] =     481.084219 [cm-1]
 **************************************************************************

     Calculation of q =    0.0000000   0.5000000   0.0000000

   Info: using nr1, nr2, nr3 values from input

   Info: using nr1, nr2, nr3 values from input

     Parallelization info
     --------------------
     sticks:   dense  smooth     PW     G-vecs:    dense   smooth      PW
     Min         217     108     37                 4287     1495     309
     Max         218     109     38                 4289     1498     312
     Sum         871     433    151                17153     5985    1243



     bravais-lattice index     =            2
     lattice parameter (alat)  =      10.3060  a.u.
     unit-cell volume          =     273.6594 (a.u.)^3
     number of atoms/cell      =            2
     number of atomic types    =            1
     number of electrons       =         8.00
     number of Kohn-Sham states=            4
     kinetic-energy cutoff     =      30.0000  Ry
     charge density cutoff     =     240.0000  Ry
     Exchange-correlation      = SLA  PW   PBE  PBE ( 1  4  3  4 0 0)

     celldm(1)=  10.306000  celldm(2)=   0.000000  celldm(3)=   0.000000
     celldm(4)=   0.000000  celldm(5)=   0.000000  celldm(6)=   0.000000

     crystal axes: (cart. coord. in units of alat)
               a(1) = (  -0.500000   0.000000   0.500000 )  
               a(2) = (   0.000000   0.500000   0.500000 )  
               a(3) = (  -0.500000   0.500000   0.000000 )  

     reciprocal axes: (cart. coord. in units 2 pi/alat)
               b(1) = ( -1.000000 -1.000000  1.000000 )  
               b(2) = (  1.000000  1.000000  1.000000 )  
               b(3) = ( -1.000000  1.000000 -1.000000 )  


     PseudoPot. # 1 for Si read from file:
     /home/s1333534/quantum_espresso/qe-6.1/pseudo/si_pbe_v1.uspp.F.UPF.txt
     MD5 check sum: a056efeee980c13900f22a371efd63c1
     Pseudo is Ultrasoft + core correction, Zval =  4.0
     Generated by new atomic code, or converted to UPF format
     Using radial grid of  899 points,  6 beta functions with: 
                l(1) =   0
                l(2) =   0
                l(3) =   1
                l(4) =   1
                l(5) =   2
                l(6) =   2
     Q(r) pseudized with  8 coefficients,  rinner =    0.900   0.900   0.900
                                                       0.900   0.900

     atomic species   valence    mass     pseudopotential
        Si             4.00    28.08600     Si( 1.00)

     48 Sym. Ops., with inversion, found



   Cartesian axes

     site n.     atom                  positions (alat units)
         1           Si  tau(   1) = (   0.0000000   0.0000000   0.0000000  )
         2           Si  tau(   2) = (   0.2500000   0.2500000   0.2500000  )

     number of k points=    80
                       cart. coord. in units 2pi/alat
        k(    1) = (  -0.1250000   0.1250000   0.1250000), wk =   0.0312500
        k(    2) = (  -0.1250000   0.6250000   0.1250000), wk =   0.0000000
        k(    3) = (  -0.3750000   0.3750000  -0.1250000), wk =   0.0625000
        k(    4) = (  -0.3750000   0.8750000  -0.1250000), wk =   0.0000000
        k(    5) = (   0.3750000  -0.3750000   0.6250000), wk =   0.0625000
        k(    6) = (   0.3750000   0.1250000   0.6250000), wk =   0.0000000
        k(    7) = (   0.1250000  -0.1250000   0.3750000), wk =   0.0625000
        k(    8) = (   0.1250000   0.3750000   0.3750000), wk =   0.0000000
        k(    9) = (  -0.1250000   0.6250000   0.1250000), wk =   0.0312500
        k(   10) = (  -0.1250000   1.1250000   0.1250000), wk =   0.0000000
        k(   11) = (   0.6250000  -0.1250000   0.8750000), wk =   0.0625000
        k(   12) = (   0.6250000   0.3750000   0.8750000), wk =   0.0000000
        k(   13) = (   0.3750000   0.1250000   0.6250000), wk =   0.0625000
        k(   14) = (   0.3750000   0.6250000   0.6250000), wk =   0.0000000
        k(   15) = (  -0.1250000  -0.8750000   0.1250000), wk =   0.0312500
        k(   16) = (  -0.1250000  -0.3750000   0.1250000), wk =   0.0000000
        k(   17) = (  -0.3750000   0.3750000   0.3750000), wk =   0.0312500
        k(   18) = (  -0.3750000   0.8750000   0.3750000), wk =   0.0000000
        k(   19) = (   0.3750000  -0.3750000   1.1250000), wk =   0.0625000
        k(   20) = (   0.3750000   0.1250000   1.1250000), wk =   0.0000000
        k(   21) = (  -0.1250000  -0.1250000   0.1250000), wk =   0.0312500
        k(   22) = (  -0.1250000   0.3750000   0.1250000), wk =   0.0000000
        k(   23) = (   0.1250000  -0.3750000   0.3750000), wk =   0.0625000
        k(   24) = (   0.1250000   0.1250000   0.3750000), wk =   0.0000000
        k(   25) = (   0.3750000  -0.1250000   0.3750000), wk =   0.0312500
        k(   26) = (   0.3750000   0.3750000   0.3750000), wk =   0.0000000
        k(   27) = (   0.3750000   0.1250000   0.3750000), wk =   0.0312500
        k(   28) = (   0.3750000   0.6250000   0.3750000), wk =   0.0000000
        k(   29) = (  -0.6250000   0.3750000  -0.3750000), wk =   0.0625000
        k(   30) = (  -0.6250000   0.8750000  -0.3750000), wk =   0.0000000
        k(   31) = (  -0.3750000   0.6250000  -0.3750000), wk =   0.0312500
        k(   32) = (  -0.3750000   1.1250000  -0.3750000), wk =   0.0000000
        k(   33) = (  -0.3750000  -0.6250000  -0.3750000), wk =   0.0312500
        k(   34) = (  -0.3750000  -0.1250000  -0.3750000), wk =   0.0000000
        k(   35) = (  -0.3750000   0.1250000  -0.1250000), wk =   0.0625000
        k(   36) = (  -0.3750000   0.6250000  -0.1250000), wk =   0.0000000
        k(   37) = (  -0.1250000   0.3750000  -0.1250000), wk =   0.0312500
        k(   38) = (  -0.1250000   0.8750000  -0.1250000), wk =   0.0000000
        k(   39) = (  -0.1250000  -0.3750000  -0.1250000), wk =   0.0312500
        k(   40) = (  -0.1250000   0.1250000  -0.1250000), wk =   0.0000000
        k(   41) = (  -0.1250000  -0.6250000   0.1250000), wk =   0.0312500
        k(   42) = (  -0.1250000  -0.1250000   0.1250000), wk =   0.0000000
        k(   43) = (   0.6250000  -0.1250000  -0.1250000), wk =   0.0625000
        k(   44) = (   0.6250000   0.3750000  -0.1250000), wk =   0.0000000
        k(   45) = (   0.6250000   0.1250000   0.1250000), wk =   0.0625000
        k(   46) = (   0.6250000   0.6250000   0.1250000), wk =   0.0000000
        k(   47) = (  -0.8750000   0.1250000  -0.6250000), wk =   0.0625000
        k(   48) = (  -0.8750000   0.6250000  -0.6250000), wk =   0.0000000
        k(   49) = (  -0.1250000   0.6250000  -0.8750000), wk =   0.0625000
        k(   50) = (  -0.1250000   1.1250000  -0.8750000), wk =   0.0000000
        k(   51) = (  -0.1250000   0.8750000  -0.6250000), wk =   0.0625000
        k(   52) = (  -0.1250000   1.3750000  -0.6250000), wk =   0.0000000
        k(   53) = (  -0.1250000  -0.8750000  -0.6250000), wk =   0.0625000
        k(   54) = (  -0.1250000  -0.3750000  -0.6250000), wk =   0.0000000
        k(   55) = (   0.8750000  -0.6250000   0.1250000), wk =   0.0625000
        k(   56) = (   0.8750000  -0.1250000   0.1250000), wk =   0.0000000
        k(   57) = (  -0.6250000  -0.1250000  -0.3750000), wk =   0.0625000
        k(   58) = (  -0.6250000   0.3750000  -0.3750000), wk =   0.0000000
        k(   59) = (   0.1250000   0.3750000  -0.6250000), wk =   0.0625000
        k(   60) = (   0.1250000   0.8750000  -0.6250000), wk =   0.0000000
        k(   61) = (   0.1250000   0.6250000  -0.3750000), wk =   0.0625000
        k(   62) = (   0.1250000   1.1250000  -0.3750000), wk =   0.0000000
        k(   63) = (   0.1250000  -0.6250000  -0.3750000), wk =   0.0625000
        k(   64) = (   0.1250000  -0.1250000  -0.3750000), wk =   0.0000000
        k(   65) = (   0.6250000  -0.3750000  -0.1250000), wk =   0.0625000
        k(   66) = (   0.6250000   0.1250000  -0.1250000), wk =   0.0000000
        k(   67) = (  -0.1250000   0.8750000   0.1250000), wk =   0.0312500
        k(   68) = (  -0.1250000   1.3750000   0.1250000), wk =   0.0000000
        k(   69) = (  -0.8750000  -0.1250000  -0.1250000), wk =   0.0625000
        k(   70) = (  -0.8750000   0.3750000  -0.1250000), wk =   0.0000000
        k(   71) = (  -0.8750000   0.1250000   0.1250000), wk =   0.0625000
        k(   72) = (  -0.8750000   0.6250000   0.1250000), wk =   0.0000000
        k(   73) = (  -0.3750000  -0.3750000   0.3750000), wk =   0.0312500
        k(   74) = (  -0.3750000   0.1250000   0.3750000), wk =   0.0000000
        k(   75) = (  -1.1250000   0.3750000  -0.3750000), wk =   0.0625000
        k(   76) = (  -1.1250000   0.8750000  -0.3750000), wk =   0.0000000
        k(   77) = (  -0.3750000   1.1250000  -0.3750000), wk =   0.0312500
        k(   78) = (  -0.3750000   1.6250000  -0.3750000), wk =   0.0000000
        k(   79) = (  -0.3750000  -1.1250000  -0.3750000), wk =   0.0312500
        k(   80) = (  -0.3750000  -0.6250000  -0.3750000), wk =   0.0000000

     Dense  grid:    17153 G-vectors     FFT dimensions: (  36,  36,  36)

     Smooth grid:     5985 G-vectors     FFT dimensions: (  25,  25,  25)

     Estimated max dynamical RAM per process >       1.51MB

     Estimated total allocated dynamical RAM >       6.05MB

     The potential is recalculated from file :
     ./_ph0/silicon.10.306.save/charge-density.dat

     Starting wfc are    8 atomic wfcs

     Band Structure Calculation
     Davidson diagonalization with overlap

     ethr =  1.25E-10,  avg # of iterations = 12.2

     total cpu time spent up to now is        3.7 secs

     End of band structure calculation

          k =-0.1250 0.1250 0.1250 (   752 PWs)   bands (ev):

    -5.6085   4.4673   5.7763   5.7763

          k =-0.1250 0.6250 0.1250 (   762 PWs)   bands (ev):

    -4.0390   1.1350   3.4250   3.8810

          k =-0.3750 0.3750-0.1250 (   757 PWs)   bands (ev):

    -4.5749   1.4623   3.7777   5.2943

          k =-0.3750 0.8750-0.1250 (   754 PWs)   bands (ev):

    -2.3862  -0.8375   2.0581   3.1431

          k = 0.3750-0.3750 0.6250 (   760 PWs)   bands (ev):

    -3.4251  -0.6319   3.8021   4.5169

          k = 0.3750 0.1250 0.6250 (   759 PWs)   bands (ev):

    -3.6198   0.2520   2.7802   4.1573

          k = 0.1250-0.1250 0.3750 (   766 PWs)   bands (ev):

    -5.0772   2.8478   4.7606   4.8291

          k = 0.1250 0.3750 0.3750 (   757 PWs)   bands (ev):

    -4.5749   1.4623   3.7777   5.2943

          k =-0.1250 0.6250 0.1250 (   762 PWs)   bands (ev):

    -4.0390   1.1350   3.4250   3.8810

          k =-0.1250 1.1250 0.1250 (   759 PWs)   bands (ev):

    -2.5569  -0.7385   2.6732   3.4114

          k = 0.6250-0.1250 0.8750 (   754 PWs)   bands (ev):

    -2.3862  -0.8375   2.0581   3.1431

          k = 0.6250 0.3750 0.8750 (   759 PWs)   bands (ev):

    -3.6198   0.2520   2.7802   4.1573

          k = 0.3750 0.1250 0.6250 (   759 PWs)   bands (ev):

    -3.6198   0.2520   2.7802   4.1573

          k = 0.3750 0.6250 0.6250 (   760 PWs)   bands (ev):

    -3.4251  -0.6319   3.8021   4.5169

          k =-0.1250-0.8750 0.1250 (   759 PWs)   bands (ev):

    -2.5569  -0.7385   2.6732   3.4114

          k =-0.1250-0.3750 0.1250 (   766 PWs)   bands (ev):

    -5.0772   2.8478   4.7606   4.8291

          k =-0.3750 0.3750 0.3750 (   763 PWs)   bands (ev):

    -4.1382   0.1608   4.9852   4.9852

          k =-0.3750 0.8750 0.3750 (   759 PWs)   bands (ev):

    -2.9263  -0.5391   2.1197   4.1973

          k = 0.3750-0.3750 1.1250 (   759 PWs)   bands (ev):

    -2.9263  -0.5391   2.1197   4.1973

          k = 0.3750 0.1250 1.1250 (   754 PWs)   bands (ev):

    -2.3862  -0.8375   2.0581   3.1431

          k =-0.1250-0.1250 0.1250 (   752 PWs)   bands (ev):

    -5.6085   4.4673   5.7763   5.7763

          k =-0.1250 0.3750 0.1250 (   766 PWs)   bands (ev):

    -5.0772   2.8478   4.7606   4.8291

          k = 0.1250-0.3750 0.3750 (   757 PWs)   bands (ev):

    -4.5749   1.4623   3.7777   5.2943

          k = 0.1250 0.1250 0.3750 (   766 PWs)   bands (ev):

    -5.0772   2.8478   4.7606   4.8291

          k = 0.3750-0.1250 0.3750 (   757 PWs)   bands (ev):

    -4.5749   1.4623   3.7777   5.2943

          k = 0.3750 0.3750 0.3750 (   763 PWs)   bands (ev):

    -4.1382   0.1608   4.9852   4.9852

          k = 0.3750 0.1250 0.3750 (   757 PWs)   bands (ev):

    -4.5749   1.4623   3.7777   5.2943

          k = 0.3750 0.6250 0.3750 (   760 PWs)   bands (ev):

    -3.4251  -0.6319   3.8021   4.5169

          k =-0.6250 0.3750-0.3750 (   760 PWs)   bands (ev):

    -3.4251  -0.6319   3.8021   4.5169

          k =-0.6250 0.8750-0.3750 (   759 PWs)   bands (ev):

    -3.6198   0.2520   2.7802   4.1573

          k =-0.3750 0.6250-0.3750 (   760 PWs)   bands (ev):

    -3.4251  -0.6319   3.8021   4.5169

          k =-0.3750 1.1250-0.3750 (   759 PWs)   bands (ev):

    -2.9263  -0.5391   2.1197   4.1973

          k =-0.3750-0.6250-0.3750 (   760 PWs)   bands (ev):

    -3.4251  -0.6319   3.8021   4.5169

          k =-0.3750-0.1250-0.3750 (   757 PWs)   bands (ev):

    -4.5749   1.4623   3.7777   5.2943

          k =-0.3750 0.1250-0.1250 (   766 PWs)   bands (ev):

    -5.0772   2.8478   4.7606   4.8291

          k =-0.3750 0.6250-0.1250 (   759 PWs)   bands (ev):

    -3.6198   0.2520   2.7802   4.1573

          k =-0.1250 0.3750-0.1250 (   766 PWs)   bands (ev):

    -5.0772   2.8478   4.7606   4.8291

          k =-0.1250 0.8750-0.1250 (   759 PWs)   bands (ev):

    -2.5569  -0.7385   2.6732   3.4114

          k =-0.1250-0.3750-0.1250 (   766 PWs)   bands (ev):

    -5.0772   2.8478   4.7606   4.8291

          k =-0.1250 0.1250-0.1250 (   752 PWs)   bands (ev):

    -5.6085   4.4673   5.7763   5.7763

          k =-0.1250-0.6250 0.1250 (   762 PWs)   bands (ev):

    -4.0390   1.1350   3.4250   3.8810

          k =-0.1250-0.1250 0.1250 (   752 PWs)   bands (ev):

    -5.6085   4.4673   5.7763   5.7763

          k = 0.6250-0.1250-0.1250 (   762 PWs)   bands (ev):

    -4.0390   1.1350   3.4250   3.8810

          k = 0.6250 0.3750-0.1250 (   759 PWs)   bands (ev):

    -3.6198   0.2520   2.7802   4.1573

          k = 0.6250 0.1250 0.1250 (   762 PWs)   bands (ev):

    -4.0390   1.1350   3.4250   3.8810

          k = 0.6250 0.6250 0.1250 (   759 PWs)   bands (ev):

    -2.9263  -0.5391   2.1197   4.1973

          k =-0.8750 0.1250-0.6250 (   754 PWs)   bands (ev):

    -2.3862  -0.8375   2.0581   3.1431

          k =-0.8750 0.6250-0.6250 (   757 PWs)   bands (ev):

    -4.5749   1.4623   3.7777   5.2943

          k =-0.1250 0.6250-0.8750 (   754 PWs)   bands (ev):

    -2.3862  -0.8375   2.0581   3.1431

          k =-0.1250 1.1250-0.8750 (   759 PWs)   bands (ev):

    -2.5569  -0.7385   2.6732   3.4114

          k =-0.1250 0.8750-0.6250 (   754 PWs)   bands (ev):

    -2.3862  -0.8375   2.0581   3.1431

          k =-0.1250 1.3750-0.6250 (   759 PWs)   bands (ev):

    -2.9263  -0.5391   2.1197   4.1973

          k =-0.1250-0.8750-0.6250 (   754 PWs)   bands (ev):

    -2.3862  -0.8375   2.0581   3.1431

          k =-0.1250-0.3750-0.6250 (   759 PWs)   bands (ev):

    -3.6198   0.2520   2.7802   4.1573

          k = 0.8750-0.6250 0.1250 (   754 PWs)   bands (ev):

    -2.3862  -0.8375   2.0581   3.1431

          k = 0.8750-0.1250 0.1250 (   759 PWs)   bands (ev):

    -2.5569  -0.7385   2.6732   3.4114

          k =-0.6250-0.1250-0.3750 (   759 PWs)   bands (ev):

    -3.6198   0.2520   2.7802   4.1573

          k =-0.6250 0.3750-0.3750 (   760 PWs)   bands (ev):

    -3.4251  -0.6319   3.8021   4.5169

          k = 0.1250 0.3750-0.6250 (   759 PWs)   bands (ev):

    -3.6198   0.2520   2.7802   4.1573

          k = 0.1250 0.8750-0.6250 (   754 PWs)   bands (ev):

    -2.3862  -0.8375   2.0581   3.1431

          k = 0.1250 0.6250-0.3750 (   759 PWs)   bands (ev):

    -3.6198   0.2520   2.7802   4.1573

          k = 0.1250 1.1250-0.3750 (   754 PWs)   bands (ev):

    -2.3862  -0.8375   2.0581   3.1431

          k = 0.1250-0.6250-0.3750 (   759 PWs)   bands (ev):

    -3.6198   0.2520   2.7802   4.1573

          k = 0.1250-0.1250-0.3750 (   766 PWs)   bands (ev):

    -5.0772   2.8478   4.7606   4.8291

          k = 0.6250-0.3750-0.1250 (   759 PWs)   bands (ev):

    -3.6198   0.2520   2.7802   4.1573

          k = 0.6250 0.1250-0.1250 (   762 PWs)   bands (ev):

    -4.0390   1.1350   3.4250   3.8810

          k =-0.1250 0.8750 0.1250 (   759 PWs)   bands (ev):

    -2.5569  -0.7385   2.6732   3.4114

          k =-0.1250 1.3750 0.1250 (   762 PWs)   bands (ev):

    -4.0390   1.1350   3.4250   3.8810

          k =-0.8750-0.1250-0.1250 (   759 PWs)   bands (ev):

    -2.5569  -0.7385   2.6732   3.4114

          k =-0.8750 0.3750-0.1250 (   754 PWs)   bands (ev):

    -2.3862  -0.8375   2.0581   3.1431

          k =-0.8750 0.1250 0.1250 (   759 PWs)   bands (ev):

    -2.5569  -0.7385   2.6732   3.4114

          k =-0.8750 0.6250 0.1250 (   754 PWs)   bands (ev):

    -2.3862  -0.8375   2.0581   3.1431

          k =-0.3750-0.3750 0.3750 (   763 PWs)   bands (ev):

    -4.1382   0.1608   4.9852   4.9852

          k =-0.3750 0.1250 0.3750 (   757 PWs)   bands (ev):

    -4.5749   1.4623   3.7777   5.2943

          k =-1.1250 0.3750-0.3750 (   759 PWs)   bands (ev):

    -2.9263  -0.5391   2.1197   4.1973

          k =-1.1250 0.8750-0.3750 (   762 PWs)   bands (ev):

    -4.0390   1.1350   3.4250   3.8810

          k =-0.3750 1.1250-0.3750 (   759 PWs)   bands (ev):

    -2.9263  -0.5391   2.1197   4.1973

          k =-0.3750 1.6250-0.3750 (   763 PWs)   bands (ev):

    -4.1382   0.1608   4.9852   4.9852

          k =-0.3750-1.1250-0.3750 (   759 PWs)   bands (ev):

    -2.9263  -0.5391   2.1197   4.1973

          k =-0.3750-0.6250-0.3750 (   760 PWs)   bands (ev):

    -3.4251  -0.6319   3.8021   4.5169

     highest occupied level (ev):     5.7763

     Writing output data file silicon.10.306.save

                                                                                

     bravais-lattice index     =            2
     lattice parameter (alat)  =      10.3060  a.u.
     unit-cell volume          =     273.6594 (a.u.)^3
     number of atoms/cell      =            2
     number of atomic types    =            1
     kinetic-energy cut-off    =      30.0000  Ry
     charge density cut-off    =     240.0000  Ry
     convergence threshold     =      1.0E-12
     beta                      =       0.7000
     number of iterations used =            4
     Exchange-correlation      = SLA  PW   PBE  PBE ( 1  4  3  4 0 0)


     celldm(1)=   10.30600  celldm(2)=    0.00000  celldm(3)=    0.00000
     celldm(4)=    0.00000  celldm(5)=    0.00000  celldm(6)=    0.00000

     crystal axes: (cart. coord. in units of alat)
               a(1) = ( -0.5000  0.0000  0.5000 )  
               a(2) = (  0.0000  0.5000  0.5000 )  
               a(3) = ( -0.5000  0.5000  0.0000 )  

     reciprocal axes: (cart. coord. in units 2 pi/alat)
               b(1) = ( -1.0000 -1.0000  1.0000 )  
               b(2) = (  1.0000  1.0000  1.0000 )  
               b(3) = ( -1.0000  1.0000 -1.0000 )  


     Atoms inside the unit cell: 

     Cartesian axes

     site n.  atom      mass           positions (alat units)
        1     Si  28.0860   tau(    1) = (    0.00000    0.00000    0.00000  )
        2     Si  28.0860   tau(    2) = (    0.25000    0.25000    0.25000  )

     Computing dynamical matrix for 
                    q = (   0.0000000   0.5000000   0.0000000 )

      8 Sym.Ops. (no q -> -q+G )


     G cutoff =  645.7015  (   4288 G-vectors)     FFT grid: ( 36, 36, 36)
     G cutoff =  322.8507  (   1496 G-vectors)  smooth grid: ( 25, 25, 25)
     number of k points=    80

     PseudoPot. # 1 for Si read from file:
     /home/s1333534/quantum_espresso/qe-6.1/pseudo/si_pbe_v1.uspp.F.UPF.txt
     MD5 check sum: a056efeee980c13900f22a371efd63c1
     Pseudo is Ultrasoft + core correction, Zval =  4.0
     Generated by new atomic code, or converted to UPF format
     Using radial grid of  899 points,  6 beta functions with: 
                l(1) =   0
                l(2) =   0
                l(3) =   1
                l(4) =   1
                l(5) =   2
                l(6) =   2
     Q(r) pseudized with  8 coefficients,  rinner =    0.900   0.900   0.900
                                                       0.900   0.900

     Mode symmetry, C_4v (4mm)  point group:


     Atomic displacements:
     There are   4 irreducible representations

     Representation     1      1 modes -A_1  G_1 D_1  To be done

     Representation     2      1 modes -B_2  G_4 D_2'  To be done

     Representation     3      2 modes -E    G_5 D_5  To be done

     Representation     4      2 modes -E    G_5 D_5  To be done



     Alpha used in Ewald sum =   2.5000
     PHONON       :    37.75s CPU        49.30s WALL



     Representation #  1 mode #   1

     Self-consistent Calculation

      iter #   1 total cpu time :    49.6 secs   av.it.:   6.2
      thresh= 1.000E-02 alpha_mix =  0.700 |ddv_scf|^2 =  5.165E-04

      iter #   2 total cpu time :    50.1 secs   av.it.:   9.2
      thresh= 2.273E-03 alpha_mix =  0.700 |ddv_scf|^2 =  6.831E-03

      iter #   3 total cpu time :    50.5 secs   av.it.:   7.3
      thresh= 8.265E-03 alpha_mix =  0.700 |ddv_scf|^2 =  1.039E-08

      iter #   4 total cpu time :    51.0 secs   av.it.:  10.1
      thresh= 1.019E-05 alpha_mix =  0.700 |ddv_scf|^2 =  1.000E-09

      iter #   5 total cpu time :    51.5 secs   av.it.:   9.6
      thresh= 3.163E-06 alpha_mix =  0.700 |ddv_scf|^2 =  1.157E-10

      iter #   6 total cpu time :    51.9 secs   av.it.:   9.3
      thresh= 1.076E-06 alpha_mix =  0.700 |ddv_scf|^2 =  3.283E-13

     End of self-consistent calculation

     Convergence has been achieved 


     Representation #  2 mode #   2

     Self-consistent Calculation

      iter #   1 total cpu time :    52.4 secs   av.it.:   5.1
      thresh= 1.000E-02 alpha_mix =  0.700 |ddv_scf|^2 =  8.130E-07

      iter #   2 total cpu time :    52.9 secs   av.it.:  10.4
      thresh= 9.017E-05 alpha_mix =  0.700 |ddv_scf|^2 =  2.201E-07

      iter #   3 total cpu time :    53.3 secs   av.it.:   9.9
      thresh= 4.692E-05 alpha_mix =  0.700 |ddv_scf|^2 =  2.236E-09

      iter #   4 total cpu time :    53.8 secs   av.it.:  10.1
      thresh= 4.728E-06 alpha_mix =  0.700 |ddv_scf|^2 =  8.625E-11

      iter #   5 total cpu time :    54.3 secs   av.it.:  10.3
      thresh= 9.287E-07 alpha_mix =  0.700 |ddv_scf|^2 =  5.181E-13

     End of self-consistent calculation

     Convergence has been achieved 


     Representation #  3 modes #   3  4

     Self-consistent Calculation

      iter #   1 total cpu time :    55.0 secs   av.it.:   5.2
      thresh= 1.000E-02 alpha_mix =  0.700 |ddv_scf|^2 =  1.442E-07

      iter #   2 total cpu time :    55.9 secs   av.it.:  11.5
      thresh= 3.798E-05 alpha_mix =  0.700 |ddv_scf|^2 =  1.987E-08

      iter #   3 total cpu time :    56.8 secs   av.it.:  11.1
      thresh= 1.410E-05 alpha_mix =  0.700 |ddv_scf|^2 =  3.348E-10

      iter #   4 total cpu time :    57.7 secs   av.it.:  10.7
      thresh= 1.830E-06 alpha_mix =  0.700 |ddv_scf|^2 =  7.794E-13

     End of self-consistent calculation

     Convergence has been achieved 


     Representation #  4 modes #   5  6

     Self-consistent Calculation

      iter #   1 total cpu time :    58.4 secs   av.it.:   5.3
      thresh= 1.000E-02 alpha_mix =  0.700 |ddv_scf|^2 =  1.323E-07

      iter #   2 total cpu time :    59.3 secs   av.it.:  11.4
      thresh= 3.637E-05 alpha_mix =  0.700 |ddv_scf|^2 =  1.773E-08

      iter #   3 total cpu time :    60.2 secs   av.it.:  11.2
      thresh= 1.332E-05 alpha_mix =  0.700 |ddv_scf|^2 =  3.430E-10

      iter #   4 total cpu time :    61.1 secs   av.it.:  11.0
      thresh= 1.852E-06 alpha_mix =  0.700 |ddv_scf|^2 =  8.401E-13

     End of self-consistent calculation

     Convergence has been achieved 

     Number of q in the star =    6
     List of q in the star:
          1   0.000000000   0.500000000   0.000000000
          2   0.000000000  -0.500000000   0.000000000
          3   0.500000000   0.000000000   0.000000000
          4   0.000000000   0.000000000   0.500000000
          5   0.000000000   0.000000000  -0.500000000
          6  -0.500000000   0.000000000   0.000000000

     Diagonalizing the dynamical matrix

     q = (    0.000000000   0.500000000   0.000000000 ) 

 **************************************************************************
     freq (    1) =       3.752007 [THz] =     125.153466 [cm-1]
     freq (    2) =       3.752007 [THz] =     125.153466 [cm-1]
     freq (    3) =       7.119480 [THz] =     237.480287 [cm-1]
     freq (    4) =      13.962620 [THz] =     465.742858 [cm-1]
     freq (    5) =      13.962620 [THz] =     465.742858 [cm-1]
     freq (    6) =      14.569929 [THz] =     486.000520 [cm-1]
 **************************************************************************

     Mode symmetry, C_4v (4mm)  point group:

     freq (  1 -  2) =        125.2  [cm-1]   --> E    G_5 D_5       
     freq (  3 -  3) =        237.5  [cm-1]   --> A_1  G_1 D_1       
     freq (  4 -  5) =        465.7  [cm-1]   --> E    G_5 D_5       
     freq (  6 -  6) =        486.0  [cm-1]   --> B_2  G_4 D_2'      

     Calculation of q =    0.7500000  -0.2500000   0.7500000

   Info: using nr1, nr2, nr3 values from input

   Info: using nr1, nr2, nr3 values from input

     Parallelization info
     --------------------
     sticks:   dense  smooth     PW     G-vecs:    dense   smooth      PW
     Min         217     108     40                 4287     1495     362
     Max         218     109     41                 4289     1498     366
     Sum         871     433    163                17153     5985    1459



     bravais-lattice index     =            2
     lattice parameter (alat)  =      10.3060  a.u.
     unit-cell volume          =     273.6594 (a.u.)^3
     number of atoms/cell      =            2
     number of atomic types    =            1
     number of electrons       =         8.00
     number of Kohn-Sham states=            4
     kinetic-energy cutoff     =      30.0000  Ry
     charge density cutoff     =     240.0000  Ry
     Exchange-correlation      = SLA  PW   PBE  PBE ( 1  4  3  4 0 0)

     celldm(1)=  10.306000  celldm(2)=   0.000000  celldm(3)=   0.000000
     celldm(4)=   0.000000  celldm(5)=   0.000000  celldm(6)=   0.000000

     crystal axes: (cart. coord. in units of alat)
               a(1) = (  -0.500000   0.000000   0.500000 )  
               a(2) = (   0.000000   0.500000   0.500000 )  
               a(3) = (  -0.500000   0.500000   0.000000 )  

     reciprocal axes: (cart. coord. in units 2 pi/alat)
               b(1) = ( -1.000000 -1.000000  1.000000 )  
               b(2) = (  1.000000  1.000000  1.000000 )  
               b(3) = ( -1.000000  1.000000 -1.000000 )  


     PseudoPot. # 1 for Si read from file:
     /home/s1333534/quantum_espresso/qe-6.1/pseudo/si_pbe_v1.uspp.F.UPF.txt
     MD5 check sum: a056efeee980c13900f22a371efd63c1
     Pseudo is Ultrasoft + core correction, Zval =  4.0
     Generated by new atomic code, or converted to UPF format
     Using radial grid of  899 points,  6 beta functions with: 
                l(1) =   0
                l(2) =   0
                l(3) =   1
                l(4) =   1
                l(5) =   2
                l(6) =   2
     Q(r) pseudized with  8 coefficients,  rinner =    0.900   0.900   0.900
                                                       0.900   0.900

     atomic species   valence    mass     pseudopotential
        Si             4.00    28.08600     Si( 1.00)

     48 Sym. Ops., with inversion, found



   Cartesian axes

     site n.     atom                  positions (alat units)
         1           Si  tau(   1) = (   0.0000000   0.0000000   0.0000000  )
         2           Si  tau(   2) = (   0.2500000   0.2500000   0.2500000  )

     number of k points=   288

     Number of k-points >= 100: set verbosity='high' to print them.

     Dense  grid:    17153 G-vectors     FFT dimensions: (  36,  36,  36)

     Smooth grid:     5985 G-vectors     FFT dimensions: (  25,  25,  25)

     Estimated max dynamical RAM per process >       1.51MB

     Estimated total allocated dynamical RAM >       6.05MB

     The potential is recalculated from file :
     ./_ph0/silicon.10.306.save/charge-density.dat

     Starting wfc are    8 atomic wfcs

     Band Structure Calculation
     Davidson diagonalization with overlap

     ethr =  1.25E-10,  avg # of iterations = 12.1

     total cpu time spent up to now is        7.0 secs

     End of band structure calculation

     Number of k-points >= 100: set verbosity='high' to print the bands.

     highest occupied level (ev):     5.7763

     Writing output data file silicon.10.306.save

                                                                                

     bravais-lattice index     =            2
     lattice parameter (alat)  =      10.3060  a.u.
     unit-cell volume          =     273.6594 (a.u.)^3
     number of atoms/cell      =            2
     number of atomic types    =            1
     kinetic-energy cut-off    =      30.0000  Ry
     charge density cut-off    =     240.0000  Ry
     convergence threshold     =      1.0E-12
     beta                      =       0.7000
     number of iterations used =            4
     Exchange-correlation      = SLA  PW   PBE  PBE ( 1  4  3  4 0 0)


     celldm(1)=   10.30600  celldm(2)=    0.00000  celldm(3)=    0.00000
     celldm(4)=    0.00000  celldm(5)=    0.00000  celldm(6)=    0.00000

     crystal axes: (cart. coord. in units of alat)
               a(1) = ( -0.5000  0.0000  0.5000 )  
               a(2) = (  0.0000  0.5000  0.5000 )  
               a(3) = ( -0.5000  0.5000  0.0000 )  

     reciprocal axes: (cart. coord. in units 2 pi/alat)
               b(1) = ( -1.0000 -1.0000  1.0000 )  
               b(2) = (  1.0000  1.0000  1.0000 )  
               b(3) = ( -1.0000  1.0000 -1.0000 )  


     Atoms inside the unit cell: 

     Cartesian axes

     site n.  atom      mass           positions (alat units)
        1     Si  28.0860   tau(    1) = (    0.00000    0.00000    0.00000  )
        2     Si  28.0860   tau(    2) = (    0.25000    0.25000    0.25000  )

     Computing dynamical matrix for 
                    q = (   0.7500000  -0.2500000   0.7500000 )

      2 Sym.Ops. (no q -> -q+G )


     G cutoff =  645.7015  (   4288 G-vectors)     FFT grid: ( 36, 36, 36)
     G cutoff =  322.8507  (   1497 G-vectors)  smooth grid: ( 25, 25, 25)
     number of k points=   288

     PseudoPot. # 1 for Si read from file:
     /home/s1333534/quantum_espresso/qe-6.1/pseudo/si_pbe_v1.uspp.F.UPF.txt
     MD5 check sum: a056efeee980c13900f22a371efd63c1
     Pseudo is Ultrasoft + core correction, Zval =  4.0
     Generated by new atomic code, or converted to UPF format
     Using radial grid of  899 points,  6 beta functions with: 
                l(1) =   0
                l(2) =   0
                l(3) =   1
                l(4) =   1
                l(5) =   2
                l(6) =   2
     Q(r) pseudized with  8 coefficients,  rinner =    0.900   0.900   0.900
                                                       0.900   0.900

     Mode symmetry, C_s (m)     point group:


     Atomic displacements:
     There are   6 irreducible representations

     Representation     1      1 modes -A'  To be done

     Representation     2      1 modes -A'  To be done

     Representation     3      1 modes -A'  To be done

     Representation     4      1 modes -A'  To be done

     Representation     5      1 modes -A''  To be done

     Representation     6      1 modes -A''  To be done



     Alpha used in Ewald sum =   2.5000
     PHONON       :  0m51.49s CPU     1m 6.48s WALL



     Representation #  1 mode #   1

     Self-consistent Calculation

      iter #   1 total cpu time :    67.4 secs   av.it.:   5.7
      thresh= 1.000E-02 alpha_mix =  0.700 |ddv_scf|^2 =  1.053E-05

      iter #   2 total cpu time :    68.8 secs   av.it.:  10.5
      thresh= 3.244E-04 alpha_mix =  0.700 |ddv_scf|^2 =  2.801E-05

      iter #   3 total cpu time :    70.1 secs   av.it.:   9.2
      thresh= 5.292E-04 alpha_mix =  0.700 |ddv_scf|^2 =  1.880E-07

      iter #   4 total cpu time :    71.3 secs   av.it.:   9.9
      thresh= 4.336E-05 alpha_mix =  0.700 |ddv_scf|^2 =  3.701E-09

      iter #   5 total cpu time :    72.7 secs   av.it.:  10.4
      thresh= 6.083E-06 alpha_mix =  0.700 |ddv_scf|^2 =  6.395E-10

      iter #   6 total cpu time :    74.0 secs   av.it.:  10.4
      thresh= 2.529E-06 alpha_mix =  0.700 |ddv_scf|^2 =  9.463E-12

      iter #   7 total cpu time :    75.3 secs   av.it.:  10.6
      thresh= 3.076E-07 alpha_mix =  0.700 |ddv_scf|^2 =  3.536E-13

     End of self-consistent calculation

     Convergence has been achieved 


     Representation #  2 mode #   2

     Self-consistent Calculation

      iter #   1 total cpu time :    76.3 secs   av.it.:   5.8
      thresh= 1.000E-02 alpha_mix =  0.700 |ddv_scf|^2 =  1.887E-05

      iter #   2 total cpu time :    77.6 secs   av.it.:  10.4
      thresh= 4.344E-04 alpha_mix =  0.700 |ddv_scf|^2 =  5.456E-05

      iter #   3 total cpu time :    78.8 secs   av.it.:   9.0
      thresh= 7.387E-04 alpha_mix =  0.700 |ddv_scf|^2 =  1.259E-07

      iter #   4 total cpu time :    80.1 secs   av.it.:  10.2
      thresh= 3.548E-05 alpha_mix =  0.700 |ddv_scf|^2 =  4.177E-09

      iter #   5 total cpu time :    81.4 secs   av.it.:  10.4
      thresh= 6.463E-06 alpha_mix =  0.700 |ddv_scf|^2 =  8.519E-10

      iter #   6 total cpu time :    82.6 secs   av.it.:  10.3
      thresh= 2.919E-06 alpha_mix =  0.700 |ddv_scf|^2 =  8.772E-12

      iter #   7 total cpu time :    84.0 secs   av.it.:  10.6
      thresh= 2.962E-07 alpha_mix =  0.700 |ddv_scf|^2 =  3.063E-13

     End of self-consistent calculation

     Convergence has been achieved 


     Representation #  3 mode #   3

     Self-consistent Calculation

      iter #   1 total cpu time :    85.0 secs   av.it.:   5.7
      thresh= 1.000E-02 alpha_mix =  0.700 |ddv_scf|^2 =  1.479E-05

      iter #   2 total cpu time :    86.3 secs   av.it.:  10.4
      thresh= 3.846E-04 alpha_mix =  0.700 |ddv_scf|^2 =  4.019E-05

      iter #   3 total cpu time :    87.5 secs   av.it.:   9.0
      thresh= 6.339E-04 alpha_mix =  0.700 |ddv_scf|^2 =  2.200E-07

      iter #   4 total cpu time :    88.8 secs   av.it.:  10.0
      thresh= 4.690E-05 alpha_mix =  0.700 |ddv_scf|^2 =  4.258E-09

      iter #   5 total cpu time :    90.1 secs   av.it.:  10.4
      thresh= 6.525E-06 alpha_mix =  0.700 |ddv_scf|^2 =  8.303E-10

      iter #   6 total cpu time :    91.4 secs   av.it.:  10.3
      thresh= 2.881E-06 alpha_mix =  0.700 |ddv_scf|^2 =  6.132E-12

      iter #   7 total cpu time :    92.7 secs   av.it.:  10.5
      thresh= 2.476E-07 alpha_mix =  0.700 |ddv_scf|^2 =  1.781E-13

     End of self-consistent calculation

     Convergence has been achieved 


     Representation #  4 mode #   4

     Self-consistent Calculation

      iter #   1 total cpu time :    93.8 secs   av.it.:   5.5
      thresh= 1.000E-02 alpha_mix =  0.700 |ddv_scf|^2 =  6.442E-06

      iter #   2 total cpu time :    95.2 secs   av.it.:  10.7
      thresh= 2.538E-04 alpha_mix =  0.700 |ddv_scf|^2 =  1.361E-05

      iter #   3 total cpu time :    96.4 secs   av.it.:   9.5
      thresh= 3.689E-04 alpha_mix =  0.700 |ddv_scf|^2 =  2.947E-07

      iter #   4 total cpu time :    97.7 secs   av.it.:   9.8
      thresh= 5.428E-05 alpha_mix =  0.700 |ddv_scf|^2 =  3.649E-09

      iter #   5 total cpu time :    99.0 secs   av.it.:  10.5
      thresh= 6.040E-06 alpha_mix =  0.700 |ddv_scf|^2 =  6.826E-10

      iter #   6 total cpu time :   100.3 secs   av.it.:  10.4
      thresh= 2.613E-06 alpha_mix =  0.700 |ddv_scf|^2 =  4.009E-12

      iter #   7 total cpu time :   102.1 secs   av.it.:  10.7
      thresh= 2.002E-07 alpha_mix =  0.700 |ddv_scf|^2 =  1.807E-13

     End of self-consistent calculation

     Convergence has been achieved 


     Representation #  5 mode #   5

     Self-consistent Calculation

      iter #   1 total cpu time :   103.9 secs   av.it.:   5.2
      thresh= 1.000E-02 alpha_mix =  0.700 |ddv_scf|^2 =  6.669E-07

      iter #   2 total cpu time :   105.2 secs   av.it.:  10.3
      thresh= 8.167E-05 alpha_mix =  0.700 |ddv_scf|^2 =  1.087E-07

      iter #   3 total cpu time :   106.5 secs   av.it.:  10.0
      thresh= 3.297E-05 alpha_mix =  0.700 |ddv_scf|^2 =  1.451E-09

      iter #   4 total cpu time :   107.8 secs   av.it.:   9.6
      thresh= 3.809E-06 alpha_mix =  0.700 |ddv_scf|^2 =  3.371E-12

      iter #   5 total cpu time :   109.0 secs   av.it.:  10.0
      thresh= 1.836E-07 alpha_mix =  0.700 |ddv_scf|^2 =  9.423E-14

     End of self-consistent calculation

     Convergence has been achieved 


     Representation #  6 mode #   6

     Self-consistent Calculation

      iter #   1 total cpu time :   110.0 secs   av.it.:   5.2
      thresh= 1.000E-02 alpha_mix =  0.700 |ddv_scf|^2 =  6.669E-07

      iter #   2 total cpu time :   111.3 secs   av.it.:  10.3
[...]
        k(   59) = (  -0.8750000   0.1250000  -0.1250000), wk =   0.0625000
        k(   60) = (  -1.3750000  -0.8750000  -0.1250000), wk =   0.0000000
        k(   61) = (  -1.1250000   0.3750000  -0.3750000), wk =   0.0625000
        k(   62) = (  -1.6250000  -0.6250000  -0.3750000), wk =   0.0000000
        k(   63) = (  -0.3750000   0.3750000   1.1250000), wk =   0.0625000
        k(   64) = (  -0.8750000  -0.6250000   1.1250000), wk =   0.0000000

     Dense  grid:    17153 G-vectors     FFT dimensions: (  36,  36,  36)

     Smooth grid:     5985 G-vectors     FFT dimensions: (  25,  25,  25)

     Estimated max dynamical RAM per process >       1.51MB

     Estimated total allocated dynamical RAM >       6.05MB

     The potential is recalculated from file :
     ./_ph0/silicon.10.306.save/charge-density.dat

     Starting wfc are    8 atomic wfcs

     Band Structure Calculation
     Davidson diagonalization with overlap

     ethr =  1.25E-10,  avg # of iterations = 12.1

     total cpu time spent up to now is       10.9 secs

     End of band structure calculation

          k =-0.1250 0.1250 0.1250 (   752 PWs)   bands (ev):

    -5.6085   4.4673   5.7763   5.7763

          k =-0.6250-0.8750 0.1250 (   754 PWs)   bands (ev):

    -2.3862  -0.8375   2.0581   3.1431

          k =-0.3750 0.3750-0.1250 (   757 PWs)   bands (ev):

    -4.5749   1.4623   3.7777   5.2943

          k =-0.8750-0.6250-0.1250 (   754 PWs)   bands (ev):

    -2.3862  -0.8375   2.0581   3.1431

          k = 0.3750-0.3750 0.6250 (   760 PWs)   bands (ev):

    -3.4251  -0.6319   3.8021   4.5169

          k =-0.1250-1.3750 0.6250 (   759 PWs)   bands (ev):

    -2.9263  -0.5391   2.1197   4.1973

          k = 0.1250-0.1250 0.3750 (   766 PWs)   bands (ev):

    -5.0772   2.8478   4.7606   4.8291

          k =-0.3750-1.1250 0.3750 (   759 PWs)   bands (ev):

    -2.9263  -0.5391   2.1197   4.1973

          k =-0.1250 0.6250 0.1250 (   762 PWs)   bands (ev):

    -4.0390   1.1350   3.4250   3.8810

          k =-0.6250-0.3750 0.1250 (   759 PWs)   bands (ev):

    -3.6198   0.2520   2.7802   4.1573

          k = 0.6250-0.1250 0.8750 (   754 PWs)   bands (ev):

    -2.3862  -0.8375   2.0581   3.1431

          k = 0.1250-1.1250 0.8750 (   759 PWs)   bands (ev):

    -2.5569  -0.7385   2.6732   3.4114

          k = 0.3750 0.1250 0.6250 (   759 PWs)   bands (ev):

    -3.6198   0.2520   2.7802   4.1573

          k =-0.1250-0.8750 0.6250 (   754 PWs)   bands (ev):

    -2.3862  -0.8375   2.0581   3.1431

          k =-0.1250-0.8750 0.1250 (   759 PWs)   bands (ev):

    -2.5569  -0.7385   2.6732   3.4114

          k =-0.6250-1.8750 0.1250 (   762 PWs)   bands (ev):

    -4.0390   1.1350   3.4250   3.8810

          k =-0.3750 0.3750 0.3750 (   763 PWs)   bands (ev):

    -4.1382   0.1608   4.9852   4.9852

          k =-0.8750-0.6250 0.3750 (   759 PWs)   bands (ev):

    -3.6198   0.2520   2.7802   4.1573

          k = 0.3750-0.3750 1.1250 (   759 PWs)   bands (ev):

    -2.9263  -0.5391   2.1197   4.1973

          k =-0.1250-1.3750 1.1250 (   754 PWs)   bands (ev):

    -2.3862  -0.8375   2.0581   3.1431

          k = 0.1250-0.3750 0.3750 (   757 PWs)   bands (ev):

    -4.5749   1.4623   3.7777   5.2943

          k =-0.3750-1.3750 0.3750 (   760 PWs)   bands (ev):

    -3.4251  -0.6319   3.8021   4.5169

          k = 0.3750-0.3750-0.1250 (   757 PWs)   bands (ev):

    -4.5749   1.4623   3.7777   5.2943

          k =-0.1250-1.3750-0.1250 (   762 PWs)   bands (ev):

    -4.0390   1.1350   3.4250   3.8810

          k =-0.6250 0.3750-0.3750 (   760 PWs)   bands (ev):

    -3.4251  -0.6319   3.8021   4.5169

          k =-1.1250-0.6250-0.3750 (   759 PWs)   bands (ev):

    -3.6198   0.2520   2.7802   4.1573

          k =-0.3750 0.3750 0.6250 (   760 PWs)   bands (ev):

    -3.4251  -0.6319   3.8021   4.5169

          k =-0.8750-0.6250 0.6250 (   757 PWs)   bands (ev):

    -4.5749   1.4623   3.7777   5.2943

          k =-0.3750 0.1250-0.1250 (   766 PWs)   bands (ev):

    -5.0772   2.8478   4.7606   4.8291

          k =-0.8750-0.8750-0.1250 (   759 PWs)   bands (ev):

    -2.5569  -0.7385   2.6732   3.4114

          k =-0.1250 0.1250 0.3750 (   766 PWs)   bands (ev):

    -5.0772   2.8478   4.7606   4.8291

          k =-0.6250-0.8750 0.3750 (   759 PWs)   bands (ev):

    -3.6198   0.2520   2.7802   4.1573

          k = 0.1250 0.6250-0.1250 (   762 PWs)   bands (ev):

    -4.0390   1.1350   3.4250   3.8810

          k =-0.3750-0.3750-0.1250 (   757 PWs)   bands (ev):

    -4.5749   1.4623   3.7777   5.2943

          k = 0.6250 0.1250-0.1250 (   762 PWs)   bands (ev):

    -4.0390   1.1350   3.4250   3.8810

          k = 0.1250-0.8750-0.1250 (   759 PWs)   bands (ev):

    -2.5569  -0.7385   2.6732   3.4114

          k =-0.8750 0.1250-0.6250 (   754 PWs)   bands (ev):

    -2.3862  -0.8375   2.0581   3.1431

          k =-1.3750-0.8750-0.6250 (   757 PWs)   bands (ev):

    -4.5749   1.4623   3.7777   5.2943

          k = 0.8750-0.1250 0.6250 (   754 PWs)   bands (ev):

    -2.3862  -0.8375   2.0581   3.1431

          k = 0.3750-1.1250 0.6250 (   759 PWs)   bands (ev):

    -3.6198   0.2520   2.7802   4.1573

          k =-0.6250 0.1250 0.8750 (   754 PWs)   bands (ev):

    -2.3862  -0.8375   2.0581   3.1431

          k =-1.1250-0.8750 0.8750 (   752 PWs)   bands (ev):

    -5.6085   4.4673   5.7763   5.7763

          k =-0.1250 0.8750 0.6250 (   754 PWs)   bands (ev):

    -2.3862  -0.8375   2.0581   3.1431

          k =-0.6250-0.1250 0.6250 (   759 PWs)   bands (ev):

    -2.9263  -0.5391   2.1197   4.1973

          k = 0.1250 0.8750-0.6250 (   754 PWs)   bands (ev):

    -2.3862  -0.8375   2.0581   3.1431

          k =-0.3750-0.1250-0.6250 (   759 PWs)   bands (ev):

    -3.6198   0.2520   2.7802   4.1573

          k =-0.6250-0.1250-0.3750 (   759 PWs)   bands (ev):

    -3.6198   0.2520   2.7802   4.1573

          k =-1.1250-1.1250-0.3750 (   762 PWs)   bands (ev):

    -4.0390   1.1350   3.4250   3.8810

          k = 0.6250 0.1250 0.3750 (   759 PWs)   bands (ev):

    -3.6198   0.2520   2.7802   4.1573

          k = 0.1250-0.8750 0.3750 (   754 PWs)   bands (ev):

    -2.3862  -0.8375   2.0581   3.1431

          k =-0.3750-0.1250 0.6250 (   759 PWs)   bands (ev):

    -3.6198   0.2520   2.7802   4.1573

          k =-0.8750-1.1250 0.6250 (   766 PWs)   bands (ev):

    -5.0772   2.8478   4.7606   4.8291

          k = 0.1250 0.6250 0.3750 (   759 PWs)   bands (ev):

    -3.6198   0.2520   2.7802   4.1573

          k =-0.3750-0.3750 0.3750 (   763 PWs)   bands (ev):

    -4.1382   0.1608   4.9852   4.9852

          k =-0.1250 0.6250-0.3750 (   759 PWs)   bands (ev):

    -3.6198   0.2520   2.7802   4.1573

          k =-0.6250-0.3750-0.3750 (   760 PWs)   bands (ev):

    -3.4251  -0.6319   3.8021   4.5169

          k = 0.1250-0.8750-0.1250 (   759 PWs)   bands (ev):

    -2.5569  -0.7385   2.6732   3.4114

          k =-0.3750-1.8750-0.1250 (   766 PWs)   bands (ev):

    -5.0772   2.8478   4.7606   4.8291

          k =-0.8750 0.1250-0.1250 (   759 PWs)   bands (ev):

    -2.5569  -0.7385   2.6732   3.4114

          k =-1.3750-0.8750-0.1250 (   754 PWs)   bands (ev):

    -2.3862  -0.8375   2.0581   3.1431

          k =-1.1250 0.3750-0.3750 (   759 PWs)   bands (ev):

    -2.9263  -0.5391   2.1197   4.1973

          k =-1.6250-0.6250-0.3750 (   760 PWs)   bands (ev):

    -3.4251  -0.6319   3.8021   4.5169

          k =-0.3750 0.3750 1.1250 (   759 PWs)   bands (ev):

    -2.9263  -0.5391   2.1197   4.1973

          k =-0.8750-0.6250 1.1250 (   766 PWs)   bands (ev):

    -5.0772   2.8478   4.7606   4.8291

     highest occupied level (ev):     5.7763

     Writing output data file silicon.10.306.save

                                                                                

     bravais-lattice index     =            2
     lattice parameter (alat)  =      10.3060  a.u.
     unit-cell volume          =     273.6594 (a.u.)^3
     number of atoms/cell      =            2
     number of atomic types    =            1
     kinetic-energy cut-off    =      30.0000  Ry
     charge density cut-off    =     240.0000  Ry
     convergence threshold     =      1.0E-12
     beta                      =       0.7000
     number of iterations used =            4
     Exchange-correlation      = SLA  PW   PBE  PBE ( 1  4  3  4 0 0)


     celldm(1)=   10.30600  celldm(2)=    0.00000  celldm(3)=    0.00000
     celldm(4)=    0.00000  celldm(5)=    0.00000  celldm(6)=    0.00000

     crystal axes: (cart. coord. in units of alat)
               a(1) = ( -0.5000  0.0000  0.5000 )  
               a(2) = (  0.0000  0.5000  0.5000 )  
               a(3) = ( -0.5000  0.5000  0.0000 )  

     reciprocal axes: (cart. coord. in units 2 pi/alat)
               b(1) = ( -1.0000 -1.0000  1.0000 )  
               b(2) = (  1.0000  1.0000  1.0000 )  
               b(3) = ( -1.0000  1.0000 -1.0000 )  


     Atoms inside the unit cell: 

     Cartesian axes

     site n.  atom      mass           positions (alat units)
        1     Si  28.0860   tau(    1) = (    0.00000    0.00000    0.00000  )
        2     Si  28.0860   tau(    2) = (    0.25000    0.25000    0.25000  )

     Computing dynamical matrix for 
                    q = (  -0.5000000  -1.0000000   0.0000000 )

      8 Sym.Ops. (no q -> -q+G )


     G cutoff =  645.7015  (   4288 G-vectors)     FFT grid: ( 36, 36, 36)
     G cutoff =  322.8507  (   1497 G-vectors)  smooth grid: ( 25, 25, 25)
     number of k points=    64

     PseudoPot. # 1 for Si read from file:
     /home/s1333534/quantum_espresso/qe-6.1/pseudo/si_pbe_v1.uspp.F.UPF.txt
     MD5 check sum: a056efeee980c13900f22a371efd63c1
     Pseudo is Ultrasoft + core correction, Zval =  4.0
     Generated by new atomic code, or converted to UPF format
     Using radial grid of  899 points,  6 beta functions with: 
                l(1) =   0
                l(2) =   0
                l(3) =   1
                l(4) =   1
                l(5) =   2
                l(6) =   2
     Q(r) pseudized with  8 coefficients,  rinner =    0.900   0.900   0.900
                                                       0.900   0.900


     Atomic displacements:
     There are   3 irreducible representations

     Representation     1      2 modes -  To be done

     Representation     2      2 modes -  To be done

     Representation     3      2 modes -  To be done



     Alpha used in Ewald sum =   2.5000
     PHONON       :  2m 4.11s CPU     2m34.76s WALL



     Representation #  1 modes #   1  2

     Self-consistent Calculation

      iter #   1 total cpu time :   155.4 secs   av.it.:   5.7
      thresh= 1.000E-02 alpha_mix =  0.700 |ddv_scf|^2 =  1.090E-06

      iter #   2 total cpu time :   156.3 secs   av.it.:  11.6
      thresh= 1.044E-04 alpha_mix =  0.700 |ddv_scf|^2 =  6.179E-07

      iter #   3 total cpu time :   157.2 secs   av.it.:  11.1
      thresh= 7.860E-05 alpha_mix =  0.700 |ddv_scf|^2 =  5.908E-10

      iter #   4 total cpu time :   158.0 secs   av.it.:  11.0
      thresh= 2.431E-06 alpha_mix =  0.700 |ddv_scf|^2 =  2.621E-12

      iter #   5 total cpu time :   158.7 secs   av.it.:  11.1
      thresh= 1.619E-07 alpha_mix =  0.700 |ddv_scf|^2 =  6.920E-14

     End of self-consistent calculation

     Convergence has been achieved 


     Representation #  2 modes #   3  4

     Self-consistent Calculation

      iter #   1 total cpu time :   159.4 secs   av.it.:   5.7
      thresh= 1.000E-02 alpha_mix =  0.700 |ddv_scf|^2 =  1.686E-06

      iter #   2 total cpu time :   160.2 secs   av.it.:  11.6
      thresh= 1.299E-04 alpha_mix =  0.700 |ddv_scf|^2 =  2.270E-06

      iter #   3 total cpu time :   161.0 secs   av.it.:  10.9
      thresh= 1.507E-04 alpha_mix =  0.700 |ddv_scf|^2 =  6.972E-10

      iter #   4 total cpu time :   161.7 secs   av.it.:  11.0
      thresh= 2.641E-06 alpha_mix =  0.700 |ddv_scf|^2 =  1.039E-11

      iter #   5 total cpu time :   162.5 secs   av.it.:  11.1
      thresh= 3.223E-07 alpha_mix =  0.700 |ddv_scf|^2 =  1.756E-13

     End of self-consistent calculation

     Convergence has been achieved 


     Representation #  3 modes #   5  6

     Self-consistent Calculation

      iter #   1 total cpu time :   163.1 secs   av.it.:   5.3
      thresh= 1.000E-02 alpha_mix =  0.700 |ddv_scf|^2 =  4.427E-07

      iter #   2 total cpu time :   163.9 secs   av.it.:  11.6
      thresh= 6.654E-05 alpha_mix =  0.700 |ddv_scf|^2 =  2.588E-07

      iter #   3 total cpu time :   164.8 secs   av.it.:  11.0
      thresh= 5.087E-05 alpha_mix =  0.700 |ddv_scf|^2 =  5.141E-10

      iter #   4 total cpu time :   165.5 secs   av.it.:  11.0
      thresh= 2.267E-06 alpha_mix =  0.700 |ddv_scf|^2 =  5.952E-12

      iter #   5 total cpu time :   166.3 secs   av.it.:  11.1
      thresh= 2.440E-07 alpha_mix =  0.700 |ddv_scf|^2 =  8.322E-14

     End of self-consistent calculation

     Convergence has been achieved 

     Number of q in the star =    6
     List of q in the star:
          1  -0.500000000  -1.000000000   0.000000000
          2   0.000000000   1.000000000   0.500000000
          3   0.000000000  -1.000000000  -0.500000000
          4   0.500000000   1.000000000   0.000000000
          5  -1.000000000  -0.500000000   0.000000000
          6   0.000000000  -0.500000000  -1.000000000

     Diagonalizing the dynamical matrix

     q = (   -0.500000000  -1.000000000   0.000000000 ) 

 **************************************************************************
     freq (    1) =       5.997681 [THz] =     200.061106 [cm-1]
     freq (    2) =       5.997681 [THz] =     200.061106 [cm-1]
     freq (    3) =      10.421638 [THz] =     347.628432 [cm-1]
     freq (    4) =      10.421638 [THz] =     347.628432 [cm-1]
     freq (    5) =      13.717943 [THz] =     457.581317 [cm-1]
     freq (    6) =      13.717943 [THz] =     457.581317 [cm-1]
 **************************************************************************

     init_run     :      1.23s CPU      1.29s WALL (       7 calls)
     electrons    :      7.26s CPU      7.88s WALL (       7 calls)

     Called by init_run:
     wfcinit      :      0.00s CPU      0.03s WALL (       7 calls)
     potinit      :      0.07s CPU      0.09s WALL (       7 calls)

     Called by electrons:
     c_bands      :      7.25s CPU      7.87s WALL (       7 calls)
     v_of_rho     :      0.06s CPU      0.06s WALL (       8 calls)
     newd         :      0.12s CPU      0.12s WALL (       8 calls)

     Called by c_bands:
     init_us_2    :      1.62s CPU      1.56s WALL (   16040 calls)
     cegterg      :      6.07s CPU      6.57s WALL (     796 calls)

     Called by sum_band:

     Called by *egterg:
     h_psi        :     69.68s CPU     74.98s WALL (  154440 calls)
     s_psi        :      5.63s CPU      6.98s WALL (  311282 calls)
     g_psi        :      0.05s CPU      0.07s WALL (    9666 calls)
     cdiaghg      :      0.56s CPU      0.56s WALL (   10462 calls)

     Called by h_psi:
     h_psi:pot    :     69.27s CPU     74.47s WALL (  154440 calls)
     h_psi:calbec :      3.49s CPU      4.00s WALL (  154440 calls)
     vloc_psi     :     61.15s CPU     66.33s WALL (  154440 calls)
     add_vuspsi   :      4.28s CPU      3.65s WALL (  154440 calls)

     General routines
     calbec       :      8.14s CPU      8.58s WALL (  345734 calls)
     fft          :      1.35s CPU      1.42s WALL (    5265 calls)
     ffts         :      0.23s CPU      0.26s WALL (    3320 calls)
     fftw         :     64.50s CPU     69.30s WALL ( 1383536 calls)
     interpolate  :      0.20s CPU      0.22s WALL (     572 calls)
     davcio       :      0.32s CPU      0.93s WALL (   69876 calls)

     Parallel routines
     fft_scatter  :     16.78s CPU     20.83s WALL ( 1392121 calls)

     PHONON       :  2m13.30s CPU     2m46.59s WALL

     INITIALIZATION: 
     phq_setup    :      0.22s CPU      0.40s WALL (       8 calls)
     phq_init     :      6.76s CPU      7.07s WALL (       8 calls)

     phq_init     :      6.76s CPU      7.07s WALL (       8 calls)
     set_drhoc    :      1.81s CPU      1.83s WALL (      24 calls)
     init_vloc    :      0.03s CPU      0.03s WALL (       8 calls)
     init_us_1    :      0.97s CPU      0.98s WALL (       8 calls)
     newd         :      0.12s CPU      0.12s WALL (       8 calls)
     dvanqq       :      1.16s CPU      1.16s WALL (       8 calls)
     drho         :      2.60s CPU      2.68s WALL (       8 calls)

     DYNAMICAL MATRIX:
     dynmat0      :      1.71s CPU      1.88s WALL (       8 calls)
     phqscf       :    113.12s CPU    140.36s WALL (       8 calls)
     dynmatrix    :      0.01s CPU      0.28s WALL (       8 calls)

     phqscf       :    113.12s CPU    140.36s WALL (       8 calls)
     solve_linter :    112.26s CPU    138.04s WALL (      32 calls)
     drhodv       :      0.58s CPU      0.61s WALL (      32 calls)

     dynmat0      :      1.71s CPU      1.88s WALL (       8 calls)
     dynmat_us    :      0.38s CPU      0.39s WALL (       8 calls)
     d2ionq       :      0.04s CPU      0.04s WALL (       8 calls)
     dynmatcc     :      1.28s CPU      1.29s WALL (       8 calls)

     dynmat_us    :      0.38s CPU      0.39s WALL (       8 calls)
     addusdynmat  :      0.00s CPU      0.00s WALL (       8 calls)

     phqscf       :    113.12s CPU    140.36s WALL (       8 calls)
     solve_linter :    112.26s CPU    138.04s WALL (      32 calls)

     solve_linter :    112.26s CPU    138.04s WALL (      32 calls)
     dvqpsi_us    :      2.27s CPU      2.49s WALL (    2508 calls)
     ortho        :      1.03s CPU      1.20s WALL (   13630 calls)
     cgsolve      :     77.35s CPU     84.42s WALL (   13630 calls)
     incdrhoscf   :      6.38s CPU      7.04s WALL (   13630 calls)
     addusddens   :      7.05s CPU      7.11s WALL (     202 calls)
     vpsifft      :      4.45s CPU      4.93s WALL (   11002 calls)
     dv_of_drho   :      1.20s CPU      1.24s WALL (     256 calls)
     mix_pot      :      0.54s CPU      9.12s WALL (     175 calls)
     psymdvscf    :      4.09s CPU      4.14s WALL (     170 calls)
     newdq        :      7.67s CPU      7.69s WALL (     175 calls)
     adddvscf     :      0.46s CPU      0.44s WALL (   11122 calls)
     drhodvus     :      0.01s CPU      0.02s WALL (      32 calls)

     dvqpsi_us    :      2.27s CPU      2.49s WALL (    2508 calls)
     dvqpsi_us_on :      0.92s CPU      0.94s WALL (    2508 calls)

     cgsolve      :     77.35s CPU     84.42s WALL (   13630 calls)
     ch_psi       :     76.16s CPU     82.61s WALL (  143182 calls)

     ch_psi       :     76.16s CPU     82.61s WALL (  143182 calls)
     h_psi        :     69.68s CPU     74.98s WALL (  154440 calls)
     last         :      9.08s CPU      9.28s WALL (  143182 calls)

     h_psi        :     69.68s CPU     74.98s WALL (  154440 calls)
     add_vuspsi   :      4.28s CPU      3.65s WALL (  154440 calls)

     incdrhoscf   :      6.38s CPU      7.04s WALL (   13630 calls)
     addusdbec    :      0.51s CPU      0.54s WALL (   16078 calls)

     drhodvus     :      0.01s CPU      0.02s WALL (      32 calls)

      General routines
     calbec       :      8.14s CPU      8.58s WALL (  345734 calls)
     fft          :      1.35s CPU      1.42s WALL (    5265 calls)
     ffts         :      0.23s CPU      0.26s WALL (    3320 calls)
     fftw         :     64.50s CPU     69.30s WALL ( 1383536 calls)
     davcio       :      0.32s CPU      0.93s WALL (   69876 calls)
     write_rec    :      0.22s CPU     10.01s WALL (     207 calls)


     PHONON       :  2m13.30s CPU     2m46.59s WALL


   This run was terminated on:  15:49: 6  10Nov2017            

=------------------------------------------------------------------------------=
   JOB DONE.
=------------------------------------------------------------------------------=
