
     Program PWSCF v.6.1 (svn rev. 13369) starts on 10Nov2017 at  9:58:59 

     This program is part of the open-source Quantum ESPRESSO suite
     for quantum simulation of materials; please cite
         "P. Giannozzi et al., J. Phys.:Condens. Matter 21 395502 (2009);
          URL http://www.quantum-espresso.org", 
     in publications or presentations arising from this work. More details at
     http://www.quantum-espresso.org/quote

     Parallel version (MPI), running on     4 processors
     R & G space division:  proc/nbgrp/npool/nimage =       4
     Waiting for input...
     Reading input from standard input
     Message from routine read_cards :
     DEPRECATED: no units specified in ATOMIC_POSITIONS card
     Message from routine read_cards :
     ATOMIC_POSITIONS: units set to alat

     Current dimensions of program PWSCF are:
     Max number of different atomic species (ntypx) = 10
     Max number of k-points (npk) =  40000
     Max angular momentum in pseudopotentials (lmaxx) =  3

     Subspace diagonalization in iterative solution of the eigenvalue problem:
     a serial algorithm will be used


     Parallelization info
     --------------------
     sticks:   dense  smooth     PW     G-vecs:    dense   smooth      PW
     Min          66      66     22                  722      722     152
     Max          67      67     23                  724      724     153
     Sum         265     265     91                 2891     2891     609



     bravais-lattice index     =            2
     lattice parameter (alat)  =      10.3950  a.u.
     unit-cell volume          =     280.8106 (a.u.)^3
     number of atoms/cell      =            2
     number of atomic types    =            1
     number of electrons       =         8.00
     number of Kohn-Sham states=            4
     kinetic-energy cutoff     =      18.0000  Ry
     charge density cutoff     =      72.0000  Ry
     convergence threshold     =      1.0E-08
     mixing beta               =       0.7000
     number of iterations used =            8  plain     mixing
     Exchange-correlation      = SLA  PW   PBE  PBE ( 1  4  3  4 0 0)

     celldm(1)=  10.395000  celldm(2)=   0.000000  celldm(3)=   0.000000
     celldm(4)=   0.000000  celldm(5)=   0.000000  celldm(6)=   0.000000

     crystal axes: (cart. coord. in units of alat)
               a(1) = (  -0.500000   0.000000   0.500000 )  
               a(2) = (   0.000000   0.500000   0.500000 )  
               a(3) = (  -0.500000   0.500000   0.000000 )  

     reciprocal axes: (cart. coord. in units 2 pi/alat)
               b(1) = ( -1.000000 -1.000000  1.000000 )  
               b(2) = (  1.000000  1.000000  1.000000 )  
               b(3) = ( -1.000000  1.000000 -1.000000 )  


     PseudoPot. # 1 for Si read from file:
     /home/max/quantum_espresso/qe-6.1/pseudo/si_pbe_v1.uspp.F.UPF.txt
     MD5 check sum: a056efeee980c13900f22a371efd63c1
     Pseudo is Ultrasoft + core correction, Zval =  4.0
     Generated by new atomic code, or converted to UPF format
     Using radial grid of  899 points,  6 beta functions with: 
                l(1) =   0
                l(2) =   0
                l(3) =   1
                l(4) =   1
                l(5) =   2
                l(6) =   2
     Q(r) pseudized with  8 coefficients,  rinner =    0.900   0.900   0.900
                                                       0.900   0.900

     atomic species   valence    mass     pseudopotential
        Si             4.00    28.08600     Si( 1.00)

     48 Sym. Ops., with inversion, found (24 have fractional translation)



   Cartesian axes

     site n.     atom                  positions (alat units)
         1           Si  tau(   1) = (   0.0000000   0.0000000   0.0000000  )
         2           Si  tau(   2) = (   0.2500000   0.2500000   0.2500000  )

     number of k points=    10
                       cart. coord. in units 2pi/alat
        k(    1) = (  -0.1250000   0.1250000   0.1250000), wk =   0.0625000
        k(    2) = (  -0.3750000   0.3750000  -0.1250000), wk =   0.1875000
        k(    3) = (   0.3750000  -0.3750000   0.6250000), wk =   0.1875000
        k(    4) = (   0.1250000  -0.1250000   0.3750000), wk =   0.1875000
        k(    5) = (  -0.1250000   0.6250000   0.1250000), wk =   0.1875000
        k(    6) = (   0.6250000  -0.1250000   0.8750000), wk =   0.3750000
        k(    7) = (   0.3750000   0.1250000   0.6250000), wk =   0.3750000
        k(    8) = (  -0.1250000  -0.8750000   0.1250000), wk =   0.1875000
        k(    9) = (  -0.3750000   0.3750000   0.3750000), wk =   0.0625000
        k(   10) = (   0.3750000  -0.3750000   1.1250000), wk =   0.1875000

     Dense  grid:     2891 G-vectors     FFT dimensions: (  20,  20,  20)

     Estimated max dynamical RAM per process >       0.59MB

     Estimated total allocated dynamical RAM >       2.36MB

     Check: negative/imaginary core charge=   -0.000006    0.000000

     Initial potential from superposition of free atoms

     starting charge    7.99866, renormalised to    8.00000
     Starting wfc are    8 randomized atomic wfcs

     total cpu time spent up to now is        0.2 secs

     per-process dynamical memory:     6.7 Mb

     Self-consistent Calculation

     iteration #  1     ecut=    18.00 Ry     beta=0.70
     Davidson diagonalization with overlap
     ethr =  1.00E-02,  avg # of iterations =  2.0

     Threshold (ethr) on eigenvalues was too large:
     Diagonalizing with lowered threshold

     Davidson diagonalization with overlap
     ethr =  6.71E-04,  avg # of iterations =  1.0

     total cpu time spent up to now is        0.3 secs

     total energy              =     -19.19517235 Ry
     Harris-Foulkes estimate   =     -19.20688579 Ry
     estimated scf accuracy    <       0.05337395 Ry

     iteration #  2     ecut=    18.00 Ry     beta=0.70
     Davidson diagonalization with overlap
     ethr =  6.67E-04,  avg # of iterations =  1.0

     total cpu time spent up to now is        0.3 secs

     total energy              =     -19.19670251 Ry
     Harris-Foulkes estimate   =     -19.19689698 Ry
     estimated scf accuracy    <       0.00251081 Ry

     iteration #  3     ecut=    18.00 Ry     beta=0.70
     Davidson diagonalization with overlap
     ethr =  3.14E-05,  avg # of iterations =  2.0

     total cpu time spent up to now is        0.5 secs

     total energy              =     -19.19696131 Ry
     Harris-Foulkes estimate   =     -19.19697757 Ry
     estimated scf accuracy    <       0.00004384 Ry

     iteration #  4     ecut=    18.00 Ry     beta=0.70
     Davidson diagonalization with overlap
     ethr =  5.48E-07,  avg # of iterations =  2.7

     total cpu time spent up to now is        0.7 secs

     total energy              =     -19.19698271 Ry
     Harris-Foulkes estimate   =     -19.19698391 Ry
     estimated scf accuracy    <       0.00000355 Ry

     iteration #  5     ecut=    18.00 Ry     beta=0.70
     Davidson diagonalization with overlap
     ethr =  4.44E-08,  avg # of iterations =  2.1

     total cpu time spent up to now is        0.8 secs

     total energy              =     -19.19698329 Ry
     Harris-Foulkes estimate   =     -19.19698333 Ry
     estimated scf accuracy    <       0.00000008 Ry

     iteration #  6     ecut=    18.00 Ry     beta=0.70
     Davidson diagonalization with overlap
     ethr =  1.02E-09,  avg # of iterations =  2.6

     total cpu time spent up to now is        0.8 secs

     End of self-consistent calculation

          k =-0.1250 0.1250 0.1250 (   347 PWs)   bands (ev):

    -5.6953   4.2139   5.5241   5.5241

          k =-0.3750 0.3750-0.1250 (   356 PWs)   bands (ev):

    -4.6877   1.2511   3.5737   5.0469

          k = 0.3750-0.3750 0.6250 (   364 PWs)   bands (ev):

    -3.5765  -0.7828   3.5838   4.2916

          k = 0.1250-0.1250 0.3750 (   358 PWs)   bands (ev):

    -5.1770   2.6031   4.5361   4.5895

          k =-0.1250 0.6250 0.1250 (   357 PWs)   bands (ev):

    -4.1640   0.8971   3.2358   3.6765

          k = 0.6250-0.1250 0.8750 (   368 PWs)   bands (ev):

    -2.5601  -1.0375   1.9179   2.9690

          k = 0.3750 0.1250 0.6250 (   362 PWs)   bands (ev):

    -3.7587   0.0511   2.6036   3.9480

          k =-0.1250-0.8750 0.1250 (   362 PWs)   bands (ev):

    -2.7190  -0.9441   2.5117   3.2169

          k =-0.3750 0.3750 0.3750 (   359 PWs)   bands (ev):

    -4.2654  -0.0069   4.7456   4.7456

          k = 0.3750-0.3750 1.1250 (   365 PWs)   bands (ev):

    -3.0891  -0.7223   1.9674   3.9819

     highest occupied level (ev):     5.5241

!    total energy              =     -19.19698332 Ry
     Harris-Foulkes estimate   =     -19.19698332 Ry
     estimated scf accuracy    <          1.8E-09 Ry

     The total energy is the sum of the following terms:

     one-electron contribution =       4.81351882 Ry
     hartree contribution      =       1.15790266 Ry
     xc contribution           =      -8.58566906 Ry
     ewald contribution        =     -16.58273574 Ry

     convergence has been achieved in   6 iterations

     Writing output data file silicon.10.395.save

     init_run     :      0.14s CPU      0.15s WALL (       1 calls)
     electrons    :      0.30s CPU      0.56s WALL (       1 calls)

     Called by init_run:
     wfcinit      :      0.01s CPU      0.01s WALL (       1 calls)
     potinit      :      0.00s CPU      0.01s WALL (       1 calls)

     Called by electrons:
     c_bands      :      0.19s CPU      0.37s WALL (       7 calls)
     sum_band     :      0.06s CPU      0.11s WALL (       7 calls)
     v_of_rho     :      0.03s CPU      0.04s WALL (       7 calls)
     newd         :      0.03s CPU      0.05s WALL (       7 calls)
     mix_rho      :      0.00s CPU      0.00s WALL (       7 calls)

     Called by c_bands:
     init_us_2    :      0.01s CPU      0.01s WALL (     150 calls)
     cegterg      :      0.16s CPU      0.33s WALL (      70 calls)

     Called by sum_band:
     sum_band:bec :      0.00s CPU      0.00s WALL (      70 calls)
     addusdens    :      0.03s CPU      0.04s WALL (       7 calls)

     Called by *egterg:
     h_psi        :      0.12s CPU      0.23s WALL (     214 calls)
     s_psi        :      0.01s CPU      0.01s WALL (     214 calls)
     g_psi        :      0.00s CPU      0.00s WALL (     134 calls)
     cdiaghg      :      0.01s CPU      0.02s WALL (     194 calls)

     Called by h_psi:
     h_psi:pot    :      0.12s CPU      0.23s WALL (     214 calls)
     h_psi:calbec :      0.03s CPU      0.06s WALL (     214 calls)
     vloc_psi     :      0.08s CPU      0.16s WALL (     214 calls)
     add_vuspsi   :      0.01s CPU      0.01s WALL (     214 calls)

     General routines
     calbec       :      0.03s CPU      0.08s WALL (     284 calls)
     fft          :      0.02s CPU      0.05s WALL (      93 calls)
     fftw         :      0.08s CPU      0.17s WALL (    1932 calls)
     davcio       :      0.00s CPU      0.00s WALL (      10 calls)

     Parallel routines
     fft_scatter  :      0.07s CPU      0.18s WALL (    2025 calls)

     PWSCF        :     0.60s CPU         0.90s WALL


   This run was terminated on:   9:59: 0  10Nov2017            

=------------------------------------------------------------------------------=
   JOB DONE.
=------------------------------------------------------------------------------=
