
     Program PHONON v.6.1 (svn rev. 13369) starts on  9Nov2017 at 15:57: 5 

     This program is part of the open-source Quantum ESPRESSO suite
     for quantum simulation of materials; please cite
         "P. Giannozzi et al., J. Phys.:Condens. Matter 21 395502 (2009);
          URL http://www.quantum-espresso.org", 
     in publications or presentations arising from this work. More details at
     http://www.quantum-espresso.org/quote

     Parallel version (MPI), running on     4 processors
     R & G space division:  proc/nbgrp/npool/nimage =       4

     Reading data from directory:
     ./silicon.10.3404.save

   Info: using nr1, nr2, nr3 values from input

   Info: using nr1, nr2, nr3 values from input

     IMPORTANT: XC functional enforced from input :
     Exchange-correlation      = SLA  PW   PBE  PBE ( 1  4  3  4 0 0)
     Any further DFT definition will be discarded
     Please, verify this is what you really want


     Parallelization info
     --------------------
     sticks:   dense  smooth     PW     G-vecs:    dense   smooth      PW
     Min          64      64     22                  709      709     140
     Max          67      67     23                  710      710     141
     Sum         265     265     91                 2837     2837     561


     Check: negative/imaginary core charge=   -0.000006    0.000000


     Dynamical matrices for ( 4, 4, 4)  uniform grid of q-points
     (   8q-points):
       N         xq(1)         xq(2)         xq(3) 
       1   0.000000000   0.000000000   0.000000000
       2  -0.250000000   0.250000000  -0.250000000
       3   0.500000000  -0.500000000   0.500000000
       4   0.000000000   0.500000000   0.000000000
       5   0.750000000  -0.250000000   0.750000000
       6   0.500000000   0.000000000   0.500000000
       7   0.000000000  -1.000000000   0.000000000
       8  -0.500000000  -1.000000000   0.000000000

     Calculation of q =    0.0000000   0.0000000   0.0000000

                                                                                

     bravais-lattice index     =            2
     lattice parameter (alat)  =      10.3404  a.u.
     unit-cell volume          =     276.4089 (a.u.)^3
     number of atoms/cell      =            2
     number of atomic types    =            1
     kinetic-energy cut-off    =      18.0000  Ry
     charge density cut-off    =      72.0000  Ry
     convergence threshold     =      1.0E-12
     beta                      =       0.7000
     number of iterations used =            4
     Exchange-correlation      = SLA  PW   PBE  PBE ( 1  4  3  4 0 0)


     celldm(1)=   10.34040  celldm(2)=    0.00000  celldm(3)=    0.00000
     celldm(4)=    0.00000  celldm(5)=    0.00000  celldm(6)=    0.00000

     crystal axes: (cart. coord. in units of alat)
               a(1) = ( -0.5000  0.0000  0.5000 )  
               a(2) = (  0.0000  0.5000  0.5000 )  
               a(3) = ( -0.5000  0.5000  0.0000 )  

     reciprocal axes: (cart. coord. in units 2 pi/alat)
               b(1) = ( -1.0000 -1.0000  1.0000 )  
               b(2) = (  1.0000  1.0000  1.0000 )  
               b(3) = ( -1.0000  1.0000 -1.0000 )  


     Atoms inside the unit cell: 

     Cartesian axes

     site n.  atom      mass           positions (alat units)
        1     Si  28.0860   tau(    1) = (    0.00000    0.00000    0.00000  )
        2     Si  28.0860   tau(    2) = (    0.25000    0.25000    0.25000  )

     Computing dynamical matrix for 
                    q = (   0.0000000   0.0000000   0.0000000 )

     49 Sym.Ops. (with q -> -q+G )


     G cutoff =  195.0058  (    710 G-vectors)     FFT grid: ( 20, 20, 20)
     number of k points=    10

     PseudoPot. # 1 for Si read from file:
     /home/max/quantum_espresso/qe-6.1/pseudo/si_pbe_v1.uspp.F.UPF.txt
     MD5 check sum: a056efeee980c13900f22a371efd63c1
     Pseudo is Ultrasoft + core correction, Zval =  4.0
     Generated by new atomic code, or converted to UPF format
     Using radial grid of  899 points,  6 beta functions with: 
                l(1) =   0
                l(2) =   0
                l(3) =   1
                l(4) =   1
                l(5) =   2
                l(6) =   2
     Q(r) pseudized with  8 coefficients,  rinner =    0.900   0.900   0.900
                                                       0.900   0.900

     Mode symmetry, O_h (m-3m)  point group:


     Electric field:
     Dielectric constant
     Born effective charges in two ways 


     Atomic displacements:
     There are   2 irreducible representations

     Representation     1      3 modes -T_2g G_25' G_5+  To be done

     Representation     2      3 modes -T_1u G_15  G_4-  To be done



     Alpha used in Ewald sum =   0.7000
     PHONON       :     0.46s CPU         0.55s WALL


     Electric Fields Calculation

      iter #   1 total cpu time :     0.9 secs   av.it.:   5.6
      thresh= 1.000E-02 alpha_mix =  0.700 |ddv_scf|^2 =  9.341E-07

      iter #   2 total cpu time :     1.1 secs   av.it.:   9.9
      thresh= 9.665E-05 alpha_mix =  0.700 |ddv_scf|^2 =  5.946E-08

      iter #   3 total cpu time :     1.3 secs   av.it.:   9.8
      thresh= 2.438E-05 alpha_mix =  0.700 |ddv_scf|^2 =  4.674E-09

      iter #   4 total cpu time :     1.4 secs   av.it.:   8.9
      thresh= 6.836E-06 alpha_mix =  0.700 |ddv_scf|^2 =  2.806E-11

      iter #   5 total cpu time :     1.6 secs   av.it.:   9.1
      thresh= 5.298E-07 alpha_mix =  0.700 |ddv_scf|^2 =  1.457E-14

     End of electric fields calculation

          Dielectric constant in cartesian axis 

          (      13.883044611       0.000000000       0.000000000 )
          (       0.000000000      13.883044611       0.000000000 )
          (      -0.000000000       0.000000000      13.883044611 )

          Effective charges (d Force / dE) in cartesian axis

           atom      1   Si 
      Ex  (       -0.03566        0.00000       -0.00000 )
      Ey  (        0.00000       -0.03566        0.00000 )
      Ez  (       -0.00000        0.00000       -0.03566 )
           atom      2   Si 
      Ex  (       -0.03566       -0.00000        0.00000 )
      Ey  (       -0.00000       -0.03566        0.00000 )
      Ez  (        0.00000        0.00000       -0.03566 )


     Representation #  1 modes #   1  2  3

     Self-consistent Calculation

      iter #   1 total cpu time :     2.0 secs   av.it.:   5.0
      thresh= 1.000E-02 alpha_mix =  0.700 |ddv_scf|^2 =  2.232E-07

      iter #   2 total cpu time :     2.2 secs   av.it.:   9.9
      thresh= 4.724E-05 alpha_mix =  0.700 |ddv_scf|^2 =  1.381E-08

      iter #   3 total cpu time :     2.5 secs   av.it.:   9.3
      thresh= 1.175E-05 alpha_mix =  0.700 |ddv_scf|^2 =  8.576E-10

      iter #   4 total cpu time :     2.7 secs   av.it.:   9.0
      thresh= 2.929E-06 alpha_mix =  0.700 |ddv_scf|^2 =  1.895E-12

      iter #   5 total cpu time :     2.8 secs   av.it.:   9.5
      thresh= 1.377E-07 alpha_mix =  0.700 |ddv_scf|^2 =  1.332E-14

     End of self-consistent calculation

     Convergence has been achieved 


     Representation #  2 modes #   4  5  6

     Self-consistent Calculation

      iter #   1 total cpu time :     3.1 secs   av.it.:   5.0
      thresh= 1.000E-02 alpha_mix =  0.700 |ddv_scf|^2 =  1.847E-07

      iter #   2 total cpu time :     3.2 secs   av.it.:   9.6
      thresh= 4.298E-05 alpha_mix =  0.700 |ddv_scf|^2 =  1.497E-08

      iter #   3 total cpu time :     3.4 secs   av.it.:   9.3
      thresh= 1.224E-05 alpha_mix =  0.700 |ddv_scf|^2 =  9.108E-10

      iter #   4 total cpu time :     3.6 secs   av.it.:   9.5
      thresh= 3.018E-06 alpha_mix =  0.700 |ddv_scf|^2 =  5.311E-12

      iter #   5 total cpu time :     3.8 secs   av.it.:   9.1
      thresh= 2.304E-07 alpha_mix =  0.700 |ddv_scf|^2 =  4.651E-15

     End of self-consistent calculation

     Convergence has been achieved 

     Number of q in the star =    1
     List of q in the star:
          1   0.000000000   0.000000000   0.000000000

          Dielectric constant in cartesian axis 

          (      13.883044611       0.000000000       0.000000000 )
          (       0.000000000      13.883044611       0.000000000 )
          (      -0.000000000       0.000000000      13.883044611 )

          Effective charges (d Force / dE) in cartesian axis

           atom      1   Si 
      Ex  (       -0.03566        0.00000       -0.00000 )
      Ey  (        0.00000       -0.03566        0.00000 )
      Ez  (       -0.00000        0.00000       -0.03566 )
           atom      2   Si 
      Ex  (       -0.03566       -0.00000        0.00000 )
      Ey  (       -0.00000       -0.03566        0.00000 )
      Ez  (        0.00000        0.00000       -0.03566 )

          Effective charges (d P / du) in cartesian axis 

           atom      1   Si 
      Px  (       -0.07507        0.00000        0.00000 )
      Py  (       -0.00000       -0.07507        0.00000 )
      Pz  (       -0.00000       -0.00000       -0.07507 )
           atom      2   Si 
      Px  (       -0.07507        0.00000        0.00000 )
      Py  (        0.00000       -0.07507       -0.00000 )
      Pz  (        0.00000        0.00000       -0.07507 )

     Diagonalizing the dynamical matrix

     q = (    0.000000000   0.000000000   0.000000000 ) 

 **************************************************************************
     freq (    1) =       1.896337 [THz] =      63.255001 [cm-1]
     freq (    2) =       1.896337 [THz] =      63.255001 [cm-1]
     freq (    3) =       1.896337 [THz] =      63.255001 [cm-1]
     freq (    4) =      15.356622 [THz] =     512.241789 [cm-1]
     freq (    5) =      15.356622 [THz] =     512.241789 [cm-1]
     freq (    6) =      15.356622 [THz] =     512.241789 [cm-1]
 **************************************************************************

     Mode symmetry, O_h (m-3m)  point group:

     freq (  1 -  3) =         63.3  [cm-1]   --> T_1u G_15  G_4- I  
     freq (  4 -  6) =        512.2  [cm-1]   --> T_2g G_25' G_5+ R  

     Calculation of q =   -0.2500000   0.2500000  -0.2500000

   Info: using nr1, nr2, nr3 values from input

   Info: using nr1, nr2, nr3 values from input

     Parallelization info
     --------------------
     sticks:   dense  smooth     PW     G-vecs:    dense   smooth      PW
     Min          64      64     24                  709      709     161
     Max          67      67     25                  710      710     162
     Sum         265     265     97                 2837     2837     645



     bravais-lattice index     =            2
     lattice parameter (alat)  =      10.3404  a.u.
     unit-cell volume          =     276.4089 (a.u.)^3
     number of atoms/cell      =            2
     number of atomic types    =            1
     number of electrons       =         8.00
     number of Kohn-Sham states=            4
     kinetic-energy cutoff     =      18.0000  Ry
     charge density cutoff     =      72.0000  Ry
     Exchange-correlation      = SLA  PW   PBE  PBE ( 1  4  3  4 0 0)

     celldm(1)=  10.340400  celldm(2)=   0.000000  celldm(3)=   0.000000
     celldm(4)=   0.000000  celldm(5)=   0.000000  celldm(6)=   0.000000

     crystal axes: (cart. coord. in units of alat)
               a(1) = (  -0.500000   0.000000   0.500000 )  
               a(2) = (   0.000000   0.500000   0.500000 )  
               a(3) = (  -0.500000   0.500000   0.000000 )  

     reciprocal axes: (cart. coord. in units 2 pi/alat)
               b(1) = ( -1.000000 -1.000000  1.000000 )  
               b(2) = (  1.000000  1.000000  1.000000 )  
               b(3) = ( -1.000000  1.000000 -1.000000 )  


     PseudoPot. # 1 for Si read from file:
     /home/max/quantum_espresso/qe-6.1/pseudo/si_pbe_v1.uspp.F.UPF.txt
     MD5 check sum: a056efeee980c13900f22a371efd63c1
     Pseudo is Ultrasoft + core correction, Zval =  4.0
     Generated by new atomic code, or converted to UPF format
     Using radial grid of  899 points,  6 beta functions with: 
                l(1) =   0
                l(2) =   0
                l(3) =   1
                l(4) =   1
                l(5) =   2
                l(6) =   2
     Q(r) pseudized with  8 coefficients,  rinner =    0.900   0.900   0.900
                                                       0.900   0.900

     atomic species   valence    mass     pseudopotential
        Si             4.00    28.08600     Si( 1.00)

     48 Sym. Ops., with inversion, found



   Cartesian axes

     site n.     atom                  positions (alat units)
         1           Si  tau(   1) = (   0.0000000   0.0000000   0.0000000  )
         2           Si  tau(   2) = (   0.2500000   0.2500000   0.2500000  )

     number of k points=   120

     Number of k-points >= 100: set verbosity='high' to print them.

     Dense  grid:     2837 G-vectors     FFT dimensions: (  20,  20,  20)

     Estimated max dynamical RAM per process >       0.33MB

     Estimated total allocated dynamical RAM >       1.32MB

     Check: negative/imaginary core charge=   -0.000006    0.000000

     The potential is recalculated from file :
     ./_ph0/silicon.10.3404.save/charge-density.dat

     Starting wfc are    8 atomic wfcs

     Band Structure Calculation
     Davidson diagonalization with overlap

     ethr =  1.25E-10,  avg # of iterations = 11.7

     total cpu time spent up to now is        0.9 secs

     End of band structure calculation

     Number of k-points >= 100: set verbosity='high' to print the bands.

     highest occupied level (ev):     5.6803

     Writing output data file silicon.10.3404.save

                                                                                

     bravais-lattice index     =            2
     lattice parameter (alat)  =      10.3404  a.u.
     unit-cell volume          =     276.4089 (a.u.)^3
     number of atoms/cell      =            2
     number of atomic types    =            1
     kinetic-energy cut-off    =      18.0000  Ry
     charge density cut-off    =      72.0000  Ry
     convergence threshold     =      1.0E-12
     beta                      =       0.7000
     number of iterations used =            4
     Exchange-correlation      = SLA  PW   PBE  PBE ( 1  4  3  4 0 0)


     celldm(1)=   10.34040  celldm(2)=    0.00000  celldm(3)=    0.00000
     celldm(4)=    0.00000  celldm(5)=    0.00000  celldm(6)=    0.00000

     crystal axes: (cart. coord. in units of alat)
               a(1) = ( -0.5000  0.0000  0.5000 )  
               a(2) = (  0.0000  0.5000  0.5000 )  
               a(3) = ( -0.5000  0.5000  0.0000 )  

     reciprocal axes: (cart. coord. in units 2 pi/alat)
               b(1) = ( -1.0000 -1.0000  1.0000 )  
               b(2) = (  1.0000  1.0000  1.0000 )  
               b(3) = ( -1.0000  1.0000 -1.0000 )  


     Atoms inside the unit cell: 

     Cartesian axes

     site n.  atom      mass           positions (alat units)
        1     Si  28.0860   tau(    1) = (    0.00000    0.00000    0.00000  )
        2     Si  28.0860   tau(    2) = (    0.25000    0.25000    0.25000  )

     Computing dynamical matrix for 
                    q = (  -0.2500000   0.2500000  -0.2500000 )

      6 Sym.Ops. (no q -> -q+G )


     G cutoff =  195.0058  (    710 G-vectors)     FFT grid: ( 20, 20, 20)
     number of k points=   120

     PseudoPot. # 1 for Si read from file:
     /home/max/quantum_espresso/qe-6.1/pseudo/si_pbe_v1.uspp.F.UPF.txt
     MD5 check sum: a056efeee980c13900f22a371efd63c1
     Pseudo is Ultrasoft + core correction, Zval =  4.0
     Generated by new atomic code, or converted to UPF format
     Using radial grid of  899 points,  6 beta functions with: 
                l(1) =   0
                l(2) =   0
                l(3) =   1
                l(4) =   1
                l(5) =   2
                l(6) =   2
     Q(r) pseudized with  8 coefficients,  rinner =    0.900   0.900   0.900
                                                       0.900   0.900

     Mode symmetry, C_3v (3m)   point group:


     Atomic displacements:
     There are   4 irreducible representations

     Representation     1      1 modes -A_1  L_1  To be done

     Representation     2      1 modes -A_1  L_1  To be done

     Representation     3      2 modes -E    L_3  To be done

     Representation     4      2 modes -E    L_3  To be done



     Alpha used in Ewald sum =   0.7000
     PHONON       :     4.88s CPU         5.17s WALL



     Representation #  1 mode #   1

     Self-consistent Calculation

      iter #   1 total cpu time :     5.4 secs   av.it.:   5.5
      thresh= 1.000E-02 alpha_mix =  0.700 |ddv_scf|^2 =  2.467E-03

      iter #   2 total cpu time :     5.6 secs   av.it.:   7.5
      thresh= 4.967E-03 alpha_mix =  0.700 |ddv_scf|^2 =  3.725E-02

      iter #   3 total cpu time :     5.8 secs   av.it.:   6.3
      thresh= 1.000E-02 alpha_mix =  0.700 |ddv_scf|^2 =  1.715E-06

      iter #   4 total cpu time :     6.1 secs   av.it.:   8.2
      thresh= 1.310E-04 alpha_mix =  0.700 |ddv_scf|^2 =  1.162E-07

      iter #   5 total cpu time :     6.5 secs   av.it.:   8.1
      thresh= 3.410E-05 alpha_mix =  0.700 |ddv_scf|^2 =  4.734E-09

      iter #   6 total cpu time :     6.8 secs   av.it.:   8.0
      thresh= 6.880E-06 alpha_mix =  0.700 |ddv_scf|^2 =  5.486E-09

      iter #   7 total cpu time :     7.0 secs   av.it.:   6.0
      thresh= 7.407E-06 alpha_mix =  0.700 |ddv_scf|^2 =  4.009E-10

      iter #   8 total cpu time :     7.2 secs   av.it.:   7.3
      thresh= 2.002E-06 alpha_mix =  0.700 |ddv_scf|^2 =  4.083E-12

      iter #   9 total cpu time :     7.5 secs   av.it.:   7.2
      thresh= 2.021E-07 alpha_mix =  0.700 |ddv_scf|^2 =  1.566E-13

     End of self-consistent calculation

     Convergence has been achieved 


     Representation #  2 mode #   2

     Self-consistent Calculation

      iter #   1 total cpu time :     7.7 secs   av.it.:   5.5
      thresh= 1.000E-02 alpha_mix =  0.700 |ddv_scf|^2 =  2.467E-03

      iter #   2 total cpu time :     7.9 secs   av.it.:   7.5
      thresh= 4.967E-03 alpha_mix =  0.700 |ddv_scf|^2 =  3.725E-02

      iter #   3 total cpu time :     8.2 secs   av.it.:   6.3
      thresh= 1.000E-02 alpha_mix =  0.700 |ddv_scf|^2 =  1.715E-06

      iter #   4 total cpu time :     8.6 secs   av.it.:   8.2
      thresh= 1.310E-04 alpha_mix =  0.700 |ddv_scf|^2 =  1.162E-07

      iter #   5 total cpu time :     8.8 secs   av.it.:   8.1
      thresh= 3.410E-05 alpha_mix =  0.700 |ddv_scf|^2 =  4.734E-09

      iter #   6 total cpu time :     9.1 secs   av.it.:   8.0
      thresh= 6.880E-06 alpha_mix =  0.700 |ddv_scf|^2 =  5.486E-09

      iter #   7 total cpu time :     9.3 secs   av.it.:   6.0
      thresh= 7.407E-06 alpha_mix =  0.700 |ddv_scf|^2 =  4.009E-10

      iter #   8 total cpu time :     9.6 secs   av.it.:   7.3
      thresh= 2.002E-06 alpha_mix =  0.700 |ddv_scf|^2 =  4.083E-12

      iter #   9 total cpu time :     9.8 secs   av.it.:   7.2
      thresh= 2.021E-07 alpha_mix =  0.700 |ddv_scf|^2 =  1.566E-13

     End of self-consistent calculation

     Convergence has been achieved 


     Representation #  3 modes #   3  4

     Self-consistent Calculation

      iter #   1 total cpu time :    10.2 secs   av.it.:   4.9
      thresh= 1.000E-02 alpha_mix =  0.700 |ddv_scf|^2 =  5.705E-07

      iter #   2 total cpu time :    10.9 secs   av.it.:   9.4
      thresh= 7.553E-05 alpha_mix =  0.700 |ddv_scf|^2 =  4.288E-08

      iter #   3 total cpu time :    11.5 secs   av.it.:   9.2
      thresh= 2.071E-05 alpha_mix =  0.700 |ddv_scf|^2 =  3.707E-09

      iter #   4 total cpu time :    12.0 secs   av.it.:   9.0
      thresh= 6.088E-06 alpha_mix =  0.700 |ddv_scf|^2 =  1.113E-11

      iter #   5 total cpu time :    12.7 secs   av.it.:   9.2
      thresh= 3.336E-07 alpha_mix =  0.700 |ddv_scf|^2 =  4.980E-13

     End of self-consistent calculation

     Convergence has been achieved 


     Representation #  4 modes #   5  6

     Self-consistent Calculation

      iter #   1 total cpu time :    13.2 secs   av.it.:   5.0
      thresh= 1.000E-02 alpha_mix =  0.700 |ddv_scf|^2 =  5.703E-07

      iter #   2 total cpu time :    13.7 secs   av.it.:   9.6
      thresh= 7.552E-05 alpha_mix =  0.700 |ddv_scf|^2 =  4.283E-08

      iter #   3 total cpu time :    14.5 secs   av.it.:   9.4
      thresh= 2.070E-05 alpha_mix =  0.700 |ddv_scf|^2 =  3.703E-09

      iter #   4 total cpu time :    15.0 secs   av.it.:   9.1
      thresh= 6.085E-06 alpha_mix =  0.700 |ddv_scf|^2 =  1.113E-11

      iter #   5 total cpu time :    15.6 secs   av.it.:   9.2
      thresh= 3.337E-07 alpha_mix =  0.700 |ddv_scf|^2 =  4.982E-13

     End of self-consistent calculation

     Convergence has been achieved 

     Number of q in the star =    8
     List of q in the star:
          1  -0.250000000   0.250000000  -0.250000000
          2   0.250000000  -0.250000000  -0.250000000
          3   0.250000000  -0.250000000   0.250000000
          4   0.250000000   0.250000000   0.250000000
          5  -0.250000000  -0.250000000  -0.250000000
          6  -0.250000000  -0.250000000   0.250000000
          7  -0.250000000   0.250000000   0.250000000
          8   0.250000000   0.250000000  -0.250000000

     Diagonalizing the dynamical matrix

     q = (   -0.250000000   0.250000000  -0.250000000 ) 

 **************************************************************************
     freq (    1) =       3.397366 [THz] =     113.323947 [cm-1]
     freq (    2) =       3.397366 [THz] =     113.323947 [cm-1]
     freq (    3) =       6.928629 [THz] =     231.114196 [cm-1]
     freq (    4) =      14.434923 [THz] =     481.497205 [cm-1]
     freq (    5) =      14.745811 [THz] =     491.867314 [cm-1]
     freq (    6) =      14.745811 [THz] =     491.867314 [cm-1]
 **************************************************************************

     Mode symmetry, C_3v (3m)   point group:

     freq (  1 -  2) =        113.3  [cm-1]   --> E    L_3           
     freq (  3 -  3) =        231.1  [cm-1]   --> A_1  L_1           
     freq (  4 -  4) =        481.5  [cm-1]   --> A_1  L_1           
     freq (  5 -  6) =        491.9  [cm-1]   --> E    L_3           

     Calculation of q =    0.5000000  -0.5000000   0.5000000

   Info: using nr1, nr2, nr3 values from input

   Info: using nr1, nr2, nr3 values from input

     Parallelization info
     --------------------
     sticks:   dense  smooth     PW     G-vecs:    dense   smooth      PW
     Min          64      64     27                  709      709     186
     Max          67      67     28                  710      710     189
     Sum         265     265    109                 2837     2837     749



     bravais-lattice index     =            2
     lattice parameter (alat)  =      10.3404  a.u.
     unit-cell volume          =     276.4089 (a.u.)^3
     number of atoms/cell      =            2
     number of atomic types    =            1
     number of electrons       =         8.00
     number of Kohn-Sham states=            4
     kinetic-energy cutoff     =      18.0000  Ry
     charge density cutoff     =      72.0000  Ry
     Exchange-correlation      = SLA  PW   PBE  PBE ( 1  4  3  4 0 0)

     celldm(1)=  10.340400  celldm(2)=   0.000000  celldm(3)=   0.000000
     celldm(4)=   0.000000  celldm(5)=   0.000000  celldm(6)=   0.000000

     crystal axes: (cart. coord. in units of alat)
               a(1) = (  -0.500000   0.000000   0.500000 )  
               a(2) = (   0.000000   0.500000   0.500000 )  
               a(3) = (  -0.500000   0.500000   0.000000 )  

     reciprocal axes: (cart. coord. in units 2 pi/alat)
               b(1) = ( -1.000000 -1.000000  1.000000 )  
               b(2) = (  1.000000  1.000000  1.000000 )  
               b(3) = ( -1.000000  1.000000 -1.000000 )  


     PseudoPot. # 1 for Si read from file:
     /home/max/quantum_espresso/qe-6.1/pseudo/si_pbe_v1.uspp.F.UPF.txt
     MD5 check sum: a056efeee980c13900f22a371efd63c1
     Pseudo is Ultrasoft + core correction, Zval =  4.0
     Generated by new atomic code, or converted to UPF format
     Using radial grid of  899 points,  6 beta functions with: 
                l(1) =   0
                l(2) =   0
                l(3) =   1
                l(4) =   1
                l(5) =   2
                l(6) =   2
     Q(r) pseudized with  8 coefficients,  rinner =    0.900   0.900   0.900
                                                       0.900   0.900

     atomic species   valence    mass     pseudopotential
        Si             4.00    28.08600     Si( 1.00)

     48 Sym. Ops., with inversion, found



   Cartesian axes

     site n.     atom                  positions (alat units)
         1           Si  tau(   1) = (   0.0000000   0.0000000   0.0000000  )
         2           Si  tau(   2) = (   0.2500000   0.2500000   0.2500000  )

     number of k points=    60
                       cart. coord. in units 2pi/alat
        k(    1) = (  -0.1250000   0.1250000   0.1250000), wk =   0.0468750
        k(    2) = (   0.3750000  -0.3750000   0.6250000), wk =   0.0000000
        k(    3) = (  -0.3750000   0.3750000  -0.1250000), wk =   0.0468750
        k(    4) = (   0.1250000  -0.1250000   0.3750000), wk =   0.0000000
        k(    5) = (   0.3750000  -0.3750000   0.6250000), wk =   0.0468750
        k(    6) = (   0.8750000  -0.8750000   1.1250000), wk =   0.0000000
        k(    7) = (   0.1250000  -0.1250000   0.3750000), wk =   0.0468750
        k(    8) = (   0.6250000  -0.6250000   0.8750000), wk =   0.0000000
        k(    9) = (  -0.1250000   0.6250000   0.1250000), wk =   0.0937500
        k(   10) = (   0.3750000   0.1250000   0.6250000), wk =   0.0000000
        k(   11) = (   0.6250000  -0.1250000   0.8750000), wk =   0.0937500
        k(   12) = (   1.1250000  -0.6250000   1.3750000), wk =   0.0000000
        k(   13) = (   0.3750000   0.1250000   0.6250000), wk =   0.0937500
        k(   14) = (   0.8750000  -0.3750000   1.1250000), wk =   0.0000000
        k(   15) = (  -0.1250000  -0.8750000   0.1250000), wk =   0.0937500
        k(   16) = (   0.3750000  -1.3750000   0.6250000), wk =   0.0000000
        k(   17) = (  -0.3750000   0.3750000   0.3750000), wk =   0.0468750
        k(   18) = (   0.1250000  -0.1250000   0.8750000), wk =   0.0000000
        k(   19) = (   0.3750000  -0.3750000   1.1250000), wk =   0.0468750
        k(   20) = (   0.8750000  -0.8750000   1.6250000), wk =   0.0000000
        k(   21) = (   0.1250000  -0.1250000   0.1250000), wk =   0.0156250
        k(   22) = (   0.6250000  -0.6250000   0.6250000), wk =   0.0000000
        k(   23) = (  -0.3750000  -0.3750000  -0.1250000), wk =   0.0937500
        k(   24) = (   0.1250000  -0.8750000   0.3750000), wk =   0.0000000
        k(   25) = (  -0.1250000  -0.3750000   0.3750000), wk =   0.0468750
        k(   26) = (   0.3750000  -0.8750000   0.8750000), wk =   0.0000000
        k(   27) = (   0.3750000   0.3750000   0.6250000), wk =   0.0937500
        k(   28) = (   0.8750000  -0.1250000   1.1250000), wk =   0.0000000
        k(   29) = (   0.6250000   0.3750000  -0.3750000), wk =   0.0468750
        k(   30) = (   1.1250000  -0.1250000   0.1250000), wk =   0.0000000
        k(   31) = (   0.1250000   0.1250000   0.3750000), wk =   0.0937500
        k(   32) = (   0.6250000  -0.3750000   0.8750000), wk =   0.0000000
        k(   33) = (   0.3750000   0.1250000  -0.1250000), wk =   0.0468750
        k(   34) = (   0.8750000  -0.3750000   0.3750000), wk =   0.0000000
        k(   35) = (  -0.1250000  -0.6250000  -0.1250000), wk =   0.0468750
        k(   36) = (   0.3750000  -1.1250000   0.3750000), wk =   0.0000000
        k(   37) = (   0.1250000  -0.6250000   0.1250000), wk =   0.0468750
        k(   38) = (   0.6250000  -1.1250000   0.6250000), wk =   0.0000000
        k(   39) = (   0.6250000   0.1250000   0.8750000), wk =   0.0937500
        k(   40) = (   1.1250000  -0.3750000   1.3750000), wk =   0.0000000
        k(   41) = (  -0.8750000   0.1250000   0.6250000), wk =   0.0937500
        k(   42) = (  -0.3750000  -0.3750000   1.1250000), wk =   0.0000000
        k(   43) = (   0.8750000   0.1250000  -0.6250000), wk =   0.0937500
        k(   44) = (   1.3750000  -0.3750000  -0.1250000), wk =   0.0000000
        k(   45) = (   0.3750000  -0.1250000   0.6250000), wk =   0.0937500
        k(   46) = (   0.8750000  -0.6250000   1.1250000), wk =   0.0000000
        k(   47) = (  -0.6250000  -0.1250000   0.3750000), wk =   0.0937500
        k(   48) = (  -0.1250000  -0.6250000   0.8750000), wk =   0.0000000
        k(   49) = (   0.6250000  -0.1250000  -0.3750000), wk =   0.0937500
        k(   50) = (   1.1250000  -0.6250000   0.1250000), wk =   0.0000000
        k(   51) = (  -0.1250000   0.8750000  -0.1250000), wk =   0.0468750
        k(   52) = (   0.3750000   0.3750000   0.3750000), wk =   0.0000000
        k(   53) = (   0.1250000   0.8750000   0.1250000), wk =   0.0468750
        k(   54) = (   0.6250000   0.3750000   0.6250000), wk =   0.0000000
        k(   55) = (   0.3750000  -0.3750000   0.3750000), wk =   0.0156250
        k(   56) = (   0.8750000  -0.8750000   0.8750000), wk =   0.0000000
        k(   57) = (   0.3750000   0.3750000   1.1250000), wk =   0.0937500
        k(   58) = (   0.8750000  -0.1250000   1.6250000), wk =   0.0000000
        k(   59) = (   1.1250000   0.3750000  -0.3750000), wk =   0.0468750
        k(   60) = (   1.6250000  -0.1250000   0.1250000), wk =   0.0000000

     Dense  grid:     2837 G-vectors     FFT dimensions: (  20,  20,  20)

     Estimated max dynamical RAM per process >       0.33MB

     Estimated total allocated dynamical RAM >       1.32MB

     Check: negative/imaginary core charge=   -0.000006    0.000000

     The potential is recalculated from file :
     ./_ph0/silicon.10.3404.save/charge-density.dat

     Starting wfc are    8 atomic wfcs

     Band Structure Calculation
     Davidson diagonalization with overlap

     ethr =  1.25E-10,  avg # of iterations = 11.7

     total cpu time spent up to now is        1.5 secs

     End of band structure calculation

          k =-0.1250 0.1250 0.1250 (   338 PWs)   bands (ev):

    -5.6374   4.3717   5.6803   5.6803

          k = 0.3750-0.3750 0.6250 (   361 PWs)   bands (ev):

    -3.4830  -0.6855   3.7203   4.4307

          k =-0.3750 0.3750-0.1250 (   352 PWs)   bands (ev):

    -4.6155   1.3827   3.7030   5.1988

          k = 0.1250-0.1250 0.3750 (   353 PWs)   bands (ev):

    -5.1121   2.7541   4.6756   4.7381

          k = 0.3750-0.3750 0.6250 (   361 PWs)   bands (ev):

    -3.4830  -0.6855   3.7203   4.4307

          k = 0.8750-0.8750 1.1250 (   338 PWs)   bands (ev):

    -5.6374   4.3717   5.6803   5.6803

          k = 0.1250-0.1250 0.3750 (   353 PWs)   bands (ev):

    -5.1121   2.7541   4.6756   4.7381

          k = 0.6250-0.6250 0.8750 (   352 PWs)   bands (ev):

    -4.6155   1.3827   3.7030   5.1988

          k =-0.1250 0.6250 0.1250 (   351 PWs)   bands (ev):

    -4.0848   1.0426   3.3567   3.8041

          k = 0.3750 0.1250 0.6250 (   357 PWs)   bands (ev):

    -3.6718   0.1760   2.7178   4.0792

          k = 0.6250-0.1250 0.8750 (   361 PWs)   bands (ev):

    -2.4529  -0.9152   2.0121   3.0810

          k = 1.1250-0.6250 1.3750 (   352 PWs)   bands (ev):

    -4.6155   1.3827   3.7030   5.1988

          k = 0.3750 0.1250 0.6250 (   357 PWs)   bands (ev):

    -3.6718   0.1760   2.7178   4.0792

          k = 0.8750-0.3750 1.1250 (   351 PWs)   bands (ev):

    -4.0848   1.0426   3.3567   3.8041

          k =-0.1250-0.8750 0.1250 (   358 PWs)   bands (ev):

    -2.6185  -0.8186   2.6167   3.3385

          k = 0.3750-1.3750 0.6250 (   361 PWs)   bands (ev):

    -3.4830  -0.6855   3.7203   4.4307

          k =-0.3750 0.3750 0.3750 (   353 PWs)   bands (ev):

    -4.1855   0.1004   4.8933   4.8933

          k = 0.1250-0.1250 0.8750 (   358 PWs)   bands (ev):

    -2.6185  -0.8186   2.6167   3.3385

          k = 0.3750-0.3750 1.1250 (   361 PWs)   bands (ev):

    -2.9887  -0.6079   2.0681   4.1157

          k = 0.8750-0.8750 1.6250 (   351 PWs)   bands (ev):

    -4.0848   1.0426   3.3567   3.8041

          k = 0.1250-0.1250 0.1250 (   338 PWs)   bands (ev):

    -5.6374   4.3717   5.6803   5.6803

          k = 0.6250-0.6250 0.6250 (   353 PWs)   bands (ev):

    -4.1855   0.1004   4.8933   4.8933

          k =-0.3750-0.3750-0.1250 (   352 PWs)   bands (ev):

    -4.6155   1.3827   3.7030   5.1988

          k = 0.1250-0.8750 0.3750 (   361 PWs)   bands (ev):

    -2.4529  -0.9152   2.0121   3.0810

          k =-0.1250-0.3750 0.3750 (   352 PWs)   bands (ev):

    -4.6155   1.3827   3.7030   5.1988

          k = 0.3750-0.8750 0.8750 (   351 PWs)   bands (ev):

    -4.0848   1.0426   3.3567   3.8041

          k = 0.3750 0.3750 0.6250 (   361 PWs)   bands (ev):

    -3.4830  -0.6855   3.7203   4.4307

          k = 0.8750-0.1250 1.1250 (   358 PWs)   bands (ev):

    -2.6185  -0.8186   2.6167   3.3385

          k = 0.6250 0.3750-0.3750 (   361 PWs)   bands (ev):

    -3.4830  -0.6855   3.7203   4.4307

          k = 1.1250-0.1250 0.1250 (   358 PWs)   bands (ev):

    -2.6185  -0.8186   2.6167   3.3385

          k = 0.1250 0.1250 0.3750 (   353 PWs)   bands (ev):

    -5.1121   2.7541   4.6756   4.7381

          k = 0.6250-0.3750 0.8750 (   357 PWs)   bands (ev):

    -3.6718   0.1760   2.7178   4.0792

          k = 0.3750 0.1250-0.1250 (   353 PWs)   bands (ev):

    -5.1121   2.7541   4.6756   4.7381

          k = 0.8750-0.3750 0.3750 (   361 PWs)   bands (ev):

    -2.9887  -0.6079   2.0681   4.1157

          k =-0.1250-0.6250-0.1250 (   351 PWs)   bands (ev):

    -4.0848   1.0426   3.3567   3.8041

          k = 0.3750-1.1250 0.3750 (   361 PWs)   bands (ev):

    -2.9887  -0.6079   2.0681   4.1157

          k = 0.1250-0.6250 0.1250 (   351 PWs)   bands (ev):

    -4.0848   1.0426   3.3567   3.8041

          k = 0.6250-1.1250 0.6250 (   352 PWs)   bands (ev):

    -4.6155   1.3827   3.7030   5.1988

          k = 0.6250 0.1250 0.8750 (   361 PWs)   bands (ev):

    -2.4529  -0.9152   2.0121   3.0810

          k = 1.1250-0.3750 1.3750 (   357 PWs)   bands (ev):

    -3.6718   0.1760   2.7178   4.0792

          k =-0.8750 0.1250 0.6250 (   361 PWs)   bands (ev):

    -2.4529  -0.9152   2.0121   3.0810

          k =-0.3750-0.3750 1.1250 (   361 PWs)   bands (ev):

    -2.9887  -0.6079   2.0681   4.1157

          k = 0.8750 0.1250-0.6250 (   361 PWs)   bands (ev):

    -2.4529  -0.9152   2.0121   3.0810

          k = 1.3750-0.3750-0.1250 (   357 PWs)   bands (ev):

    -3.6718   0.1760   2.7178   4.0792

          k = 0.3750-0.1250 0.6250 (   357 PWs)   bands (ev):

    -3.6718   0.1760   2.7178   4.0792

          k = 0.8750-0.6250 1.1250 (   353 PWs)   bands (ev):

    -5.1121   2.7541   4.6756   4.7381

          k =-0.6250-0.1250 0.3750 (   357 PWs)   bands (ev):

    -3.6718   0.1760   2.7178   4.0792

          k =-0.1250-0.6250 0.8750 (   361 PWs)   bands (ev):

    -2.4529  -0.9152   2.0121   3.0810

          k = 0.6250-0.1250-0.3750 (   357 PWs)   bands (ev):

    -3.6718   0.1760   2.7178   4.0792

          k = 1.1250-0.6250 0.1250 (   361 PWs)   bands (ev):

    -2.4529  -0.9152   2.0121   3.0810

          k =-0.1250 0.8750-0.1250 (   358 PWs)   bands (ev):

    -2.6185  -0.8186   2.6167   3.3385

          k = 0.3750 0.3750 0.3750 (   353 PWs)   bands (ev):

    -4.1855   0.1004   4.8933   4.8933

          k = 0.1250 0.8750 0.1250 (   358 PWs)   bands (ev):

    -2.6185  -0.8186   2.6167   3.3385

          k = 0.6250 0.3750 0.6250 (   361 PWs)   bands (ev):

    -3.4830  -0.6855   3.7203   4.4307

          k = 0.3750-0.3750 0.3750 (   353 PWs)   bands (ev):

    -4.1855   0.1004   4.8933   4.8933

          k = 0.8750-0.8750 0.8750 (   338 PWs)   bands (ev):

    -5.6374   4.3717   5.6803   5.6803

          k = 0.3750 0.3750 1.1250 (   361 PWs)   bands (ev):

    -2.9887  -0.6079   2.0681   4.1157

          k = 0.8750-0.1250 1.6250 (   361 PWs)   bands (ev):

    -2.4529  -0.9152   2.0121   3.0810

          k = 1.1250 0.3750-0.3750 (   361 PWs)   bands (ev):

    -2.9887  -0.6079   2.0681   4.1157

          k = 1.6250-0.1250 0.1250 (   353 PWs)   bands (ev):

    -5.1121   2.7541   4.6756   4.7381

     highest occupied level (ev):     5.6803

     Writing output data file silicon.10.3404.save

                                                                                

     bravais-lattice index     =            2
     lattice parameter (alat)  =      10.3404  a.u.
     unit-cell volume          =     276.4089 (a.u.)^3
     number of atoms/cell      =            2
     number of atomic types    =            1
     kinetic-energy cut-off    =      18.0000  Ry
     charge density cut-off    =      72.0000  Ry
     convergence threshold     =      1.0E-12
     beta                      =       0.7000
     number of iterations used =            4
     Exchange-correlation      = SLA  PW   PBE  PBE ( 1  4  3  4 0 0)


     celldm(1)=   10.34040  celldm(2)=    0.00000  celldm(3)=    0.00000
     celldm(4)=    0.00000  celldm(5)=    0.00000  celldm(6)=    0.00000

     crystal axes: (cart. coord. in units of alat)
               a(1) = ( -0.5000  0.0000  0.5000 )  
               a(2) = (  0.0000  0.5000  0.5000 )  
               a(3) = ( -0.5000  0.5000  0.0000 )  

     reciprocal axes: (cart. coord. in units 2 pi/alat)
               b(1) = ( -1.0000 -1.0000  1.0000 )  
               b(2) = (  1.0000  1.0000  1.0000 )  
               b(3) = ( -1.0000  1.0000 -1.0000 )  


     Atoms inside the unit cell: 

     Cartesian axes

     site n.  atom      mass           positions (alat units)
        1     Si  28.0860   tau(    1) = (    0.00000    0.00000    0.00000  )
        2     Si  28.0860   tau(    2) = (    0.25000    0.25000    0.25000  )

     Computing dynamical matrix for 
                    q = (   0.5000000  -0.5000000   0.5000000 )

     13 Sym.Ops. (with q -> -q+G )


     G cutoff =  195.0058  (    710 G-vectors)     FFT grid: ( 20, 20, 20)
     number of k points=    60

     PseudoPot. # 1 for Si read from file:
     /home/max/quantum_espresso/qe-6.1/pseudo/si_pbe_v1.uspp.F.UPF.txt
     MD5 check sum: a056efeee980c13900f22a371efd63c1
     Pseudo is Ultrasoft + core correction, Zval =  4.0
     Generated by new atomic code, or converted to UPF format
     Using radial grid of  899 points,  6 beta functions with: 
                l(1) =   0
                l(2) =   0
                l(3) =   1
                l(4) =   1
                l(5) =   2
                l(6) =   2
     Q(r) pseudized with  8 coefficients,  rinner =    0.900   0.900   0.900
                                                       0.900   0.900


     Atomic displacements:
     There are   4 irreducible representations

     Representation     1      1 modes -  To be done

     Representation     2      1 modes -  To be done

     Representation     3      2 modes -  To be done

     Representation     4      2 modes -  To be done



     Alpha used in Ewald sum =   0.7000
     PHONON       :    15.48s CPU        16.37s WALL



     Representation #  1 mode #   1

     Self-consistent Calculation

      iter #   1 total cpu time :    16.6 secs   av.it.:   4.8
      thresh= 1.000E-02 alpha_mix =  0.700 |ddv_scf|^2 =  2.485E-05

      iter #   2 total cpu time :    16.7 secs   av.it.:   8.3
      thresh= 4.985E-04 alpha_mix =  0.700 |ddv_scf|^2 =  2.213E-05

      iter #   3 total cpu time :    16.8 secs   av.it.:   7.5
      thresh= 4.704E-04 alpha_mix =  0.700 |ddv_scf|^2 =  4.349E-08

      iter #   4 total cpu time :    17.0 secs   av.it.:   7.4
      thresh= 2.086E-05 alpha_mix =  0.700 |ddv_scf|^2 =  1.328E-10

      iter #   5 total cpu time :    17.1 secs   av.it.:   7.9
      thresh= 1.153E-06 alpha_mix =  0.700 |ddv_scf|^2 =  3.581E-12

      iter #   6 total cpu time :    17.2 secs   av.it.:   7.9
      thresh= 1.892E-07 alpha_mix =  0.700 |ddv_scf|^2 =  4.330E-14

     End of self-consistent calculation

     Convergence has been achieved 


     Representation #  2 mode #   2

     Self-consistent Calculation

      iter #   1 total cpu time :    17.4 secs   av.it.:   5.6
      thresh= 1.000E-02 alpha_mix =  0.700 |ddv_scf|^2 =  3.453E-04

      iter #   2 total cpu time :    17.5 secs   av.it.:   8.3
      thresh= 1.858E-03 alpha_mix =  0.700 |ddv_scf|^2 =  1.064E-03

      iter #   3 total cpu time :    17.6 secs   av.it.:   7.1
      thresh= 3.262E-03 alpha_mix =  0.700 |ddv_scf|^2 =  1.302E-07

      iter #   4 total cpu time :    17.8 secs   av.it.:   8.1
      thresh= 3.608E-05 alpha_mix =  0.700 |ddv_scf|^2 =  8.368E-09

      iter #   5 total cpu time :    17.9 secs   av.it.:   8.5
      thresh= 9.148E-06 alpha_mix =  0.700 |ddv_scf|^2 =  1.346E-10

      iter #   6 total cpu time :    18.1 secs   av.it.:   8.2
      thresh= 1.160E-06 alpha_mix =  0.700 |ddv_scf|^2 =  2.498E-12

      iter #   7 total cpu time :    18.2 secs   av.it.:   7.9
      thresh= 1.581E-07 alpha_mix =  0.700 |ddv_scf|^2 =  4.904E-15

     End of self-consistent calculation

     Convergence has been achieved 


     Representation #  3 modes #   3  4

     Self-consistent Calculation

      iter #   1 total cpu time :    18.6 secs   av.it.:   4.7
      thresh= 1.000E-02 alpha_mix =  0.700 |ddv_scf|^2 =  3.321E-07

      iter #   2 total cpu time :    18.9 secs   av.it.:   9.0
      thresh= 5.763E-05 alpha_mix =  0.700 |ddv_scf|^2 =  2.812E-08

      iter #   3 total cpu time :    19.2 secs   av.it.:   8.3
      thresh= 1.677E-05 alpha_mix =  0.700 |ddv_scf|^2 =  5.002E-10

      iter #   4 total cpu time :    19.5 secs   av.it.:   8.8
      thresh= 2.236E-06 alpha_mix =  0.700 |ddv_scf|^2 =  6.193E-12

      iter #   5 total cpu time :    19.8 secs   av.it.:   8.7
      thresh= 2.489E-07 alpha_mix =  0.700 |ddv_scf|^2 =  3.099E-14

     End of self-consistent calculation

     Convergence has been achieved 


     Representation #  4 modes #   5  6

     Self-consistent Calculation

      iter #   1 total cpu time :    20.0 secs   av.it.:   4.9
      thresh= 1.000E-02 alpha_mix =  0.700 |ddv_scf|^2 =  9.858E-07

      iter #   2 total cpu time :    20.3 secs   av.it.:   9.4
      thresh= 9.929E-05 alpha_mix =  0.700 |ddv_scf|^2 =  7.745E-08

      iter #   3 total cpu time :    20.8 secs   av.it.:   9.3
      thresh= 2.783E-05 alpha_mix =  0.700 |ddv_scf|^2 =  5.010E-09

      iter #   4 total cpu time :    21.0 secs   av.it.:   8.5
      thresh= 7.078E-06 alpha_mix =  0.700 |ddv_scf|^2 =  6.437E-12

      iter #   5 total cpu time :    21.3 secs   av.it.:   8.8
      thresh= 2.537E-07 alpha_mix =  0.700 |ddv_scf|^2 =  2.323E-14

     End of self-consistent calculation

     Convergence has been achieved 

     Number of q in the star =    4
     List of q in the star:
          1   0.500000000  -0.500000000   0.500000000
          2   0.500000000   0.500000000   0.500000000
          3  -0.500000000   0.500000000   0.500000000
          4   0.500000000   0.500000000  -0.500000000

     Diagonalizing the dynamical matrix

     q = (    0.500000000  -0.500000000   0.500000000 ) 

 **************************************************************************
     freq (    1) =       4.774961 [THz] =     159.275561 [cm-1]
     freq (    2) =       4.774961 [THz] =     159.275561 [cm-1]
     freq (    3) =      11.809678 [THz] =     393.928453 [cm-1]
     freq (    4) =      12.142110 [THz] =     405.017197 [cm-1]
     freq (    5) =      14.671177 [THz] =     489.377796 [cm-1]
     freq (    6) =      14.671177 [THz] =     489.377796 [cm-1]
 **************************************************************************

     Calculation of q =    0.0000000   0.5000000   0.0000000

   Info: using nr1, nr2, nr3 values from input

   Info: using nr1, nr2, nr3 values from input

     Parallelization info
     --------------------
     sticks:   dense  smooth     PW     G-vecs:    dense   smooth      PW
     Min          64      64     27                  709      709     175
     Max          67      67     28                  710      710     176
     Sum         265     265    109                 2837     2837     701



     bravais-lattice index     =            2
     lattice parameter (alat)  =      10.3404  a.u.
     unit-cell volume          =     276.4089 (a.u.)^3
     number of atoms/cell      =            2
     number of atomic types    =            1
     number of electrons       =         8.00
     number of Kohn-Sham states=            4
     kinetic-energy cutoff     =      18.0000  Ry
     charge density cutoff     =      72.0000  Ry
     Exchange-correlation      = SLA  PW   PBE  PBE ( 1  4  3  4 0 0)

     celldm(1)=  10.340400  celldm(2)=   0.000000  celldm(3)=   0.000000
     celldm(4)=   0.000000  celldm(5)=   0.000000  celldm(6)=   0.000000

     crystal axes: (cart. coord. in units of alat)
               a(1) = (  -0.500000   0.000000   0.500000 )  
               a(2) = (   0.000000   0.500000   0.500000 )  
               a(3) = (  -0.500000   0.500000   0.000000 )  

     reciprocal axes: (cart. coord. in units 2 pi/alat)
               b(1) = ( -1.000000 -1.000000  1.000000 )  
               b(2) = (  1.000000  1.000000  1.000000 )  
               b(3) = ( -1.000000  1.000000 -1.000000 )  


     PseudoPot. # 1 for Si read from file:
     /home/max/quantum_espresso/qe-6.1/pseudo/si_pbe_v1.uspp.F.UPF.txt
     MD5 check sum: a056efeee980c13900f22a371efd63c1
     Pseudo is Ultrasoft + core correction, Zval =  4.0
     Generated by new atomic code, or converted to UPF format
     Using radial grid of  899 points,  6 beta functions with: 
                l(1) =   0
                l(2) =   0
                l(3) =   1
                l(4) =   1
                l(5) =   2
                l(6) =   2
     Q(r) pseudized with  8 coefficients,  rinner =    0.900   0.900   0.900
                                                       0.900   0.900

     atomic species   valence    mass     pseudopotential
        Si             4.00    28.08600     Si( 1.00)

     48 Sym. Ops., with inversion, found



   Cartesian axes

     site n.     atom                  positions (alat units)
         1           Si  tau(   1) = (   0.0000000   0.0000000   0.0000000  )
         2           Si  tau(   2) = (   0.2500000   0.2500000   0.2500000  )

     number of k points=    80
                       cart. coord. in units 2pi/alat
        k(    1) = (  -0.1250000   0.1250000   0.1250000), wk =   0.0312500
        k(    2) = (  -0.1250000   0.6250000   0.1250000), wk =   0.0000000
        k(    3) = (  -0.3750000   0.3750000  -0.1250000), wk =   0.0625000
        k(    4) = (  -0.3750000   0.8750000  -0.1250000), wk =   0.0000000
        k(    5) = (   0.3750000  -0.3750000   0.6250000), wk =   0.0625000
        k(    6) = (   0.3750000   0.1250000   0.6250000), wk =   0.0000000
        k(    7) = (   0.1250000  -0.1250000   0.3750000), wk =   0.0625000
        k(    8) = (   0.1250000   0.3750000   0.3750000), wk =   0.0000000
        k(    9) = (  -0.1250000   0.6250000   0.1250000), wk =   0.0312500
        k(   10) = (  -0.1250000   1.1250000   0.1250000), wk =   0.0000000
        k(   11) = (   0.6250000  -0.1250000   0.8750000), wk =   0.0625000
        k(   12) = (   0.6250000   0.3750000   0.8750000), wk =   0.0000000
        k(   13) = (   0.3750000   0.1250000   0.6250000), wk =   0.0625000
        k(   14) = (   0.3750000   0.6250000   0.6250000), wk =   0.0000000
        k(   15) = (  -0.1250000  -0.8750000   0.1250000), wk =   0.0312500
        k(   16) = (  -0.1250000  -0.3750000   0.1250000), wk =   0.0000000
        k(   17) = (  -0.3750000   0.3750000   0.3750000), wk =   0.0312500
        k(   18) = (  -0.3750000   0.8750000   0.3750000), wk =   0.0000000
        k(   19) = (   0.3750000  -0.3750000   1.1250000), wk =   0.0625000
        k(   20) = (   0.3750000   0.1250000   1.1250000), wk =   0.0000000
        k(   21) = (  -0.1250000  -0.1250000   0.1250000), wk =   0.0312500
        k(   22) = (  -0.1250000   0.3750000   0.1250000), wk =   0.0000000
        k(   23) = (   0.1250000  -0.3750000   0.3750000), wk =   0.0625000
        k(   24) = (   0.1250000   0.1250000   0.3750000), wk =   0.0000000
        k(   25) = (   0.3750000  -0.1250000   0.3750000), wk =   0.0312500
        k(   26) = (   0.3750000   0.3750000   0.3750000), wk =   0.0000000
        k(   27) = (   0.3750000   0.1250000   0.3750000), wk =   0.0312500
        k(   28) = (   0.3750000   0.6250000   0.3750000), wk =   0.0000000
        k(   29) = (  -0.6250000   0.3750000  -0.3750000), wk =   0.0625000
        k(   30) = (  -0.6250000   0.8750000  -0.3750000), wk =   0.0000000
        k(   31) = (  -0.3750000   0.6250000  -0.3750000), wk =   0.0312500
        k(   32) = (  -0.3750000   1.1250000  -0.3750000), wk =   0.0000000
        k(   33) = (  -0.3750000  -0.6250000  -0.3750000), wk =   0.0312500
        k(   34) = (  -0.3750000  -0.1250000  -0.3750000), wk =   0.0000000
        k(   35) = (  -0.3750000   0.1250000  -0.1250000), wk =   0.0625000
        k(   36) = (  -0.3750000   0.6250000  -0.1250000), wk =   0.0000000
        k(   37) = (  -0.1250000   0.3750000  -0.1250000), wk =   0.0312500
        k(   38) = (  -0.1250000   0.8750000  -0.1250000), wk =   0.0000000
        k(   39) = (  -0.1250000  -0.3750000  -0.1250000), wk =   0.0312500
        k(   40) = (  -0.1250000   0.1250000  -0.1250000), wk =   0.0000000
        k(   41) = (  -0.1250000  -0.6250000   0.1250000), wk =   0.0312500
        k(   42) = (  -0.1250000  -0.1250000   0.1250000), wk =   0.0000000
        k(   43) = (   0.6250000  -0.1250000  -0.1250000), wk =   0.0625000
        k(   44) = (   0.6250000   0.3750000  -0.1250000), wk =   0.0000000
        k(   45) = (   0.6250000   0.1250000   0.1250000), wk =   0.0625000
        k(   46) = (   0.6250000   0.6250000   0.1250000), wk =   0.0000000
        k(   47) = (  -0.8750000   0.1250000  -0.6250000), wk =   0.0625000
        k(   48) = (  -0.8750000   0.6250000  -0.6250000), wk =   0.0000000
        k(   49) = (  -0.1250000   0.6250000  -0.8750000), wk =   0.0625000
        k(   50) = (  -0.1250000   1.1250000  -0.8750000), wk =   0.0000000
        k(   51) = (  -0.1250000   0.8750000  -0.6250000), wk =   0.0625000
        k(   52) = (  -0.1250000   1.3750000  -0.6250000), wk =   0.0000000
        k(   53) = (  -0.1250000  -0.8750000  -0.6250000), wk =   0.0625000
        k(   54) = (  -0.1250000  -0.3750000  -0.6250000), wk =   0.0000000
        k(   55) = (   0.8750000  -0.6250000   0.1250000), wk =   0.0625000
        k(   56) = (   0.8750000  -0.1250000   0.1250000), wk =   0.0000000
        k(   57) = (  -0.6250000  -0.1250000  -0.3750000), wk =   0.0625000
        k(   58) = (  -0.6250000   0.3750000  -0.3750000), wk =   0.0000000
        k(   59) = (   0.1250000   0.3750000  -0.6250000), wk =   0.0625000
        k(   60) = (   0.1250000   0.8750000  -0.6250000), wk =   0.0000000
        k(   61) = (   0.1250000   0.6250000  -0.3750000), wk =   0.0625000
        k(   62) = (   0.1250000   1.1250000  -0.3750000), wk =   0.0000000
        k(   63) = (   0.1250000  -0.6250000  -0.3750000), wk =   0.0625000
        k(   64) = (   0.1250000  -0.1250000  -0.3750000), wk =   0.0000000
        k(   65) = (   0.6250000  -0.3750000  -0.1250000), wk =   0.0625000
        k(   66) = (   0.6250000   0.1250000  -0.1250000), wk =   0.0000000
        k(   67) = (  -0.1250000   0.8750000   0.1250000), wk =   0.0312500
        k(   68) = (  -0.1250000   1.3750000   0.1250000), wk =   0.0000000
        k(   69) = (  -0.8750000  -0.1250000  -0.1250000), wk =   0.0625000
        k(   70) = (  -0.8750000   0.3750000  -0.1250000), wk =   0.0000000
        k(   71) = (  -0.8750000   0.1250000   0.1250000), wk =   0.0625000
        k(   72) = (  -0.8750000   0.6250000   0.1250000), wk =   0.0000000
        k(   73) = (  -0.3750000  -0.3750000   0.3750000), wk =   0.0312500
        k(   74) = (  -0.3750000   0.1250000   0.3750000), wk =   0.0000000
        k(   75) = (  -1.1250000   0.3750000  -0.3750000), wk =   0.0625000
        k(   76) = (  -1.1250000   0.8750000  -0.3750000), wk =   0.0000000
        k(   77) = (  -0.3750000   1.1250000  -0.3750000), wk =   0.0312500
        k(   78) = (  -0.3750000   1.6250000  -0.3750000), wk =   0.0000000
        k(   79) = (  -0.3750000  -1.1250000  -0.3750000), wk =   0.0312500
        k(   80) = (  -0.3750000  -0.6250000  -0.3750000), wk =   0.0000000

     Dense  grid:     2837 G-vectors     FFT dimensions: (  20,  20,  20)

     Estimated max dynamical RAM per process >       0.33MB

     Estimated total allocated dynamical RAM >       1.32MB

     Check: negative/imaginary core charge=   -0.000006    0.000000

     The potential is recalculated from file :
     ./_ph0/silicon.10.3404.save/charge-density.dat

     Starting wfc are    8 atomic wfcs

     Band Structure Calculation
     Davidson diagonalization with overlap

     ethr =  1.25E-10,  avg # of iterations = 11.7

     total cpu time spent up to now is        2.1 secs

     End of band structure calculation

          k =-0.1250 0.1250 0.1250 (   338 PWs)   bands (ev):

    -5.6374   4.3717   5.6803   5.6803

          k =-0.1250 0.6250 0.1250 (   351 PWs)   bands (ev):

    -4.0848   1.0426   3.3567   3.8041

          k =-0.3750 0.3750-0.1250 (   352 PWs)   bands (ev):

    -4.6155   1.3827   3.7030   5.1988

          k =-0.3750 0.8750-0.1250 (   361 PWs)   bands (ev):

    -2.4529  -0.9152   2.0121   3.0810

          k = 0.3750-0.3750 0.6250 (   361 PWs)   bands (ev):

    -3.4830  -0.6855   3.7203   4.4307

          k = 0.3750 0.1250 0.6250 (   357 PWs)   bands (ev):

    -3.6718   0.1760   2.7178   4.0792

          k = 0.1250-0.1250 0.3750 (   353 PWs)   bands (ev):

    -5.1121   2.7541   4.6756   4.7381

          k = 0.1250 0.3750 0.3750 (   352 PWs)   bands (ev):

    -4.6155   1.3827   3.7030   5.1988

          k =-0.1250 0.6250 0.1250 (   351 PWs)   bands (ev):

    -4.0848   1.0426   3.3567   3.8041

          k =-0.1250 1.1250 0.1250 (   358 PWs)   bands (ev):

    -2.6185  -0.8186   2.6167   3.3385

          k = 0.6250-0.1250 0.8750 (   361 PWs)   bands (ev):

    -2.4529  -0.9152   2.0121   3.0810

          k = 0.6250 0.3750 0.8750 (   357 PWs)   bands (ev):

    -3.6718   0.1760   2.7178   4.0792

          k = 0.3750 0.1250 0.6250 (   357 PWs)   bands (ev):

    -3.6718   0.1760   2.7178   4.0792

          k = 0.3750 0.6250 0.6250 (   361 PWs)   bands (ev):

    -3.4830  -0.6855   3.7203   4.4307

          k =-0.1250-0.8750 0.1250 (   358 PWs)   bands (ev):

    -2.6185  -0.8186   2.6167   3.3385

          k =-0.1250-0.3750 0.1250 (   353 PWs)   bands (ev):

    -5.1121   2.7541   4.6756   4.7381

          k =-0.3750 0.3750 0.3750 (   353 PWs)   bands (ev):

    -4.1855   0.1004   4.8933   4.8933

          k =-0.3750 0.8750 0.3750 (   361 PWs)   bands (ev):

    -2.9887  -0.6079   2.0681   4.1157

          k = 0.3750-0.3750 1.1250 (   361 PWs)   bands (ev):

    -2.9887  -0.6079   2.0681   4.1157

          k = 0.3750 0.1250 1.1250 (   361 PWs)   bands (ev):

    -2.4529  -0.9152   2.0121   3.0810

          k =-0.1250-0.1250 0.1250 (   338 PWs)   bands (ev):

    -5.6374   4.3717   5.6803   5.6803

          k =-0.1250 0.3750 0.1250 (   353 PWs)   bands (ev):

    -5.1121   2.7541   4.6756   4.7381

          k = 0.1250-0.3750 0.3750 (   352 PWs)   bands (ev):

    -4.6155   1.3827   3.7030   5.1988

          k = 0.1250 0.1250 0.3750 (   353 PWs)   bands (ev):

    -5.1121   2.7541   4.6756   4.7381

          k = 0.3750-0.1250 0.3750 (   352 PWs)   bands (ev):

    -4.6155   1.3827   3.7030   5.1988

          k = 0.3750 0.3750 0.3750 (   353 PWs)   bands (ev):

    -4.1855   0.1004   4.8933   4.8933

          k = 0.3750 0.1250 0.3750 (   352 PWs)   bands (ev):

    -4.6155   1.3827   3.7030   5.1988

          k = 0.3750 0.6250 0.3750 (   361 PWs)   bands (ev):

    -3.4830  -0.6855   3.7203   4.4307

          k =-0.6250 0.3750-0.3750 (   361 PWs)   bands (ev):

    -3.4830  -0.6855   3.7203   4.4307

          k =-0.6250 0.8750-0.3750 (   357 PWs)   bands (ev):

    -3.6718   0.1760   2.7178   4.0792

          k =-0.3750 0.6250-0.3750 (   361 PWs)   bands (ev):

    -3.4830  -0.6855   3.7203   4.4307

          k =-0.3750 1.1250-0.3750 (   361 PWs)   bands (ev):

    -2.9887  -0.6079   2.0681   4.1157

          k =-0.3750-0.6250-0.3750 (   361 PWs)   bands (ev):

    -3.4830  -0.6855   3.7203   4.4307

          k =-0.3750-0.1250-0.3750 (   352 PWs)   bands (ev):

    -4.6155   1.3827   3.7030   5.1988

          k =-0.3750 0.1250-0.1250 (   353 PWs)   bands (ev):

    -5.1121   2.7541   4.6756   4.7381

          k =-0.3750 0.6250-0.1250 (   357 PWs)   bands (ev):

    -3.6718   0.1760   2.7178   4.0792

          k =-0.1250 0.3750-0.1250 (   353 PWs)   bands (ev):

    -5.1121   2.7541   4.6756   4.7381

          k =-0.1250 0.8750-0.1250 (   358 PWs)   bands (ev):

    -2.6185  -0.8186   2.6167   3.3385

          k =-0.1250-0.3750-0.1250 (   353 PWs)   bands (ev):

    -5.1121   2.7541   4.6756   4.7381

          k =-0.1250 0.1250-0.1250 (   338 PWs)   bands (ev):

    -5.6374   4.3717   5.6803   5.6803

          k =-0.1250-0.6250 0.1250 (   351 PWs)   bands (ev):

    -4.0848   1.0426   3.3567   3.8041

          k =-0.1250-0.1250 0.1250 (   338 PWs)   bands (ev):

    -5.6374   4.3717   5.6803   5.6803

          k = 0.6250-0.1250-0.1250 (   351 PWs)   bands (ev):

    -4.0848   1.0426   3.3567   3.8041

          k = 0.6250 0.3750-0.1250 (   357 PWs)   bands (ev):

    -3.6718   0.1760   2.7178   4.0792

          k = 0.6250 0.1250 0.1250 (   351 PWs)   bands (ev):

    -4.0848   1.0426   3.3567   3.8041

          k = 0.6250 0.6250 0.1250 (   361 PWs)   bands (ev):

    -2.9887  -0.6079   2.0681   4.1157

          k =-0.8750 0.1250-0.6250 (   361 PWs)   bands (ev):

    -2.4529  -0.9152   2.0121   3.0810

          k =-0.8750 0.6250-0.6250 (   352 PWs)   bands (ev):

    -4.6155   1.3827   3.7030   5.1988

          k =-0.1250 0.6250-0.8750 (   361 PWs)   bands (ev):

    -2.4529  -0.9152   2.0121   3.0810

          k =-0.1250 1.1250-0.8750 (   358 PWs)   bands (ev):

    -2.6185  -0.8186   2.6167   3.3385

          k =-0.1250 0.8750-0.6250 (   361 PWs)   bands (ev):

    -2.4529  -0.9152   2.0121   3.0810

          k =-0.1250 1.3750-0.6250 (   361 PWs)   bands (ev):

    -2.9887  -0.6079   2.0681   4.1157

          k =-0.1250-0.8750-0.6250 (   361 PWs)   bands (ev):

    -2.4529  -0.9152   2.0121   3.0810

          k =-0.1250-0.3750-0.6250 (   357 PWs)   bands (ev):

    -3.6718   0.1760   2.7178   4.0792

          k = 0.8750-0.6250 0.1250 (   361 PWs)   bands (ev):

    -2.4529  -0.9152   2.0121   3.0810

          k = 0.8750-0.1250 0.1250 (   358 PWs)   bands (ev):

    -2.6185  -0.8186   2.6167   3.3385

          k =-0.6250-0.1250-0.3750 (   357 PWs)   bands (ev):

    -3.6718   0.1760   2.7178   4.0792

          k =-0.6250 0.3750-0.3750 (   361 PWs)   bands (ev):

    -3.4830  -0.6855   3.7203   4.4307

          k = 0.1250 0.3750-0.6250 (   357 PWs)   bands (ev):

    -3.6718   0.1760   2.7178   4.0792

          k = 0.1250 0.8750-0.6250 (   361 PWs)   bands (ev):

    -2.4529  -0.9152   2.0121   3.0810

          k = 0.1250 0.6250-0.3750 (   357 PWs)   bands (ev):

    -3.6718   0.1760   2.7178   4.0792

          k = 0.1250 1.1250-0.3750 (   361 PWs)   bands (ev):

    -2.4529  -0.9152   2.0121   3.0810

          k = 0.1250-0.6250-0.3750 (   357 PWs)   bands (ev):

    -3.6718   0.1760   2.7178   4.0792

          k = 0.1250-0.1250-0.3750 (   353 PWs)   bands (ev):

    -5.1121   2.7541   4.6756   4.7381

          k = 0.6250-0.3750-0.1250 (   357 PWs)   bands (ev):

    -3.6718   0.1760   2.7178   4.0792

          k = 0.6250 0.1250-0.1250 (   351 PWs)   bands (ev):

    -4.0848   1.0426   3.3567   3.8041

          k =-0.1250 0.8750 0.1250 (   358 PWs)   bands (ev):

    -2.6185  -0.8186   2.6167   3.3385

          k =-0.1250 1.3750 0.1250 (   351 PWs)   bands (ev):

    -4.0848   1.0426   3.3567   3.8041

          k =-0.8750-0.1250-0.1250 (   358 PWs)   bands (ev):

    -2.6185  -0.8186   2.6167   3.3385

          k =-0.8750 0.3750-0.1250 (   361 PWs)   bands (ev):

    -2.4529  -0.9152   2.0121   3.0810

          k =-0.8750 0.1250 0.1250 (   358 PWs)   bands (ev):

    -2.6185  -0.8186   2.6167   3.3385

          k =-0.8750 0.6250 0.1250 (   361 PWs)   bands (ev):

    -2.4529  -0.9152   2.0121   3.0810

          k =-0.3750-0.3750 0.3750 (   353 PWs)   bands (ev):

    -4.1855   0.1004   4.8933   4.8933

          k =-0.3750 0.1250 0.3750 (   352 PWs)   bands (ev):

    -4.6155   1.3827   3.7030   5.1988

          k =-1.1250 0.3750-0.3750 (   361 PWs)   bands (ev):

    -2.9887  -0.6079   2.0681   4.1157

          k =-1.1250 0.8750-0.3750 (   351 PWs)   bands (ev):

    -4.0848   1.0426   3.3567   3.8041

          k =-0.3750 1.1250-0.3750 (   361 PWs)   bands (ev):

    -2.9887  -0.6079   2.0681   4.1157

          k =-0.3750 1.6250-0.3750 (   353 PWs)   bands (ev):

    -4.1855   0.1004   4.8933   4.8933

          k =-0.3750-1.1250-0.3750 (   361 PWs)   bands (ev):

    -2.9887  -0.6079   2.0681   4.1157

          k =-0.3750-0.6250-0.3750 (   361 PWs)   bands (ev):

    -3.4830  -0.6855   3.7203   4.4307

     highest occupied level (ev):     5.6803

     Writing output data file silicon.10.3404.save

                                                                                

     bravais-lattice index     =            2
     lattice parameter (alat)  =      10.3404  a.u.
     unit-cell volume          =     276.4089 (a.u.)^3
     number of atoms/cell      =            2
     number of atomic types    =            1
     kinetic-energy cut-off    =      18.0000  Ry
     charge density cut-off    =      72.0000  Ry
     convergence threshold     =      1.0E-12
     beta                      =       0.7000
     number of iterations used =            4
     Exchange-correlation      = SLA  PW   PBE  PBE ( 1  4  3  4 0 0)


     celldm(1)=   10.34040  celldm(2)=    0.00000  celldm(3)=    0.00000
     celldm(4)=    0.00000  celldm(5)=    0.00000  celldm(6)=    0.00000

     crystal axes: (cart. coord. in units of alat)
               a(1) = ( -0.5000  0.0000  0.5000 )  
               a(2) = (  0.0000  0.5000  0.5000 )  
               a(3) = ( -0.5000  0.5000  0.0000 )  

     reciprocal axes: (cart. coord. in units 2 pi/alat)
               b(1) = ( -1.0000 -1.0000  1.0000 )  
               b(2) = (  1.0000  1.0000  1.0000 )  
               b(3) = ( -1.0000  1.0000 -1.0000 )  


     Atoms inside the unit cell: 

     Cartesian axes

     site n.  atom      mass           positions (alat units)
        1     Si  28.0860   tau(    1) = (    0.00000    0.00000    0.00000  )
        2     Si  28.0860   tau(    2) = (    0.25000    0.25000    0.25000  )

     Computing dynamical matrix for 
                    q = (   0.0000000   0.5000000   0.0000000 )

      8 Sym.Ops. (no q -> -q+G )


     G cutoff =  195.0058  (    710 G-vectors)     FFT grid: ( 20, 20, 20)
     number of k points=    80

     PseudoPot. # 1 for Si read from file:
     /home/max/quantum_espresso/qe-6.1/pseudo/si_pbe_v1.uspp.F.UPF.txt
     MD5 check sum: a056efeee980c13900f22a371efd63c1
     Pseudo is Ultrasoft + core correction, Zval =  4.0
     Generated by new atomic code, or converted to UPF format
     Using radial grid of  899 points,  6 beta functions with: 
                l(1) =   0
                l(2) =   0
                l(3) =   1
                l(4) =   1
                l(5) =   2
                l(6) =   2
     Q(r) pseudized with  8 coefficients,  rinner =    0.900   0.900   0.900
                                                       0.900   0.900

     Mode symmetry, C_4v (4mm)  point group:


     Atomic displacements:
     There are   4 irreducible representations

     Representation     1      1 modes -A_1  G_1 D_1  To be done

     Representation     2      1 modes -B_2  G_4 D_2'  To be done

     Representation     3      2 modes -E    G_5 D_5  To be done

     Representation     4      2 modes -E    G_5 D_5  To be done



     Alpha used in Ewald sum =   0.7000
     PHONON       :    20.98s CPU        22.23s WALL



     Representation #  1 mode #   1

     Self-consistent Calculation

      iter #   1 total cpu time :    22.6 secs   av.it.:   5.8
      thresh= 1.000E-02 alpha_mix =  0.700 |ddv_scf|^2 =  2.967E-03

      iter #   2 total cpu time :    22.8 secs   av.it.:   7.7
      thresh= 5.447E-03 alpha_mix =  0.700 |ddv_scf|^2 =  3.906E-02

      iter #   3 total cpu time :    22.9 secs   av.it.:   6.8
      thresh= 1.000E-02 alpha_mix =  0.700 |ddv_scf|^2 =  1.481E-07

      iter #   4 total cpu time :    23.1 secs   av.it.:   8.1
      thresh= 3.848E-05 alpha_mix =  0.700 |ddv_scf|^2 =  1.409E-08

      iter #   5 total cpu time :    23.3 secs   av.it.:   7.8
      thresh= 1.187E-05 alpha_mix =  0.700 |ddv_scf|^2 =  7.244E-10

      iter #   6 total cpu time :    23.5 secs   av.it.:   7.8
      thresh= 2.692E-06 alpha_mix =  0.700 |ddv_scf|^2 =  2.927E-12

      iter #   7 total cpu time :    23.6 secs   av.it.:   7.9
      thresh= 1.711E-07 alpha_mix =  0.700 |ddv_scf|^2 =  5.574E-13

     End of self-consistent calculation

     Convergence has been achieved 


     Representation #  2 mode #   2

     Self-consistent Calculation

      iter #   1 total cpu time :    23.8 secs   av.it.:   4.9
      thresh= 1.000E-02 alpha_mix =  0.700 |ddv_scf|^2 =  5.507E-06

      iter #   2 total cpu time :    24.0 secs   av.it.:   8.7
      thresh= 2.347E-04 alpha_mix =  0.700 |ddv_scf|^2 =  1.339E-06

      iter #   3 total cpu time :    24.2 secs   av.it.:   8.5
      thresh= 1.157E-04 alpha_mix =  0.700 |ddv_scf|^2 =  4.264E-08

      iter #   4 total cpu time :    24.5 secs   av.it.:   8.2
      thresh= 2.065E-05 alpha_mix =  0.700 |ddv_scf|^2 =  7.134E-10

      iter #   5 total cpu time :    24.7 secs   av.it.:   8.6
      thresh= 2.671E-06 alpha_mix =  0.700 |ddv_scf|^2 =  6.834E-12

      iter #   6 total cpu time :    24.9 secs   av.it.:   8.0
      thresh= 2.614E-07 alpha_mix =  0.700 |ddv_scf|^2 =  7.371E-14

     End of self-consistent calculation

     Convergence has been achieved 


     Representation #  3 modes #   3  4

     Self-consistent Calculation

      iter #   1 total cpu time :    25.1 secs   av.it.:   5.0
      thresh= 1.000E-02 alpha_mix =  0.700 |ddv_scf|^2 =  1.022E-06

      iter #   2 total cpu time :    25.5 secs   av.it.:   9.8
      thresh= 1.011E-04 alpha_mix =  0.700 |ddv_scf|^2 =  1.269E-07

      iter #   3 total cpu time :    25.9 secs   av.it.:   9.5
      thresh= 3.562E-05 alpha_mix =  0.700 |ddv_scf|^2 =  6.697E-09

      iter #   4 total cpu time :    26.3 secs   av.it.:   8.8
      thresh= 8.183E-06 alpha_mix =  0.700 |ddv_scf|^2 =  9.519E-12

      iter #   5 total cpu time :    26.8 secs   av.it.:   9.1
      thresh= 3.085E-07 alpha_mix =  0.700 |ddv_scf|^2 =  2.993E-13

     End of self-consistent calculation

     Convergence has been achieved 


     Representation #  4 modes #   5  6

     Self-consistent Calculation

      iter #   1 total cpu time :    27.1 secs   av.it.:   5.0
      thresh= 1.000E-02 alpha_mix =  0.700 |ddv_scf|^2 =  9.381E-07

      iter #   2 total cpu time :    27.5 secs   av.it.:   9.8
      thresh= 9.686E-05 alpha_mix =  0.700 |ddv_scf|^2 =  1.187E-07

      iter #   3 total cpu time :    27.9 secs   av.it.:   9.5
      thresh= 3.445E-05 alpha_mix =  0.700 |ddv_scf|^2 =  7.002E-09

      iter #   4 total cpu time :    28.3 secs   av.it.:   8.9
      thresh= 8.368E-06 alpha_mix =  0.700 |ddv_scf|^2 =  1.480E-11

      iter #   5 total cpu time :    28.9 secs   av.it.:   9.2
      thresh= 3.847E-07 alpha_mix =  0.700 |ddv_scf|^2 =  4.431E-14

     End of self-consistent calculation

     Convergence has been achieved 

     Number of q in the star =    6
     List of q in the star:
          1   0.000000000   0.500000000   0.000000000
          2   0.000000000  -0.500000000   0.000000000
          3   0.500000000   0.000000000   0.000000000
          4   0.000000000   0.000000000   0.500000000
          5   0.000000000   0.000000000  -0.500000000
          6  -0.500000000   0.000000000   0.000000000

     Diagonalizing the dynamical matrix

     q = (    0.000000000   0.500000000   0.000000000 ) 

 **************************************************************************
     freq (    1) =       4.297563 [THz] =     143.351267 [cm-1]
     freq (    2) =       4.297563 [THz] =     143.351267 [cm-1]
     freq (    3) =       7.153083 [THz] =     238.601163 [cm-1]
     freq (    4) =      14.047517 [THz] =     468.574737 [cm-1]
     freq (    5) =      14.047517 [THz] =     468.574737 [cm-1]
     freq (    6) =      14.675180 [THz] =     489.511304 [cm-1]
 **************************************************************************

     Mode symmetry, C_4v (4mm)  point group:

     freq (  1 -  2) =        143.4  [cm-1]   --> E    G_5 D_5       
     freq (  3 -  3) =        238.6  [cm-1]   --> A_1  G_1 D_1       
     freq (  4 -  5) =        468.6  [cm-1]   --> E    G_5 D_5       
     freq (  6 -  6) =        489.5  [cm-1]   --> B_2  G_4 D_2'      

     Calculation of q =    0.7500000  -0.2500000   0.7500000

   Info: using nr1, nr2, nr3 values from input

   Info: using nr1, nr2, nr3 values from input

     Parallelization info
     --------------------
     sticks:   dense  smooth     PW     G-vecs:    dense   smooth      PW
     Min          64      64     30                  709      709     216
     Max          67      67     31                  710      710     218
     Sum         265     265    121                 2837     2837     869



     bravais-lattice index     =            2
     lattice parameter (alat)  =      10.3404  a.u.
     unit-cell volume          =     276.4089 (a.u.)^3
     number of atoms/cell      =            2
     number of atomic types    =            1
     number of electrons       =         8.00
     number of Kohn-Sham states=            4
     kinetic-energy cutoff     =      18.0000  Ry
     charge density cutoff     =      72.0000  Ry
     Exchange-correlation      = SLA  PW   PBE  PBE ( 1  4  3  4 0 0)

     celldm(1)=  10.340400  celldm(2)=   0.000000  celldm(3)=   0.000000
     celldm(4)=   0.000000  celldm(5)=   0.000000  celldm(6)=   0.000000

     crystal axes: (cart. coord. in units of alat)
               a(1) = (  -0.500000   0.000000   0.500000 )  
               a(2) = (   0.000000   0.500000   0.500000 )  
               a(3) = (  -0.500000   0.500000   0.000000 )  

     reciprocal axes: (cart. coord. in units 2 pi/alat)
               b(1) = ( -1.000000 -1.000000  1.000000 )  
               b(2) = (  1.000000  1.000000  1.000000 )  
               b(3) = ( -1.000000  1.000000 -1.000000 )  


     PseudoPot. # 1 for Si read from file:
     /home/max/quantum_espresso/qe-6.1/pseudo/si_pbe_v1.uspp.F.UPF.txt
     MD5 check sum: a056efeee980c13900f22a371efd63c1
     Pseudo is Ultrasoft + core correction, Zval =  4.0
     Generated by new atomic code, or converted to UPF format
     Using radial grid of  899 points,  6 beta functions with: 
                l(1) =   0
                l(2) =   0
                l(3) =   1
                l(4) =   1
                l(5) =   2
                l(6) =   2
     Q(r) pseudized with  8 coefficients,  rinner =    0.900   0.900   0.900
                                                       0.900   0.900

     atomic species   valence    mass     pseudopotential
        Si             4.00    28.08600     Si( 1.00)

     48 Sym. Ops., with inversion, found



   Cartesian axes

     site n.     atom                  positions (alat units)
         1           Si  tau(   1) = (   0.0000000   0.0000000   0.0000000  )
         2           Si  tau(   2) = (   0.2500000   0.2500000   0.2500000  )

     number of k points=   288

     Number of k-points >= 100: set verbosity='high' to print them.

     Dense  grid:     2837 G-vectors     FFT dimensions: (  20,  20,  20)

     Estimated max dynamical RAM per process >       0.33MB

     Estimated total allocated dynamical RAM >       1.32MB

     Check: negative/imaginary core charge=   -0.000006    0.000000

     The potential is recalculated from file :
     ./_ph0/silicon.10.3404.save/charge-density.dat

     Starting wfc are    8 atomic wfcs

     Band Structure Calculation
     Davidson diagonalization with overlap

     ethr =  1.25E-10,  avg # of iterations = 11.6

     total cpu time spent up to now is        4.1 secs

     End of band structure calculation

     Number of k-points >= 100: set verbosity='high' to print the bands.

     highest occupied level (ev):     5.6803

     Writing output data file silicon.10.3404.save

                                                                                

     bravais-lattice index     =            2
     lattice parameter (alat)  =      10.3404  a.u.
     unit-cell volume          =     276.4089 (a.u.)^3
     number of atoms/cell      =            2
     number of atomic types    =            1
     kinetic-energy cut-off    =      18.0000  Ry
     charge density cut-off    =      72.0000  Ry
     convergence threshold     =      1.0E-12
     beta                      =       0.7000
     number of iterations used =            4
     Exchange-correlation      = SLA  PW   PBE  PBE ( 1  4  3  4 0 0)


     celldm(1)=   10.34040  celldm(2)=    0.00000  celldm(3)=    0.00000
     celldm(4)=    0.00000  celldm(5)=    0.00000  celldm(6)=    0.00000

     crystal axes: (cart. coord. in units of alat)
               a(1) = ( -0.5000  0.0000  0.5000 )  
               a(2) = (  0.0000  0.5000  0.5000 )  
               a(3) = ( -0.5000  0.5000  0.0000 )  

     reciprocal axes: (cart. coord. in units 2 pi/alat)
               b(1) = ( -1.0000 -1.0000  1.0000 )  
               b(2) = (  1.0000  1.0000  1.0000 )  
               b(3) = ( -1.0000  1.0000 -1.0000 )  


     Atoms inside the unit cell: 

     Cartesian axes

     site n.  atom      mass           positions (alat units)
        1     Si  28.0860   tau(    1) = (    0.00000    0.00000    0.00000  )
        2     Si  28.0860   tau(    2) = (    0.25000    0.25000    0.25000  )

     Computing dynamical matrix for 
                    q = (   0.7500000  -0.2500000   0.7500000 )

      2 Sym.Ops. (no q -> -q+G )


     G cutoff =  195.0058  (    710 G-vectors)     FFT grid: ( 20, 20, 20)
     number of k points=   288

     PseudoPot. # 1 for Si read from file:
     /home/max/quantum_espresso/qe-6.1/pseudo/si_pbe_v1.uspp.F.UPF.txt
     MD5 check sum: a056efeee980c13900f22a371efd63c1
     Pseudo is Ultrasoft + core correction, Zval =  4.0
     Generated by new atomic code, or converted to UPF format
     Using radial grid of  899 points,  6 beta functions with: 
                l(1) =   0
                l(2) =   0
                l(3) =   1
                l(4) =   1
                l(5) =   2
                l(6) =   2
     Q(r) pseudized with  8 coefficients,  rinner =    0.900   0.900   0.900
                                                       0.900   0.900

     Mode symmetry, C_s (m)     point group:


     Atomic displacements:
     There are   6 irreducible representations

     Representation     1      1 modes -A'  To be done

     Representation     2      1 modes -A'  To be done

     Representation     3      1 modes -A'  To be done

     Representation     4      1 modes -A'  To be done

     Representation     5      1 modes -A''  To be done

     Representation     6      1 modes -A''  To be done



     Alpha used in Ewald sum =   0.7000
     PHONON       :    29.54s CPU        31.51s WALL



     Representation #  1 mode #   1

     Self-consistent Calculation

      iter #   1 total cpu time :    32.0 secs   av.it.:   5.3
      thresh= 1.000E-02 alpha_mix =  0.700 |ddv_scf|^2 =  6.124E-05

      iter #   2 total cpu time :    32.8 secs   av.it.:   8.9
      thresh= 7.826E-04 alpha_mix =  0.700 |ddv_scf|^2 =  1.604E-04

      iter #   3 total cpu time :    33.4 secs   av.it.:   7.6
      thresh= 1.266E-03 alpha_mix =  0.700 |ddv_scf|^2 =  1.147E-06

      iter #   4 total cpu time :    34.1 secs   av.it.:   8.4
      thresh= 1.071E-04 alpha_mix =  0.700 |ddv_scf|^2 =  6.154E-08

      iter #   5 total cpu time :    34.8 secs   av.it.:   8.3
      thresh= 2.481E-05 alpha_mix =  0.700 |ddv_scf|^2 =  7.539E-09

      iter #   6 total cpu time :    35.5 secs   av.it.:   8.5
      thresh= 8.683E-06 alpha_mix =  0.700 |ddv_scf|^2 =  8.318E-11

      iter #   7 total cpu time :    36.1 secs   av.it.:   8.8
      thresh= 9.120E-07 alpha_mix =  0.700 |ddv_scf|^2 =  2.973E-12

      iter #   8 total cpu time :    36.9 secs   av.it.:   8.6
      thresh= 1.724E-07 alpha_mix =  0.700 |ddv_scf|^2 =  1.791E-13

     End of self-consistent calculation

     Convergence has been achieved 


     Representation #  2 mode #   2

     Self-consistent Calculation

      iter #   1 total cpu time :    37.5 secs   av.it.:   5.4
      thresh= 1.000E-02 alpha_mix =  0.700 |ddv_scf|^2 =  1.090E-04

      iter #   2 total cpu time :    38.1 secs   av.it.:   8.7
      thresh= 1.044E-03 alpha_mix =  0.700 |ddv_scf|^2 =  3.109E-04

      iter #   3 total cpu time :    38.9 secs   av.it.:   7.4
      thresh= 1.763E-03 alpha_mix =  0.700 |ddv_scf|^2 =  7.932E-07

      iter #   4 total cpu time :    39.5 secs   av.it.:   8.6
      thresh= 8.906E-05 alpha_mix =  0.700 |ddv_scf|^2 =  6.004E-08

      iter #   5 total cpu time :    40.1 secs   av.it.:   8.2
      thresh= 2.450E-05 alpha_mix =  0.700 |ddv_scf|^2 =  1.070E-08

      iter #   6 total cpu time :    40.9 secs   av.it.:   8.5
      thresh= 1.035E-05 alpha_mix =  0.700 |ddv_scf|^2 =  8.345E-11

      iter #   7 total cpu time :    41.6 secs   av.it.:   8.7
      thresh= 9.135E-07 alpha_mix =  0.700 |ddv_scf|^2 =  2.718E-12

      iter #   8 total cpu time :    42.2 secs   av.it.:   8.7
      thresh= 1.649E-07 alpha_mix =  0.700 |ddv_scf|^2 =  7.910E-13

     End of self-consistent calculation

     Convergence has been achieved 


     Representation #  3 mode #   3

     Self-consistent Calculation

      iter #   1 total cpu time :    42.9 secs   av.it.:   5.3
      thresh= 1.000E-02 alpha_mix =  0.700 |ddv_scf|^2 =  8.556E-05

      iter #   2 total cpu time :    43.6 secs   av.it.:   8.7
      thresh= 9.250E-04 alpha_mix =  0.700 |ddv_scf|^2 =  2.281E-04

      iter #   3 total cpu time :    44.2 secs   av.it.:   7.4
      thresh= 1.510E-03 alpha_mix =  0.700 |ddv_scf|^2 =  1.352E-06

      iter #   4 total cpu time :    45.0 secs   av.it.:   8.2
      thresh= 1.163E-04 alpha_mix =  0.700 |ddv_scf|^2 =  6.166E-08

      iter #   5 total cpu time :    45.6 secs   av.it.:   8.4
      thresh= 2.483E-05 alpha_mix =  0.700 |ddv_scf|^2 =  1.100E-08

      iter #   6 total cpu time :    46.2 secs   av.it.:   8.5
      thresh= 1.049E-05 alpha_mix =  0.700 |ddv_scf|^2 =  4.792E-11

      iter #   7 total cpu time :    47.1 secs   av.it.:   8.7
      thresh= 6.923E-07 alpha_mix =  0.700 |ddv_scf|^2 =  1.720E-12

      iter #   8 total cpu time :    47.7 secs   av.it.:   8.8
      thresh= 1.312E-07 alpha_mix =  0.700 |ddv_scf|^2 =  2.949E-13

     End of self-consistent calculation

     Convergence has been achieved 


     Representation #  4 mode #   4

     Self-consistent Calculation

      iter #   1 total cpu time :    48.3 secs   av.it.:   5.2
      thresh= 1.000E-02 alpha_mix =  0.700 |ddv_scf|^2 =  3.778E-05

      iter #   2 total cpu time :    49.1 secs   av.it.:   8.9
[...]
        k(   59) = (  -0.8750000   0.1250000  -0.1250000), wk =   0.0625000
        k(   60) = (  -1.3750000  -0.8750000  -0.1250000), wk =   0.0000000
        k(   61) = (  -1.1250000   0.3750000  -0.3750000), wk =   0.0625000
        k(   62) = (  -1.6250000  -0.6250000  -0.3750000), wk =   0.0000000
        k(   63) = (  -0.3750000   0.3750000   1.1250000), wk =   0.0625000
        k(   64) = (  -0.8750000  -0.6250000   1.1250000), wk =   0.0000000

     Dense  grid:     2837 G-vectors     FFT dimensions: (  20,  20,  20)

     Estimated max dynamical RAM per process >       0.33MB

     Estimated total allocated dynamical RAM >       1.32MB

     Check: negative/imaginary core charge=   -0.000006    0.000000

     The potential is recalculated from file :
     ./_ph0/silicon.10.3404.save/charge-density.dat

     Starting wfc are    8 atomic wfcs

     Band Structure Calculation
     Davidson diagonalization with overlap

     ethr =  1.25E-10,  avg # of iterations = 11.6

     total cpu time spent up to now is        6.6 secs

     End of band structure calculation

          k =-0.1250 0.1250 0.1250 (   338 PWs)   bands (ev):

    -5.6374   4.3717   5.6803   5.6803

          k =-0.6250-0.8750 0.1250 (   361 PWs)   bands (ev):

    -2.4529  -0.9152   2.0121   3.0810

          k =-0.3750 0.3750-0.1250 (   352 PWs)   bands (ev):

    -4.6155   1.3827   3.7030   5.1988

          k =-0.8750-0.6250-0.1250 (   361 PWs)   bands (ev):

    -2.4529  -0.9152   2.0121   3.0810

          k = 0.3750-0.3750 0.6250 (   361 PWs)   bands (ev):

    -3.4830  -0.6855   3.7203   4.4307

          k =-0.1250-1.3750 0.6250 (   361 PWs)   bands (ev):

    -2.9887  -0.6079   2.0681   4.1157

          k = 0.1250-0.1250 0.3750 (   353 PWs)   bands (ev):

    -5.1121   2.7541   4.6756   4.7381

          k =-0.3750-1.1250 0.3750 (   361 PWs)   bands (ev):

    -2.9887  -0.6079   2.0681   4.1157

          k =-0.1250 0.6250 0.1250 (   351 PWs)   bands (ev):

    -4.0848   1.0426   3.3567   3.8041

          k =-0.6250-0.3750 0.1250 (   357 PWs)   bands (ev):

    -3.6718   0.1760   2.7178   4.0792

          k = 0.6250-0.1250 0.8750 (   361 PWs)   bands (ev):

    -2.4529  -0.9152   2.0121   3.0810

          k = 0.1250-1.1250 0.8750 (   358 PWs)   bands (ev):

    -2.6185  -0.8186   2.6167   3.3385

          k = 0.3750 0.1250 0.6250 (   357 PWs)   bands (ev):

    -3.6718   0.1760   2.7178   4.0792

          k =-0.1250-0.8750 0.6250 (   361 PWs)   bands (ev):

    -2.4529  -0.9152   2.0121   3.0810

          k =-0.1250-0.8750 0.1250 (   358 PWs)   bands (ev):

    -2.6185  -0.8186   2.6167   3.3385

          k =-0.6250-1.8750 0.1250 (   351 PWs)   bands (ev):

    -4.0848   1.0426   3.3567   3.8041

          k =-0.3750 0.3750 0.3750 (   353 PWs)   bands (ev):

    -4.1855   0.1004   4.8933   4.8933

          k =-0.8750-0.6250 0.3750 (   357 PWs)   bands (ev):

    -3.6718   0.1760   2.7178   4.0792

          k = 0.3750-0.3750 1.1250 (   361 PWs)   bands (ev):

    -2.9887  -0.6079   2.0681   4.1157

          k =-0.1250-1.3750 1.1250 (   361 PWs)   bands (ev):

    -2.4529  -0.9152   2.0121   3.0810

          k = 0.1250-0.3750 0.3750 (   352 PWs)   bands (ev):

    -4.6155   1.3827   3.7030   5.1988

          k =-0.3750-1.3750 0.3750 (   361 PWs)   bands (ev):

    -3.4830  -0.6855   3.7203   4.4307

          k = 0.3750-0.3750-0.1250 (   352 PWs)   bands (ev):

    -4.6155   1.3827   3.7030   5.1988

          k =-0.1250-1.3750-0.1250 (   351 PWs)   bands (ev):

    -4.0848   1.0426   3.3567   3.8041

          k =-0.6250 0.3750-0.3750 (   361 PWs)   bands (ev):

    -3.4830  -0.6855   3.7203   4.4307

          k =-1.1250-0.6250-0.3750 (   357 PWs)   bands (ev):

    -3.6718   0.1760   2.7178   4.0792

          k =-0.3750 0.3750 0.6250 (   361 PWs)   bands (ev):

    -3.4830  -0.6855   3.7203   4.4307

          k =-0.8750-0.6250 0.6250 (   352 PWs)   bands (ev):

    -4.6155   1.3827   3.7030   5.1988

          k =-0.3750 0.1250-0.1250 (   353 PWs)   bands (ev):

    -5.1121   2.7541   4.6756   4.7381

          k =-0.8750-0.8750-0.1250 (   358 PWs)   bands (ev):

    -2.6185  -0.8186   2.6167   3.3385

          k =-0.1250 0.1250 0.3750 (   353 PWs)   bands (ev):

    -5.1121   2.7541   4.6756   4.7381

          k =-0.6250-0.8750 0.3750 (   357 PWs)   bands (ev):

    -3.6718   0.1760   2.7178   4.0792

          k = 0.1250 0.6250-0.1250 (   351 PWs)   bands (ev):

    -4.0848   1.0426   3.3567   3.8041

          k =-0.3750-0.3750-0.1250 (   352 PWs)   bands (ev):

    -4.6155   1.3827   3.7030   5.1988

          k = 0.6250 0.1250-0.1250 (   351 PWs)   bands (ev):

    -4.0848   1.0426   3.3567   3.8041

          k = 0.1250-0.8750-0.1250 (   358 PWs)   bands (ev):

    -2.6185  -0.8186   2.6167   3.3385

          k =-0.8750 0.1250-0.6250 (   361 PWs)   bands (ev):

    -2.4529  -0.9152   2.0121   3.0810

          k =-1.3750-0.8750-0.6250 (   352 PWs)   bands (ev):

    -4.6155   1.3827   3.7030   5.1988

          k = 0.8750-0.1250 0.6250 (   361 PWs)   bands (ev):

    -2.4529  -0.9152   2.0121   3.0810

          k = 0.3750-1.1250 0.6250 (   357 PWs)   bands (ev):

    -3.6718   0.1760   2.7178   4.0792

          k =-0.6250 0.1250 0.8750 (   361 PWs)   bands (ev):

    -2.4529  -0.9152   2.0121   3.0810

          k =-1.1250-0.8750 0.8750 (   338 PWs)   bands (ev):

    -5.6374   4.3717   5.6803   5.6803

          k =-0.1250 0.8750 0.6250 (   361 PWs)   bands (ev):

    -2.4529  -0.9152   2.0121   3.0810

          k =-0.6250-0.1250 0.6250 (   361 PWs)   bands (ev):

    -2.9887  -0.6079   2.0681   4.1157

          k = 0.1250 0.8750-0.6250 (   361 PWs)   bands (ev):

    -2.4529  -0.9152   2.0121   3.0810

          k =-0.3750-0.1250-0.6250 (   357 PWs)   bands (ev):

    -3.6718   0.1760   2.7178   4.0792

          k =-0.6250-0.1250-0.3750 (   357 PWs)   bands (ev):

    -3.6718   0.1760   2.7178   4.0792

          k =-1.1250-1.1250-0.3750 (   351 PWs)   bands (ev):

    -4.0848   1.0426   3.3567   3.8041

          k = 0.6250 0.1250 0.3750 (   357 PWs)   bands (ev):

    -3.6718   0.1760   2.7178   4.0792

          k = 0.1250-0.8750 0.3750 (   361 PWs)   bands (ev):

    -2.4529  -0.9152   2.0121   3.0810

          k =-0.3750-0.1250 0.6250 (   357 PWs)   bands (ev):

    -3.6718   0.1760   2.7178   4.0792

          k =-0.8750-1.1250 0.6250 (   353 PWs)   bands (ev):

    -5.1121   2.7541   4.6756   4.7381

          k = 0.1250 0.6250 0.3750 (   357 PWs)   bands (ev):

    -3.6718   0.1760   2.7178   4.0792

          k =-0.3750-0.3750 0.3750 (   353 PWs)   bands (ev):

    -4.1855   0.1004   4.8933   4.8933

          k =-0.1250 0.6250-0.3750 (   357 PWs)   bands (ev):

    -3.6718   0.1760   2.7178   4.0792

          k =-0.6250-0.3750-0.3750 (   361 PWs)   bands (ev):

    -3.4830  -0.6855   3.7203   4.4307

          k = 0.1250-0.8750-0.1250 (   358 PWs)   bands (ev):

    -2.6185  -0.8186   2.6167   3.3385

          k =-0.3750-1.8750-0.1250 (   353 PWs)   bands (ev):

    -5.1121   2.7541   4.6756   4.7381

          k =-0.8750 0.1250-0.1250 (   358 PWs)   bands (ev):

    -2.6185  -0.8186   2.6167   3.3385

          k =-1.3750-0.8750-0.1250 (   361 PWs)   bands (ev):

    -2.4529  -0.9152   2.0121   3.0810

          k =-1.1250 0.3750-0.3750 (   361 PWs)   bands (ev):

    -2.9887  -0.6079   2.0681   4.1157

          k =-1.6250-0.6250-0.3750 (   361 PWs)   bands (ev):

    -3.4830  -0.6855   3.7203   4.4307

          k =-0.3750 0.3750 1.1250 (   361 PWs)   bands (ev):

    -2.9887  -0.6079   2.0681   4.1157

          k =-0.8750-0.6250 1.1250 (   353 PWs)   bands (ev):

    -5.1121   2.7541   4.6756   4.7381

     highest occupied level (ev):     5.6803

     Writing output data file silicon.10.3404.save

                                                                                

     bravais-lattice index     =            2
     lattice parameter (alat)  =      10.3404  a.u.
     unit-cell volume          =     276.4089 (a.u.)^3
     number of atoms/cell      =            2
     number of atomic types    =            1
     kinetic-energy cut-off    =      18.0000  Ry
     charge density cut-off    =      72.0000  Ry
     convergence threshold     =      1.0E-12
     beta                      =       0.7000
     number of iterations used =            4
     Exchange-correlation      = SLA  PW   PBE  PBE ( 1  4  3  4 0 0)


     celldm(1)=   10.34040  celldm(2)=    0.00000  celldm(3)=    0.00000
     celldm(4)=    0.00000  celldm(5)=    0.00000  celldm(6)=    0.00000

     crystal axes: (cart. coord. in units of alat)
               a(1) = ( -0.5000  0.0000  0.5000 )  
               a(2) = (  0.0000  0.5000  0.5000 )  
               a(3) = ( -0.5000  0.5000  0.0000 )  

     reciprocal axes: (cart. coord. in units 2 pi/alat)
               b(1) = ( -1.0000 -1.0000  1.0000 )  
               b(2) = (  1.0000  1.0000  1.0000 )  
               b(3) = ( -1.0000  1.0000 -1.0000 )  


     Atoms inside the unit cell: 

     Cartesian axes

     site n.  atom      mass           positions (alat units)
        1     Si  28.0860   tau(    1) = (    0.00000    0.00000    0.00000  )
        2     Si  28.0860   tau(    2) = (    0.25000    0.25000    0.25000  )

     Computing dynamical matrix for 
                    q = (  -0.5000000  -1.0000000   0.0000000 )

      8 Sym.Ops. (no q -> -q+G )


     G cutoff =  195.0058  (    710 G-vectors)     FFT grid: ( 20, 20, 20)
     number of k points=    64

     PseudoPot. # 1 for Si read from file:
     /home/max/quantum_espresso/qe-6.1/pseudo/si_pbe_v1.uspp.F.UPF.txt
     MD5 check sum: a056efeee980c13900f22a371efd63c1
     Pseudo is Ultrasoft + core correction, Zval =  4.0
     Generated by new atomic code, or converted to UPF format
     Using radial grid of  899 points,  6 beta functions with: 
                l(1) =   0
                l(2) =   0
                l(3) =   1
                l(4) =   1
                l(5) =   2
                l(6) =   2
     Q(r) pseudized with  8 coefficients,  rinner =    0.900   0.900   0.900
                                                       0.900   0.900


     Atomic displacements:
     There are   3 irreducible representations

     Representation     1      2 modes -  To be done

     Representation     2      2 modes -  To be done

     Representation     3      2 modes -  To be done



     Alpha used in Ewald sum =   0.7000
     PHONON       :  1m13.75s CPU     1m18.90s WALL



     Representation #  1 modes #   1  2

     Self-consistent Calculation

      iter #   1 total cpu time :    79.1 secs   av.it.:   5.3
      thresh= 1.000E-02 alpha_mix =  0.700 |ddv_scf|^2 =  6.368E-06

      iter #   2 total cpu time :    79.5 secs   av.it.:   9.9
      thresh= 2.523E-04 alpha_mix =  0.700 |ddv_scf|^2 =  3.437E-06

      iter #   3 total cpu time :    79.8 secs   av.it.:   9.2
      thresh= 1.854E-04 alpha_mix =  0.700 |ddv_scf|^2 =  9.056E-09

      iter #   4 total cpu time :    80.1 secs   av.it.:   9.1
      thresh= 9.516E-06 alpha_mix =  0.700 |ddv_scf|^2 =  1.955E-11

      iter #   5 total cpu time :    80.6 secs   av.it.:   9.2
      thresh= 4.422E-07 alpha_mix =  0.700 |ddv_scf|^2 =  5.739E-13

     End of self-consistent calculation

     Convergence has been achieved 


     Representation #  2 modes #   3  4

     Self-consistent Calculation

      iter #   1 total cpu time :    80.8 secs   av.it.:   5.2
      thresh= 1.000E-02 alpha_mix =  0.700 |ddv_scf|^2 =  9.811E-06

      iter #   2 total cpu time :    81.2 secs   av.it.:   9.9
      thresh= 3.132E-04 alpha_mix =  0.700 |ddv_scf|^2 =  1.308E-05

      iter #   3 total cpu time :    81.5 secs   av.it.:   9.1
      thresh= 3.617E-04 alpha_mix =  0.700 |ddv_scf|^2 =  1.054E-08

      iter #   4 total cpu time :    81.8 secs   av.it.:   8.8
      thresh= 1.027E-05 alpha_mix =  0.700 |ddv_scf|^2 =  8.415E-11

      iter #   5 total cpu time :    82.1 secs   av.it.:   9.4
      thresh= 9.173E-07 alpha_mix =  0.700 |ddv_scf|^2 =  1.797E-12

      iter #   6 total cpu time :    82.6 secs   av.it.:   9.1
      thresh= 1.340E-07 alpha_mix =  0.700 |ddv_scf|^2 =  1.471E-14

     End of self-consistent calculation

     Convergence has been achieved 


     Representation #  3 modes #   5  6

     Self-consistent Calculation

      iter #   1 total cpu time :    82.8 secs   av.it.:   5.1
      thresh= 1.000E-02 alpha_mix =  0.700 |ddv_scf|^2 =  2.669E-06

      iter #   2 total cpu time :    83.2 secs   av.it.:   9.7
      thresh= 1.634E-04 alpha_mix =  0.700 |ddv_scf|^2 =  1.452E-06

      iter #   3 total cpu time :    83.5 secs   av.it.:   9.0
      thresh= 1.205E-04 alpha_mix =  0.700 |ddv_scf|^2 =  8.770E-09

      iter #   4 total cpu time :    83.8 secs   av.it.:   8.7
      thresh= 9.365E-06 alpha_mix =  0.700 |ddv_scf|^2 =  4.394E-11

      iter #   5 total cpu time :    84.1 secs   av.it.:   9.1
      thresh= 6.629E-07 alpha_mix =  0.700 |ddv_scf|^2 =  6.901E-13

     End of self-consistent calculation

     Convergence has been achieved 

     Number of q in the star =    6
     List of q in the star:
          1  -0.500000000  -1.000000000   0.000000000
          2   0.000000000   1.000000000   0.500000000
          3   0.000000000  -1.000000000  -0.500000000
          4   0.500000000   1.000000000   0.000000000
          5  -1.000000000  -0.500000000   0.000000000
          6   0.000000000  -0.500000000  -1.000000000

     Diagonalizing the dynamical matrix

     q = (   -0.500000000  -1.000000000   0.000000000 ) 

 **************************************************************************
     freq (    1) =       7.324973 [THz] =     244.334810 [cm-1]
     freq (    2) =       7.324973 [THz] =     244.334810 [cm-1]
     freq (    3) =      10.951381 [THz] =     365.298737 [cm-1]
     freq (    4) =      10.951381 [THz] =     365.298737 [cm-1]
     freq (    5) =      13.880442 [THz] =     463.001718 [cm-1]
     freq (    6) =      13.880442 [THz] =     463.001718 [cm-1]
 **************************************************************************

     init_run     :      0.52s CPU      0.54s WALL (       7 calls)
     electrons    :      4.94s CPU      5.35s WALL (       7 calls)

     Called by init_run:
     wfcinit      :      0.00s CPU      0.00s WALL (       7 calls)
     potinit      :      0.02s CPU      0.02s WALL (       7 calls)

     Called by electrons:
     c_bands      :      4.94s CPU      5.33s WALL (       7 calls)
     v_of_rho     :      0.01s CPU      0.01s WALL (       8 calls)
     newd         :      0.03s CPU      0.03s WALL (       8 calls)

     Called by c_bands:
     init_us_2    :      0.67s CPU      0.71s WALL (   17588 calls)
     cegterg      :      4.15s CPU      4.47s WALL (     796 calls)

     Called by sum_band:

     Called by *egterg:
     h_psi        :     43.20s CPU     45.94s WALL (  152096 calls)
     s_psi        :      5.76s CPU      6.12s WALL (  308912 calls)
     g_psi        :      0.03s CPU      0.03s WALL (    9268 calls)
     cdiaghg      :      0.47s CPU      0.52s WALL (   10064 calls)

     Called by h_psi:
     h_psi:pot    :     43.02s CPU     45.74s WALL (  152096 calls)
     h_psi:calbec :      4.46s CPU      4.76s WALL (  152096 calls)
     vloc_psi     :     35.47s CPU     37.71s WALL (  152096 calls)
     add_vuspsi   :      2.88s CPU      3.05s WALL (  152096 calls)

     General routines
     calbec       :      9.73s CPU     10.62s WALL (  345284 calls)
     fft          :      0.48s CPU      0.55s WALL (    5239 calls)
     ffts         :      0.17s CPU      0.18s WALL (    2748 calls)
     fftw         :     41.06s CPU     43.69s WALL ( 1377722 calls)
     davcio       :      0.30s CPU      0.33s WALL (   79045 calls)

     Parallel routines
     fft_scatter  :      9.49s CPU     10.33s WALL ( 1385709 calls)

     PHONON       :  1m18.61s CPU     1m24.09s WALL

     INITIALIZATION: 
     phq_setup    :      0.06s CPU      0.06s WALL (       8 calls)
     phq_init     :      1.99s CPU      2.13s WALL (       8 calls)

     phq_init     :      1.99s CPU      2.13s WALL (       8 calls)
     set_drhoc    :      0.29s CPU      0.32s WALL (      24 calls)
     init_vloc    :      0.01s CPU      0.01s WALL (       8 calls)
     init_us_1    :      0.48s CPU      0.48s WALL (       8 calls)
     newd         :      0.03s CPU      0.03s WALL (       8 calls)
     dvanqq       :      0.23s CPU      0.23s WALL (       8 calls)
     drho         :      0.98s CPU      1.00s WALL (       8 calls)

     DYNAMICAL MATRIX:
     dynmat0      :      0.49s CPU      0.54s WALL (       8 calls)
     phqscf       :     68.67s CPU     73.51s WALL (       8 calls)
     dynmatrix    :      0.01s CPU      0.02s WALL (       8 calls)

     phqscf       :     68.67s CPU     73.51s WALL (       8 calls)
     solve_linter :     68.00s CPU     72.80s WALL (      32 calls)
     drhodv       :      0.47s CPU      0.49s WALL (      32 calls)

     dynmat0      :      0.49s CPU      0.54s WALL (       8 calls)
     dynmat_us    :      0.27s CPU      0.28s WALL (       8 calls)
     d2ionq       :      0.01s CPU      0.01s WALL (       8 calls)
     dynmatcc     :      0.20s CPU      0.23s WALL (       8 calls)

     dynmat_us    :      0.27s CPU      0.28s WALL (       8 calls)
     addusdynmat  :      0.00s CPU      0.00s WALL (       8 calls)

     phqscf       :     68.67s CPU     73.51s WALL (       8 calls)
     solve_linter :     68.00s CPU     72.80s WALL (      32 calls)

     solve_linter :     68.00s CPU     72.80s WALL (      32 calls)
     dvqpsi_us    :      1.71s CPU      1.79s WALL (    2508 calls)
     ortho        :      1.01s CPU      1.10s WALL (   15550 calls)
     cgsolve      :     53.21s CPU     57.01s WALL (   15550 calls)
     incdrhoscf   :      4.55s CPU      4.87s WALL (   15550 calls)
     addusddens   :      1.13s CPU      1.17s WALL (     228 calls)
     vpsifft      :      3.38s CPU      3.61s WALL (   12922 calls)
     dv_of_drho   :      0.28s CPU      0.32s WALL (     295 calls)
     mix_pot      :      0.06s CPU      0.08s WALL (     201 calls)
     psymdvscf    :      0.80s CPU      0.82s WALL (     196 calls)
     newdq        :      1.25s CPU      1.31s WALL (     201 calls)
     adddvscf     :      0.46s CPU      0.50s WALL (   13042 calls)
     drhodvus     :      0.00s CPU      0.00s WALL (      32 calls)

     dvqpsi_us    :      1.71s CPU      1.79s WALL (    2508 calls)
     dvqpsi_us_on :      0.81s CPU      0.85s WALL (    2508 calls)

     cgsolve      :     53.21s CPU     57.01s WALL (   15550 calls)
     ch_psi       :     51.23s CPU     54.68s WALL (  141236 calls)

     ch_psi       :     51.23s CPU     54.68s WALL (  141236 calls)
     h_psi        :     43.20s CPU     45.94s WALL (  152096 calls)
     last         :      8.43s CPU      9.23s WALL (  141236 calls)

     h_psi        :     43.20s CPU     45.94s WALL (  152096 calls)
     add_vuspsi   :      2.88s CPU      3.05s WALL (  152096 calls)

     incdrhoscf   :      4.55s CPU      4.87s WALL (   15550 calls)
     addusdbec    :      0.63s CPU      0.67s WALL (   17998 calls)

     drhodvus     :      0.00s CPU      0.00s WALL (      32 calls)

      General routines
     calbec       :      9.73s CPU     10.62s WALL (  345284 calls)
     fft          :      0.48s CPU      0.55s WALL (    5239 calls)
     ffts         :      0.17s CPU      0.18s WALL (    2748 calls)
     fftw         :     41.06s CPU     43.69s WALL ( 1377722 calls)
     davcio       :      0.30s CPU      0.33s WALL (   79045 calls)
     write_rec    :      0.21s CPU      0.22s WALL (     233 calls)


     PHONON       :  1m18.61s CPU     1m24.10s WALL


   This run was terminated on:  15:58:29   9Nov2017            

=------------------------------------------------------------------------------=
   JOB DONE.
=------------------------------------------------------------------------------=
