
     Program PWSCF v.6.1 (svn rev. 13369) starts on 10Nov2017 at 12: 8: 7 

     This program is part of the open-source Quantum ESPRESSO suite
     for quantum simulation of materials; please cite
         "P. Giannozzi et al., J. Phys.:Condens. Matter 21 395502 (2009);
          URL http://www.quantum-espresso.org", 
     in publications or presentations arising from this work. More details at
     http://www.quantum-espresso.org/quote

     Parallel version (MPI), running on     4 processors
     R & G space division:  proc/nbgrp/npool/nimage =       4
     Waiting for input...
     Reading input from standard input
     Message from routine read_cards :
     DEPRECATED: no units specified in ATOMIC_POSITIONS card
     Message from routine read_cards :
     ATOMIC_POSITIONS: units set to alat

     Current dimensions of program PWSCF are:
     Max number of different atomic species (ntypx) = 10
     Max number of k-points (npk) =  40000
     Max angular momentum in pseudopotentials (lmaxx) =  3

     Subspace diagonalization in iterative solution of the eigenvalue problem:
     a serial algorithm will be used


     Parallelization info
     --------------------
     sticks:   dense  smooth     PW     G-vecs:    dense   smooth      PW
     Min         201      99     31                 3710     1302     241
     Max         202     100     32                 3711     1303     242
     Sum         805     397    127                14841     5209     965



     bravais-lattice index     =            2
     lattice parameter (alat)  =      10.3330  a.u.
     unit-cell volume          =     275.8159 (a.u.)^3
     number of atoms/cell      =            2
     number of atomic types    =            1
     number of electrons       =         8.00
     number of Kohn-Sham states=            4
     kinetic-energy cutoff     =      27.0000  Ry
     charge density cutoff     =     216.0000  Ry
     convergence threshold     =      1.0E-08
     mixing beta               =       0.7000
     number of iterations used =            8  plain     mixing
     Exchange-correlation      = SLA  PW   PBE  PBE ( 1  4  3  4 0 0)

     celldm(1)=  10.333000  celldm(2)=   0.000000  celldm(3)=   0.000000
     celldm(4)=   0.000000  celldm(5)=   0.000000  celldm(6)=   0.000000

     crystal axes: (cart. coord. in units of alat)
               a(1) = (  -0.500000   0.000000   0.500000 )  
               a(2) = (   0.000000   0.500000   0.500000 )  
               a(3) = (  -0.500000   0.500000   0.000000 )  

     reciprocal axes: (cart. coord. in units 2 pi/alat)
               b(1) = ( -1.000000 -1.000000  1.000000 )  
               b(2) = (  1.000000  1.000000  1.000000 )  
               b(3) = ( -1.000000  1.000000 -1.000000 )  


     PseudoPot. # 1 for Si read from file:
     /home/max/quantum_espresso/qe-6.1/pseudo/si_pbe_v1.uspp.F.UPF.txt
     MD5 check sum: a056efeee980c13900f22a371efd63c1
     Pseudo is Ultrasoft + core correction, Zval =  4.0
     Generated by new atomic code, or converted to UPF format
     Using radial grid of  899 points,  6 beta functions with: 
                l(1) =   0
                l(2) =   0
                l(3) =   1
                l(4) =   1
                l(5) =   2
                l(6) =   2
     Q(r) pseudized with  8 coefficients,  rinner =    0.900   0.900   0.900
                                                       0.900   0.900

     atomic species   valence    mass     pseudopotential
        Si             4.00    28.08600     Si( 1.00)

     48 Sym. Ops., with inversion, found (24 have fractional translation)



   Cartesian axes

     site n.     atom                  positions (alat units)
         1           Si  tau(   1) = (   0.0000000   0.0000000   0.0000000  )
         2           Si  tau(   2) = (   0.2500000   0.2500000   0.2500000  )

     number of k points=    28
                       cart. coord. in units 2pi/alat
        k(    1) = (  -0.0833333   0.0833333   0.0833333), wk =   0.0185185
        k(    2) = (  -0.2500000   0.2500000  -0.0833333), wk =   0.0555556
        k(    3) = (  -0.4166667   0.4166667  -0.2500000), wk =   0.0555556
        k(    4) = (   0.4166667  -0.4166667   0.5833333), wk =   0.0555556
        k(    5) = (   0.2500000  -0.2500000   0.4166667), wk =   0.0555556
        k(    6) = (   0.0833333  -0.0833333   0.2500000), wk =   0.0555556
        k(    7) = (  -0.0833333   0.4166667   0.0833333), wk =   0.0555556
        k(    8) = (  -0.2500000   0.5833333  -0.0833333), wk =   0.1111111
        k(    9) = (   0.5833333  -0.2500000   0.7500000), wk =   0.1111111
        k(   10) = (   0.4166667  -0.0833333   0.5833333), wk =   0.1111111
        k(   11) = (   0.2500000   0.0833333   0.4166667), wk =   0.1111111
        k(   12) = (  -0.0833333   0.7500000   0.0833333), wk =   0.0555556
        k(   13) = (   0.7500000  -0.0833333   0.9166667), wk =   0.1111111
        k(   14) = (   0.5833333   0.0833333   0.7500000), wk =   0.1111111
        k(   15) = (   0.4166667   0.2500000   0.5833333), wk =   0.1111111
        k(   16) = (  -0.0833333  -0.9166667   0.0833333), wk =   0.0555556
        k(   17) = (  -0.2500000  -0.7500000  -0.0833333), wk =   0.1111111
        k(   18) = (  -0.0833333  -0.5833333   0.0833333), wk =   0.0555556
        k(   19) = (  -0.2500000   0.2500000   0.2500000), wk =   0.0185185
        k(   20) = (  -0.4166667   0.4166667   0.0833333), wk =   0.0555556
        k(   21) = (   0.4166667  -0.4166667   0.9166667), wk =   0.0555556
        k(   22) = (   0.2500000  -0.2500000   0.7500000), wk =   0.0555556
        k(   23) = (  -0.2500000   0.5833333   0.2500000), wk =   0.0555556
        k(   24) = (   0.5833333  -0.2500000   1.0833333), wk =   0.1111111
        k(   25) = (   0.4166667  -0.0833333   0.9166667), wk =   0.1111111
        k(   26) = (  -0.2500000  -1.0833333   0.2500000), wk =   0.0555556
        k(   27) = (  -0.4166667   0.4166667   0.4166667), wk =   0.0185185
        k(   28) = (   0.4166667  -0.4166667   1.2500000), wk =   0.0555556

     Dense  grid:    14841 G-vectors     FFT dimensions: (  36,  36,  36)

     Smooth grid:     5209 G-vectors     FFT dimensions: (  25,  25,  25)

     Estimated max dynamical RAM per process >       2.74MB

     Estimated total allocated dynamical RAM >      10.94MB

     Initial potential from superposition of free atoms

     starting charge    7.99866, renormalised to    8.00000
     Starting wfc are    8 randomized atomic wfcs

     total cpu time spent up to now is        0.4 secs

     per-process dynamical memory:     9.7 Mb

     Self-consistent Calculation

     iteration #  1     ecut=    27.00 Ry     beta=0.70
     Davidson diagonalization with overlap
     ethr =  1.00E-02,  avg # of iterations =  2.0

     Threshold (ethr) on eigenvalues was too large:
     Diagonalizing with lowered threshold

     Davidson diagonalization with overlap
     ethr =  6.76E-04,  avg # of iterations =  1.0

     total cpu time spent up to now is        0.7 secs

     total energy              =     -19.19120037 Ry
     Harris-Foulkes estimate   =     -19.20365917 Ry
     estimated scf accuracy    <       0.05367561 Ry

     iteration #  2     ecut=    27.00 Ry     beta=0.70
     Davidson diagonalization with overlap
     ethr =  6.71E-04,  avg # of iterations =  1.0

     total cpu time spent up to now is        0.9 secs

     total energy              =     -19.19297786 Ry
     Harris-Foulkes estimate   =     -19.19314427 Ry
     estimated scf accuracy    <       0.00244585 Ry

     iteration #  3     ecut=    27.00 Ry     beta=0.70
     Davidson diagonalization with overlap
     ethr =  3.06E-05,  avg # of iterations =  2.1

     total cpu time spent up to now is        1.1 secs

     total energy              =     -19.19331617 Ry
     Harris-Foulkes estimate   =     -19.19332924 Ry
     estimated scf accuracy    <       0.00004200 Ry

     iteration #  4     ecut=    27.00 Ry     beta=0.70
     Davidson diagonalization with overlap
     ethr =  5.25E-07,  avg # of iterations =  3.2

     total cpu time spent up to now is        1.3 secs

     total energy              =     -19.19335261 Ry
     Harris-Foulkes estimate   =     -19.19335342 Ry
     estimated scf accuracy    <       0.00000299 Ry

     iteration #  5     ecut=    27.00 Ry     beta=0.70
     Davidson diagonalization with overlap
     ethr =  3.73E-08,  avg # of iterations =  2.0

     total cpu time spent up to now is        1.5 secs

     total energy              =     -19.19335302 Ry
     Harris-Foulkes estimate   =     -19.19335302 Ry
     estimated scf accuracy    <       0.00000001 Ry

     iteration #  6     ecut=    27.00 Ry     beta=0.70
     Davidson diagonalization with overlap
     ethr =  1.59E-10,  avg # of iterations =  3.9

     total cpu time spent up to now is        2.0 secs

     End of self-consistent calculation

          k =-0.0833 0.0833 0.0833 (   640 PWs)   bands (ev):

    -5.7492   5.1213   5.8394   5.8394

          k =-0.2500 0.2500-0.0833 (   646 PWs)   bands (ev):

    -5.2796   3.0550   4.6224   5.6301

          k =-0.4167 0.4167-0.2500 (   644 PWs)   bands (ev):

    -4.2053   0.3303   4.1597   5.0016

          k = 0.4167-0.4167 0.5833 (   651 PWs)   bands (ev):

    -3.5221  -0.7934   4.2225   4.6273

          k = 0.2500-0.2500 0.4167 (   639 PWs)   bands (ev):

    -4.6099   1.1646   4.6884   4.7149

          k = 0.0833-0.0833 0.2500 (   653 PWs)   bands (ev):

    -5.5120   4.0553   5.2044   5.3826

          k =-0.0833 0.4167 0.0833 (   655 PWs)   bands (ev):

    -5.0419   2.8583   4.4662   4.4852

          k =-0.2500 0.5833-0.0833 (   652 PWs)   bands (ev):

    -4.1456   1.0388   3.1703   4.1029

          k = 0.5833-0.2500 0.7500 (   657 PWs)   bands (ev):

    -3.0512  -0.6791   2.5727   3.8804

          k = 0.4167-0.0833 0.5833 (   655 PWs)   bands (ev):

    -3.7583   0.3580   2.5371   4.3578

          k = 0.2500 0.0833 0.4167 (   647 PWs)   bands (ev):

    -4.8200   2.0371   3.8566   5.0134

          k =-0.0833 0.7500 0.0833 (   656 PWs)   bands (ev):

    -3.4441   0.2138   3.1375   3.4700

          k = 0.7500-0.0833 0.9167 (   657 PWs)   bands (ev):

    -2.2680  -1.1088   2.3122   3.0721

          k = 0.5833 0.0833 0.7500 (   661 PWs)   bands (ev):

    -2.6372  -0.7707   1.8353   3.6088

          k = 0.4167 0.2500 0.5833 (   652 PWs)   bands (ev):

    -3.6499  -0.3054   3.4568   4.4533

          k =-0.0833-0.9167 0.0833 (   658 PWs)   bands (ev):

    -2.3565  -1.1159   2.8722   3.2574

          k =-0.2500-0.7500-0.0833 (   659 PWs)   bands (ev):

    -3.2792  -0.0051   2.6258   3.4076

          k =-0.0833-0.5833 0.0833 (   651 PWs)   bands (ev):

    -4.3475   1.5648   3.6727   3.8868

          k =-0.2500 0.2500 0.2500 (   640 PWs)   bands (ev):

    -5.0537   2.0914   5.2336   5.2336

          k =-0.4167 0.4167 0.0833 (   643 PWs)   bands (ev):

    -4.3852   1.1595   3.1344   5.0654

          k = 0.4167-0.4167 0.9167 (   662 PWs)   bands (ev):

    -3.2267  -0.2682   2.0468   4.2919

          k = 0.2500-0.2500 0.7500 (   655 PWs)   bands (ev):

    -3.1745  -0.3468   2.5155   3.8178

          k =-0.2500 0.5833 0.2500 (   649 PWs)   bands (ev):

    -3.9682   0.3650   3.5849   4.1856

          k = 0.5833-0.2500 1.0833 (   659 PWs)   bands (ev):

    -2.9829  -0.3858   2.1463   3.4070

          k = 0.4167-0.0833 0.9167 (   662 PWs)   bands (ev):

    -2.1655  -1.1165   1.9891   2.7517

          k =-0.2500-1.0833 0.2500 (   660 PWs)   bands (ev):

    -2.3734  -1.0194   1.8647   3.6260

          k =-0.4167 0.4167 0.4167 (   646 PWs)   bands (ev):

    -3.8832  -0.3995   4.8487   4.8487

          k = 0.4167-0.4167 1.2500 (   656 PWs)   bands (ev):

    -3.2896  -0.7020   3.0383   4.4165

     highest occupied level (ev):     5.8394

!    total energy              =     -19.19335305 Ry
     Harris-Foulkes estimate   =     -19.19335306 Ry
     estimated scf accuracy    <          1.0E-09 Ry

     The total energy is the sum of the following terms:

     one-electron contribution =       4.95203940 Ry
     hartree contribution      =       1.13379411 Ry
     xc contribution           =      -8.59695124 Ry
     ewald contribution        =     -16.68223533 Ry

     convergence has been achieved in   6 iterations


     Computing stress (Cartesian axis) and pressure

          total   stress  (Ry/bohr**3)                   (kbar)     P=    0.02
   0.00000013   0.00000000  -0.00000000          0.02      0.00     -0.00
   0.00000000   0.00000013  -0.00000000          0.00      0.02     -0.00
   0.00000000  -0.00000000   0.00000013          0.00     -0.00      0.02


     Writing output data file silicon.27.save

     init_run     :      0.32s CPU      0.34s WALL (       1 calls)
     electrons    :      1.27s CPU      1.60s WALL (       1 calls)
     stress       :      0.26s CPU      0.27s WALL (       1 calls)

     Called by init_run:
     wfcinit      :      0.07s CPU      0.07s WALL (       1 calls)
     potinit      :      0.02s CPU      0.03s WALL (       1 calls)

     Called by electrons:
     c_bands      :      0.78s CPU      1.06s WALL (       7 calls)
     sum_band     :      0.27s CPU      0.30s WALL (       7 calls)
     v_of_rho     :      0.09s CPU      0.12s WALL (       7 calls)
     newd         :      0.14s CPU      0.14s WALL (       7 calls)
     mix_rho      :      0.01s CPU      0.01s WALL (       7 calls)

     Called by c_bands:
     init_us_2    :      0.05s CPU      0.06s WALL (     448 calls)
     cegterg      :      0.67s CPU      0.92s WALL (     196 calls)

     Called by sum_band:
     sum_band:bec :      0.00s CPU      0.00s WALL (     196 calls)
     addusdens    :      0.13s CPU      0.14s WALL (       7 calls)

     Called by *egterg:
     h_psi        :      0.55s CPU      0.71s WALL (     654 calls)
     s_psi        :      0.05s CPU      0.05s WALL (     654 calls)
     g_psi        :      0.00s CPU      0.00s WALL (     430 calls)
     cdiaghg      :      0.05s CPU      0.08s WALL (     598 calls)

     Called by h_psi:
     h_psi:pot    :      0.54s CPU      0.71s WALL (     654 calls)
     h_psi:calbec :      0.07s CPU      0.11s WALL (     654 calls)
     vloc_psi     :      0.43s CPU      0.54s WALL (     654 calls)
     add_vuspsi   :      0.05s CPU      0.05s WALL (     654 calls)

     General routines
     calbec       :      0.08s CPU      0.13s WALL (     878 calls)
     fft          :      0.07s CPU      0.09s WALL (     126 calls)
     ffts         :      0.00s CPU      0.00s WALL (      14 calls)
     fftw         :      0.42s CPU      0.54s WALL (    5688 calls)
     interpolate  :      0.01s CPU      0.01s WALL (      14 calls)
     davcio       :      0.00s CPU      0.00s WALL (      28 calls)

     Parallel routines
     fft_scatter  :      0.13s CPU      0.24s WALL (    5828 calls)

     PWSCF        :     2.06s CPU         2.44s WALL


   This run was terminated on:  12: 8: 9  10Nov2017            

=------------------------------------------------------------------------------=
   JOB DONE.
=------------------------------------------------------------------------------=
