
     Program PHONON v.6.1 (svn rev. 13369) starts on 10Nov2017 at 15:28:27 

     This program is part of the open-source Quantum ESPRESSO suite
     for quantum simulation of materials; please cite
         "P. Giannozzi et al., J. Phys.:Condens. Matter 21 395502 (2009);
          URL http://www.quantum-espresso.org", 
     in publications or presentations arising from this work. More details at
     http://www.quantum-espresso.org/quote

     Parallel version (MPI), running on     4 processors
     R & G space division:  proc/nbgrp/npool/nimage =       4

     Reading data from directory:
     ./silicon.10.296.save

   Info: using nr1, nr2, nr3 values from input

   Info: using nr1, nr2, nr3 values from input

     IMPORTANT: XC functional enforced from input :
     Exchange-correlation      = SLA  PW   PBE  PBE ( 1  4  3  4 0 0)
     Any further DFT definition will be discarded
     Please, verify this is what you really want


     Parallelization info
     --------------------
     sticks:   dense  smooth     PW     G-vecs:    dense   smooth      PW
     Min         217     108     37                 4288     1495     284
     Max         219     109     38                 4289     1498     285
     Sum         871     433    151                17153     5985    1139



     Dynamical matrices for ( 4, 4, 4)  uniform grid of q-points
     (   8q-points):
       N         xq(1)         xq(2)         xq(3) 
       1   0.000000000   0.000000000   0.000000000
       2  -0.250000000   0.250000000  -0.250000000
       3   0.500000000  -0.500000000   0.500000000
       4   0.000000000   0.500000000   0.000000000
       5   0.750000000  -0.250000000   0.750000000
       6   0.500000000   0.000000000   0.500000000
       7   0.000000000  -1.000000000   0.000000000
       8  -0.500000000  -1.000000000   0.000000000

     Calculation of q =    0.0000000   0.0000000   0.0000000

                                                                                

     bravais-lattice index     =            2
     lattice parameter (alat)  =      10.2960  a.u.
     unit-cell volume          =     272.8636 (a.u.)^3
     number of atoms/cell      =            2
     number of atomic types    =            1
     kinetic-energy cut-off    =      30.0000  Ry
     charge density cut-off    =     240.0000  Ry
     convergence threshold     =      1.0E-12
     beta                      =       0.7000
     number of iterations used =            4
     Exchange-correlation      = SLA  PW   PBE  PBE ( 1  4  3  4 0 0)


     celldm(1)=   10.29600  celldm(2)=    0.00000  celldm(3)=    0.00000
     celldm(4)=    0.00000  celldm(5)=    0.00000  celldm(6)=    0.00000

     crystal axes: (cart. coord. in units of alat)
               a(1) = ( -0.5000  0.0000  0.5000 )  
               a(2) = (  0.0000  0.5000  0.5000 )  
               a(3) = ( -0.5000  0.5000  0.0000 )  

     reciprocal axes: (cart. coord. in units 2 pi/alat)
               b(1) = ( -1.0000 -1.0000  1.0000 )  
               b(2) = (  1.0000  1.0000  1.0000 )  
               b(3) = ( -1.0000  1.0000 -1.0000 )  


     Atoms inside the unit cell: 

     Cartesian axes

     site n.  atom      mass           positions (alat units)
        1     Si  28.0860   tau(    1) = (    0.00000    0.00000    0.00000  )
        2     Si  28.0860   tau(    2) = (    0.25000    0.25000    0.25000  )

     Computing dynamical matrix for 
                    q = (   0.0000000   0.0000000   0.0000000 )

     49 Sym.Ops. (with q -> -q+G )


     G cutoff =  644.4490  (   4288 G-vectors)     FFT grid: ( 36, 36, 36)
     G cutoff =  322.2245  (   1497 G-vectors)  smooth grid: ( 25, 25, 25)
     number of k points=    10

     PseudoPot. # 1 for Si read from file:
     /home/s1333534/quantum_espresso/qe-6.1/pseudo/si_pbe_v1.uspp.F.UPF.txt
     MD5 check sum: a056efeee980c13900f22a371efd63c1
     Pseudo is Ultrasoft + core correction, Zval =  4.0
     Generated by new atomic code, or converted to UPF format
     Using radial grid of  899 points,  6 beta functions with: 
                l(1) =   0
                l(2) =   0
                l(3) =   1
                l(4) =   1
                l(5) =   2
                l(6) =   2
     Q(r) pseudized with  8 coefficients,  rinner =    0.900   0.900   0.900
                                                       0.900   0.900

     Mode symmetry, O_h (m-3m)  point group:


     Electric field:
     Dielectric constant
     Born effective charges in two ways 


     Atomic displacements:
     There are   2 irreducible representations

     Representation     1      3 modes -T_2g G_25' G_5+  To be done

     Representation     2      3 modes -T_1u G_15  G_4-  To be done



     Alpha used in Ewald sum =   2.5000
     PHONON       :     0.95s CPU         1.23s WALL


     Electric Fields Calculation

      iter #   1 total cpu time :     2.2 secs   av.it.:   5.7
      thresh= 1.000E-02 alpha_mix =  0.700 |ddv_scf|^2 =  1.336E-07

      iter #   2 total cpu time :     2.8 secs   av.it.:  11.7
      thresh= 3.655E-05 alpha_mix =  0.700 |ddv_scf|^2 =  7.748E-09

      iter #   3 total cpu time :     3.4 secs   av.it.:  11.4
      thresh= 8.802E-06 alpha_mix =  0.700 |ddv_scf|^2 =  5.101E-10

      iter #   4 total cpu time :     4.0 secs   av.it.:  10.3
      thresh= 2.259E-06 alpha_mix =  0.700 |ddv_scf|^2 =  3.278E-12

      iter #   5 total cpu time :     4.6 secs   av.it.:  11.1
      thresh= 1.811E-07 alpha_mix =  0.700 |ddv_scf|^2 =  3.269E-15

     End of electric fields calculation

          Dielectric constant in cartesian axis 

          (      13.893893894      -0.000000000      -0.000000000 )
          (      -0.000000000      13.893893894      -0.000000000 )
          (      -0.000000000      -0.000000000      13.893893894 )

          Effective charges (d Force / dE) in cartesian axis

           atom      1   Si 
      Ex  (       -0.03917        0.00000       -0.00000 )
      Ey  (        0.00000       -0.03917        0.00000 )
      Ez  (       -0.00000        0.00000       -0.03917 )
           atom      2   Si 
      Ex  (       -0.03917        0.00000        0.00000 )
      Ey  (        0.00000       -0.03917        0.00000 )
      Ez  (        0.00000        0.00000       -0.03917 )


     Representation #  1 modes #   1  2  3

     Self-consistent Calculation

      iter #   1 total cpu time :     5.8 secs   av.it.:   5.1
      thresh= 1.000E-02 alpha_mix =  0.700 |ddv_scf|^2 =  2.356E-08

      iter #   2 total cpu time :     6.5 secs   av.it.:  11.5
      thresh= 1.535E-05 alpha_mix =  0.700 |ddv_scf|^2 =  9.676E-10

      iter #   3 total cpu time :     7.1 secs   av.it.:  11.1
      thresh= 3.111E-06 alpha_mix =  0.700 |ddv_scf|^2 =  6.578E-11

      iter #   4 total cpu time :     7.7 secs   av.it.:  10.1
      thresh= 8.111E-07 alpha_mix =  0.700 |ddv_scf|^2 =  1.599E-13

     End of self-consistent calculation

     Convergence has been achieved 


     Representation #  2 modes #   4  5  6

     Self-consistent Calculation

      iter #   1 total cpu time :     8.5 secs   av.it.:   5.2
      thresh= 1.000E-02 alpha_mix =  0.700 |ddv_scf|^2 =  1.859E-08

      iter #   2 total cpu time :     9.2 secs   av.it.:  11.6
      thresh= 1.364E-05 alpha_mix =  0.700 |ddv_scf|^2 =  1.096E-09

      iter #   3 total cpu time :     9.8 secs   av.it.:  11.1
      thresh= 3.311E-06 alpha_mix =  0.700 |ddv_scf|^2 =  6.779E-11

      iter #   4 total cpu time :    10.4 secs   av.it.:  11.3
      thresh= 8.234E-07 alpha_mix =  0.700 |ddv_scf|^2 =  2.607E-13

     End of self-consistent calculation

     Convergence has been achieved 

     Number of q in the star =    1
     List of q in the star:
          1   0.000000000   0.000000000   0.000000000

          Dielectric constant in cartesian axis 

          (      13.893893894      -0.000000000      -0.000000000 )
          (      -0.000000000      13.893893894      -0.000000000 )
          (      -0.000000000      -0.000000000      13.893893894 )

          Effective charges (d Force / dE) in cartesian axis

           atom      1   Si 
      Ex  (       -0.03917        0.00000       -0.00000 )
      Ey  (        0.00000       -0.03917        0.00000 )
      Ez  (       -0.00000        0.00000       -0.03917 )
           atom      2   Si 
      Ex  (       -0.03917        0.00000        0.00000 )
      Ey  (        0.00000       -0.03917        0.00000 )
      Ez  (        0.00000        0.00000       -0.03917 )

          Effective charges (d P / du) in cartesian axis 

           atom      1   Si 
      Px  (       -0.07201       -0.00000       -0.00000 )
      Py  (       -0.00000       -0.07201        0.00000 )
      Pz  (       -0.00000        0.00000       -0.07201 )
           atom      2   Si 
      Px  (       -0.07201       -0.00000       -0.00000 )
      Py  (       -0.00000       -0.07201        0.00000 )
      Pz  (       -0.00000        0.00000       -0.07201 )

     Diagonalizing the dynamical matrix

     q = (    0.000000000   0.000000000   0.000000000 ) 

 **************************************************************************
     freq (    1) =      -0.468062 [THz] =     -15.612856 [cm-1]
     freq (    2) =      -0.468062 [THz] =     -15.612856 [cm-1]
     freq (    3) =      -0.468062 [THz] =     -15.612856 [cm-1]
     freq (    4) =      15.230815 [THz] =     508.045291 [cm-1]
     freq (    5) =      15.230815 [THz] =     508.045291 [cm-1]
     freq (    6) =      15.230815 [THz] =     508.045291 [cm-1]
 **************************************************************************

     Mode symmetry, O_h (m-3m)  point group:

     freq (  1 -  3) =        -15.6  [cm-1]   --> T_1u G_15  G_4- I  
     freq (  4 -  6) =        508.0  [cm-1]   --> T_2g G_25' G_5+ R  

     Calculation of q =   -0.2500000   0.2500000  -0.2500000

   Info: using nr1, nr2, nr3 values from input

   Info: using nr1, nr2, nr3 values from input

     Parallelization info
     --------------------
     sticks:   dense  smooth     PW     G-vecs:    dense   smooth      PW
     Min         217     108     37                 4287     1495     309
     Max         218     109     38                 4289     1498     312
     Sum         871     433    151                17153     5985    1243



     bravais-lattice index     =            2
     lattice parameter (alat)  =      10.2960  a.u.
     unit-cell volume          =     272.8636 (a.u.)^3
     number of atoms/cell      =            2
     number of atomic types    =            1
     number of electrons       =         8.00
     number of Kohn-Sham states=            4
     kinetic-energy cutoff     =      30.0000  Ry
     charge density cutoff     =     240.0000  Ry
     Exchange-correlation      = SLA  PW   PBE  PBE ( 1  4  3  4 0 0)

     celldm(1)=  10.296000  celldm(2)=   0.000000  celldm(3)=   0.000000
     celldm(4)=   0.000000  celldm(5)=   0.000000  celldm(6)=   0.000000

     crystal axes: (cart. coord. in units of alat)
               a(1) = (  -0.500000   0.000000   0.500000 )  
               a(2) = (   0.000000   0.500000   0.500000 )  
               a(3) = (  -0.500000   0.500000   0.000000 )  

     reciprocal axes: (cart. coord. in units 2 pi/alat)
               b(1) = ( -1.000000 -1.000000  1.000000 )  
               b(2) = (  1.000000  1.000000  1.000000 )  
               b(3) = ( -1.000000  1.000000 -1.000000 )  


     PseudoPot. # 1 for Si read from file:
     /home/s1333534/quantum_espresso/qe-6.1/pseudo/si_pbe_v1.uspp.F.UPF.txt
     MD5 check sum: a056efeee980c13900f22a371efd63c1
     Pseudo is Ultrasoft + core correction, Zval =  4.0
     Generated by new atomic code, or converted to UPF format
     Using radial grid of  899 points,  6 beta functions with: 
                l(1) =   0
                l(2) =   0
                l(3) =   1
                l(4) =   1
                l(5) =   2
                l(6) =   2
     Q(r) pseudized with  8 coefficients,  rinner =    0.900   0.900   0.900
                                                       0.900   0.900

     atomic species   valence    mass     pseudopotential
        Si             4.00    28.08600     Si( 1.00)

     48 Sym. Ops., with inversion, found



   Cartesian axes

     site n.     atom                  positions (alat units)
         1           Si  tau(   1) = (   0.0000000   0.0000000   0.0000000  )
         2           Si  tau(   2) = (   0.2500000   0.2500000   0.2500000  )

     number of k points=   120

     Number of k-points >= 100: set verbosity='high' to print them.

     Dense  grid:    17153 G-vectors     FFT dimensions: (  36,  36,  36)

     Smooth grid:     5985 G-vectors     FFT dimensions: (  25,  25,  25)

     Estimated max dynamical RAM per process >       1.51MB

     Estimated total allocated dynamical RAM >       6.05MB

     The potential is recalculated from file :
     ./_ph0/silicon.10.296.save/charge-density.dat

     Starting wfc are    8 atomic wfcs

     Band Structure Calculation
     Davidson diagonalization with overlap

     ethr =  1.25E-10,  avg # of iterations = 12.2

     total cpu time spent up to now is        1.3 secs

     End of band structure calculation

     Number of k-points >= 100: set verbosity='high' to print the bands.

     highest occupied level (ev):     5.8056

     Writing output data file silicon.10.296.save

                                                                                

     bravais-lattice index     =            2
     lattice parameter (alat)  =      10.2960  a.u.
     unit-cell volume          =     272.8636 (a.u.)^3
     number of atoms/cell      =            2
     number of atomic types    =            1
     kinetic-energy cut-off    =      30.0000  Ry
     charge density cut-off    =     240.0000  Ry
     convergence threshold     =      1.0E-12
     beta                      =       0.7000
     number of iterations used =            4
     Exchange-correlation      = SLA  PW   PBE  PBE ( 1  4  3  4 0 0)


     celldm(1)=   10.29600  celldm(2)=    0.00000  celldm(3)=    0.00000
     celldm(4)=    0.00000  celldm(5)=    0.00000  celldm(6)=    0.00000

     crystal axes: (cart. coord. in units of alat)
               a(1) = ( -0.5000  0.0000  0.5000 )  
               a(2) = (  0.0000  0.5000  0.5000 )  
               a(3) = ( -0.5000  0.5000  0.0000 )  

     reciprocal axes: (cart. coord. in units 2 pi/alat)
               b(1) = ( -1.0000 -1.0000  1.0000 )  
               b(2) = (  1.0000  1.0000  1.0000 )  
               b(3) = ( -1.0000  1.0000 -1.0000 )  


     Atoms inside the unit cell: 

     Cartesian axes

     site n.  atom      mass           positions (alat units)
        1     Si  28.0860   tau(    1) = (    0.00000    0.00000    0.00000  )
        2     Si  28.0860   tau(    2) = (    0.25000    0.25000    0.25000  )

     Computing dynamical matrix for 
                    q = (  -0.2500000   0.2500000  -0.2500000 )

      6 Sym.Ops. (no q -> -q+G )


     G cutoff =  644.4490  (   4288 G-vectors)     FFT grid: ( 36, 36, 36)
     G cutoff =  322.2245  (   1496 G-vectors)  smooth grid: ( 25, 25, 25)
     number of k points=   120

     PseudoPot. # 1 for Si read from file:
     /home/s1333534/quantum_espresso/qe-6.1/pseudo/si_pbe_v1.uspp.F.UPF.txt
     MD5 check sum: a056efeee980c13900f22a371efd63c1
     Pseudo is Ultrasoft + core correction, Zval =  4.0
     Generated by new atomic code, or converted to UPF format
     Using radial grid of  899 points,  6 beta functions with: 
                l(1) =   0
                l(2) =   0
                l(3) =   1
                l(4) =   1
                l(5) =   2
                l(6) =   2
     Q(r) pseudized with  8 coefficients,  rinner =    0.900   0.900   0.900
                                                       0.900   0.900

     Mode symmetry, C_3v (3m)   point group:


     Atomic displacements:
     There are   4 irreducible representations

     Representation     1      1 modes -A_1  L_1  To be done

     Representation     2      1 modes -A_1  L_1  To be done

     Representation     3      2 modes -E    L_3  To be done

     Representation     4      2 modes -E    L_3  To be done



     Alpha used in Ewald sum =   2.5000
     PHONON       :    10.69s CPU        13.64s WALL



     Representation #  1 mode #   1

     Self-consistent Calculation

      iter #   1 total cpu time :    14.1 secs   av.it.:   5.9
      thresh= 1.000E-02 alpha_mix =  0.700 |ddv_scf|^2 =  4.308E-04

      iter #   2 total cpu time :    14.7 secs   av.it.:   9.0
      thresh= 2.076E-03 alpha_mix =  0.700 |ddv_scf|^2 =  6.540E-03

      iter #   3 total cpu time :    15.2 secs   av.it.:   6.9
      thresh= 8.087E-03 alpha_mix =  0.700 |ddv_scf|^2 =  2.719E-07

      iter #   4 total cpu time :    15.8 secs   av.it.:   9.6
      thresh= 5.214E-05 alpha_mix =  0.700 |ddv_scf|^2 =  1.777E-08

      iter #   5 total cpu time :    16.4 secs   av.it.:   9.6
      thresh= 1.333E-05 alpha_mix =  0.700 |ddv_scf|^2 =  3.339E-10

      iter #   6 total cpu time :    17.0 secs   av.it.:   9.7
      thresh= 1.827E-06 alpha_mix =  0.700 |ddv_scf|^2 =  1.068E-09

      iter #   7 total cpu time :    17.5 secs   av.it.:   7.6
      thresh= 3.268E-06 alpha_mix =  0.700 |ddv_scf|^2 =  3.794E-11

      iter #   8 total cpu time :    18.0 secs   av.it.:   9.3
      thresh= 6.160E-07 alpha_mix =  0.700 |ddv_scf|^2 =  4.998E-13

     End of self-consistent calculation

     Convergence has been achieved 


     Representation #  2 mode #   2

     Self-consistent Calculation

      iter #   1 total cpu time :    18.6 secs   av.it.:   5.9
      thresh= 1.000E-02 alpha_mix =  0.700 |ddv_scf|^2 =  4.308E-04

      iter #   2 total cpu time :    19.1 secs   av.it.:   9.0
      thresh= 2.076E-03 alpha_mix =  0.700 |ddv_scf|^2 =  6.540E-03

      iter #   3 total cpu time :    19.7 secs   av.it.:   6.9
      thresh= 8.087E-03 alpha_mix =  0.700 |ddv_scf|^2 =  2.719E-07

      iter #   4 total cpu time :    20.3 secs   av.it.:   9.6
      thresh= 5.214E-05 alpha_mix =  0.700 |ddv_scf|^2 =  1.777E-08

      iter #   5 total cpu time :    20.9 secs   av.it.:   9.6
      thresh= 1.333E-05 alpha_mix =  0.700 |ddv_scf|^2 =  3.339E-10

      iter #   6 total cpu time :    21.5 secs   av.it.:   9.7
      thresh= 1.827E-06 alpha_mix =  0.700 |ddv_scf|^2 =  1.068E-09

      iter #   7 total cpu time :    22.0 secs   av.it.:   7.6
      thresh= 3.268E-06 alpha_mix =  0.700 |ddv_scf|^2 =  3.794E-11

      iter #   8 total cpu time :    22.6 secs   av.it.:   9.3
      thresh= 6.160E-07 alpha_mix =  0.700 |ddv_scf|^2 =  4.998E-13

     End of self-consistent calculation

     Convergence has been achieved 


     Representation #  3 modes #   3  4

     Self-consistent Calculation

      iter #   1 total cpu time :    23.4 secs   av.it.:   5.2
      thresh= 1.000E-02 alpha_mix =  0.700 |ddv_scf|^2 =  6.637E-08

      iter #   2 total cpu time :    24.7 secs   av.it.:  11.4
      thresh= 2.576E-05 alpha_mix =  0.700 |ddv_scf|^2 =  4.267E-09

      iter #   3 total cpu time :    25.9 secs   av.it.:  11.1
      thresh= 6.532E-06 alpha_mix =  0.700 |ddv_scf|^2 =  2.260E-10

      iter #   4 total cpu time :    27.1 secs   av.it.:  11.0
      thresh= 1.503E-06 alpha_mix =  0.700 |ddv_scf|^2 =  8.510E-13

     End of self-consistent calculation

     Convergence has been achieved 


     Representation #  4 modes #   5  6

     Self-consistent Calculation

      iter #   1 total cpu time :    28.1 secs   av.it.:   5.2
      thresh= 1.000E-02 alpha_mix =  0.700 |ddv_scf|^2 =  6.638E-08

      iter #   2 total cpu time :    29.4 secs   av.it.:  11.4
      thresh= 2.576E-05 alpha_mix =  0.700 |ddv_scf|^2 =  4.267E-09

      iter #   3 total cpu time :    30.8 secs   av.it.:  11.2
      thresh= 6.532E-06 alpha_mix =  0.700 |ddv_scf|^2 =  2.260E-10

      iter #   4 total cpu time :    32.0 secs   av.it.:  11.0
      thresh= 1.503E-06 alpha_mix =  0.700 |ddv_scf|^2 =  8.553E-13

     End of self-consistent calculation

     Convergence has been achieved 

     Number of q in the star =    8
     List of q in the star:
          1  -0.250000000   0.250000000  -0.250000000
          2   0.250000000  -0.250000000  -0.250000000
          3   0.250000000  -0.250000000   0.250000000
          4   0.250000000   0.250000000   0.250000000
          5  -0.250000000  -0.250000000  -0.250000000
          6  -0.250000000  -0.250000000   0.250000000
          7  -0.250000000   0.250000000   0.250000000
          8   0.250000000   0.250000000  -0.250000000

     Diagonalizing the dynamical matrix

     q = (   -0.250000000   0.250000000  -0.250000000 ) 

 **************************************************************************
     freq (    1) =       2.764507 [THz] =      92.214029 [cm-1]
     freq (    2) =       2.764507 [THz] =      92.214029 [cm-1]
     freq (    3) =       6.806375 [THz] =     227.036218 [cm-1]
     freq (    4) =      14.378852 [THz] =     479.626875 [cm-1]
     freq (    5) =      14.671217 [THz] =     489.379116 [cm-1]
     freq (    6) =      14.671217 [THz] =     489.379116 [cm-1]
 **************************************************************************

     Mode symmetry, C_3v (3m)   point group:

     freq (  1 -  2) =         92.2  [cm-1]   --> E    L_3           
     freq (  3 -  3) =        227.0  [cm-1]   --> A_1  L_1           
     freq (  4 -  4) =        479.6  [cm-1]   --> A_1  L_1           
     freq (  5 -  6) =        489.4  [cm-1]   --> E    L_3           

     Calculation of q =    0.5000000  -0.5000000   0.5000000

   Info: using nr1, nr2, nr3 values from input

   Info: using nr1, nr2, nr3 values from input

     Parallelization info
     --------------------
     sticks:   dense  smooth     PW     G-vecs:    dense   smooth      PW
     Min         217     108     40                 4288     1495     351
     Max         219     109     41                 4289     1498     354
     Sum         871     433    163                17153     5985    1411



     bravais-lattice index     =            2
     lattice parameter (alat)  =      10.2960  a.u.
     unit-cell volume          =     272.8636 (a.u.)^3
     number of atoms/cell      =            2
     number of atomic types    =            1
     number of electrons       =         8.00
     number of Kohn-Sham states=            4
     kinetic-energy cutoff     =      30.0000  Ry
     charge density cutoff     =     240.0000  Ry
     Exchange-correlation      = SLA  PW   PBE  PBE ( 1  4  3  4 0 0)

     celldm(1)=  10.296000  celldm(2)=   0.000000  celldm(3)=   0.000000
     celldm(4)=   0.000000  celldm(5)=   0.000000  celldm(6)=   0.000000

     crystal axes: (cart. coord. in units of alat)
               a(1) = (  -0.500000   0.000000   0.500000 )  
               a(2) = (   0.000000   0.500000   0.500000 )  
               a(3) = (  -0.500000   0.500000   0.000000 )  

     reciprocal axes: (cart. coord. in units 2 pi/alat)
               b(1) = ( -1.000000 -1.000000  1.000000 )  
               b(2) = (  1.000000  1.000000  1.000000 )  
               b(3) = ( -1.000000  1.000000 -1.000000 )  


     PseudoPot. # 1 for Si read from file:
     /home/s1333534/quantum_espresso/qe-6.1/pseudo/si_pbe_v1.uspp.F.UPF.txt
     MD5 check sum: a056efeee980c13900f22a371efd63c1
     Pseudo is Ultrasoft + core correction, Zval =  4.0
     Generated by new atomic code, or converted to UPF format
     Using radial grid of  899 points,  6 beta functions with: 
                l(1) =   0
                l(2) =   0
                l(3) =   1
                l(4) =   1
                l(5) =   2
                l(6) =   2
     Q(r) pseudized with  8 coefficients,  rinner =    0.900   0.900   0.900
                                                       0.900   0.900

     atomic species   valence    mass     pseudopotential
        Si             4.00    28.08600     Si( 1.00)

     48 Sym. Ops., with inversion, found



   Cartesian axes

     site n.     atom                  positions (alat units)
         1           Si  tau(   1) = (   0.0000000   0.0000000   0.0000000  )
         2           Si  tau(   2) = (   0.2500000   0.2500000   0.2500000  )

     number of k points=    60
                       cart. coord. in units 2pi/alat
        k(    1) = (  -0.1250000   0.1250000   0.1250000), wk =   0.0468750
        k(    2) = (   0.3750000  -0.3750000   0.6250000), wk =   0.0000000
        k(    3) = (  -0.3750000   0.3750000  -0.1250000), wk =   0.0468750
        k(    4) = (   0.1250000  -0.1250000   0.3750000), wk =   0.0000000
        k(    5) = (   0.3750000  -0.3750000   0.6250000), wk =   0.0468750
        k(    6) = (   0.8750000  -0.8750000   1.1250000), wk =   0.0000000
        k(    7) = (   0.1250000  -0.1250000   0.3750000), wk =   0.0468750
        k(    8) = (   0.6250000  -0.6250000   0.8750000), wk =   0.0000000
        k(    9) = (  -0.1250000   0.6250000   0.1250000), wk =   0.0937500
        k(   10) = (   0.3750000   0.1250000   0.6250000), wk =   0.0000000
        k(   11) = (   0.6250000  -0.1250000   0.8750000), wk =   0.0937500
        k(   12) = (   1.1250000  -0.6250000   1.3750000), wk =   0.0000000
        k(   13) = (   0.3750000   0.1250000   0.6250000), wk =   0.0937500
        k(   14) = (   0.8750000  -0.3750000   1.1250000), wk =   0.0000000
        k(   15) = (  -0.1250000  -0.8750000   0.1250000), wk =   0.0937500
        k(   16) = (   0.3750000  -1.3750000   0.6250000), wk =   0.0000000
        k(   17) = (  -0.3750000   0.3750000   0.3750000), wk =   0.0468750
        k(   18) = (   0.1250000  -0.1250000   0.8750000), wk =   0.0000000
        k(   19) = (   0.3750000  -0.3750000   1.1250000), wk =   0.0468750
        k(   20) = (   0.8750000  -0.8750000   1.6250000), wk =   0.0000000
        k(   21) = (   0.1250000  -0.1250000   0.1250000), wk =   0.0156250
        k(   22) = (   0.6250000  -0.6250000   0.6250000), wk =   0.0000000
        k(   23) = (  -0.3750000  -0.3750000  -0.1250000), wk =   0.0937500
        k(   24) = (   0.1250000  -0.8750000   0.3750000), wk =   0.0000000
        k(   25) = (  -0.1250000  -0.3750000   0.3750000), wk =   0.0468750
        k(   26) = (   0.3750000  -0.8750000   0.8750000), wk =   0.0000000
        k(   27) = (   0.3750000   0.3750000   0.6250000), wk =   0.0937500
        k(   28) = (   0.8750000  -0.1250000   1.1250000), wk =   0.0000000
        k(   29) = (   0.6250000   0.3750000  -0.3750000), wk =   0.0468750
        k(   30) = (   1.1250000  -0.1250000   0.1250000), wk =   0.0000000
        k(   31) = (   0.1250000   0.1250000   0.3750000), wk =   0.0937500
        k(   32) = (   0.6250000  -0.3750000   0.8750000), wk =   0.0000000
        k(   33) = (   0.3750000   0.1250000  -0.1250000), wk =   0.0468750
        k(   34) = (   0.8750000  -0.3750000   0.3750000), wk =   0.0000000
        k(   35) = (  -0.1250000  -0.6250000  -0.1250000), wk =   0.0468750
        k(   36) = (   0.3750000  -1.1250000   0.3750000), wk =   0.0000000
        k(   37) = (   0.1250000  -0.6250000   0.1250000), wk =   0.0468750
        k(   38) = (   0.6250000  -1.1250000   0.6250000), wk =   0.0000000
        k(   39) = (   0.6250000   0.1250000   0.8750000), wk =   0.0937500
        k(   40) = (   1.1250000  -0.3750000   1.3750000), wk =   0.0000000
        k(   41) = (  -0.8750000   0.1250000   0.6250000), wk =   0.0937500
        k(   42) = (  -0.3750000  -0.3750000   1.1250000), wk =   0.0000000
        k(   43) = (   0.8750000   0.1250000  -0.6250000), wk =   0.0937500
        k(   44) = (   1.3750000  -0.3750000  -0.1250000), wk =   0.0000000
        k(   45) = (   0.3750000  -0.1250000   0.6250000), wk =   0.0937500
        k(   46) = (   0.8750000  -0.6250000   1.1250000), wk =   0.0000000
        k(   47) = (  -0.6250000  -0.1250000   0.3750000), wk =   0.0937500
        k(   48) = (  -0.1250000  -0.6250000   0.8750000), wk =   0.0000000
        k(   49) = (   0.6250000  -0.1250000  -0.3750000), wk =   0.0937500
        k(   50) = (   1.1250000  -0.6250000   0.1250000), wk =   0.0000000
        k(   51) = (  -0.1250000   0.8750000  -0.1250000), wk =   0.0468750
        k(   52) = (   0.3750000   0.3750000   0.3750000), wk =   0.0000000
        k(   53) = (   0.1250000   0.8750000   0.1250000), wk =   0.0468750
        k(   54) = (   0.6250000   0.3750000   0.6250000), wk =   0.0000000
        k(   55) = (   0.3750000  -0.3750000   0.3750000), wk =   0.0156250
        k(   56) = (   0.8750000  -0.8750000   0.8750000), wk =   0.0000000
        k(   57) = (   0.3750000   0.3750000   1.1250000), wk =   0.0937500
        k(   58) = (   0.8750000  -0.1250000   1.6250000), wk =   0.0000000
        k(   59) = (   1.1250000   0.3750000  -0.3750000), wk =   0.0468750
        k(   60) = (   1.6250000  -0.1250000   0.1250000), wk =   0.0000000

     Dense  grid:    17153 G-vectors     FFT dimensions: (  36,  36,  36)

     Smooth grid:     5985 G-vectors     FFT dimensions: (  25,  25,  25)

     Estimated max dynamical RAM per process >       1.51MB

     Estimated total allocated dynamical RAM >       6.05MB

     The potential is recalculated from file :
     ./_ph0/silicon.10.296.save/charge-density.dat

     Starting wfc are    8 atomic wfcs

     Band Structure Calculation
     Davidson diagonalization with overlap

     ethr =  1.25E-10,  avg # of iterations = 12.2

     total cpu time spent up to now is        2.4 secs

     End of band structure calculation

          k =-0.1250 0.1250 0.1250 (   752 PWs)   bands (ev):

    -5.5978   4.4965   5.8056   5.8056

          k = 0.3750-0.3750 0.6250 (   759 PWs)   bands (ev):

    -3.4076  -0.6138   3.8277   4.5430

          k =-0.3750 0.3750-0.1250 (   757 PWs)   bands (ev):

    -4.5614   1.4867   3.8019   5.3228

          k = 0.1250-0.1250 0.3750 (   765 PWs)   bands (ev):

    -5.0651   2.8757   4.7868   4.8570

          k = 0.3750-0.3750 0.6250 (   759 PWs)   bands (ev):

    -3.4076  -0.6138   3.8277   4.5430

          k = 0.8750-0.8750 1.1250 (   752 PWs)   bands (ev):

    -5.5978   4.4965   5.8056   5.8056

          k = 0.1250-0.1250 0.3750 (   765 PWs)   bands (ev):

    -5.0651   2.8757   4.7868   4.8570

          k = 0.6250-0.6250 0.8750 (   757 PWs)   bands (ev):

    -4.5614   1.4867   3.8019   5.3228

          k =-0.1250 0.6250 0.1250 (   760 PWs)   bands (ev):

    -4.0242   1.1620   3.4477   3.9050

          k = 0.3750 0.1250 0.6250 (   759 PWs)   bands (ev):

    -3.6035   0.2751   2.8017   4.1819

          k = 0.6250-0.1250 0.8750 (   751 PWs)   bands (ev):

    -2.3663  -0.8148   2.0758   3.1642

          k = 1.1250-0.6250 1.3750 (   757 PWs)   bands (ev):

    -4.5614   1.4867   3.8019   5.3228

          k = 0.3750 0.1250 0.6250 (   759 PWs)   bands (ev):

    -3.6035   0.2751   2.8017   4.1819

          k = 0.8750-0.3750 1.1250 (   760 PWs)   bands (ev):

    -4.0242   1.1620   3.4477   3.9050

          k =-0.1250-0.8750 0.1250 (   759 PWs)   bands (ev):

    -2.5382  -0.7151   2.6930   3.4342

          k = 0.3750-1.3750 0.6250 (   759 PWs)   bands (ev):

    -3.4076  -0.6138   3.8277   4.5430

          k =-0.3750 0.3750 0.3750 (   763 PWs)   bands (ev):

    -4.1233   0.1807   5.0129   5.0129

          k = 0.1250-0.1250 0.8750 (   759 PWs)   bands (ev):

    -2.5382  -0.7151   2.6930   3.4342

          k = 0.3750-0.3750 1.1250 (   759 PWs)   bands (ev):

    -2.9076  -0.5179   2.1387   4.2225

          k = 0.8750-0.8750 1.6250 (   760 PWs)   bands (ev):

    -4.0242   1.1620   3.4477   3.9050

          k = 0.1250-0.1250 0.1250 (   752 PWs)   bands (ev):

    -5.5978   4.4965   5.8056   5.8056

          k = 0.6250-0.6250 0.6250 (   763 PWs)   bands (ev):

    -4.1233   0.1807   5.0129   5.0129

          k =-0.3750-0.3750-0.1250 (   757 PWs)   bands (ev):

    -4.5614   1.4867   3.8019   5.3228

          k = 0.1250-0.8750 0.3750 (   751 PWs)   bands (ev):

    -2.3663  -0.8148   2.0758   3.1642

          k =-0.1250-0.3750 0.3750 (   757 PWs)   bands (ev):

    -4.5614   1.4867   3.8019   5.3228

          k = 0.3750-0.8750 0.8750 (   760 PWs)   bands (ev):

    -4.0242   1.1620   3.4477   3.9050

          k = 0.3750 0.3750 0.6250 (   759 PWs)   bands (ev):

    -3.4076  -0.6138   3.8277   4.5430

          k = 0.8750-0.1250 1.1250 (   759 PWs)   bands (ev):

    -2.5382  -0.7151   2.6930   3.4342

          k = 0.6250 0.3750-0.3750 (   759 PWs)   bands (ev):

    -3.4076  -0.6138   3.8277   4.5430

          k = 1.1250-0.1250 0.1250 (   759 PWs)   bands (ev):

    -2.5382  -0.7151   2.6930   3.4342

          k = 0.1250 0.1250 0.3750 (   765 PWs)   bands (ev):

    -5.0651   2.8757   4.7868   4.8570

          k = 0.6250-0.3750 0.8750 (   759 PWs)   bands (ev):

    -3.6035   0.2751   2.8017   4.1819

          k = 0.3750 0.1250-0.1250 (   765 PWs)   bands (ev):

    -5.0651   2.8757   4.7868   4.8570

          k = 0.8750-0.3750 0.3750 (   759 PWs)   bands (ev):

    -2.9076  -0.5179   2.1387   4.2225

          k =-0.1250-0.6250-0.1250 (   760 PWs)   bands (ev):

    -4.0242   1.1620   3.4477   3.9050

          k = 0.3750-1.1250 0.3750 (   759 PWs)   bands (ev):

    -2.9076  -0.5179   2.1387   4.2225

          k = 0.1250-0.6250 0.1250 (   760 PWs)   bands (ev):

    -4.0242   1.1620   3.4477   3.9050

          k = 0.6250-1.1250 0.6250 (   757 PWs)   bands (ev):

    -4.5614   1.4867   3.8019   5.3228

          k = 0.6250 0.1250 0.8750 (   751 PWs)   bands (ev):

    -2.3663  -0.8148   2.0758   3.1642

          k = 1.1250-0.3750 1.3750 (   759 PWs)   bands (ev):

    -3.6035   0.2751   2.8017   4.1819

          k =-0.8750 0.1250 0.6250 (   751 PWs)   bands (ev):

    -2.3663  -0.8148   2.0758   3.1642

          k =-0.3750-0.3750 1.1250 (   759 PWs)   bands (ev):

    -2.9076  -0.5179   2.1387   4.2225

          k = 0.8750 0.1250-0.6250 (   751 PWs)   bands (ev):

    -2.3663  -0.8148   2.0758   3.1642

          k = 1.3750-0.3750-0.1250 (   759 PWs)   bands (ev):

    -3.6035   0.2751   2.8017   4.1819

          k = 0.3750-0.1250 0.6250 (   759 PWs)   bands (ev):

    -3.6035   0.2751   2.8017   4.1819

          k = 0.8750-0.6250 1.1250 (   765 PWs)   bands (ev):

    -5.0651   2.8757   4.7868   4.8570

          k =-0.6250-0.1250 0.3750 (   759 PWs)   bands (ev):

    -3.6035   0.2751   2.8017   4.1819

          k =-0.1250-0.6250 0.8750 (   751 PWs)   bands (ev):

    -2.3663  -0.8148   2.0758   3.1642

          k = 0.6250-0.1250-0.3750 (   759 PWs)   bands (ev):

    -3.6035   0.2751   2.8017   4.1819

          k = 1.1250-0.6250 0.1250 (   751 PWs)   bands (ev):

    -2.3663  -0.8148   2.0758   3.1642

          k =-0.1250 0.8750-0.1250 (   759 PWs)   bands (ev):

    -2.5382  -0.7151   2.6930   3.4342

          k = 0.3750 0.3750 0.3750 (   763 PWs)   bands (ev):

    -4.1233   0.1807   5.0129   5.0129

          k = 0.1250 0.8750 0.1250 (   759 PWs)   bands (ev):

    -2.5382  -0.7151   2.6930   3.4342

          k = 0.6250 0.3750 0.6250 (   759 PWs)   bands (ev):

    -3.4076  -0.6138   3.8277   4.5430

          k = 0.3750-0.3750 0.3750 (   763 PWs)   bands (ev):

    -4.1233   0.1807   5.0129   5.0129

          k = 0.8750-0.8750 0.8750 (   752 PWs)   bands (ev):

    -5.5978   4.4965   5.8056   5.8056

          k = 0.3750 0.3750 1.1250 (   759 PWs)   bands (ev):

    -2.9076  -0.5179   2.1387   4.2225

          k = 0.8750-0.1250 1.6250 (   751 PWs)   bands (ev):

    -2.3663  -0.8148   2.0758   3.1642

          k = 1.1250 0.3750-0.3750 (   759 PWs)   bands (ev):

    -2.9076  -0.5179   2.1387   4.2225

          k = 1.6250-0.1250 0.1250 (   765 PWs)   bands (ev):

    -5.0651   2.8757   4.7868   4.8570

     highest occupied level (ev):     5.8056

     Writing output data file silicon.10.296.save

                                                                                

     bravais-lattice index     =            2
     lattice parameter (alat)  =      10.2960  a.u.
     unit-cell volume          =     272.8636 (a.u.)^3
     number of atoms/cell      =            2
     number of atomic types    =            1
     kinetic-energy cut-off    =      30.0000  Ry
     charge density cut-off    =     240.0000  Ry
     convergence threshold     =      1.0E-12
     beta                      =       0.7000
     number of iterations used =            4
     Exchange-correlation      = SLA  PW   PBE  PBE ( 1  4  3  4 0 0)


     celldm(1)=   10.29600  celldm(2)=    0.00000  celldm(3)=    0.00000
     celldm(4)=    0.00000  celldm(5)=    0.00000  celldm(6)=    0.00000

     crystal axes: (cart. coord. in units of alat)
               a(1) = ( -0.5000  0.0000  0.5000 )  
               a(2) = (  0.0000  0.5000  0.5000 )  
               a(3) = ( -0.5000  0.5000  0.0000 )  

     reciprocal axes: (cart. coord. in units 2 pi/alat)
               b(1) = ( -1.0000 -1.0000  1.0000 )  
               b(2) = (  1.0000  1.0000  1.0000 )  
               b(3) = ( -1.0000  1.0000 -1.0000 )  


     Atoms inside the unit cell: 

     Cartesian axes

     site n.  atom      mass           positions (alat units)
        1     Si  28.0860   tau(    1) = (    0.00000    0.00000    0.00000  )
        2     Si  28.0860   tau(    2) = (    0.25000    0.25000    0.25000  )

     Computing dynamical matrix for 
                    q = (   0.5000000  -0.5000000   0.5000000 )

     13 Sym.Ops. (with q -> -q+G )


     G cutoff =  644.4490  (   4288 G-vectors)     FFT grid: ( 36, 36, 36)
     G cutoff =  322.2245  (   1497 G-vectors)  smooth grid: ( 25, 25, 25)
     number of k points=    60

     PseudoPot. # 1 for Si read from file:
     /home/s1333534/quantum_espresso/qe-6.1/pseudo/si_pbe_v1.uspp.F.UPF.txt
     MD5 check sum: a056efeee980c13900f22a371efd63c1
     Pseudo is Ultrasoft + core correction, Zval =  4.0
     Generated by new atomic code, or converted to UPF format
     Using radial grid of  899 points,  6 beta functions with: 
                l(1) =   0
                l(2) =   0
                l(3) =   1
                l(4) =   1
                l(5) =   2
                l(6) =   2
     Q(r) pseudized with  8 coefficients,  rinner =    0.900   0.900   0.900
                                                       0.900   0.900


     Atomic displacements:
     There are   4 irreducible representations

     Representation     1      1 modes -  To be done

     Representation     2      1 modes -  To be done

     Representation     3      2 modes -  To be done

     Representation     4      2 modes -  To be done



     Alpha used in Ewald sum =   2.5000
     PHONON       :    27.52s CPU        34.97s WALL



     Representation #  1 mode #   1

     Self-consistent Calculation

      iter #   1 total cpu time :    35.3 secs   av.it.:   5.1
      thresh= 1.000E-02 alpha_mix =  0.700 |ddv_scf|^2 =  4.225E-06

      iter #   2 total cpu time :    35.7 secs   av.it.:   9.9
      thresh= 2.055E-04 alpha_mix =  0.700 |ddv_scf|^2 =  3.842E-06

      iter #   3 total cpu time :    36.2 secs   av.it.:   9.2
      thresh= 1.960E-04 alpha_mix =  0.700 |ddv_scf|^2 =  2.327E-09

      iter #   4 total cpu time :    36.6 secs   av.it.:   9.4
      thresh= 4.823E-06 alpha_mix =  0.700 |ddv_scf|^2 =  2.244E-11

      iter #   5 total cpu time :    37.0 secs   av.it.:   9.3
      thresh= 4.737E-07 alpha_mix =  0.700 |ddv_scf|^2 =  3.054E-13

     End of self-consistent calculation

     Convergence has been achieved 


     Representation #  2 mode #   2

     Self-consistent Calculation

      iter #   1 total cpu time :    37.4 secs   av.it.:   6.0
      thresh= 1.000E-02 alpha_mix =  0.700 |ddv_scf|^2 =  6.013E-05

      iter #   2 total cpu time :    37.9 secs   av.it.:   9.8
      thresh= 7.754E-04 alpha_mix =  0.700 |ddv_scf|^2 =  1.866E-04

      iter #   3 total cpu time :    38.2 secs   av.it.:   8.6
      thresh= 1.366E-03 alpha_mix =  0.700 |ddv_scf|^2 =  1.281E-08

      iter #   4 total cpu time :    38.6 secs   av.it.:   9.8
      thresh= 1.132E-05 alpha_mix =  0.700 |ddv_scf|^2 =  6.507E-10

      iter #   5 total cpu time :    39.0 secs   av.it.:  10.2
      thresh= 2.551E-06 alpha_mix =  0.700 |ddv_scf|^2 =  2.009E-11

      iter #   6 total cpu time :    39.4 secs   av.it.:   9.7
      thresh= 4.482E-07 alpha_mix =  0.700 |ddv_scf|^2 =  1.521E-13

     End of self-consistent calculation

     Convergence has been achieved 


     Representation #  3 modes #   3  4

     Self-consistent Calculation

      iter #   1 total cpu time :    40.0 secs   av.it.:   5.1
      thresh= 1.000E-02 alpha_mix =  0.700 |ddv_scf|^2 =  2.706E-08

      iter #   2 total cpu time :    40.7 secs   av.it.:  10.9
      thresh= 1.645E-05 alpha_mix =  0.700 |ddv_scf|^2 =  1.599E-09

      iter #   3 total cpu time :    41.5 secs   av.it.:  10.7
      thresh= 3.999E-06 alpha_mix =  0.700 |ddv_scf|^2 =  5.296E-11

      iter #   4 total cpu time :    42.2 secs   av.it.:  10.7
      thresh= 7.277E-07 alpha_mix =  0.700 |ddv_scf|^2 =  4.329E-13

     End of self-consistent calculation

     Convergence has been achieved 


     Representation #  4 modes #   5  6

     Self-consistent Calculation

      iter #   1 total cpu time :    42.8 secs   av.it.:   5.1
      thresh= 1.000E-02 alpha_mix =  0.700 |ddv_scf|^2 =  1.383E-07

      iter #   2 total cpu time :    43.7 secs   av.it.:  11.1
      thresh= 3.718E-05 alpha_mix =  0.700 |ddv_scf|^2 =  1.109E-08

      iter #   3 total cpu time :    44.4 secs   av.it.:  10.9
      thresh= 1.053E-05 alpha_mix =  0.700 |ddv_scf|^2 =  2.919E-10

      iter #   4 total cpu time :    45.1 secs   av.it.:   9.8
      thresh= 1.709E-06 alpha_mix =  0.700 |ddv_scf|^2 =  5.239E-13

     End of self-consistent calculation

     Convergence has been achieved 

     Number of q in the star =    4
     List of q in the star:
          1   0.500000000  -0.500000000   0.500000000
          2   0.500000000   0.500000000   0.500000000
          3  -0.500000000   0.500000000   0.500000000
          4   0.500000000   0.500000000  -0.500000000

     Diagonalizing the dynamical matrix

     q = (    0.500000000  -0.500000000   0.500000000 ) 

 **************************************************************************
     freq (    1) =       3.244756 [THz] =     108.233418 [cm-1]
     freq (    2) =       3.244756 [THz] =     108.233418 [cm-1]
     freq (    3) =      11.141073 [THz] =     371.626185 [cm-1]
     freq (    4) =      12.179288 [THz] =     406.257320 [cm-1]
     freq (    5) =      14.474120 [THz] =     482.804675 [cm-1]
     freq (    6) =      14.474120 [THz] =     482.804675 [cm-1]
 **************************************************************************

     Calculation of q =    0.0000000   0.5000000   0.0000000

   Info: using nr1, nr2, nr3 values from input

   Info: using nr1, nr2, nr3 values from input

     Parallelization info
     --------------------
     sticks:   dense  smooth     PW     G-vecs:    dense   smooth      PW
     Min         217     108     37                 4287     1495     309
     Max         218     109     38                 4289     1498     312
     Sum         871     433    151                17153     5985    1243



     bravais-lattice index     =            2
     lattice parameter (alat)  =      10.2960  a.u.
     unit-cell volume          =     272.8636 (a.u.)^3
     number of atoms/cell      =            2
     number of atomic types    =            1
     number of electrons       =         8.00
     number of Kohn-Sham states=            4
     kinetic-energy cutoff     =      30.0000  Ry
     charge density cutoff     =     240.0000  Ry
     Exchange-correlation      = SLA  PW   PBE  PBE ( 1  4  3  4 0 0)

     celldm(1)=  10.296000  celldm(2)=   0.000000  celldm(3)=   0.000000
     celldm(4)=   0.000000  celldm(5)=   0.000000  celldm(6)=   0.000000

     crystal axes: (cart. coord. in units of alat)
               a(1) = (  -0.500000   0.000000   0.500000 )  
               a(2) = (   0.000000   0.500000   0.500000 )  
               a(3) = (  -0.500000   0.500000   0.000000 )  

     reciprocal axes: (cart. coord. in units 2 pi/alat)
               b(1) = ( -1.000000 -1.000000  1.000000 )  
               b(2) = (  1.000000  1.000000  1.000000 )  
               b(3) = ( -1.000000  1.000000 -1.000000 )  


     PseudoPot. # 1 for Si read from file:
     /home/s1333534/quantum_espresso/qe-6.1/pseudo/si_pbe_v1.uspp.F.UPF.txt
     MD5 check sum: a056efeee980c13900f22a371efd63c1
     Pseudo is Ultrasoft + core correction, Zval =  4.0
     Generated by new atomic code, or converted to UPF format
     Using radial grid of  899 points,  6 beta functions with: 
                l(1) =   0
                l(2) =   0
                l(3) =   1
                l(4) =   1
                l(5) =   2
                l(6) =   2
     Q(r) pseudized with  8 coefficients,  rinner =    0.900   0.900   0.900
                                                       0.900   0.900

     atomic species   valence    mass     pseudopotential
        Si             4.00    28.08600     Si( 1.00)

     48 Sym. Ops., with inversion, found



   Cartesian axes

     site n.     atom                  positions (alat units)
         1           Si  tau(   1) = (   0.0000000   0.0000000   0.0000000  )
         2           Si  tau(   2) = (   0.2500000   0.2500000   0.2500000  )

     number of k points=    80
                       cart. coord. in units 2pi/alat
        k(    1) = (  -0.1250000   0.1250000   0.1250000), wk =   0.0312500
        k(    2) = (  -0.1250000   0.6250000   0.1250000), wk =   0.0000000
        k(    3) = (  -0.3750000   0.3750000  -0.1250000), wk =   0.0625000
        k(    4) = (  -0.3750000   0.8750000  -0.1250000), wk =   0.0000000
        k(    5) = (   0.3750000  -0.3750000   0.6250000), wk =   0.0625000
        k(    6) = (   0.3750000   0.1250000   0.6250000), wk =   0.0000000
        k(    7) = (   0.1250000  -0.1250000   0.3750000), wk =   0.0625000
        k(    8) = (   0.1250000   0.3750000   0.3750000), wk =   0.0000000
        k(    9) = (  -0.1250000   0.6250000   0.1250000), wk =   0.0312500
        k(   10) = (  -0.1250000   1.1250000   0.1250000), wk =   0.0000000
        k(   11) = (   0.6250000  -0.1250000   0.8750000), wk =   0.0625000
        k(   12) = (   0.6250000   0.3750000   0.8750000), wk =   0.0000000
        k(   13) = (   0.3750000   0.1250000   0.6250000), wk =   0.0625000
        k(   14) = (   0.3750000   0.6250000   0.6250000), wk =   0.0000000
        k(   15) = (  -0.1250000  -0.8750000   0.1250000), wk =   0.0312500
        k(   16) = (  -0.1250000  -0.3750000   0.1250000), wk =   0.0000000
        k(   17) = (  -0.3750000   0.3750000   0.3750000), wk =   0.0312500
        k(   18) = (  -0.3750000   0.8750000   0.3750000), wk =   0.0000000
        k(   19) = (   0.3750000  -0.3750000   1.1250000), wk =   0.0625000
        k(   20) = (   0.3750000   0.1250000   1.1250000), wk =   0.0000000
        k(   21) = (  -0.1250000  -0.1250000   0.1250000), wk =   0.0312500
        k(   22) = (  -0.1250000   0.3750000   0.1250000), wk =   0.0000000
        k(   23) = (   0.1250000  -0.3750000   0.3750000), wk =   0.0625000
        k(   24) = (   0.1250000   0.1250000   0.3750000), wk =   0.0000000
        k(   25) = (   0.3750000  -0.1250000   0.3750000), wk =   0.0312500
        k(   26) = (   0.3750000   0.3750000   0.3750000), wk =   0.0000000
        k(   27) = (   0.3750000   0.1250000   0.3750000), wk =   0.0312500
        k(   28) = (   0.3750000   0.6250000   0.3750000), wk =   0.0000000
        k(   29) = (  -0.6250000   0.3750000  -0.3750000), wk =   0.0625000
        k(   30) = (  -0.6250000   0.8750000  -0.3750000), wk =   0.0000000
        k(   31) = (  -0.3750000   0.6250000  -0.3750000), wk =   0.0312500
        k(   32) = (  -0.3750000   1.1250000  -0.3750000), wk =   0.0000000
        k(   33) = (  -0.3750000  -0.6250000  -0.3750000), wk =   0.0312500
        k(   34) = (  -0.3750000  -0.1250000  -0.3750000), wk =   0.0000000
        k(   35) = (  -0.3750000   0.1250000  -0.1250000), wk =   0.0625000
        k(   36) = (  -0.3750000   0.6250000  -0.1250000), wk =   0.0000000
        k(   37) = (  -0.1250000   0.3750000  -0.1250000), wk =   0.0312500
        k(   38) = (  -0.1250000   0.8750000  -0.1250000), wk =   0.0000000
        k(   39) = (  -0.1250000  -0.3750000  -0.1250000), wk =   0.0312500
        k(   40) = (  -0.1250000   0.1250000  -0.1250000), wk =   0.0000000
        k(   41) = (  -0.1250000  -0.6250000   0.1250000), wk =   0.0312500
        k(   42) = (  -0.1250000  -0.1250000   0.1250000), wk =   0.0000000
        k(   43) = (   0.6250000  -0.1250000  -0.1250000), wk =   0.0625000
        k(   44) = (   0.6250000   0.3750000  -0.1250000), wk =   0.0000000
        k(   45) = (   0.6250000   0.1250000   0.1250000), wk =   0.0625000
        k(   46) = (   0.6250000   0.6250000   0.1250000), wk =   0.0000000
        k(   47) = (  -0.8750000   0.1250000  -0.6250000), wk =   0.0625000
        k(   48) = (  -0.8750000   0.6250000  -0.6250000), wk =   0.0000000
        k(   49) = (  -0.1250000   0.6250000  -0.8750000), wk =   0.0625000
        k(   50) = (  -0.1250000   1.1250000  -0.8750000), wk =   0.0000000
        k(   51) = (  -0.1250000   0.8750000  -0.6250000), wk =   0.0625000
        k(   52) = (  -0.1250000   1.3750000  -0.6250000), wk =   0.0000000
        k(   53) = (  -0.1250000  -0.8750000  -0.6250000), wk =   0.0625000
        k(   54) = (  -0.1250000  -0.3750000  -0.6250000), wk =   0.0000000
        k(   55) = (   0.8750000  -0.6250000   0.1250000), wk =   0.0625000
        k(   56) = (   0.8750000  -0.1250000   0.1250000), wk =   0.0000000
        k(   57) = (  -0.6250000  -0.1250000  -0.3750000), wk =   0.0625000
        k(   58) = (  -0.6250000   0.3750000  -0.3750000), wk =   0.0000000
        k(   59) = (   0.1250000   0.3750000  -0.6250000), wk =   0.0625000
        k(   60) = (   0.1250000   0.8750000  -0.6250000), wk =   0.0000000
        k(   61) = (   0.1250000   0.6250000  -0.3750000), wk =   0.0625000
        k(   62) = (   0.1250000   1.1250000  -0.3750000), wk =   0.0000000
        k(   63) = (   0.1250000  -0.6250000  -0.3750000), wk =   0.0625000
        k(   64) = (   0.1250000  -0.1250000  -0.3750000), wk =   0.0000000
        k(   65) = (   0.6250000  -0.3750000  -0.1250000), wk =   0.0625000
        k(   66) = (   0.6250000   0.1250000  -0.1250000), wk =   0.0000000
        k(   67) = (  -0.1250000   0.8750000   0.1250000), wk =   0.0312500
        k(   68) = (  -0.1250000   1.3750000   0.1250000), wk =   0.0000000
        k(   69) = (  -0.8750000  -0.1250000  -0.1250000), wk =   0.0625000
        k(   70) = (  -0.8750000   0.3750000  -0.1250000), wk =   0.0000000
        k(   71) = (  -0.8750000   0.1250000   0.1250000), wk =   0.0625000
        k(   72) = (  -0.8750000   0.6250000   0.1250000), wk =   0.0000000
        k(   73) = (  -0.3750000  -0.3750000   0.3750000), wk =   0.0312500
        k(   74) = (  -0.3750000   0.1250000   0.3750000), wk =   0.0000000
        k(   75) = (  -1.1250000   0.3750000  -0.3750000), wk =   0.0625000
        k(   76) = (  -1.1250000   0.8750000  -0.3750000), wk =   0.0000000
        k(   77) = (  -0.3750000   1.1250000  -0.3750000), wk =   0.0312500
        k(   78) = (  -0.3750000   1.6250000  -0.3750000), wk =   0.0000000
        k(   79) = (  -0.3750000  -1.1250000  -0.3750000), wk =   0.0312500
        k(   80) = (  -0.3750000  -0.6250000  -0.3750000), wk =   0.0000000

     Dense  grid:    17153 G-vectors     FFT dimensions: (  36,  36,  36)

     Smooth grid:     5985 G-vectors     FFT dimensions: (  25,  25,  25)

     Estimated max dynamical RAM per process >       1.51MB

     Estimated total allocated dynamical RAM >       6.05MB

     The potential is recalculated from file :
     ./_ph0/silicon.10.296.save/charge-density.dat

     Starting wfc are    8 atomic wfcs

     Band Structure Calculation
     Davidson diagonalization with overlap

     ethr =  1.25E-10,  avg # of iterations = 12.2

     total cpu time spent up to now is        3.6 secs

     End of band structure calculation

          k =-0.1250 0.1250 0.1250 (   752 PWs)   bands (ev):

    -5.5978   4.4965   5.8056   5.8056

          k =-0.1250 0.6250 0.1250 (   760 PWs)   bands (ev):

    -4.0242   1.1620   3.4477   3.9050

          k =-0.3750 0.3750-0.1250 (   757 PWs)   bands (ev):

    -4.5614   1.4867   3.8019   5.3228

          k =-0.3750 0.8750-0.1250 (   751 PWs)   bands (ev):

    -2.3663  -0.8148   2.0758   3.1642

          k = 0.3750-0.3750 0.6250 (   759 PWs)   bands (ev):

    -3.4076  -0.6138   3.8277   4.5430

          k = 0.3750 0.1250 0.6250 (   759 PWs)   bands (ev):

    -3.6035   0.2751   2.8017   4.1819

          k = 0.1250-0.1250 0.3750 (   765 PWs)   bands (ev):

    -5.0651   2.8757   4.7868   4.8570

          k = 0.1250 0.3750 0.3750 (   757 PWs)   bands (ev):

    -4.5614   1.4867   3.8019   5.3228

          k =-0.1250 0.6250 0.1250 (   760 PWs)   bands (ev):

    -4.0242   1.1620   3.4477   3.9050

          k =-0.1250 1.1250 0.1250 (   759 PWs)   bands (ev):

    -2.5382  -0.7151   2.6930   3.4342

          k = 0.6250-0.1250 0.8750 (   751 PWs)   bands (ev):

    -2.3663  -0.8148   2.0758   3.1642

          k = 0.6250 0.3750 0.8750 (   759 PWs)   bands (ev):

    -3.6035   0.2751   2.8017   4.1819

          k = 0.3750 0.1250 0.6250 (   759 PWs)   bands (ev):

    -3.6035   0.2751   2.8017   4.1819

          k = 0.3750 0.6250 0.6250 (   759 PWs)   bands (ev):

    -3.4076  -0.6138   3.8277   4.5430

          k =-0.1250-0.8750 0.1250 (   759 PWs)   bands (ev):

    -2.5382  -0.7151   2.6930   3.4342

          k =-0.1250-0.3750 0.1250 (   765 PWs)   bands (ev):

    -5.0651   2.8757   4.7868   4.8570

          k =-0.3750 0.3750 0.3750 (   763 PWs)   bands (ev):

    -4.1233   0.1807   5.0129   5.0129

          k =-0.3750 0.8750 0.3750 (   759 PWs)   bands (ev):

    -2.9076  -0.5179   2.1387   4.2225

          k = 0.3750-0.3750 1.1250 (   759 PWs)   bands (ev):

    -2.9076  -0.5179   2.1387   4.2225

          k = 0.3750 0.1250 1.1250 (   751 PWs)   bands (ev):

    -2.3663  -0.8148   2.0758   3.1642

          k =-0.1250-0.1250 0.1250 (   752 PWs)   bands (ev):

    -5.5978   4.4965   5.8056   5.8056

          k =-0.1250 0.3750 0.1250 (   765 PWs)   bands (ev):

    -5.0651   2.8757   4.7868   4.8570

          k = 0.1250-0.3750 0.3750 (   757 PWs)   bands (ev):

    -4.5614   1.4867   3.8019   5.3228

          k = 0.1250 0.1250 0.3750 (   765 PWs)   bands (ev):

    -5.0651   2.8757   4.7868   4.8570

          k = 0.3750-0.1250 0.3750 (   757 PWs)   bands (ev):

    -4.5614   1.4867   3.8019   5.3228

          k = 0.3750 0.3750 0.3750 (   763 PWs)   bands (ev):

    -4.1233   0.1807   5.0129   5.0129

          k = 0.3750 0.1250 0.3750 (   757 PWs)   bands (ev):

    -4.5614   1.4867   3.8019   5.3228

          k = 0.3750 0.6250 0.3750 (   759 PWs)   bands (ev):

    -3.4076  -0.6138   3.8277   4.5430

          k =-0.6250 0.3750-0.3750 (   759 PWs)   bands (ev):

    -3.4076  -0.6138   3.8277   4.5430

          k =-0.6250 0.8750-0.3750 (   759 PWs)   bands (ev):

    -3.6035   0.2751   2.8017   4.1819

          k =-0.3750 0.6250-0.3750 (   759 PWs)   bands (ev):

    -3.4076  -0.6138   3.8277   4.5430

          k =-0.3750 1.1250-0.3750 (   759 PWs)   bands (ev):

    -2.9076  -0.5179   2.1387   4.2225

          k =-0.3750-0.6250-0.3750 (   759 PWs)   bands (ev):

    -3.4076  -0.6138   3.8277   4.5430

          k =-0.3750-0.1250-0.3750 (   757 PWs)   bands (ev):

    -4.5614   1.4867   3.8019   5.3228

          k =-0.3750 0.1250-0.1250 (   765 PWs)   bands (ev):

    -5.0651   2.8757   4.7868   4.8570

          k =-0.3750 0.6250-0.1250 (   759 PWs)   bands (ev):

    -3.6035   0.2751   2.8017   4.1819

          k =-0.1250 0.3750-0.1250 (   765 PWs)   bands (ev):

    -5.0651   2.8757   4.7868   4.8570

          k =-0.1250 0.8750-0.1250 (   759 PWs)   bands (ev):

    -2.5382  -0.7151   2.6930   3.4342

          k =-0.1250-0.3750-0.1250 (   765 PWs)   bands (ev):

    -5.0651   2.8757   4.7868   4.8570

          k =-0.1250 0.1250-0.1250 (   752 PWs)   bands (ev):

    -5.5978   4.4965   5.8056   5.8056

          k =-0.1250-0.6250 0.1250 (   760 PWs)   bands (ev):

    -4.0242   1.1620   3.4477   3.9050

          k =-0.1250-0.1250 0.1250 (   752 PWs)   bands (ev):

    -5.5978   4.4965   5.8056   5.8056

          k = 0.6250-0.1250-0.1250 (   760 PWs)   bands (ev):

    -4.0242   1.1620   3.4477   3.9050

          k = 0.6250 0.3750-0.1250 (   759 PWs)   bands (ev):

    -3.6035   0.2751   2.8017   4.1819

          k = 0.6250 0.1250 0.1250 (   760 PWs)   bands (ev):

    -4.0242   1.1620   3.4477   3.9050

          k = 0.6250 0.6250 0.1250 (   759 PWs)   bands (ev):

    -2.9076  -0.5179   2.1387   4.2225

          k =-0.8750 0.1250-0.6250 (   751 PWs)   bands (ev):

    -2.3663  -0.8148   2.0758   3.1642

          k =-0.8750 0.6250-0.6250 (   757 PWs)   bands (ev):

    -4.5614   1.4867   3.8019   5.3228

          k =-0.1250 0.6250-0.8750 (   751 PWs)   bands (ev):

    -2.3663  -0.8148   2.0758   3.1642

          k =-0.1250 1.1250-0.8750 (   759 PWs)   bands (ev):

    -2.5382  -0.7151   2.6930   3.4342

          k =-0.1250 0.8750-0.6250 (   751 PWs)   bands (ev):

    -2.3663  -0.8148   2.0758   3.1642

          k =-0.1250 1.3750-0.6250 (   759 PWs)   bands (ev):

    -2.9076  -0.5179   2.1387   4.2225

          k =-0.1250-0.8750-0.6250 (   751 PWs)   bands (ev):

    -2.3663  -0.8148   2.0758   3.1642

          k =-0.1250-0.3750-0.6250 (   759 PWs)   bands (ev):

    -3.6035   0.2751   2.8017   4.1819

          k = 0.8750-0.6250 0.1250 (   751 PWs)   bands (ev):

    -2.3663  -0.8148   2.0758   3.1642

          k = 0.8750-0.1250 0.1250 (   759 PWs)   bands (ev):

    -2.5382  -0.7151   2.6930   3.4342

          k =-0.6250-0.1250-0.3750 (   759 PWs)   bands (ev):

    -3.6035   0.2751   2.8017   4.1819

          k =-0.6250 0.3750-0.3750 (   759 PWs)   bands (ev):

    -3.4076  -0.6138   3.8277   4.5430

          k = 0.1250 0.3750-0.6250 (   759 PWs)   bands (ev):

    -3.6035   0.2751   2.8017   4.1819

          k = 0.1250 0.8750-0.6250 (   751 PWs)   bands (ev):

    -2.3663  -0.8148   2.0758   3.1642

          k = 0.1250 0.6250-0.3750 (   759 PWs)   bands (ev):

    -3.6035   0.2751   2.8017   4.1819

          k = 0.1250 1.1250-0.3750 (   751 PWs)   bands (ev):

    -2.3663  -0.8148   2.0758   3.1642

          k = 0.1250-0.6250-0.3750 (   759 PWs)   bands (ev):

    -3.6035   0.2751   2.8017   4.1819

          k = 0.1250-0.1250-0.3750 (   765 PWs)   bands (ev):

    -5.0651   2.8757   4.7868   4.8570

          k = 0.6250-0.3750-0.1250 (   759 PWs)   bands (ev):

    -3.6035   0.2751   2.8017   4.1819

          k = 0.6250 0.1250-0.1250 (   760 PWs)   bands (ev):

    -4.0242   1.1620   3.4477   3.9050

          k =-0.1250 0.8750 0.1250 (   759 PWs)   bands (ev):

    -2.5382  -0.7151   2.6930   3.4342

          k =-0.1250 1.3750 0.1250 (   760 PWs)   bands (ev):

    -4.0242   1.1620   3.4477   3.9050

          k =-0.8750-0.1250-0.1250 (   759 PWs)   bands (ev):

    -2.5382  -0.7151   2.6930   3.4342

          k =-0.8750 0.3750-0.1250 (   751 PWs)   bands (ev):

    -2.3663  -0.8148   2.0758   3.1642

          k =-0.8750 0.1250 0.1250 (   759 PWs)   bands (ev):

    -2.5382  -0.7151   2.6930   3.4342

          k =-0.8750 0.6250 0.1250 (   751 PWs)   bands (ev):

    -2.3663  -0.8148   2.0758   3.1642

          k =-0.3750-0.3750 0.3750 (   763 PWs)   bands (ev):

    -4.1233   0.1807   5.0129   5.0129

          k =-0.3750 0.1250 0.3750 (   757 PWs)   bands (ev):

    -4.5614   1.4867   3.8019   5.3228

          k =-1.1250 0.3750-0.3750 (   759 PWs)   bands (ev):

    -2.9076  -0.5179   2.1387   4.2225

          k =-1.1250 0.8750-0.3750 (   760 PWs)   bands (ev):

    -4.0242   1.1620   3.4477   3.9050

          k =-0.3750 1.1250-0.3750 (   759 PWs)   bands (ev):

    -2.9076  -0.5179   2.1387   4.2225

          k =-0.3750 1.6250-0.3750 (   763 PWs)   bands (ev):

    -4.1233   0.1807   5.0129   5.0129

          k =-0.3750-1.1250-0.3750 (   759 PWs)   bands (ev):

    -2.9076  -0.5179   2.1387   4.2225

          k =-0.3750-0.6250-0.3750 (   759 PWs)   bands (ev):

    -3.4076  -0.6138   3.8277   4.5430

     highest occupied level (ev):     5.8056

     Writing output data file silicon.10.296.save

                                                                                

     bravais-lattice index     =            2
     lattice parameter (alat)  =      10.2960  a.u.
     unit-cell volume          =     272.8636 (a.u.)^3
     number of atoms/cell      =            2
     number of atomic types    =            1
     kinetic-energy cut-off    =      30.0000  Ry
     charge density cut-off    =     240.0000  Ry
     convergence threshold     =      1.0E-12
     beta                      =       0.7000
     number of iterations used =            4
     Exchange-correlation      = SLA  PW   PBE  PBE ( 1  4  3  4 0 0)


     celldm(1)=   10.29600  celldm(2)=    0.00000  celldm(3)=    0.00000
     celldm(4)=    0.00000  celldm(5)=    0.00000  celldm(6)=    0.00000

     crystal axes: (cart. coord. in units of alat)
               a(1) = ( -0.5000  0.0000  0.5000 )  
               a(2) = (  0.0000  0.5000  0.5000 )  
               a(3) = ( -0.5000  0.5000  0.0000 )  

     reciprocal axes: (cart. coord. in units 2 pi/alat)
               b(1) = ( -1.0000 -1.0000  1.0000 )  
               b(2) = (  1.0000  1.0000  1.0000 )  
               b(3) = ( -1.0000  1.0000 -1.0000 )  


     Atoms inside the unit cell: 

     Cartesian axes

     site n.  atom      mass           positions (alat units)
        1     Si  28.0860   tau(    1) = (    0.00000    0.00000    0.00000  )
        2     Si  28.0860   tau(    2) = (    0.25000    0.25000    0.25000  )

     Computing dynamical matrix for 
                    q = (   0.0000000   0.5000000   0.0000000 )

      8 Sym.Ops. (no q -> -q+G )


     G cutoff =  644.4490  (   4288 G-vectors)     FFT grid: ( 36, 36, 36)
     G cutoff =  322.2245  (   1496 G-vectors)  smooth grid: ( 25, 25, 25)
     number of k points=    80

     PseudoPot. # 1 for Si read from file:
     /home/s1333534/quantum_espresso/qe-6.1/pseudo/si_pbe_v1.uspp.F.UPF.txt
     MD5 check sum: a056efeee980c13900f22a371efd63c1
     Pseudo is Ultrasoft + core correction, Zval =  4.0
     Generated by new atomic code, or converted to UPF format
     Using radial grid of  899 points,  6 beta functions with: 
                l(1) =   0
                l(2) =   0
                l(3) =   1
                l(4) =   1
                l(5) =   2
                l(6) =   2
     Q(r) pseudized with  8 coefficients,  rinner =    0.900   0.900   0.900
                                                       0.900   0.900

     Mode symmetry, C_4v (4mm)  point group:


     Atomic displacements:
     There are   4 irreducible representations

     Representation     1      1 modes -A_1  G_1 D_1  To be done

     Representation     2      1 modes -B_2  G_4 D_2'  To be done

     Representation     3      2 modes -E    G_5 D_5  To be done

     Representation     4      2 modes -E    G_5 D_5  To be done



     Alpha used in Ewald sum =   2.5000
     PHONON       :    37.29s CPU        47.45s WALL



     Representation #  1 mode #   1

     Self-consistent Calculation

      iter #   1 total cpu time :    47.8 secs   av.it.:   6.2
      thresh= 1.000E-02 alpha_mix =  0.700 |ddv_scf|^2 =  5.179E-04

      iter #   2 total cpu time :    48.2 secs   av.it.:   9.2
      thresh= 2.276E-03 alpha_mix =  0.700 |ddv_scf|^2 =  6.840E-03

      iter #   3 total cpu time :    48.6 secs   av.it.:   7.3
      thresh= 8.271E-03 alpha_mix =  0.700 |ddv_scf|^2 =  1.043E-08

      iter #   4 total cpu time :    49.1 secs   av.it.:  10.1
      thresh= 1.021E-05 alpha_mix =  0.700 |ddv_scf|^2 =  9.920E-10

      iter #   5 total cpu time :    49.5 secs   av.it.:   9.6
      thresh= 3.150E-06 alpha_mix =  0.700 |ddv_scf|^2 =  1.162E-10

      iter #   6 total cpu time :    50.0 secs   av.it.:   9.3
      thresh= 1.078E-06 alpha_mix =  0.700 |ddv_scf|^2 =  3.352E-13

     End of self-consistent calculation

     Convergence has been achieved 


     Representation #  2 mode #   2

     Self-consistent Calculation

      iter #   1 total cpu time :    50.4 secs   av.it.:   5.1
      thresh= 1.000E-02 alpha_mix =  0.700 |ddv_scf|^2 =  8.139E-07

      iter #   2 total cpu time :    50.8 secs   av.it.:  10.4
      thresh= 9.022E-05 alpha_mix =  0.700 |ddv_scf|^2 =  2.193E-07

      iter #   3 total cpu time :    51.3 secs   av.it.:   9.9
      thresh= 4.683E-05 alpha_mix =  0.700 |ddv_scf|^2 =  2.224E-09

      iter #   4 total cpu time :    51.8 secs   av.it.:  10.1
      thresh= 4.716E-06 alpha_mix =  0.700 |ddv_scf|^2 =  8.517E-11

      iter #   5 total cpu time :    52.2 secs   av.it.:  10.3
      thresh= 9.229E-07 alpha_mix =  0.700 |ddv_scf|^2 =  5.151E-13

     End of self-consistent calculation

     Convergence has been achieved 


     Representation #  3 modes #   3  4

     Self-consistent Calculation

      iter #   1 total cpu time :    53.1 secs   av.it.:   5.2
      thresh= 1.000E-02 alpha_mix =  0.700 |ddv_scf|^2 =  1.445E-07

      iter #   2 total cpu time :    54.0 secs   av.it.:  11.5
      thresh= 3.801E-05 alpha_mix =  0.700 |ddv_scf|^2 =  1.990E-08

      iter #   3 total cpu time :    54.9 secs   av.it.:  11.1
      thresh= 1.411E-05 alpha_mix =  0.700 |ddv_scf|^2 =  3.353E-10

      iter #   4 total cpu time :    55.7 secs   av.it.:  10.7
      thresh= 1.831E-06 alpha_mix =  0.700 |ddv_scf|^2 =  7.768E-13

     End of self-consistent calculation

     Convergence has been achieved 


     Representation #  4 modes #   5  6

     Self-consistent Calculation

      iter #   1 total cpu time :    56.4 secs   av.it.:   5.3
      thresh= 1.000E-02 alpha_mix =  0.700 |ddv_scf|^2 =  1.325E-07

      iter #   2 total cpu time :    57.4 secs   av.it.:  11.4
      thresh= 3.640E-05 alpha_mix =  0.700 |ddv_scf|^2 =  1.775E-08

      iter #   3 total cpu time :    58.3 secs   av.it.:  11.2
      thresh= 1.332E-05 alpha_mix =  0.700 |ddv_scf|^2 =  3.437E-10

      iter #   4 total cpu time :    59.1 secs   av.it.:  11.0
      thresh= 1.854E-06 alpha_mix =  0.700 |ddv_scf|^2 =  8.375E-13

     End of self-consistent calculation

     Convergence has been achieved 

     Number of q in the star =    6
     List of q in the star:
          1   0.000000000   0.500000000   0.000000000
          2   0.000000000  -0.500000000   0.000000000
          3   0.500000000   0.000000000   0.000000000
          4   0.000000000   0.000000000   0.500000000
          5   0.000000000   0.000000000  -0.500000000
          6  -0.500000000   0.000000000   0.000000000

     Diagonalizing the dynamical matrix

     q = (    0.000000000   0.500000000   0.000000000 ) 

 **************************************************************************
     freq (    1) =       3.744997 [THz] =     124.919661 [cm-1]
     freq (    2) =       3.744997 [THz] =     124.919661 [cm-1]
     freq (    3) =       7.141511 [THz] =     238.215156 [cm-1]
     freq (    4) =      14.014417 [THz] =     467.470647 [cm-1]
     freq (    5) =      14.014417 [THz] =     467.470647 [cm-1]
     freq (    6) =      14.611560 [THz] =     487.389190 [cm-1]
 **************************************************************************

     Mode symmetry, C_4v (4mm)  point group:

     freq (  1 -  2) =        124.9  [cm-1]   --> E    G_5 D_5       
     freq (  3 -  3) =        238.2  [cm-1]   --> A_1  G_1 D_1       
     freq (  4 -  5) =        467.5  [cm-1]   --> E    G_5 D_5       
     freq (  6 -  6) =        487.4  [cm-1]   --> B_2  G_4 D_2'      

     Calculation of q =    0.7500000  -0.2500000   0.7500000

   Info: using nr1, nr2, nr3 values from input

   Info: using nr1, nr2, nr3 values from input

     Parallelization info
     --------------------
     sticks:   dense  smooth     PW     G-vecs:    dense   smooth      PW
     Min         217     108     40                 4287     1495     362
     Max         218     109     41                 4289     1498     366
     Sum         871     433    163                17153     5985    1459



     bravais-lattice index     =            2
     lattice parameter (alat)  =      10.2960  a.u.
     unit-cell volume          =     272.8636 (a.u.)^3
     number of atoms/cell      =            2
     number of atomic types    =            1
     number of electrons       =         8.00
     number of Kohn-Sham states=            4
     kinetic-energy cutoff     =      30.0000  Ry
     charge density cutoff     =     240.0000  Ry
     Exchange-correlation      = SLA  PW   PBE  PBE ( 1  4  3  4 0 0)

     celldm(1)=  10.296000  celldm(2)=   0.000000  celldm(3)=   0.000000
     celldm(4)=   0.000000  celldm(5)=   0.000000  celldm(6)=   0.000000

     crystal axes: (cart. coord. in units of alat)
               a(1) = (  -0.500000   0.000000   0.500000 )  
               a(2) = (   0.000000   0.500000   0.500000 )  
               a(3) = (  -0.500000   0.500000   0.000000 )  

     reciprocal axes: (cart. coord. in units 2 pi/alat)
               b(1) = ( -1.000000 -1.000000  1.000000 )  
               b(2) = (  1.000000  1.000000  1.000000 )  
               b(3) = ( -1.000000  1.000000 -1.000000 )  


     PseudoPot. # 1 for Si read from file:
     /home/s1333534/quantum_espresso/qe-6.1/pseudo/si_pbe_v1.uspp.F.UPF.txt
     MD5 check sum: a056efeee980c13900f22a371efd63c1
     Pseudo is Ultrasoft + core correction, Zval =  4.0
     Generated by new atomic code, or converted to UPF format
     Using radial grid of  899 points,  6 beta functions with: 
                l(1) =   0
                l(2) =   0
                l(3) =   1
                l(4) =   1
                l(5) =   2
                l(6) =   2
     Q(r) pseudized with  8 coefficients,  rinner =    0.900   0.900   0.900
                                                       0.900   0.900

     atomic species   valence    mass     pseudopotential
        Si             4.00    28.08600     Si( 1.00)

     48 Sym. Ops., with inversion, found



   Cartesian axes

     site n.     atom                  positions (alat units)
         1           Si  tau(   1) = (   0.0000000   0.0000000   0.0000000  )
         2           Si  tau(   2) = (   0.2500000   0.2500000   0.2500000  )

     number of k points=   288

     Number of k-points >= 100: set verbosity='high' to print them.

     Dense  grid:    17153 G-vectors     FFT dimensions: (  36,  36,  36)

     Smooth grid:     5985 G-vectors     FFT dimensions: (  25,  25,  25)

     Estimated max dynamical RAM per process >       1.51MB

     Estimated total allocated dynamical RAM >       6.05MB

     The potential is recalculated from file :
     ./_ph0/silicon.10.296.save/charge-density.dat

     Starting wfc are    8 atomic wfcs

     Band Structure Calculation
     Davidson diagonalization with overlap

     ethr =  1.25E-10,  avg # of iterations = 12.1

     total cpu time spent up to now is        6.8 secs

     End of band structure calculation

     Number of k-points >= 100: set verbosity='high' to print the bands.

     highest occupied level (ev):     5.8056

     Writing output data file silicon.10.296.save

                                                                                

     bravais-lattice index     =            2
     lattice parameter (alat)  =      10.2960  a.u.
     unit-cell volume          =     272.8636 (a.u.)^3
     number of atoms/cell      =            2
     number of atomic types    =            1
     kinetic-energy cut-off    =      30.0000  Ry
     charge density cut-off    =     240.0000  Ry
     convergence threshold     =      1.0E-12
     beta                      =       0.7000
     number of iterations used =            4
     Exchange-correlation      = SLA  PW   PBE  PBE ( 1  4  3  4 0 0)


     celldm(1)=   10.29600  celldm(2)=    0.00000  celldm(3)=    0.00000
     celldm(4)=    0.00000  celldm(5)=    0.00000  celldm(6)=    0.00000

     crystal axes: (cart. coord. in units of alat)
               a(1) = ( -0.5000  0.0000  0.5000 )  
               a(2) = (  0.0000  0.5000  0.5000 )  
               a(3) = ( -0.5000  0.5000  0.0000 )  

     reciprocal axes: (cart. coord. in units 2 pi/alat)
               b(1) = ( -1.0000 -1.0000  1.0000 )  
               b(2) = (  1.0000  1.0000  1.0000 )  
               b(3) = ( -1.0000  1.0000 -1.0000 )  


     Atoms inside the unit cell: 

     Cartesian axes

     site n.  atom      mass           positions (alat units)
        1     Si  28.0860   tau(    1) = (    0.00000    0.00000    0.00000  )
        2     Si  28.0860   tau(    2) = (    0.25000    0.25000    0.25000  )

     Computing dynamical matrix for 
                    q = (   0.7500000  -0.2500000   0.7500000 )

      2 Sym.Ops. (no q -> -q+G )


     G cutoff =  644.4490  (   4288 G-vectors)     FFT grid: ( 36, 36, 36)
     G cutoff =  322.2245  (   1497 G-vectors)  smooth grid: ( 25, 25, 25)
     number of k points=   288

     PseudoPot. # 1 for Si read from file:
     /home/s1333534/quantum_espresso/qe-6.1/pseudo/si_pbe_v1.uspp.F.UPF.txt
     MD5 check sum: a056efeee980c13900f22a371efd63c1
     Pseudo is Ultrasoft + core correction, Zval =  4.0
     Generated by new atomic code, or converted to UPF format
     Using radial grid of  899 points,  6 beta functions with: 
                l(1) =   0
                l(2) =   0
                l(3) =   1
                l(4) =   1
                l(5) =   2
                l(6) =   2
     Q(r) pseudized with  8 coefficients,  rinner =    0.900   0.900   0.900
                                                       0.900   0.900

     Mode symmetry, C_s (m)     point group:


     Atomic displacements:
     There are   6 irreducible representations

     Representation     1      1 modes -A'  To be done

     Representation     2      1 modes -A'  To be done

     Representation     3      1 modes -A'  To be done

     Representation     4      1 modes -A'  To be done

     Representation     5      1 modes -A''  To be done

     Representation     6      1 modes -A''  To be done



     Alpha used in Ewald sum =   2.5000
     PHONON       :  0m50.99s CPU     1m 4.28s WALL



     Representation #  1 mode #   1

     Self-consistent Calculation

      iter #   1 total cpu time :    65.2 secs   av.it.:   5.7
      thresh= 1.000E-02 alpha_mix =  0.700 |ddv_scf|^2 =  1.055E-05

      iter #   2 total cpu time :    66.5 secs   av.it.:  10.5
      thresh= 3.248E-04 alpha_mix =  0.700 |ddv_scf|^2 =  2.802E-05

      iter #   3 total cpu time :    67.7 secs   av.it.:   9.2
      thresh= 5.294E-04 alpha_mix =  0.700 |ddv_scf|^2 =  1.884E-07

      iter #   4 total cpu time :    68.9 secs   av.it.:   9.9
      thresh= 4.340E-05 alpha_mix =  0.700 |ddv_scf|^2 =  3.688E-09

      iter #   5 total cpu time :    70.2 secs   av.it.:  10.4
      thresh= 6.073E-06 alpha_mix =  0.700 |ddv_scf|^2 =  6.398E-10

      iter #   6 total cpu time :    71.5 secs   av.it.:  10.4
      thresh= 2.530E-06 alpha_mix =  0.700 |ddv_scf|^2 =  9.367E-12

      iter #   7 total cpu time :    72.8 secs   av.it.:  10.6
      thresh= 3.061E-07 alpha_mix =  0.700 |ddv_scf|^2 =  3.476E-13

     End of self-consistent calculation

     Convergence has been achieved 


     Representation #  2 mode #   2

     Self-consistent Calculation

      iter #   1 total cpu time :    73.8 secs   av.it.:   5.8
      thresh= 1.000E-02 alpha_mix =  0.700 |ddv_scf|^2 =  1.893E-05

      iter #   2 total cpu time :    75.1 secs   av.it.:  10.4
      thresh= 4.351E-04 alpha_mix =  0.700 |ddv_scf|^2 =  5.466E-05

      iter #   3 total cpu time :    76.3 secs   av.it.:   9.0
      thresh= 7.393E-04 alpha_mix =  0.700 |ddv_scf|^2 =  1.256E-07

      iter #   4 total cpu time :    77.5 secs   av.it.:  10.2
      thresh= 3.544E-05 alpha_mix =  0.700 |ddv_scf|^2 =  4.163E-09

      iter #   5 total cpu time :    78.8 secs   av.it.:  10.4
      thresh= 6.452E-06 alpha_mix =  0.700 |ddv_scf|^2 =  8.498E-10

      iter #   6 total cpu time :    80.1 secs   av.it.:  10.3
      thresh= 2.915E-06 alpha_mix =  0.700 |ddv_scf|^2 =  8.702E-12

      iter #   7 total cpu time :    81.5 secs   av.it.:  10.6
      thresh= 2.950E-07 alpha_mix =  0.700 |ddv_scf|^2 =  3.029E-13

     End of self-consistent calculation

     Convergence has been achieved 


     Representation #  3 mode #   3

     Self-consistent Calculation

      iter #   1 total cpu time :    82.5 secs   av.it.:   5.7
      thresh= 1.000E-02 alpha_mix =  0.700 |ddv_scf|^2 =  1.484E-05

      iter #   2 total cpu time :    83.8 secs   av.it.:  10.4
      thresh= 3.852E-04 alpha_mix =  0.700 |ddv_scf|^2 =  4.028E-05

      iter #   3 total cpu time :    84.9 secs   av.it.:   9.0
      thresh= 6.346E-04 alpha_mix =  0.700 |ddv_scf|^2 =  2.196E-07

      iter #   4 total cpu time :    86.2 secs   av.it.:  10.0
      thresh= 4.686E-05 alpha_mix =  0.700 |ddv_scf|^2 =  4.247E-09

      iter #   5 total cpu time :    87.4 secs   av.it.:  10.4
      thresh= 6.517E-06 alpha_mix =  0.700 |ddv_scf|^2 =  8.269E-10

      iter #   6 total cpu time :    88.7 secs   av.it.:  10.3
      thresh= 2.876E-06 alpha_mix =  0.700 |ddv_scf|^2 =  6.096E-12

      iter #   7 total cpu time :    90.0 secs   av.it.:  10.5
      thresh= 2.469E-07 alpha_mix =  0.700 |ddv_scf|^2 =  1.773E-13

     End of self-consistent calculation

     Convergence has been achieved 


     Representation #  4 mode #   4

     Self-consistent Calculation

      iter #   1 total cpu time :    91.0 secs   av.it.:   5.5
      thresh= 1.000E-02 alpha_mix =  0.700 |ddv_scf|^2 =  6.457E-06

      iter #   2 total cpu time :    92.3 secs   av.it.:  10.7
      thresh= 2.541E-04 alpha_mix =  0.700 |ddv_scf|^2 =  1.362E-05

      iter #   3 total cpu time :    93.6 secs   av.it.:   9.5
      thresh= 3.690E-04 alpha_mix =  0.700 |ddv_scf|^2 =  2.950E-07

      iter #   4 total cpu time :    94.8 secs   av.it.:   9.8
      thresh= 5.432E-05 alpha_mix =  0.700 |ddv_scf|^2 =  3.635E-09

      iter #   5 total cpu time :    96.1 secs   av.it.:  10.5
      thresh= 6.029E-06 alpha_mix =  0.700 |ddv_scf|^2 =  6.808E-10

      iter #   6 total cpu time :    97.4 secs   av.it.:  10.4
      thresh= 2.609E-06 alpha_mix =  0.700 |ddv_scf|^2 =  3.960E-12

      iter #   7 total cpu time :    99.0 secs   av.it.:  10.6
      thresh= 1.990E-07 alpha_mix =  0.700 |ddv_scf|^2 =  1.782E-13

     End of self-consistent calculation

     Convergence has been achieved 


     Representation #  5 mode #   5

     Self-consistent Calculation

      iter #   1 total cpu time :   100.0 secs   av.it.:   5.2
      thresh= 1.000E-02 alpha_mix =  0.700 |ddv_scf|^2 =  6.680E-07

      iter #   2 total cpu time :   101.3 secs   av.it.:  10.4
      thresh= 8.173E-05 alpha_mix =  0.700 |ddv_scf|^2 =  1.089E-07

      iter #   3 total cpu time :   102.6 secs   av.it.:  10.0
      thresh= 3.299E-05 alpha_mix =  0.700 |ddv_scf|^2 =  1.453E-09

      iter #   4 total cpu time :   103.8 secs   av.it.:   9.6
      thresh= 3.812E-06 alpha_mix =  0.700 |ddv_scf|^2 =  3.362E-12

      iter #   5 total cpu time :   105.1 secs   av.it.:  10.0
      thresh= 1.834E-07 alpha_mix =  0.700 |ddv_scf|^2 =  9.378E-14

     End of self-consistent calculation

     Convergence has been achieved 


     Representation #  6 mode #   6

     Self-consistent Calculation

      iter #   1 total cpu time :   106.0 secs   av.it.:   5.2
      thresh= 1.000E-02 alpha_mix =  0.700 |ddv_scf|^2 =  6.680E-07

      iter #   2 total cpu time :   107.4 secs   av.it.:  10.4
[...]
        k(   59) = (  -0.8750000   0.1250000  -0.1250000), wk =   0.0625000
        k(   60) = (  -1.3750000  -0.8750000  -0.1250000), wk =   0.0000000
        k(   61) = (  -1.1250000   0.3750000  -0.3750000), wk =   0.0625000
        k(   62) = (  -1.6250000  -0.6250000  -0.3750000), wk =   0.0000000
        k(   63) = (  -0.3750000   0.3750000   1.1250000), wk =   0.0625000
        k(   64) = (  -0.8750000  -0.6250000   1.1250000), wk =   0.0000000

     Dense  grid:    17153 G-vectors     FFT dimensions: (  36,  36,  36)

     Smooth grid:     5985 G-vectors     FFT dimensions: (  25,  25,  25)

     Estimated max dynamical RAM per process >       1.51MB

     Estimated total allocated dynamical RAM >       6.05MB

     The potential is recalculated from file :
     ./_ph0/silicon.10.296.save/charge-density.dat

     Starting wfc are    8 atomic wfcs

     Band Structure Calculation
     Davidson diagonalization with overlap

     ethr =  1.25E-10,  avg # of iterations = 12.1

     total cpu time spent up to now is       10.6 secs

     End of band structure calculation

          k =-0.1250 0.1250 0.1250 (   752 PWs)   bands (ev):

    -5.5978   4.4965   5.8056   5.8056

          k =-0.6250-0.8750 0.1250 (   751 PWs)   bands (ev):

    -2.3663  -0.8148   2.0758   3.1642

          k =-0.3750 0.3750-0.1250 (   757 PWs)   bands (ev):

    -4.5614   1.4867   3.8019   5.3228

          k =-0.8750-0.6250-0.1250 (   751 PWs)   bands (ev):

    -2.3663  -0.8148   2.0758   3.1642

          k = 0.3750-0.3750 0.6250 (   759 PWs)   bands (ev):

    -3.4076  -0.6138   3.8277   4.5430

          k =-0.1250-1.3750 0.6250 (   759 PWs)   bands (ev):

    -2.9076  -0.5179   2.1387   4.2225

          k = 0.1250-0.1250 0.3750 (   765 PWs)   bands (ev):

    -5.0651   2.8757   4.7868   4.8570

          k =-0.3750-1.1250 0.3750 (   759 PWs)   bands (ev):

    -2.9076  -0.5179   2.1387   4.2225

          k =-0.1250 0.6250 0.1250 (   760 PWs)   bands (ev):

    -4.0242   1.1620   3.4477   3.9050

          k =-0.6250-0.3750 0.1250 (   759 PWs)   bands (ev):

    -3.6035   0.2751   2.8017   4.1819

          k = 0.6250-0.1250 0.8750 (   751 PWs)   bands (ev):

    -2.3663  -0.8148   2.0758   3.1642

          k = 0.1250-1.1250 0.8750 (   759 PWs)   bands (ev):

    -2.5382  -0.7151   2.6930   3.4342

          k = 0.3750 0.1250 0.6250 (   759 PWs)   bands (ev):

    -3.6035   0.2751   2.8017   4.1819

          k =-0.1250-0.8750 0.6250 (   751 PWs)   bands (ev):

    -2.3663  -0.8148   2.0758   3.1642

          k =-0.1250-0.8750 0.1250 (   759 PWs)   bands (ev):

    -2.5382  -0.7151   2.6930   3.4342

          k =-0.6250-1.8750 0.1250 (   760 PWs)   bands (ev):

    -4.0242   1.1620   3.4477   3.9050

          k =-0.3750 0.3750 0.3750 (   763 PWs)   bands (ev):

    -4.1233   0.1807   5.0129   5.0129

          k =-0.8750-0.6250 0.3750 (   759 PWs)   bands (ev):

    -3.6035   0.2751   2.8017   4.1819

          k = 0.3750-0.3750 1.1250 (   759 PWs)   bands (ev):

    -2.9076  -0.5179   2.1387   4.2225

          k =-0.1250-1.3750 1.1250 (   751 PWs)   bands (ev):

    -2.3663  -0.8148   2.0758   3.1642

          k = 0.1250-0.3750 0.3750 (   757 PWs)   bands (ev):

    -4.5614   1.4867   3.8019   5.3228

          k =-0.3750-1.3750 0.3750 (   759 PWs)   bands (ev):

    -3.4076  -0.6138   3.8277   4.5430

          k = 0.3750-0.3750-0.1250 (   757 PWs)   bands (ev):

    -4.5614   1.4867   3.8019   5.3228

          k =-0.1250-1.3750-0.1250 (   760 PWs)   bands (ev):

    -4.0242   1.1620   3.4477   3.9050

          k =-0.6250 0.3750-0.3750 (   759 PWs)   bands (ev):

    -3.4076  -0.6138   3.8277   4.5430

          k =-1.1250-0.6250-0.3750 (   759 PWs)   bands (ev):

    -3.6035   0.2751   2.8017   4.1819

          k =-0.3750 0.3750 0.6250 (   759 PWs)   bands (ev):

    -3.4076  -0.6138   3.8277   4.5430

          k =-0.8750-0.6250 0.6250 (   757 PWs)   bands (ev):

    -4.5614   1.4867   3.8019   5.3228

          k =-0.3750 0.1250-0.1250 (   765 PWs)   bands (ev):

    -5.0651   2.8757   4.7868   4.8570

          k =-0.8750-0.8750-0.1250 (   759 PWs)   bands (ev):

    -2.5382  -0.7151   2.6930   3.4342

          k =-0.1250 0.1250 0.3750 (   765 PWs)   bands (ev):

    -5.0651   2.8757   4.7868   4.8570

          k =-0.6250-0.8750 0.3750 (   759 PWs)   bands (ev):

    -3.6035   0.2751   2.8017   4.1819

          k = 0.1250 0.6250-0.1250 (   760 PWs)   bands (ev):

    -4.0242   1.1620   3.4477   3.9050

          k =-0.3750-0.3750-0.1250 (   757 PWs)   bands (ev):

    -4.5614   1.4867   3.8019   5.3228

          k = 0.6250 0.1250-0.1250 (   760 PWs)   bands (ev):

    -4.0242   1.1620   3.4477   3.9050

          k = 0.1250-0.8750-0.1250 (   759 PWs)   bands (ev):

    -2.5382  -0.7151   2.6930   3.4342

          k =-0.8750 0.1250-0.6250 (   751 PWs)   bands (ev):

    -2.3663  -0.8148   2.0758   3.1642

          k =-1.3750-0.8750-0.6250 (   757 PWs)   bands (ev):

    -4.5614   1.4867   3.8019   5.3228

          k = 0.8750-0.1250 0.6250 (   751 PWs)   bands (ev):

    -2.3663  -0.8148   2.0758   3.1642

          k = 0.3750-1.1250 0.6250 (   759 PWs)   bands (ev):

    -3.6035   0.2751   2.8017   4.1819

          k =-0.6250 0.1250 0.8750 (   751 PWs)   bands (ev):

    -2.3663  -0.8148   2.0758   3.1642

          k =-1.1250-0.8750 0.8750 (   752 PWs)   bands (ev):

    -5.5978   4.4965   5.8056   5.8056

          k =-0.1250 0.8750 0.6250 (   751 PWs)   bands (ev):

    -2.3663  -0.8148   2.0758   3.1642

          k =-0.6250-0.1250 0.6250 (   759 PWs)   bands (ev):

    -2.9076  -0.5179   2.1387   4.2225

          k = 0.1250 0.8750-0.6250 (   751 PWs)   bands (ev):

    -2.3663  -0.8148   2.0758   3.1642

          k =-0.3750-0.1250-0.6250 (   759 PWs)   bands (ev):

    -3.6035   0.2751   2.8017   4.1819

          k =-0.6250-0.1250-0.3750 (   759 PWs)   bands (ev):

    -3.6035   0.2751   2.8017   4.1819

          k =-1.1250-1.1250-0.3750 (   760 PWs)   bands (ev):

    -4.0242   1.1620   3.4477   3.9050

          k = 0.6250 0.1250 0.3750 (   759 PWs)   bands (ev):

    -3.6035   0.2751   2.8017   4.1819

          k = 0.1250-0.8750 0.3750 (   751 PWs)   bands (ev):

    -2.3663  -0.8148   2.0758   3.1642

          k =-0.3750-0.1250 0.6250 (   759 PWs)   bands (ev):

    -3.6035   0.2751   2.8017   4.1819

          k =-0.8750-1.1250 0.6250 (   765 PWs)   bands (ev):

    -5.0651   2.8757   4.7868   4.8570

          k = 0.1250 0.6250 0.3750 (   759 PWs)   bands (ev):

    -3.6035   0.2751   2.8017   4.1819

          k =-0.3750-0.3750 0.3750 (   763 PWs)   bands (ev):

    -4.1233   0.1807   5.0129   5.0129

          k =-0.1250 0.6250-0.3750 (   759 PWs)   bands (ev):

    -3.6035   0.2751   2.8017   4.1819

          k =-0.6250-0.3750-0.3750 (   759 PWs)   bands (ev):

    -3.4076  -0.6138   3.8277   4.5430

          k = 0.1250-0.8750-0.1250 (   759 PWs)   bands (ev):

    -2.5382  -0.7151   2.6930   3.4342

          k =-0.3750-1.8750-0.1250 (   765 PWs)   bands (ev):

    -5.0651   2.8757   4.7868   4.8570

          k =-0.8750 0.1250-0.1250 (   759 PWs)   bands (ev):

    -2.5382  -0.7151   2.6930   3.4342

          k =-1.3750-0.8750-0.1250 (   751 PWs)   bands (ev):

    -2.3663  -0.8148   2.0758   3.1642

          k =-1.1250 0.3750-0.3750 (   759 PWs)   bands (ev):

    -2.9076  -0.5179   2.1387   4.2225

          k =-1.6250-0.6250-0.3750 (   759 PWs)   bands (ev):

    -3.4076  -0.6138   3.8277   4.5430

          k =-0.3750 0.3750 1.1250 (   759 PWs)   bands (ev):

    -2.9076  -0.5179   2.1387   4.2225

          k =-0.8750-0.6250 1.1250 (   765 PWs)   bands (ev):

    -5.0651   2.8757   4.7868   4.8570

     highest occupied level (ev):     5.8056

     Writing output data file silicon.10.296.save

                                                                                

     bravais-lattice index     =            2
     lattice parameter (alat)  =      10.2960  a.u.
     unit-cell volume          =     272.8636 (a.u.)^3
     number of atoms/cell      =            2
     number of atomic types    =            1
     kinetic-energy cut-off    =      30.0000  Ry
     charge density cut-off    =     240.0000  Ry
     convergence threshold     =      1.0E-12
     beta                      =       0.7000
     number of iterations used =            4
     Exchange-correlation      = SLA  PW   PBE  PBE ( 1  4  3  4 0 0)


     celldm(1)=   10.29600  celldm(2)=    0.00000  celldm(3)=    0.00000
     celldm(4)=    0.00000  celldm(5)=    0.00000  celldm(6)=    0.00000

     crystal axes: (cart. coord. in units of alat)
               a(1) = ( -0.5000  0.0000  0.5000 )  
               a(2) = (  0.0000  0.5000  0.5000 )  
               a(3) = ( -0.5000  0.5000  0.0000 )  

     reciprocal axes: (cart. coord. in units 2 pi/alat)
               b(1) = ( -1.0000 -1.0000  1.0000 )  
               b(2) = (  1.0000  1.0000  1.0000 )  
               b(3) = ( -1.0000  1.0000 -1.0000 )  


     Atoms inside the unit cell: 

     Cartesian axes

     site n.  atom      mass           positions (alat units)
        1     Si  28.0860   tau(    1) = (    0.00000    0.00000    0.00000  )
        2     Si  28.0860   tau(    2) = (    0.25000    0.25000    0.25000  )

     Computing dynamical matrix for 
                    q = (  -0.5000000  -1.0000000   0.0000000 )

      8 Sym.Ops. (no q -> -q+G )


     G cutoff =  644.4490  (   4288 G-vectors)     FFT grid: ( 36, 36, 36)
     G cutoff =  322.2245  (   1497 G-vectors)  smooth grid: ( 25, 25, 25)
     number of k points=    64

     PseudoPot. # 1 for Si read from file:
     /home/s1333534/quantum_espresso/qe-6.1/pseudo/si_pbe_v1.uspp.F.UPF.txt
     MD5 check sum: a056efeee980c13900f22a371efd63c1
     Pseudo is Ultrasoft + core correction, Zval =  4.0
     Generated by new atomic code, or converted to UPF format
     Using radial grid of  899 points,  6 beta functions with: 
                l(1) =   0
                l(2) =   0
                l(3) =   1
                l(4) =   1
                l(5) =   2
                l(6) =   2
     Q(r) pseudized with  8 coefficients,  rinner =    0.900   0.900   0.900
                                                       0.900   0.900


     Atomic displacements:
     There are   3 irreducible representations

     Representation     1      2 modes -  To be done

     Representation     2      2 modes -  To be done

     Representation     3      2 modes -  To be done



     Alpha used in Ewald sum =   2.5000
     PHONON       :  2m 2.35s CPU     2m30.69s WALL



     Representation #  1 modes #   1  2

     Self-consistent Calculation

      iter #   1 total cpu time :   151.4 secs   av.it.:   5.7
      thresh= 1.000E-02 alpha_mix =  0.700 |ddv_scf|^2 =  1.093E-06

      iter #   2 total cpu time :   152.3 secs   av.it.:  11.6
      thresh= 1.046E-04 alpha_mix =  0.700 |ddv_scf|^2 =  6.201E-07

      iter #   3 total cpu time :   153.0 secs   av.it.:  11.1
      thresh= 7.874E-05 alpha_mix =  0.700 |ddv_scf|^2 =  5.915E-10

      iter #   4 total cpu time :   153.9 secs   av.it.:  11.0
      thresh= 2.432E-06 alpha_mix =  0.700 |ddv_scf|^2 =  2.628E-12

      iter #   5 total cpu time :   154.6 secs   av.it.:  11.1
      thresh= 1.621E-07 alpha_mix =  0.700 |ddv_scf|^2 =  6.933E-14

     End of self-consistent calculation

     Convergence has been achieved 


     Representation #  2 modes #   3  4

     Self-consistent Calculation

      iter #   1 total cpu time :   155.3 secs   av.it.:   5.7
      thresh= 1.000E-02 alpha_mix =  0.700 |ddv_scf|^2 =  1.690E-06

      iter #   2 total cpu time :   156.1 secs   av.it.:  11.6
      thresh= 1.300E-04 alpha_mix =  0.700 |ddv_scf|^2 =  2.268E-06

      iter #   3 total cpu time :   156.8 secs   av.it.:  10.9
      thresh= 1.506E-04 alpha_mix =  0.700 |ddv_scf|^2 =  6.963E-10

      iter #   4 total cpu time :   157.6 secs   av.it.:  11.0
      thresh= 2.639E-06 alpha_mix =  0.700 |ddv_scf|^2 =  1.015E-11

      iter #   5 total cpu time :   158.4 secs   av.it.:  11.1
      thresh= 3.186E-07 alpha_mix =  0.700 |ddv_scf|^2 =  1.743E-13

     End of self-consistent calculation

     Convergence has been achieved 


     Representation #  3 modes #   5  6

     Self-consistent Calculation

      iter #   1 total cpu time :   159.2 secs   av.it.:   5.3
      thresh= 1.000E-02 alpha_mix =  0.700 |ddv_scf|^2 =  4.441E-07

      iter #   2 total cpu time :   160.1 secs   av.it.:  11.6
      thresh= 6.664E-05 alpha_mix =  0.700 |ddv_scf|^2 =  2.598E-07

      iter #   3 total cpu time :   160.9 secs   av.it.:  11.0
      thresh= 5.097E-05 alpha_mix =  0.700 |ddv_scf|^2 =  5.152E-10

      iter #   4 total cpu time :   161.8 secs   av.it.:  11.0
      thresh= 2.270E-06 alpha_mix =  0.700 |ddv_scf|^2 =  5.974E-12

      iter #   5 total cpu time :   162.5 secs   av.it.:  11.1
      thresh= 2.444E-07 alpha_mix =  0.700 |ddv_scf|^2 =  8.343E-14

     End of self-consistent calculation

     Convergence has been achieved 

     Number of q in the star =    6
     List of q in the star:
          1  -0.500000000  -1.000000000   0.000000000
          2   0.000000000   1.000000000   0.500000000
          3   0.000000000  -1.000000000  -0.500000000
          4   0.500000000   1.000000000   0.000000000
          5  -1.000000000  -0.500000000   0.000000000
          6   0.000000000  -0.500000000  -1.000000000

     Diagonalizing the dynamical matrix

     q = (   -0.500000000  -1.000000000   0.000000000 ) 

 **************************************************************************
     freq (    1) =       5.989071 [THz] =     199.773911 [cm-1]
     freq (    2) =       5.989071 [THz] =     199.773911 [cm-1]
     freq (    3) =      10.457100 [THz] =     348.811313 [cm-1]
     freq (    4) =      10.457100 [THz] =     348.811313 [cm-1]
     freq (    5) =      13.777108 [THz] =     459.554857 [cm-1]
     freq (    6) =      13.777108 [THz] =     459.554857 [cm-1]
 **************************************************************************

     init_run     :      1.24s CPU      1.28s WALL (       7 calls)
     electrons    :      7.15s CPU      7.72s WALL (       7 calls)

     Called by init_run:
     wfcinit      :      0.00s CPU      0.03s WALL (       7 calls)
     potinit      :      0.08s CPU      0.09s WALL (       7 calls)

     Called by electrons:
     c_bands      :      7.15s CPU      7.72s WALL (       7 calls)
     v_of_rho     :      0.06s CPU      0.06s WALL (       8 calls)
     newd         :      0.12s CPU      0.12s WALL (       8 calls)

     Called by c_bands:
     init_us_2    :      1.63s CPU      1.58s WALL (   16040 calls)
     cegterg      :      5.99s CPU      6.46s WALL (     796 calls)

     Called by sum_band:

     Called by *egterg:
     h_psi        :     68.47s CPU     73.34s WALL (  154429 calls)
     s_psi        :      5.67s CPU      6.96s WALL (  311260 calls)
     g_psi        :      0.05s CPU      0.07s WALL (    9666 calls)
     cdiaghg      :      0.56s CPU      0.56s WALL (   10462 calls)

     Called by h_psi:
     h_psi:pot    :     68.07s CPU     72.84s WALL (  154429 calls)
     h_psi:calbec :      3.47s CPU      3.98s WALL (  154429 calls)
     vloc_psi     :     59.97s CPU     64.72s WALL (  154429 calls)
     add_vuspsi   :      4.28s CPU      3.66s WALL (  154429 calls)

     General routines
     calbec       :      8.14s CPU      8.45s WALL (  345712 calls)
     fft          :      1.38s CPU      1.44s WALL (    5265 calls)
     ffts         :      0.21s CPU      0.23s WALL (    3320 calls)
     fftw         :     63.20s CPU     67.36s WALL ( 1383262 calls)
     interpolate  :      0.21s CPU      0.23s WALL (     572 calls)
     davcio       :      0.32s CPU      1.13s WALL (   69876 calls)

     Parallel routines
     fft_scatter  :     15.78s CPU     19.15s WALL ( 1391847 calls)

     PHONON       :  2m11.54s CPU     2m43.12s WALL

     INITIALIZATION: 
     phq_setup    :      0.22s CPU      0.51s WALL (       8 calls)
     phq_init     :      6.83s CPU      7.21s WALL (       8 calls)

     phq_init     :      6.83s CPU      7.21s WALL (       8 calls)
     set_drhoc    :      1.83s CPU      1.83s WALL (      24 calls)
     init_vloc    :      0.03s CPU      0.03s WALL (       8 calls)
     init_us_1    :      0.97s CPU      0.97s WALL (       8 calls)
     newd         :      0.12s CPU      0.12s WALL (       8 calls)
     dvanqq       :      1.19s CPU      1.19s WALL (       8 calls)
     drho         :      2.58s CPU      2.67s WALL (       8 calls)

     DYNAMICAL MATRIX:
     dynmat0      :      1.71s CPU      1.84s WALL (       8 calls)
     phqscf       :    111.31s CPU    136.90s WALL (       8 calls)
     dynmatrix    :      0.01s CPU      0.27s WALL (       8 calls)

     phqscf       :    111.31s CPU    136.90s WALL (       8 calls)
     solve_linter :    110.44s CPU    134.30s WALL (      32 calls)
     drhodv       :      0.58s CPU      0.60s WALL (      32 calls)

     dynmat0      :      1.71s CPU      1.84s WALL (       8 calls)
     dynmat_us    :      0.38s CPU      0.39s WALL (       8 calls)
     d2ionq       :      0.04s CPU      0.04s WALL (       8 calls)
     dynmatcc     :      1.28s CPU      1.28s WALL (       8 calls)

     dynmat_us    :      0.38s CPU      0.39s WALL (       8 calls)
     addusdynmat  :      0.00s CPU      0.00s WALL (       8 calls)

     phqscf       :    111.31s CPU    136.90s WALL (       8 calls)
     solve_linter :    110.44s CPU    134.30s WALL (      32 calls)

     solve_linter :    110.44s CPU    134.30s WALL (      32 calls)
     dvqpsi_us    :      2.11s CPU      2.28s WALL (    2508 calls)
     ortho        :      0.90s CPU      1.02s WALL (   13630 calls)
     cgsolve      :     76.01s CPU     82.60s WALL (   13630 calls)
     incdrhoscf   :      6.37s CPU      6.92s WALL (   13630 calls)
     addusddens   :      7.05s CPU      7.11s WALL (     202 calls)
     vpsifft      :      4.48s CPU      4.89s WALL (   11002 calls)
     dv_of_drho   :      1.24s CPU      1.28s WALL (     256 calls)
     mix_pot      :      0.34s CPU      8.25s WALL (     175 calls)
     psymdvscf    :      4.12s CPU      4.16s WALL (     170 calls)
     newdq        :      7.64s CPU      7.68s WALL (     175 calls)
     adddvscf     :      0.45s CPU      0.43s WALL (   11122 calls)
     drhodvus     :      0.01s CPU      0.01s WALL (      32 calls)

     dvqpsi_us    :      2.11s CPU      2.28s WALL (    2508 calls)
     dvqpsi_us_on :      0.90s CPU      0.95s WALL (    2508 calls)

     cgsolve      :     76.01s CPU     82.60s WALL (   13630 calls)
     ch_psi       :     74.87s CPU     80.87s WALL (  143171 calls)

     ch_psi       :     74.87s CPU     80.87s WALL (  143171 calls)
     h_psi        :     68.47s CPU     73.34s WALL (  154429 calls)
     last         :      8.92s CPU      9.07s WALL (  143171 calls)

     h_psi        :     68.47s CPU     73.34s WALL (  154429 calls)
     add_vuspsi   :      4.28s CPU      3.66s WALL (  154429 calls)

     incdrhoscf   :      6.37s CPU      6.92s WALL (   13630 calls)
     addusdbec    :      0.49s CPU      0.52s WALL (   16078 calls)

     drhodvus     :      0.01s CPU      0.01s WALL (      32 calls)

      General routines
     calbec       :      8.14s CPU      8.45s WALL (  345712 calls)
     fft          :      1.38s CPU      1.44s WALL (    5265 calls)
     ffts         :      0.21s CPU      0.23s WALL (    3320 calls)
     fftw         :     63.20s CPU     67.36s WALL ( 1383262 calls)
     davcio       :      0.32s CPU      1.13s WALL (   69876 calls)
     write_rec    :      0.22s CPU      9.50s WALL (     207 calls)


     PHONON       :  2m11.54s CPU     2m43.12s WALL


   This run was terminated on:  15:31:10  10Nov2017            

=------------------------------------------------------------------------------=
   JOB DONE.
=------------------------------------------------------------------------------=
