
     Program PHONON v.6.1 (svn rev. 13369) starts on  9Nov2017 at 12:21:46 

     This program is part of the open-source Quantum ESPRESSO suite
     for quantum simulation of materials; please cite
         "P. Giannozzi et al., J. Phys.:Condens. Matter 21 395502 (2009);
          URL http://www.quantum-espresso.org", 
     in publications or presentations arising from this work. More details at
     http://www.quantum-espresso.org/quote

     Parallel version (MPI), running on     4 processors
     R & G space division:  proc/nbgrp/npool/nimage =       4

     Reading data from directory:
     ./silicon.10.332.save

   Info: using nr1, nr2, nr3 values from input

   Info: using nr1, nr2, nr3 values from input

     IMPORTANT: XC functional enforced from input :
     Exchange-correlation      = SLA  PW   PBE  PBE ( 1  4  3  4 0 0)
     Any further DFT definition will be discarded
     Please, verify this is what you really want


     Parallelization info
     --------------------
     sticks:   dense  smooth     PW     G-vecs:    dense   smooth      PW
     Min          63      63     22                  684      684     140
     Max          64      64     23                  688      688     141
     Sum         253     253     91                 2741     2741     561


     Check: negative/imaginary core charge=   -0.000005    0.000000


     Dynamical matrices for ( 4, 4, 4)  uniform grid of q-points
     (   8q-points):
       N         xq(1)         xq(2)         xq(3) 
       1   0.000000000   0.000000000   0.000000000
       2  -0.250000000   0.250000000  -0.250000000
       3   0.500000000  -0.500000000   0.500000000
       4   0.000000000   0.500000000   0.000000000
       5   0.750000000  -0.250000000   0.750000000
       6   0.500000000   0.000000000   0.500000000
       7   0.000000000  -1.000000000   0.000000000
       8  -0.500000000  -1.000000000   0.000000000

     Calculation of q =    0.0000000   0.0000000   0.0000000

                                                                                

     bravais-lattice index     =            2
     lattice parameter (alat)  =      10.3320  a.u.
     unit-cell volume          =     275.7358 (a.u.)^3
     number of atoms/cell      =            2
     number of atomic types    =            1
     kinetic-energy cut-off    =      18.0000  Ry
     charge density cut-off    =      72.0000  Ry
     convergence threshold     =      1.0E-12
     beta                      =       0.7000
     number of iterations used =            4
     Exchange-correlation      = SLA  PW   PBE  PBE ( 1  4  3  4 0 0)


     celldm(1)=   10.33200  celldm(2)=    0.00000  celldm(3)=    0.00000
     celldm(4)=    0.00000  celldm(5)=    0.00000  celldm(6)=    0.00000

     crystal axes: (cart. coord. in units of alat)
               a(1) = ( -0.5000  0.0000  0.5000 )  
               a(2) = (  0.0000  0.5000  0.5000 )  
               a(3) = ( -0.5000  0.5000  0.0000 )  

     reciprocal axes: (cart. coord. in units 2 pi/alat)
               b(1) = ( -1.0000 -1.0000  1.0000 )  
               b(2) = (  1.0000  1.0000  1.0000 )  
               b(3) = ( -1.0000  1.0000 -1.0000 )  


     Atoms inside the unit cell: 

     Cartesian axes

     site n.  atom      mass           positions (alat units)
        1     Si  28.0860   tau(    1) = (    0.00000    0.00000    0.00000  )
        2     Si  28.0860   tau(    2) = (    0.25000    0.25000    0.25000  )

     Computing dynamical matrix for 
                    q = (   0.0000000   0.0000000   0.0000000 )

     49 Sym.Ops. (with q -> -q+G )


     G cutoff =  194.6891  (    685 G-vectors)     FFT grid: ( 20, 20, 20)
     number of k points=    10

     PseudoPot. # 1 for Si read from file:
     /home/max/quantum_espresso/qe-6.1/pseudo/si_pbe_v1.uspp.F.UPF.txt
     MD5 check sum: a056efeee980c13900f22a371efd63c1
     Pseudo is Ultrasoft + core correction, Zval =  4.0
     Generated by new atomic code, or converted to UPF format
     Using radial grid of  899 points,  6 beta functions with: 
                l(1) =   0
                l(2) =   0
                l(3) =   1
                l(4) =   1
                l(5) =   2
                l(6) =   2
     Q(r) pseudized with  8 coefficients,  rinner =    0.900   0.900   0.900
                                                       0.900   0.900

     Mode symmetry, O_h (m-3m)  point group:


     Electric field:
     Dielectric constant
     Born effective charges in two ways 


     Atomic displacements:
     There are   2 irreducible representations

     Representation     1      3 modes -T_2g G_25' G_5+  To be done

     Representation     2      3 modes -T_1u G_15  G_4-  To be done



     Alpha used in Ewald sum =   0.7000
     PHONON       :     0.40s CPU         0.55s WALL


     Electric Fields Calculation

      iter #   1 total cpu time :     1.0 secs   av.it.:   5.6
      thresh= 1.000E-02 alpha_mix =  0.700 |ddv_scf|^2 =  9.057E-07

      iter #   2 total cpu time :     1.2 secs   av.it.:   9.9
      thresh= 9.517E-05 alpha_mix =  0.700 |ddv_scf|^2 =  5.575E-08

      iter #   3 total cpu time :     1.4 secs   av.it.:   9.8
      thresh= 2.361E-05 alpha_mix =  0.700 |ddv_scf|^2 =  4.233E-09

      iter #   4 total cpu time :     1.5 secs   av.it.:   9.0
      thresh= 6.506E-06 alpha_mix =  0.700 |ddv_scf|^2 =  2.497E-11

      iter #   5 total cpu time :     1.7 secs   av.it.:   9.2
      thresh= 4.997E-07 alpha_mix =  0.700 |ddv_scf|^2 =  1.328E-14

     End of electric fields calculation

          Dielectric constant in cartesian axis 

          (      13.868175410      -0.000000000       0.000000000 )
          (      -0.000000000      13.868175410      -0.000000000 )
          (       0.000000000       0.000000000      13.868175410 )

          Effective charges (d Force / dE) in cartesian axis

           atom      1   Si 
      Ex  (       -0.03115        0.00000        0.00000 )
      Ey  (        0.00000       -0.03115       -0.00000 )
      Ez  (        0.00000       -0.00000       -0.03115 )
           atom      2   Si 
      Ex  (       -0.03115        0.00000        0.00000 )
      Ey  (        0.00000       -0.03115       -0.00000 )
      Ez  (        0.00000       -0.00000       -0.03115 )


     Representation #  1 modes #   1  2  3

     Self-consistent Calculation

      iter #   1 total cpu time :     2.3 secs   av.it.:   4.9
      thresh= 1.000E-02 alpha_mix =  0.700 |ddv_scf|^2 =  2.252E-07

      iter #   2 total cpu time :     2.5 secs   av.it.:   9.8
      thresh= 4.745E-05 alpha_mix =  0.700 |ddv_scf|^2 =  1.395E-08

      iter #   3 total cpu time :     2.7 secs   av.it.:   9.3
      thresh= 1.181E-05 alpha_mix =  0.700 |ddv_scf|^2 =  8.595E-10

      iter #   4 total cpu time :     2.9 secs   av.it.:   9.0
      thresh= 2.932E-06 alpha_mix =  0.700 |ddv_scf|^2 =  1.888E-12

      iter #   5 total cpu time :     3.1 secs   av.it.:   9.5
      thresh= 1.374E-07 alpha_mix =  0.700 |ddv_scf|^2 =  1.230E-14

     End of self-consistent calculation

     Convergence has been achieved 


     Representation #  2 modes #   4  5  6

     Self-consistent Calculation

      iter #   1 total cpu time :     3.4 secs   av.it.:   5.0
      thresh= 1.000E-02 alpha_mix =  0.700 |ddv_scf|^2 =  1.707E-07

      iter #   2 total cpu time :     3.6 secs   av.it.:   9.6
      thresh= 4.132E-05 alpha_mix =  0.700 |ddv_scf|^2 =  1.332E-08

      iter #   3 total cpu time :     3.8 secs   av.it.:   9.3
      thresh= 1.154E-05 alpha_mix =  0.700 |ddv_scf|^2 =  8.486E-10

      iter #   4 total cpu time :     4.0 secs   av.it.:   9.5
      thresh= 2.913E-06 alpha_mix =  0.700 |ddv_scf|^2 =  5.084E-12

      iter #   5 total cpu time :     4.4 secs   av.it.:   9.0
      thresh= 2.255E-07 alpha_mix =  0.700 |ddv_scf|^2 =  4.428E-15

     End of self-consistent calculation

     Convergence has been achieved 

     Number of q in the star =    1
     List of q in the star:
          1   0.000000000   0.000000000   0.000000000

          Dielectric constant in cartesian axis 

          (      13.868175410      -0.000000000       0.000000000 )
          (      -0.000000000      13.868175410      -0.000000000 )
          (       0.000000000       0.000000000      13.868175410 )

          Effective charges (d Force / dE) in cartesian axis

           atom      1   Si 
      Ex  (       -0.03115        0.00000        0.00000 )
      Ey  (        0.00000       -0.03115       -0.00000 )
      Ez  (        0.00000       -0.00000       -0.03115 )
           atom      2   Si 
      Ex  (       -0.03115        0.00000        0.00000 )
      Ey  (        0.00000       -0.03115       -0.00000 )
      Ez  (        0.00000       -0.00000       -0.03115 )

          Effective charges (d P / du) in cartesian axis 

           atom      1   Si 
      Px  (       -0.07249        0.00000        0.00000 )
      Py  (        0.00000       -0.07249        0.00000 )
      Pz  (       -0.00000        0.00000       -0.07249 )
           atom      2   Si 
      Px  (       -0.07249       -0.00000       -0.00000 )
      Py  (       -0.00000       -0.07249        0.00000 )
      Pz  (       -0.00000       -0.00000       -0.07249 )

     Diagonalizing the dynamical matrix

     q = (    0.000000000   0.000000000   0.000000000 ) 

 **************************************************************************
     freq (    1) =       1.947576 [THz] =      64.964151 [cm-1]
     freq (    2) =       1.947576 [THz] =      64.964151 [cm-1]
     freq (    3) =       1.947576 [THz] =      64.964151 [cm-1]
     freq (    4) =      15.017625 [THz] =     500.934057 [cm-1]
     freq (    5) =      15.017625 [THz] =     500.934057 [cm-1]
     freq (    6) =      15.017625 [THz] =     500.934057 [cm-1]
 **************************************************************************

     Mode symmetry, O_h (m-3m)  point group:

     freq (  1 -  3) =         65.0  [cm-1]   --> T_1u G_15  G_4- I  
     freq (  4 -  6) =        500.9  [cm-1]   --> T_2g G_25' G_5+ R  

     Calculation of q =   -0.2500000   0.2500000  -0.2500000

   Info: using nr1, nr2, nr3 values from input

   Info: using nr1, nr2, nr3 values from input

     Parallelization info
     --------------------
     sticks:   dense  smooth     PW     G-vecs:    dense   smooth      PW
     Min          63      63     24                  684      684     161
     Max          64      64     25                  688      688     162
     Sum         253     253     97                 2741     2741     645



     bravais-lattice index     =            2
     lattice parameter (alat)  =      10.3320  a.u.
     unit-cell volume          =     275.7358 (a.u.)^3
     number of atoms/cell      =            2
     number of atomic types    =            1
     number of electrons       =         8.00
     number of Kohn-Sham states=            4
     kinetic-energy cutoff     =      18.0000  Ry
     charge density cutoff     =      72.0000  Ry
     Exchange-correlation      = SLA  PW   PBE  PBE ( 1  4  3  4 0 0)

     celldm(1)=  10.332000  celldm(2)=   0.000000  celldm(3)=   0.000000
     celldm(4)=   0.000000  celldm(5)=   0.000000  celldm(6)=   0.000000

     crystal axes: (cart. coord. in units of alat)
               a(1) = (  -0.500000   0.000000   0.500000 )  
               a(2) = (   0.000000   0.500000   0.500000 )  
               a(3) = (  -0.500000   0.500000   0.000000 )  

     reciprocal axes: (cart. coord. in units 2 pi/alat)
               b(1) = ( -1.000000 -1.000000  1.000000 )  
               b(2) = (  1.000000  1.000000  1.000000 )  
               b(3) = ( -1.000000  1.000000 -1.000000 )  


     PseudoPot. # 1 for Si read from file:
     /home/max/quantum_espresso/qe-6.1/pseudo/si_pbe_v1.uspp.F.UPF.txt
     MD5 check sum: a056efeee980c13900f22a371efd63c1
     Pseudo is Ultrasoft + core correction, Zval =  4.0
     Generated by new atomic code, or converted to UPF format
     Using radial grid of  899 points,  6 beta functions with: 
                l(1) =   0
                l(2) =   0
                l(3) =   1
                l(4) =   1
                l(5) =   2
                l(6) =   2
     Q(r) pseudized with  8 coefficients,  rinner =    0.900   0.900   0.900
                                                       0.900   0.900

     atomic species   valence    mass     pseudopotential
        Si             4.00    28.08600     Si( 1.00)

     48 Sym. Ops., with inversion, found



   Cartesian axes

     site n.     atom                  positions (alat units)
         1           Si  tau(   1) = (   0.0000000   0.0000000   0.0000000  )
         2           Si  tau(   2) = (   0.2500000   0.2500000   0.2500000  )

     number of k points=   120

     Number of k-points >= 100: set verbosity='high' to print them.

     Dense  grid:     2741 G-vectors     FFT dimensions: (  20,  20,  20)

     Estimated max dynamical RAM per process >       0.33MB

     Estimated total allocated dynamical RAM >       1.31MB

     Check: negative/imaginary core charge=   -0.000005    0.000000

     The potential is recalculated from file :
     ./_ph0/silicon.10.332.save/charge-density.dat

     Starting wfc are    8 atomic wfcs

     Band Structure Calculation
     Davidson diagonalization with overlap

     ethr =  1.25E-10,  avg # of iterations = 11.7

     total cpu time spent up to now is        0.9 secs

     End of band structure calculation

     Number of k-points >= 100: set verbosity='high' to print the bands.

     highest occupied level (ev):     5.7045

     Writing output data file silicon.10.332.save

                                                                                

     bravais-lattice index     =            2
     lattice parameter (alat)  =      10.3320  a.u.
     unit-cell volume          =     275.7358 (a.u.)^3
     number of atoms/cell      =            2
     number of atomic types    =            1
     kinetic-energy cut-off    =      18.0000  Ry
     charge density cut-off    =      72.0000  Ry
     convergence threshold     =      1.0E-12
     beta                      =       0.7000
     number of iterations used =            4
     Exchange-correlation      = SLA  PW   PBE  PBE ( 1  4  3  4 0 0)


     celldm(1)=   10.33200  celldm(2)=    0.00000  celldm(3)=    0.00000
     celldm(4)=    0.00000  celldm(5)=    0.00000  celldm(6)=    0.00000

     crystal axes: (cart. coord. in units of alat)
               a(1) = ( -0.5000  0.0000  0.5000 )  
               a(2) = (  0.0000  0.5000  0.5000 )  
               a(3) = ( -0.5000  0.5000  0.0000 )  

     reciprocal axes: (cart. coord. in units 2 pi/alat)
               b(1) = ( -1.0000 -1.0000  1.0000 )  
               b(2) = (  1.0000  1.0000  1.0000 )  
               b(3) = ( -1.0000  1.0000 -1.0000 )  


     Atoms inside the unit cell: 

     Cartesian axes

     site n.  atom      mass           positions (alat units)
        1     Si  28.0860   tau(    1) = (    0.00000    0.00000    0.00000  )
        2     Si  28.0860   tau(    2) = (    0.25000    0.25000    0.25000  )

     Computing dynamical matrix for 
                    q = (  -0.2500000   0.2500000  -0.2500000 )

      6 Sym.Ops. (no q -> -q+G )


     G cutoff =  194.6891  (    685 G-vectors)     FFT grid: ( 20, 20, 20)
     number of k points=   120

     PseudoPot. # 1 for Si read from file:
     /home/max/quantum_espresso/qe-6.1/pseudo/si_pbe_v1.uspp.F.UPF.txt
     MD5 check sum: a056efeee980c13900f22a371efd63c1
     Pseudo is Ultrasoft + core correction, Zval =  4.0
     Generated by new atomic code, or converted to UPF format
     Using radial grid of  899 points,  6 beta functions with: 
                l(1) =   0
                l(2) =   0
                l(3) =   1
                l(4) =   1
                l(5) =   2
                l(6) =   2
     Q(r) pseudized with  8 coefficients,  rinner =    0.900   0.900   0.900
                                                       0.900   0.900

     Mode symmetry, C_3v (3m)   point group:


     Atomic displacements:
     There are   4 irreducible representations

     Representation     1      1 modes -A_1  L_1  To be done

     Representation     2      1 modes -A_1  L_1  To be done

     Representation     3      2 modes -E    L_3  To be done

     Representation     4      2 modes -E    L_3  To be done



     Alpha used in Ewald sum =   0.7000
     PHONON       :     5.14s CPU         5.82s WALL



     Representation #  1 mode #   1

     Self-consistent Calculation

      iter #   1 total cpu time :     6.2 secs   av.it.:   5.5
      thresh= 1.000E-02 alpha_mix =  0.700 |ddv_scf|^2 =  2.472E-03

      iter #   2 total cpu time :     6.5 secs   av.it.:   7.5
      thresh= 4.972E-03 alpha_mix =  0.700 |ddv_scf|^2 =  3.730E-02

      iter #   3 total cpu time :     6.8 secs   av.it.:   6.3
      thresh= 1.000E-02 alpha_mix =  0.700 |ddv_scf|^2 =  1.718E-06

      iter #   4 total cpu time :     7.0 secs   av.it.:   8.2
      thresh= 1.311E-04 alpha_mix =  0.700 |ddv_scf|^2 =  1.150E-07

      iter #   5 total cpu time :     7.3 secs   av.it.:   8.1
      thresh= 3.392E-05 alpha_mix =  0.700 |ddv_scf|^2 =  4.372E-09

      iter #   6 total cpu time :     7.6 secs   av.it.:   8.0
      thresh= 6.612E-06 alpha_mix =  0.700 |ddv_scf|^2 =  5.226E-09

      iter #   7 total cpu time :     7.9 secs   av.it.:   6.0
      thresh= 7.229E-06 alpha_mix =  0.700 |ddv_scf|^2 =  3.951E-10

      iter #   8 total cpu time :     8.4 secs   av.it.:   7.3
      thresh= 1.988E-06 alpha_mix =  0.700 |ddv_scf|^2 =  3.681E-12

      iter #   9 total cpu time :     8.7 secs   av.it.:   7.1
      thresh= 1.919E-07 alpha_mix =  0.700 |ddv_scf|^2 =  1.258E-13

     End of self-consistent calculation

     Convergence has been achieved 


     Representation #  2 mode #   2

     Self-consistent Calculation

      iter #   1 total cpu time :     8.9 secs   av.it.:   5.5
      thresh= 1.000E-02 alpha_mix =  0.700 |ddv_scf|^2 =  2.472E-03

      iter #   2 total cpu time :     9.2 secs   av.it.:   7.5
      thresh= 4.972E-03 alpha_mix =  0.700 |ddv_scf|^2 =  3.730E-02

      iter #   3 total cpu time :     9.5 secs   av.it.:   6.3
      thresh= 1.000E-02 alpha_mix =  0.700 |ddv_scf|^2 =  1.718E-06

      iter #   4 total cpu time :     9.8 secs   av.it.:   8.2
      thresh= 1.311E-04 alpha_mix =  0.700 |ddv_scf|^2 =  1.150E-07

      iter #   5 total cpu time :    10.1 secs   av.it.:   8.1
      thresh= 3.392E-05 alpha_mix =  0.700 |ddv_scf|^2 =  4.372E-09

      iter #   6 total cpu time :    10.5 secs   av.it.:   8.0
      thresh= 6.612E-06 alpha_mix =  0.700 |ddv_scf|^2 =  5.226E-09

      iter #   7 total cpu time :    10.7 secs   av.it.:   6.0
      thresh= 7.229E-06 alpha_mix =  0.700 |ddv_scf|^2 =  3.951E-10

      iter #   8 total cpu time :    11.0 secs   av.it.:   7.3
      thresh= 1.988E-06 alpha_mix =  0.700 |ddv_scf|^2 =  3.681E-12

      iter #   9 total cpu time :    11.3 secs   av.it.:   7.1
      thresh= 1.919E-07 alpha_mix =  0.700 |ddv_scf|^2 =  1.258E-13

     End of self-consistent calculation

     Convergence has been achieved 


     Representation #  3 modes #   3  4

     Self-consistent Calculation

      iter #   1 total cpu time :    11.8 secs   av.it.:   4.9
      thresh= 1.000E-02 alpha_mix =  0.700 |ddv_scf|^2 =  5.563E-07

      iter #   2 total cpu time :    12.6 secs   av.it.:   9.5
      thresh= 7.459E-05 alpha_mix =  0.700 |ddv_scf|^2 =  4.107E-08

      iter #   3 total cpu time :    13.3 secs   av.it.:   9.2
      thresh= 2.027E-05 alpha_mix =  0.700 |ddv_scf|^2 =  3.528E-09

      iter #   4 total cpu time :    13.9 secs   av.it.:   9.0
      thresh= 5.940E-06 alpha_mix =  0.700 |ddv_scf|^2 =  1.084E-11

      iter #   5 total cpu time :    14.7 secs   av.it.:   9.2
      thresh= 3.293E-07 alpha_mix =  0.700 |ddv_scf|^2 =  4.937E-13

     End of self-consistent calculation

     Convergence has been achieved 


     Representation #  4 modes #   5  6

     Self-consistent Calculation

      iter #   1 total cpu time :    15.2 secs   av.it.:   5.0
      thresh= 1.000E-02 alpha_mix =  0.700 |ddv_scf|^2 =  5.563E-07

      iter #   2 total cpu time :    15.9 secs   av.it.:   9.6
      thresh= 7.458E-05 alpha_mix =  0.700 |ddv_scf|^2 =  4.104E-08

      iter #   3 total cpu time :    16.8 secs   av.it.:   9.4
      thresh= 2.026E-05 alpha_mix =  0.700 |ddv_scf|^2 =  3.526E-09

      iter #   4 total cpu time :    17.4 secs   av.it.:   9.1
      thresh= 5.938E-06 alpha_mix =  0.700 |ddv_scf|^2 =  1.085E-11

      iter #   5 total cpu time :    18.2 secs   av.it.:   9.2
      thresh= 3.294E-07 alpha_mix =  0.700 |ddv_scf|^2 =  4.942E-13

     End of self-consistent calculation

     Convergence has been achieved 

     Number of q in the star =    8
     List of q in the star:
          1  -0.250000000   0.250000000  -0.250000000
          2   0.250000000  -0.250000000  -0.250000000
          3   0.250000000  -0.250000000   0.250000000
          4   0.250000000   0.250000000   0.250000000
          5  -0.250000000  -0.250000000  -0.250000000
          6  -0.250000000  -0.250000000   0.250000000
          7  -0.250000000   0.250000000   0.250000000
          8   0.250000000   0.250000000  -0.250000000

     Diagonalizing the dynamical matrix

     q = (   -0.250000000   0.250000000  -0.250000000 ) 

 **************************************************************************
     freq (    1) =       3.391580 [THz] =     113.130917 [cm-1]
     freq (    2) =       3.391580 [THz] =     113.130917 [cm-1]
     freq (    3) =       6.938145 [THz] =     231.431596 [cm-1]
     freq (    4) =      14.091658 [THz] =     470.047115 [cm-1]
     freq (    5) =      14.403690 [THz] =     480.455371 [cm-1]
     freq (    6) =      14.403690 [THz] =     480.455371 [cm-1]
 **************************************************************************

     Mode symmetry, C_3v (3m)   point group:

     freq (  1 -  2) =        113.1  [cm-1]   --> E    L_3           
     freq (  3 -  3) =        231.4  [cm-1]   --> A_1  L_1           
     freq (  4 -  4) =        470.0  [cm-1]   --> A_1  L_1           
     freq (  5 -  6) =        480.5  [cm-1]   --> E    L_3           

     Calculation of q =    0.5000000  -0.5000000   0.5000000

   Info: using nr1, nr2, nr3 values from input

   Info: using nr1, nr2, nr3 values from input

     Parallelization info
     --------------------
     sticks:   dense  smooth     PW     G-vecs:    dense   smooth      PW
     Min          63      63     27                  684      684     186
     Max          64      64     28                  688      688     189
     Sum         253     253    109                 2741     2741     749



     bravais-lattice index     =            2
     lattice parameter (alat)  =      10.3320  a.u.
     unit-cell volume          =     275.7358 (a.u.)^3
     number of atoms/cell      =            2
     number of atomic types    =            1
     number of electrons       =         8.00
     number of Kohn-Sham states=            4
     kinetic-energy cutoff     =      18.0000  Ry
     charge density cutoff     =      72.0000  Ry
     Exchange-correlation      = SLA  PW   PBE  PBE ( 1  4  3  4 0 0)

     celldm(1)=  10.332000  celldm(2)=   0.000000  celldm(3)=   0.000000
     celldm(4)=   0.000000  celldm(5)=   0.000000  celldm(6)=   0.000000

     crystal axes: (cart. coord. in units of alat)
               a(1) = (  -0.500000   0.000000   0.500000 )  
               a(2) = (   0.000000   0.500000   0.500000 )  
               a(3) = (  -0.500000   0.500000   0.000000 )  

     reciprocal axes: (cart. coord. in units 2 pi/alat)
               b(1) = ( -1.000000 -1.000000  1.000000 )  
               b(2) = (  1.000000  1.000000  1.000000 )  
               b(3) = ( -1.000000  1.000000 -1.000000 )  


     PseudoPot. # 1 for Si read from file:
     /home/max/quantum_espresso/qe-6.1/pseudo/si_pbe_v1.uspp.F.UPF.txt
     MD5 check sum: a056efeee980c13900f22a371efd63c1
     Pseudo is Ultrasoft + core correction, Zval =  4.0
     Generated by new atomic code, or converted to UPF format
     Using radial grid of  899 points,  6 beta functions with: 
                l(1) =   0
                l(2) =   0
                l(3) =   1
                l(4) =   1
                l(5) =   2
                l(6) =   2
     Q(r) pseudized with  8 coefficients,  rinner =    0.900   0.900   0.900
                                                       0.900   0.900

     atomic species   valence    mass     pseudopotential
        Si             4.00    28.08600     Si( 1.00)

     48 Sym. Ops., with inversion, found



   Cartesian axes

     site n.     atom                  positions (alat units)
         1           Si  tau(   1) = (   0.0000000   0.0000000   0.0000000  )
         2           Si  tau(   2) = (   0.2500000   0.2500000   0.2500000  )

     number of k points=    60
                       cart. coord. in units 2pi/alat
        k(    1) = (  -0.1250000   0.1250000   0.1250000), wk =   0.0468750
        k(    2) = (   0.3750000  -0.3750000   0.6250000), wk =   0.0000000
        k(    3) = (  -0.3750000   0.3750000  -0.1250000), wk =   0.0468750
        k(    4) = (   0.1250000  -0.1250000   0.3750000), wk =   0.0000000
        k(    5) = (   0.3750000  -0.3750000   0.6250000), wk =   0.0468750
        k(    6) = (   0.8750000  -0.8750000   1.1250000), wk =   0.0000000
        k(    7) = (   0.1250000  -0.1250000   0.3750000), wk =   0.0468750
        k(    8) = (   0.6250000  -0.6250000   0.8750000), wk =   0.0000000
        k(    9) = (  -0.1250000   0.6250000   0.1250000), wk =   0.0937500
        k(   10) = (   0.3750000   0.1250000   0.6250000), wk =   0.0000000
        k(   11) = (   0.6250000  -0.1250000   0.8750000), wk =   0.0937500
        k(   12) = (   1.1250000  -0.6250000   1.3750000), wk =   0.0000000
        k(   13) = (   0.3750000   0.1250000   0.6250000), wk =   0.0937500
        k(   14) = (   0.8750000  -0.3750000   1.1250000), wk =   0.0000000
        k(   15) = (  -0.1250000  -0.8750000   0.1250000), wk =   0.0937500
        k(   16) = (   0.3750000  -1.3750000   0.6250000), wk =   0.0000000
        k(   17) = (  -0.3750000   0.3750000   0.3750000), wk =   0.0468750
        k(   18) = (   0.1250000  -0.1250000   0.8750000), wk =   0.0000000
        k(   19) = (   0.3750000  -0.3750000   1.1250000), wk =   0.0468750
        k(   20) = (   0.8750000  -0.8750000   1.6250000), wk =   0.0000000
        k(   21) = (   0.1250000  -0.1250000   0.1250000), wk =   0.0156250
        k(   22) = (   0.6250000  -0.6250000   0.6250000), wk =   0.0000000
        k(   23) = (  -0.3750000  -0.3750000  -0.1250000), wk =   0.0937500
        k(   24) = (   0.1250000  -0.8750000   0.3750000), wk =   0.0000000
        k(   25) = (  -0.1250000  -0.3750000   0.3750000), wk =   0.0468750
        k(   26) = (   0.3750000  -0.8750000   0.8750000), wk =   0.0000000
        k(   27) = (   0.3750000   0.3750000   0.6250000), wk =   0.0937500
        k(   28) = (   0.8750000  -0.1250000   1.1250000), wk =   0.0000000
        k(   29) = (   0.6250000   0.3750000  -0.3750000), wk =   0.0468750
        k(   30) = (   1.1250000  -0.1250000   0.1250000), wk =   0.0000000
        k(   31) = (   0.1250000   0.1250000   0.3750000), wk =   0.0937500
        k(   32) = (   0.6250000  -0.3750000   0.8750000), wk =   0.0000000
        k(   33) = (   0.3750000   0.1250000  -0.1250000), wk =   0.0468750
        k(   34) = (   0.8750000  -0.3750000   0.3750000), wk =   0.0000000
        k(   35) = (  -0.1250000  -0.6250000  -0.1250000), wk =   0.0468750
        k(   36) = (   0.3750000  -1.1250000   0.3750000), wk =   0.0000000
        k(   37) = (   0.1250000  -0.6250000   0.1250000), wk =   0.0468750
        k(   38) = (   0.6250000  -1.1250000   0.6250000), wk =   0.0000000
        k(   39) = (   0.6250000   0.1250000   0.8750000), wk =   0.0937500
        k(   40) = (   1.1250000  -0.3750000   1.3750000), wk =   0.0000000
        k(   41) = (  -0.8750000   0.1250000   0.6250000), wk =   0.0937500
        k(   42) = (  -0.3750000  -0.3750000   1.1250000), wk =   0.0000000
        k(   43) = (   0.8750000   0.1250000  -0.6250000), wk =   0.0937500
        k(   44) = (   1.3750000  -0.3750000  -0.1250000), wk =   0.0000000
        k(   45) = (   0.3750000  -0.1250000   0.6250000), wk =   0.0937500
        k(   46) = (   0.8750000  -0.6250000   1.1250000), wk =   0.0000000
        k(   47) = (  -0.6250000  -0.1250000   0.3750000), wk =   0.0937500
        k(   48) = (  -0.1250000  -0.6250000   0.8750000), wk =   0.0000000
        k(   49) = (   0.6250000  -0.1250000  -0.3750000), wk =   0.0937500
        k(   50) = (   1.1250000  -0.6250000   0.1250000), wk =   0.0000000
        k(   51) = (  -0.1250000   0.8750000  -0.1250000), wk =   0.0468750
        k(   52) = (   0.3750000   0.3750000   0.3750000), wk =   0.0000000
        k(   53) = (   0.1250000   0.8750000   0.1250000), wk =   0.0468750
        k(   54) = (   0.6250000   0.3750000   0.6250000), wk =   0.0000000
        k(   55) = (   0.3750000  -0.3750000   0.3750000), wk =   0.0156250
        k(   56) = (   0.8750000  -0.8750000   0.8750000), wk =   0.0000000
        k(   57) = (   0.3750000   0.3750000   1.1250000), wk =   0.0937500
        k(   58) = (   0.8750000  -0.1250000   1.6250000), wk =   0.0000000
        k(   59) = (   1.1250000   0.3750000  -0.3750000), wk =   0.0468750
        k(   60) = (   1.6250000  -0.1250000   0.1250000), wk =   0.0000000

     Dense  grid:     2741 G-vectors     FFT dimensions: (  20,  20,  20)

     Estimated max dynamical RAM per process >       0.33MB

     Estimated total allocated dynamical RAM >       1.31MB

     Check: negative/imaginary core charge=   -0.000005    0.000000

     The potential is recalculated from file :
     ./_ph0/silicon.10.332.save/charge-density.dat

     Starting wfc are    8 atomic wfcs

     Band Structure Calculation
     Davidson diagonalization with overlap

     ethr =  1.25E-10,  avg # of iterations = 11.7

     total cpu time spent up to now is        1.5 secs

     End of band structure calculation

          k =-0.1250 0.1250 0.1250 (   338 PWs)   bands (ev):

    -5.6289   4.3958   5.7045   5.7045

          k = 0.3750-0.3750 0.6250 (   361 PWs)   bands (ev):

    -3.4689  -0.6706   3.7415   4.4523

          k =-0.3750 0.3750-0.1250 (   352 PWs)   bands (ev):

    -4.6047   1.4027   3.7230   5.2226

          k = 0.1250-0.1250 0.3750 (   353 PWs)   bands (ev):

    -5.1025   2.7771   4.6972   4.7611

          k = 0.3750-0.3750 0.6250 (   361 PWs)   bands (ev):

    -3.4689  -0.6706   3.7415   4.4523

          k = 0.8750-0.8750 1.1250 (   338 PWs)   bands (ev):

    -5.6289   4.3958   5.7045   5.7045

          k = 0.1250-0.1250 0.3750 (   353 PWs)   bands (ev):

    -5.1025   2.7771   4.6972   4.7611

          k = 0.6250-0.6250 0.8750 (   352 PWs)   bands (ev):

    -4.6047   1.4027   3.7230   5.2226

          k =-0.1250 0.6250 0.1250 (   351 PWs)   bands (ev):

    -4.0729   1.0647   3.3753   3.8238

          k = 0.3750 0.1250 0.6250 (   357 PWs)   bands (ev):

    -3.6588   0.1949   2.7354   4.0994

          k = 0.6250-0.1250 0.8750 (   361 PWs)   bands (ev):

    -2.4368  -0.8967   2.0267   3.0983

          k = 1.1250-0.6250 1.3750 (   352 PWs)   bands (ev):

    -4.6047   1.4027   3.7230   5.2226

          k = 0.3750 0.1250 0.6250 (   357 PWs)   bands (ev):

    -3.6588   0.1949   2.7354   4.0994

          k = 0.8750-0.3750 1.1250 (   351 PWs)   bands (ev):

    -4.0729   1.0647   3.3753   3.8238

          k =-0.1250-0.8750 0.1250 (   358 PWs)   bands (ev):

    -2.6033  -0.7996   2.6329   3.3571

          k = 0.3750-1.3750 0.6250 (   361 PWs)   bands (ev):

    -3.4689  -0.6706   3.7415   4.4523

          k =-0.3750 0.3750 0.3750 (   353 PWs)   bands (ev):

    -4.1735   0.1167   4.9162   4.9162

          k = 0.1250-0.1250 0.8750 (   358 PWs)   bands (ev):

    -2.6033  -0.7996   2.6329   3.3571

          k = 0.3750-0.3750 1.1250 (   361 PWs)   bands (ev):

    -2.9736  -0.5906   2.0837   4.1364

          k = 0.8750-0.8750 1.6250 (   351 PWs)   bands (ev):

    -4.0729   1.0647   3.3753   3.8238

          k = 0.1250-0.1250 0.1250 (   338 PWs)   bands (ev):

    -5.6289   4.3958   5.7045   5.7045

          k = 0.6250-0.6250 0.6250 (   353 PWs)   bands (ev):

    -4.1735   0.1167   4.9162   4.9162

          k =-0.3750-0.3750-0.1250 (   352 PWs)   bands (ev):

    -4.6047   1.4027   3.7230   5.2226

          k = 0.1250-0.8750 0.3750 (   361 PWs)   bands (ev):

    -2.4368  -0.8967   2.0267   3.0983

          k =-0.1250-0.3750 0.3750 (   352 PWs)   bands (ev):

    -4.6047   1.4027   3.7230   5.2226

          k = 0.3750-0.8750 0.8750 (   351 PWs)   bands (ev):

    -4.0729   1.0647   3.3753   3.8238

          k = 0.3750 0.3750 0.6250 (   361 PWs)   bands (ev):

    -3.4689  -0.6706   3.7415   4.4523

          k = 0.8750-0.1250 1.1250 (   358 PWs)   bands (ev):

    -2.6033  -0.7996   2.6329   3.3571

          k = 0.6250 0.3750-0.3750 (   361 PWs)   bands (ev):

    -3.4689  -0.6706   3.7415   4.4523

          k = 1.1250-0.1250 0.1250 (   358 PWs)   bands (ev):

    -2.6033  -0.7996   2.6329   3.3571

          k = 0.1250 0.1250 0.3750 (   353 PWs)   bands (ev):

    -5.1025   2.7771   4.6972   4.7611

          k = 0.6250-0.3750 0.8750 (   357 PWs)   bands (ev):

    -3.6588   0.1949   2.7354   4.0994

          k = 0.3750 0.1250-0.1250 (   353 PWs)   bands (ev):

    -5.1025   2.7771   4.6972   4.7611

          k = 0.8750-0.3750 0.3750 (   361 PWs)   bands (ev):

    -2.9736  -0.5906   2.0837   4.1364

          k =-0.1250-0.6250-0.1250 (   351 PWs)   bands (ev):

    -4.0729   1.0647   3.3753   3.8238

          k = 0.3750-1.1250 0.3750 (   361 PWs)   bands (ev):

    -2.9736  -0.5906   2.0837   4.1364

          k = 0.1250-0.6250 0.1250 (   351 PWs)   bands (ev):

    -4.0729   1.0647   3.3753   3.8238

          k = 0.6250-1.1250 0.6250 (   352 PWs)   bands (ev):

    -4.6047   1.4027   3.7230   5.2226

          k = 0.6250 0.1250 0.8750 (   361 PWs)   bands (ev):

    -2.4368  -0.8967   2.0267   3.0983

          k = 1.1250-0.3750 1.3750 (   357 PWs)   bands (ev):

    -3.6588   0.1949   2.7354   4.0994

          k =-0.8750 0.1250 0.6250 (   361 PWs)   bands (ev):

    -2.4368  -0.8967   2.0267   3.0983

          k =-0.3750-0.3750 1.1250 (   361 PWs)   bands (ev):

    -2.9736  -0.5906   2.0837   4.1364

          k = 0.8750 0.1250-0.6250 (   361 PWs)   bands (ev):

    -2.4368  -0.8967   2.0267   3.0983

          k = 1.3750-0.3750-0.1250 (   357 PWs)   bands (ev):

    -3.6588   0.1949   2.7354   4.0994

          k = 0.3750-0.1250 0.6250 (   357 PWs)   bands (ev):

    -3.6588   0.1949   2.7354   4.0994

          k = 0.8750-0.6250 1.1250 (   353 PWs)   bands (ev):

    -5.1025   2.7771   4.6972   4.7611

          k =-0.6250-0.1250 0.3750 (   357 PWs)   bands (ev):

    -3.6588   0.1949   2.7354   4.0994

          k =-0.1250-0.6250 0.8750 (   361 PWs)   bands (ev):

    -2.4368  -0.8967   2.0267   3.0983

          k = 0.6250-0.1250-0.3750 (   357 PWs)   bands (ev):

    -3.6588   0.1949   2.7354   4.0994

          k = 1.1250-0.6250 0.1250 (   361 PWs)   bands (ev):

    -2.4368  -0.8967   2.0267   3.0983

          k =-0.1250 0.8750-0.1250 (   358 PWs)   bands (ev):

    -2.6033  -0.7996   2.6329   3.3571

          k = 0.3750 0.3750 0.3750 (   353 PWs)   bands (ev):

    -4.1735   0.1167   4.9162   4.9162

          k = 0.1250 0.8750 0.1250 (   358 PWs)   bands (ev):

    -2.6033  -0.7996   2.6329   3.3571

          k = 0.6250 0.3750 0.6250 (   361 PWs)   bands (ev):

    -3.4689  -0.6706   3.7415   4.4523

          k = 0.3750-0.3750 0.3750 (   353 PWs)   bands (ev):

    -4.1735   0.1167   4.9162   4.9162

          k = 0.8750-0.8750 0.8750 (   338 PWs)   bands (ev):

    -5.6289   4.3958   5.7045   5.7045

          k = 0.3750 0.3750 1.1250 (   361 PWs)   bands (ev):

    -2.9736  -0.5906   2.0837   4.1364

          k = 0.8750-0.1250 1.6250 (   361 PWs)   bands (ev):

    -2.4368  -0.8967   2.0267   3.0983

          k = 1.1250 0.3750-0.3750 (   361 PWs)   bands (ev):

    -2.9736  -0.5906   2.0837   4.1364

          k = 1.6250-0.1250 0.1250 (   353 PWs)   bands (ev):

    -5.1025   2.7771   4.6972   4.7611

     highest occupied level (ev):     5.7045

     Writing output data file silicon.10.332.save

                                                                                

     bravais-lattice index     =            2
     lattice parameter (alat)  =      10.3320  a.u.
     unit-cell volume          =     275.7358 (a.u.)^3
     number of atoms/cell      =            2
     number of atomic types    =            1
     kinetic-energy cut-off    =      18.0000  Ry
     charge density cut-off    =      72.0000  Ry
     convergence threshold     =      1.0E-12
     beta                      =       0.7000
     number of iterations used =            4
     Exchange-correlation      = SLA  PW   PBE  PBE ( 1  4  3  4 0 0)


     celldm(1)=   10.33200  celldm(2)=    0.00000  celldm(3)=    0.00000
     celldm(4)=    0.00000  celldm(5)=    0.00000  celldm(6)=    0.00000

     crystal axes: (cart. coord. in units of alat)
               a(1) = ( -0.5000  0.0000  0.5000 )  
               a(2) = (  0.0000  0.5000  0.5000 )  
               a(3) = ( -0.5000  0.5000  0.0000 )  

     reciprocal axes: (cart. coord. in units 2 pi/alat)
               b(1) = ( -1.0000 -1.0000  1.0000 )  
               b(2) = (  1.0000  1.0000  1.0000 )  
               b(3) = ( -1.0000  1.0000 -1.0000 )  


     Atoms inside the unit cell: 

     Cartesian axes

     site n.  atom      mass           positions (alat units)
        1     Si  28.0860   tau(    1) = (    0.00000    0.00000    0.00000  )
        2     Si  28.0860   tau(    2) = (    0.25000    0.25000    0.25000  )

     Computing dynamical matrix for 
                    q = (   0.5000000  -0.5000000   0.5000000 )

     13 Sym.Ops. (with q -> -q+G )


     G cutoff =  194.6891  (    685 G-vectors)     FFT grid: ( 20, 20, 20)
     number of k points=    60

     PseudoPot. # 1 for Si read from file:
     /home/max/quantum_espresso/qe-6.1/pseudo/si_pbe_v1.uspp.F.UPF.txt
     MD5 check sum: a056efeee980c13900f22a371efd63c1
     Pseudo is Ultrasoft + core correction, Zval =  4.0
     Generated by new atomic code, or converted to UPF format
     Using radial grid of  899 points,  6 beta functions with: 
                l(1) =   0
                l(2) =   0
                l(3) =   1
                l(4) =   1
                l(5) =   2
                l(6) =   2
     Q(r) pseudized with  8 coefficients,  rinner =    0.900   0.900   0.900
                                                       0.900   0.900


     Atomic displacements:
     There are   4 irreducible representations

     Representation     1      1 modes -  To be done

     Representation     2      1 modes -  To be done

     Representation     3      2 modes -  To be done

     Representation     4      2 modes -  To be done



     Alpha used in Ewald sum =   0.7000
     PHONON       :    16.74s CPU        19.13s WALL



     Representation #  1 mode #   1

     Self-consistent Calculation

      iter #   1 total cpu time :    19.3 secs   av.it.:   4.8
      thresh= 1.000E-02 alpha_mix =  0.700 |ddv_scf|^2 =  2.483E-05

      iter #   2 total cpu time :    19.4 secs   av.it.:   8.3
      thresh= 4.983E-04 alpha_mix =  0.700 |ddv_scf|^2 =  2.212E-05

      iter #   3 total cpu time :    19.6 secs   av.it.:   7.5
      thresh= 4.703E-04 alpha_mix =  0.700 |ddv_scf|^2 =  4.206E-08

      iter #   4 total cpu time :    19.7 secs   av.it.:   7.5
      thresh= 2.051E-05 alpha_mix =  0.700 |ddv_scf|^2 =  1.434E-10

      iter #   5 total cpu time :    19.9 secs   av.it.:   7.9
      thresh= 1.198E-06 alpha_mix =  0.700 |ddv_scf|^2 =  3.567E-12

      iter #   6 total cpu time :    20.1 secs   av.it.:   7.9
      thresh= 1.889E-07 alpha_mix =  0.700 |ddv_scf|^2 =  5.500E-14

     End of self-consistent calculation

     Convergence has been achieved 


     Representation #  2 mode #   2

     Self-consistent Calculation

      iter #   1 total cpu time :    20.4 secs   av.it.:   5.6
      thresh= 1.000E-02 alpha_mix =  0.700 |ddv_scf|^2 =  3.449E-04

      iter #   2 total cpu time :    20.5 secs   av.it.:   8.3
      thresh= 1.857E-03 alpha_mix =  0.700 |ddv_scf|^2 =  1.063E-03

      iter #   3 total cpu time :    20.7 secs   av.it.:   7.1
      thresh= 3.261E-03 alpha_mix =  0.700 |ddv_scf|^2 =  1.140E-07

      iter #   4 total cpu time :    20.8 secs   av.it.:   8.2
      thresh= 3.376E-05 alpha_mix =  0.700 |ddv_scf|^2 =  7.335E-09

      iter #   5 total cpu time :    21.0 secs   av.it.:   8.5
      thresh= 8.564E-06 alpha_mix =  0.700 |ddv_scf|^2 =  1.302E-10

      iter #   6 total cpu time :    21.2 secs   av.it.:   8.3
      thresh= 1.141E-06 alpha_mix =  0.700 |ddv_scf|^2 =  2.076E-12

      iter #   7 total cpu time :    21.3 secs   av.it.:   7.8
      thresh= 1.441E-07 alpha_mix =  0.700 |ddv_scf|^2 =  3.176E-15

     End of self-consistent calculation

     Convergence has been achieved 


     Representation #  3 modes #   3  4

     Self-consistent Calculation

      iter #   1 total cpu time :    21.6 secs   av.it.:   4.7
      thresh= 1.000E-02 alpha_mix =  0.700 |ddv_scf|^2 =  3.038E-07

      iter #   2 total cpu time :    21.9 secs   av.it.:   9.0
      thresh= 5.512E-05 alpha_mix =  0.700 |ddv_scf|^2 =  2.507E-08

      iter #   3 total cpu time :    22.4 secs   av.it.:   8.4
      thresh= 1.583E-05 alpha_mix =  0.700 |ddv_scf|^2 =  4.944E-10

      iter #   4 total cpu time :    22.8 secs   av.it.:   8.9
      thresh= 2.224E-06 alpha_mix =  0.700 |ddv_scf|^2 =  6.206E-12

      iter #   5 total cpu time :    23.1 secs   av.it.:   8.7
      thresh= 2.491E-07 alpha_mix =  0.700 |ddv_scf|^2 =  3.220E-14

     End of self-consistent calculation

     Convergence has been achieved 


     Representation #  4 modes #   5  6

     Self-consistent Calculation

      iter #   1 total cpu time :    23.4 secs   av.it.:   4.9
      thresh= 1.000E-02 alpha_mix =  0.700 |ddv_scf|^2 =  9.796E-07

      iter #   2 total cpu time :    23.7 secs   av.it.:   9.5
      thresh= 9.898E-05 alpha_mix =  0.700 |ddv_scf|^2 =  7.665E-08

      iter #   3 total cpu time :    24.1 secs   av.it.:   9.3
      thresh= 2.768E-05 alpha_mix =  0.700 |ddv_scf|^2 =  4.918E-09

      iter #   4 total cpu time :    24.6 secs   av.it.:   8.5
      thresh= 7.013E-06 alpha_mix =  0.700 |ddv_scf|^2 =  6.609E-12

      iter #   5 total cpu time :    25.0 secs   av.it.:   8.8
      thresh= 2.571E-07 alpha_mix =  0.700 |ddv_scf|^2 =  2.287E-14

     End of self-consistent calculation

     Convergence has been achieved 

     Number of q in the star =    4
     List of q in the star:
          1   0.500000000  -0.500000000   0.500000000
          2   0.500000000   0.500000000   0.500000000
          3  -0.500000000   0.500000000   0.500000000
          4   0.500000000   0.500000000  -0.500000000

     Diagonalizing the dynamical matrix

     q = (    0.500000000  -0.500000000   0.500000000 ) 

 **************************************************************************
     freq (    1) =       4.554588 [THz] =     151.924695 [cm-1]
     freq (    2) =       4.554588 [THz] =     151.924695 [cm-1]
     freq (    3) =      11.550735 [THz] =     385.291062 [cm-1]
     freq (    4) =      12.140440 [THz] =     404.961504 [cm-1]
     freq (    5) =      14.418832 [THz] =     480.960469 [cm-1]
     freq (    6) =      14.418832 [THz] =     480.960469 [cm-1]
 **************************************************************************

     Calculation of q =    0.0000000   0.5000000   0.0000000

   Info: using nr1, nr2, nr3 values from input

   Info: using nr1, nr2, nr3 values from input

     Parallelization info
     --------------------
     sticks:   dense  smooth     PW     G-vecs:    dense   smooth      PW
     Min          63      63     27                  684      684     175
     Max          64      64     28                  688      688     176
     Sum         253     253    109                 2741     2741     701



     bravais-lattice index     =            2
     lattice parameter (alat)  =      10.3320  a.u.
     unit-cell volume          =     275.7358 (a.u.)^3
     number of atoms/cell      =            2
     number of atomic types    =            1
     number of electrons       =         8.00
     number of Kohn-Sham states=            4
     kinetic-energy cutoff     =      18.0000  Ry
     charge density cutoff     =      72.0000  Ry
     Exchange-correlation      = SLA  PW   PBE  PBE ( 1  4  3  4 0 0)

     celldm(1)=  10.332000  celldm(2)=   0.000000  celldm(3)=   0.000000
     celldm(4)=   0.000000  celldm(5)=   0.000000  celldm(6)=   0.000000

     crystal axes: (cart. coord. in units of alat)
               a(1) = (  -0.500000   0.000000   0.500000 )  
               a(2) = (   0.000000   0.500000   0.500000 )  
               a(3) = (  -0.500000   0.500000   0.000000 )  

     reciprocal axes: (cart. coord. in units 2 pi/alat)
               b(1) = ( -1.000000 -1.000000  1.000000 )  
               b(2) = (  1.000000  1.000000  1.000000 )  
               b(3) = ( -1.000000  1.000000 -1.000000 )  


     PseudoPot. # 1 for Si read from file:
     /home/max/quantum_espresso/qe-6.1/pseudo/si_pbe_v1.uspp.F.UPF.txt
     MD5 check sum: a056efeee980c13900f22a371efd63c1
     Pseudo is Ultrasoft + core correction, Zval =  4.0
     Generated by new atomic code, or converted to UPF format
     Using radial grid of  899 points,  6 beta functions with: 
                l(1) =   0
                l(2) =   0
                l(3) =   1
                l(4) =   1
                l(5) =   2
                l(6) =   2
     Q(r) pseudized with  8 coefficients,  rinner =    0.900   0.900   0.900
                                                       0.900   0.900

     atomic species   valence    mass     pseudopotential
        Si             4.00    28.08600     Si( 1.00)

     48 Sym. Ops., with inversion, found



   Cartesian axes

     site n.     atom                  positions (alat units)
         1           Si  tau(   1) = (   0.0000000   0.0000000   0.0000000  )
         2           Si  tau(   2) = (   0.2500000   0.2500000   0.2500000  )

     number of k points=    80
                       cart. coord. in units 2pi/alat
        k(    1) = (  -0.1250000   0.1250000   0.1250000), wk =   0.0312500
        k(    2) = (  -0.1250000   0.6250000   0.1250000), wk =   0.0000000
        k(    3) = (  -0.3750000   0.3750000  -0.1250000), wk =   0.0625000
        k(    4) = (  -0.3750000   0.8750000  -0.1250000), wk =   0.0000000
        k(    5) = (   0.3750000  -0.3750000   0.6250000), wk =   0.0625000
        k(    6) = (   0.3750000   0.1250000   0.6250000), wk =   0.0000000
        k(    7) = (   0.1250000  -0.1250000   0.3750000), wk =   0.0625000
        k(    8) = (   0.1250000   0.3750000   0.3750000), wk =   0.0000000
        k(    9) = (  -0.1250000   0.6250000   0.1250000), wk =   0.0312500
        k(   10) = (  -0.1250000   1.1250000   0.1250000), wk =   0.0000000
        k(   11) = (   0.6250000  -0.1250000   0.8750000), wk =   0.0625000
        k(   12) = (   0.6250000   0.3750000   0.8750000), wk =   0.0000000
        k(   13) = (   0.3750000   0.1250000   0.6250000), wk =   0.0625000
        k(   14) = (   0.3750000   0.6250000   0.6250000), wk =   0.0000000
        k(   15) = (  -0.1250000  -0.8750000   0.1250000), wk =   0.0312500
        k(   16) = (  -0.1250000  -0.3750000   0.1250000), wk =   0.0000000
        k(   17) = (  -0.3750000   0.3750000   0.3750000), wk =   0.0312500
        k(   18) = (  -0.3750000   0.8750000   0.3750000), wk =   0.0000000
        k(   19) = (   0.3750000  -0.3750000   1.1250000), wk =   0.0625000
        k(   20) = (   0.3750000   0.1250000   1.1250000), wk =   0.0000000
        k(   21) = (  -0.1250000  -0.1250000   0.1250000), wk =   0.0312500
        k(   22) = (  -0.1250000   0.3750000   0.1250000), wk =   0.0000000
        k(   23) = (   0.1250000  -0.3750000   0.3750000), wk =   0.0625000
        k(   24) = (   0.1250000   0.1250000   0.3750000), wk =   0.0000000
        k(   25) = (   0.3750000  -0.1250000   0.3750000), wk =   0.0312500
        k(   26) = (   0.3750000   0.3750000   0.3750000), wk =   0.0000000
        k(   27) = (   0.3750000   0.1250000   0.3750000), wk =   0.0312500
        k(   28) = (   0.3750000   0.6250000   0.3750000), wk =   0.0000000
        k(   29) = (  -0.6250000   0.3750000  -0.3750000), wk =   0.0625000
        k(   30) = (  -0.6250000   0.8750000  -0.3750000), wk =   0.0000000
        k(   31) = (  -0.3750000   0.6250000  -0.3750000), wk =   0.0312500
        k(   32) = (  -0.3750000   1.1250000  -0.3750000), wk =   0.0000000
        k(   33) = (  -0.3750000  -0.6250000  -0.3750000), wk =   0.0312500
        k(   34) = (  -0.3750000  -0.1250000  -0.3750000), wk =   0.0000000
        k(   35) = (  -0.3750000   0.1250000  -0.1250000), wk =   0.0625000
        k(   36) = (  -0.3750000   0.6250000  -0.1250000), wk =   0.0000000
        k(   37) = (  -0.1250000   0.3750000  -0.1250000), wk =   0.0312500
        k(   38) = (  -0.1250000   0.8750000  -0.1250000), wk =   0.0000000
        k(   39) = (  -0.1250000  -0.3750000  -0.1250000), wk =   0.0312500
        k(   40) = (  -0.1250000   0.1250000  -0.1250000), wk =   0.0000000
        k(   41) = (  -0.1250000  -0.6250000   0.1250000), wk =   0.0312500
        k(   42) = (  -0.1250000  -0.1250000   0.1250000), wk =   0.0000000
        k(   43) = (   0.6250000  -0.1250000  -0.1250000), wk =   0.0625000
        k(   44) = (   0.6250000   0.3750000  -0.1250000), wk =   0.0000000
        k(   45) = (   0.6250000   0.1250000   0.1250000), wk =   0.0625000
        k(   46) = (   0.6250000   0.6250000   0.1250000), wk =   0.0000000
        k(   47) = (  -0.8750000   0.1250000  -0.6250000), wk =   0.0625000
        k(   48) = (  -0.8750000   0.6250000  -0.6250000), wk =   0.0000000
        k(   49) = (  -0.1250000   0.6250000  -0.8750000), wk =   0.0625000
        k(   50) = (  -0.1250000   1.1250000  -0.8750000), wk =   0.0000000
        k(   51) = (  -0.1250000   0.8750000  -0.6250000), wk =   0.0625000
        k(   52) = (  -0.1250000   1.3750000  -0.6250000), wk =   0.0000000
        k(   53) = (  -0.1250000  -0.8750000  -0.6250000), wk =   0.0625000
        k(   54) = (  -0.1250000  -0.3750000  -0.6250000), wk =   0.0000000
        k(   55) = (   0.8750000  -0.6250000   0.1250000), wk =   0.0625000
        k(   56) = (   0.8750000  -0.1250000   0.1250000), wk =   0.0000000
        k(   57) = (  -0.6250000  -0.1250000  -0.3750000), wk =   0.0625000
        k(   58) = (  -0.6250000   0.3750000  -0.3750000), wk =   0.0000000
        k(   59) = (   0.1250000   0.3750000  -0.6250000), wk =   0.0625000
        k(   60) = (   0.1250000   0.8750000  -0.6250000), wk =   0.0000000
        k(   61) = (   0.1250000   0.6250000  -0.3750000), wk =   0.0625000
        k(   62) = (   0.1250000   1.1250000  -0.3750000), wk =   0.0000000
        k(   63) = (   0.1250000  -0.6250000  -0.3750000), wk =   0.0625000
        k(   64) = (   0.1250000  -0.1250000  -0.3750000), wk =   0.0000000
        k(   65) = (   0.6250000  -0.3750000  -0.1250000), wk =   0.0625000
        k(   66) = (   0.6250000   0.1250000  -0.1250000), wk =   0.0000000
        k(   67) = (  -0.1250000   0.8750000   0.1250000), wk =   0.0312500
        k(   68) = (  -0.1250000   1.3750000   0.1250000), wk =   0.0000000
        k(   69) = (  -0.8750000  -0.1250000  -0.1250000), wk =   0.0625000
        k(   70) = (  -0.8750000   0.3750000  -0.1250000), wk =   0.0000000
        k(   71) = (  -0.8750000   0.1250000   0.1250000), wk =   0.0625000
        k(   72) = (  -0.8750000   0.6250000   0.1250000), wk =   0.0000000
        k(   73) = (  -0.3750000  -0.3750000   0.3750000), wk =   0.0312500
        k(   74) = (  -0.3750000   0.1250000   0.3750000), wk =   0.0000000
        k(   75) = (  -1.1250000   0.3750000  -0.3750000), wk =   0.0625000
        k(   76) = (  -1.1250000   0.8750000  -0.3750000), wk =   0.0000000
        k(   77) = (  -0.3750000   1.1250000  -0.3750000), wk =   0.0312500
        k(   78) = (  -0.3750000   1.6250000  -0.3750000), wk =   0.0000000
        k(   79) = (  -0.3750000  -1.1250000  -0.3750000), wk =   0.0312500
        k(   80) = (  -0.3750000  -0.6250000  -0.3750000), wk =   0.0000000

     Dense  grid:     2741 G-vectors     FFT dimensions: (  20,  20,  20)

     Estimated max dynamical RAM per process >       0.33MB

     Estimated total allocated dynamical RAM >       1.31MB

     Check: negative/imaginary core charge=   -0.000005    0.000000

     The potential is recalculated from file :
     ./_ph0/silicon.10.332.save/charge-density.dat

     Starting wfc are    8 atomic wfcs

     Band Structure Calculation
     Davidson diagonalization with overlap

     ethr =  1.25E-10,  avg # of iterations = 11.7

     total cpu time spent up to now is        2.3 secs

     End of band structure calculation

          k =-0.1250 0.1250 0.1250 (   338 PWs)   bands (ev):

    -5.6289   4.3958   5.7045   5.7045

          k =-0.1250 0.6250 0.1250 (   351 PWs)   bands (ev):

    -4.0729   1.0647   3.3753   3.8238

          k =-0.3750 0.3750-0.1250 (   352 PWs)   bands (ev):

    -4.6047   1.4027   3.7230   5.2226

          k =-0.3750 0.8750-0.1250 (   361 PWs)   bands (ev):

    -2.4368  -0.8967   2.0267   3.0983

          k = 0.3750-0.3750 0.6250 (   361 PWs)   bands (ev):

    -3.4689  -0.6706   3.7415   4.4523

          k = 0.3750 0.1250 0.6250 (   357 PWs)   bands (ev):

    -3.6588   0.1949   2.7354   4.0994

          k = 0.1250-0.1250 0.3750 (   353 PWs)   bands (ev):

    -5.1025   2.7771   4.6972   4.7611

          k = 0.1250 0.3750 0.3750 (   352 PWs)   bands (ev):

    -4.6047   1.4027   3.7230   5.2226

          k =-0.1250 0.6250 0.1250 (   351 PWs)   bands (ev):

    -4.0729   1.0647   3.3753   3.8238

          k =-0.1250 1.1250 0.1250 (   358 PWs)   bands (ev):

    -2.6033  -0.7996   2.6329   3.3571

          k = 0.6250-0.1250 0.8750 (   361 PWs)   bands (ev):

    -2.4368  -0.8967   2.0267   3.0983

          k = 0.6250 0.3750 0.8750 (   357 PWs)   bands (ev):

    -3.6588   0.1949   2.7354   4.0994

          k = 0.3750 0.1250 0.6250 (   357 PWs)   bands (ev):

    -3.6588   0.1949   2.7354   4.0994

          k = 0.3750 0.6250 0.6250 (   361 PWs)   bands (ev):

    -3.4689  -0.6706   3.7415   4.4523

          k =-0.1250-0.8750 0.1250 (   358 PWs)   bands (ev):

    -2.6033  -0.7996   2.6329   3.3571

          k =-0.1250-0.3750 0.1250 (   353 PWs)   bands (ev):

    -5.1025   2.7771   4.6972   4.7611

          k =-0.3750 0.3750 0.3750 (   353 PWs)   bands (ev):

    -4.1735   0.1167   4.9162   4.9162

          k =-0.3750 0.8750 0.3750 (   361 PWs)   bands (ev):

    -2.9736  -0.5906   2.0837   4.1364

          k = 0.3750-0.3750 1.1250 (   361 PWs)   bands (ev):

    -2.9736  -0.5906   2.0837   4.1364

          k = 0.3750 0.1250 1.1250 (   361 PWs)   bands (ev):

    -2.4368  -0.8967   2.0267   3.0983

          k =-0.1250-0.1250 0.1250 (   338 PWs)   bands (ev):

    -5.6289   4.3958   5.7045   5.7045

          k =-0.1250 0.3750 0.1250 (   353 PWs)   bands (ev):

    -5.1025   2.7771   4.6972   4.7611

          k = 0.1250-0.3750 0.3750 (   352 PWs)   bands (ev):

    -4.6047   1.4027   3.7230   5.2226

          k = 0.1250 0.1250 0.3750 (   353 PWs)   bands (ev):

    -5.1025   2.7771   4.6972   4.7611

          k = 0.3750-0.1250 0.3750 (   352 PWs)   bands (ev):

    -4.6047   1.4027   3.7230   5.2226

          k = 0.3750 0.3750 0.3750 (   353 PWs)   bands (ev):

    -4.1735   0.1167   4.9162   4.9162

          k = 0.3750 0.1250 0.3750 (   352 PWs)   bands (ev):

    -4.6047   1.4027   3.7230   5.2226

          k = 0.3750 0.6250 0.3750 (   361 PWs)   bands (ev):

    -3.4689  -0.6706   3.7415   4.4523

          k =-0.6250 0.3750-0.3750 (   361 PWs)   bands (ev):

    -3.4689  -0.6706   3.7415   4.4523

          k =-0.6250 0.8750-0.3750 (   357 PWs)   bands (ev):

    -3.6588   0.1949   2.7354   4.0994

          k =-0.3750 0.6250-0.3750 (   361 PWs)   bands (ev):

    -3.4689  -0.6706   3.7415   4.4523

          k =-0.3750 1.1250-0.3750 (   361 PWs)   bands (ev):

    -2.9736  -0.5906   2.0837   4.1364

          k =-0.3750-0.6250-0.3750 (   361 PWs)   bands (ev):

    -3.4689  -0.6706   3.7415   4.4523

          k =-0.3750-0.1250-0.3750 (   352 PWs)   bands (ev):

    -4.6047   1.4027   3.7230   5.2226

          k =-0.3750 0.1250-0.1250 (   353 PWs)   bands (ev):

    -5.1025   2.7771   4.6972   4.7611

          k =-0.3750 0.6250-0.1250 (   357 PWs)   bands (ev):

    -3.6588   0.1949   2.7354   4.0994

          k =-0.1250 0.3750-0.1250 (   353 PWs)   bands (ev):

    -5.1025   2.7771   4.6972   4.7611

          k =-0.1250 0.8750-0.1250 (   358 PWs)   bands (ev):

    -2.6033  -0.7996   2.6329   3.3571

          k =-0.1250-0.3750-0.1250 (   353 PWs)   bands (ev):

    -5.1025   2.7771   4.6972   4.7611

          k =-0.1250 0.1250-0.1250 (   338 PWs)   bands (ev):

    -5.6289   4.3958   5.7045   5.7045

          k =-0.1250-0.6250 0.1250 (   351 PWs)   bands (ev):

    -4.0729   1.0647   3.3753   3.8238

          k =-0.1250-0.1250 0.1250 (   338 PWs)   bands (ev):

    -5.6289   4.3958   5.7045   5.7045

          k = 0.6250-0.1250-0.1250 (   351 PWs)   bands (ev):

    -4.0729   1.0647   3.3753   3.8238

          k = 0.6250 0.3750-0.1250 (   357 PWs)   bands (ev):

    -3.6588   0.1949   2.7354   4.0994

          k = 0.6250 0.1250 0.1250 (   351 PWs)   bands (ev):

    -4.0729   1.0647   3.3753   3.8238

          k = 0.6250 0.6250 0.1250 (   361 PWs)   bands (ev):

    -2.9736  -0.5906   2.0837   4.1364

          k =-0.8750 0.1250-0.6250 (   361 PWs)   bands (ev):

    -2.4368  -0.8967   2.0267   3.0983

          k =-0.8750 0.6250-0.6250 (   352 PWs)   bands (ev):

    -4.6047   1.4027   3.7230   5.2226

          k =-0.1250 0.6250-0.8750 (   361 PWs)   bands (ev):

    -2.4368  -0.8967   2.0267   3.0983

          k =-0.1250 1.1250-0.8750 (   358 PWs)   bands (ev):

    -2.6033  -0.7996   2.6329   3.3571

          k =-0.1250 0.8750-0.6250 (   361 PWs)   bands (ev):

    -2.4368  -0.8967   2.0267   3.0983

          k =-0.1250 1.3750-0.6250 (   361 PWs)   bands (ev):

    -2.9736  -0.5906   2.0837   4.1364

          k =-0.1250-0.8750-0.6250 (   361 PWs)   bands (ev):

    -2.4368  -0.8967   2.0267   3.0983

          k =-0.1250-0.3750-0.6250 (   357 PWs)   bands (ev):

    -3.6588   0.1949   2.7354   4.0994

          k = 0.8750-0.6250 0.1250 (   361 PWs)   bands (ev):

    -2.4368  -0.8967   2.0267   3.0983

          k = 0.8750-0.1250 0.1250 (   358 PWs)   bands (ev):

    -2.6033  -0.7996   2.6329   3.3571

          k =-0.6250-0.1250-0.3750 (   357 PWs)   bands (ev):

    -3.6588   0.1949   2.7354   4.0994

          k =-0.6250 0.3750-0.3750 (   361 PWs)   bands (ev):

    -3.4689  -0.6706   3.7415   4.4523

          k = 0.1250 0.3750-0.6250 (   357 PWs)   bands (ev):

    -3.6588   0.1949   2.7354   4.0994

          k = 0.1250 0.8750-0.6250 (   361 PWs)   bands (ev):

    -2.4368  -0.8967   2.0267   3.0983

          k = 0.1250 0.6250-0.3750 (   357 PWs)   bands (ev):

    -3.6588   0.1949   2.7354   4.0994

          k = 0.1250 1.1250-0.3750 (   361 PWs)   bands (ev):

    -2.4368  -0.8967   2.0267   3.0983

          k = 0.1250-0.6250-0.3750 (   357 PWs)   bands (ev):

    -3.6588   0.1949   2.7354   4.0994

          k = 0.1250-0.1250-0.3750 (   353 PWs)   bands (ev):

    -5.1025   2.7771   4.6972   4.7611

          k = 0.6250-0.3750-0.1250 (   357 PWs)   bands (ev):

    -3.6588   0.1949   2.7354   4.0994

          k = 0.6250 0.1250-0.1250 (   351 PWs)   bands (ev):

    -4.0729   1.0647   3.3753   3.8238

          k =-0.1250 0.8750 0.1250 (   358 PWs)   bands (ev):

    -2.6033  -0.7996   2.6329   3.3571

          k =-0.1250 1.3750 0.1250 (   351 PWs)   bands (ev):

    -4.0729   1.0647   3.3753   3.8238

          k =-0.8750-0.1250-0.1250 (   358 PWs)   bands (ev):

    -2.6033  -0.7996   2.6329   3.3571

          k =-0.8750 0.3750-0.1250 (   361 PWs)   bands (ev):

    -2.4368  -0.8967   2.0267   3.0983

          k =-0.8750 0.1250 0.1250 (   358 PWs)   bands (ev):

    -2.6033  -0.7996   2.6329   3.3571

          k =-0.8750 0.6250 0.1250 (   361 PWs)   bands (ev):

    -2.4368  -0.8967   2.0267   3.0983

          k =-0.3750-0.3750 0.3750 (   353 PWs)   bands (ev):

    -4.1735   0.1167   4.9162   4.9162

          k =-0.3750 0.1250 0.3750 (   352 PWs)   bands (ev):

    -4.6047   1.4027   3.7230   5.2226

          k =-1.1250 0.3750-0.3750 (   361 PWs)   bands (ev):

    -2.9736  -0.5906   2.0837   4.1364

          k =-1.1250 0.8750-0.3750 (   351 PWs)   bands (ev):

    -4.0729   1.0647   3.3753   3.8238

          k =-0.3750 1.1250-0.3750 (   361 PWs)   bands (ev):

    -2.9736  -0.5906   2.0837   4.1364

          k =-0.3750 1.6250-0.3750 (   353 PWs)   bands (ev):

    -4.1735   0.1167   4.9162   4.9162

          k =-0.3750-1.1250-0.3750 (   361 PWs)   bands (ev):

    -2.9736  -0.5906   2.0837   4.1364

          k =-0.3750-0.6250-0.3750 (   361 PWs)   bands (ev):

    -3.4689  -0.6706   3.7415   4.4523

     highest occupied level (ev):     5.7045

     Writing output data file silicon.10.332.save

                                                                                

     bravais-lattice index     =            2
     lattice parameter (alat)  =      10.3320  a.u.
     unit-cell volume          =     275.7358 (a.u.)^3
     number of atoms/cell      =            2
     number of atomic types    =            1
     kinetic-energy cut-off    =      18.0000  Ry
     charge density cut-off    =      72.0000  Ry
     convergence threshold     =      1.0E-12
     beta                      =       0.7000
     number of iterations used =            4
     Exchange-correlation      = SLA  PW   PBE  PBE ( 1  4  3  4 0 0)


     celldm(1)=   10.33200  celldm(2)=    0.00000  celldm(3)=    0.00000
     celldm(4)=    0.00000  celldm(5)=    0.00000  celldm(6)=    0.00000

     crystal axes: (cart. coord. in units of alat)
               a(1) = ( -0.5000  0.0000  0.5000 )  
               a(2) = (  0.0000  0.5000  0.5000 )  
               a(3) = ( -0.5000  0.5000  0.0000 )  

     reciprocal axes: (cart. coord. in units 2 pi/alat)
               b(1) = ( -1.0000 -1.0000  1.0000 )  
               b(2) = (  1.0000  1.0000  1.0000 )  
               b(3) = ( -1.0000  1.0000 -1.0000 )  


     Atoms inside the unit cell: 

     Cartesian axes

     site n.  atom      mass           positions (alat units)
        1     Si  28.0860   tau(    1) = (    0.00000    0.00000    0.00000  )
        2     Si  28.0860   tau(    2) = (    0.25000    0.25000    0.25000  )

     Computing dynamical matrix for 
                    q = (   0.0000000   0.5000000   0.0000000 )

      8 Sym.Ops. (no q -> -q+G )


     G cutoff =  194.6891  (    685 G-vectors)     FFT grid: ( 20, 20, 20)
     number of k points=    80

     PseudoPot. # 1 for Si read from file:
     /home/max/quantum_espresso/qe-6.1/pseudo/si_pbe_v1.uspp.F.UPF.txt
     MD5 check sum: a056efeee980c13900f22a371efd63c1
     Pseudo is Ultrasoft + core correction, Zval =  4.0
     Generated by new atomic code, or converted to UPF format
     Using radial grid of  899 points,  6 beta functions with: 
                l(1) =   0
                l(2) =   0
                l(3) =   1
                l(4) =   1
                l(5) =   2
                l(6) =   2
     Q(r) pseudized with  8 coefficients,  rinner =    0.900   0.900   0.900
                                                       0.900   0.900

     Mode symmetry, C_4v (4mm)  point group:


     Atomic displacements:
     There are   4 irreducible representations

     Representation     1      1 modes -A_1  G_1 D_1  To be done

     Representation     2      1 modes -B_2  G_4 D_2'  To be done

     Representation     3      2 modes -E    G_5 D_5  To be done

     Representation     4      2 modes -E    G_5 D_5  To be done



     Alpha used in Ewald sum =   0.7000
     PHONON       :    22.75s CPU        25.99s WALL



     Representation #  1 mode #   1

     Self-consistent Calculation

      iter #   1 total cpu time :    26.3 secs   av.it.:   5.8
      thresh= 1.000E-02 alpha_mix =  0.700 |ddv_scf|^2 =  2.972E-03

      iter #   2 total cpu time :    26.5 secs   av.it.:   7.7
      thresh= 5.452E-03 alpha_mix =  0.700 |ddv_scf|^2 =  3.909E-02

      iter #   3 total cpu time :    26.7 secs   av.it.:   6.7
      thresh= 1.000E-02 alpha_mix =  0.700 |ddv_scf|^2 =  1.375E-07

      iter #   4 total cpu time :    26.9 secs   av.it.:   8.2
      thresh= 3.708E-05 alpha_mix =  0.700 |ddv_scf|^2 =  1.255E-08

      iter #   5 total cpu time :    27.1 secs   av.it.:   7.8
      thresh= 1.120E-05 alpha_mix =  0.700 |ddv_scf|^2 =  7.410E-10

      iter #   6 total cpu time :    27.3 secs   av.it.:   7.8
      thresh= 2.722E-06 alpha_mix =  0.700 |ddv_scf|^2 =  2.665E-12

      iter #   7 total cpu time :    27.5 secs   av.it.:   8.0
      thresh= 1.632E-07 alpha_mix =  0.700 |ddv_scf|^2 =  5.298E-13

     End of self-consistent calculation

     Convergence has been achieved 


     Representation #  2 mode #   2

     Self-consistent Calculation

      iter #   1 total cpu time :    27.7 secs   av.it.:   4.9
      thresh= 1.000E-02 alpha_mix =  0.700 |ddv_scf|^2 =  5.514E-06

      iter #   2 total cpu time :    27.9 secs   av.it.:   8.7
      thresh= 2.348E-04 alpha_mix =  0.700 |ddv_scf|^2 =  1.334E-06

      iter #   3 total cpu time :    28.2 secs   av.it.:   8.5
      thresh= 1.155E-04 alpha_mix =  0.700 |ddv_scf|^2 =  4.277E-08

      iter #   4 total cpu time :    28.5 secs   av.it.:   8.2
      thresh= 2.068E-05 alpha_mix =  0.700 |ddv_scf|^2 =  6.958E-10

      iter #   5 total cpu time :    28.7 secs   av.it.:   8.5
      thresh= 2.638E-06 alpha_mix =  0.700 |ddv_scf|^2 =  6.892E-12

      iter #   6 total cpu time :    28.9 secs   av.it.:   7.9
      thresh= 2.625E-07 alpha_mix =  0.700 |ddv_scf|^2 =  6.989E-14

     End of self-consistent calculation

     Convergence has been achieved 


     Representation #  3 modes #   3  4

     Self-consistent Calculation

      iter #   1 total cpu time :    29.2 secs   av.it.:   5.0
      thresh= 1.000E-02 alpha_mix =  0.700 |ddv_scf|^2 =  1.025E-06

      iter #   2 total cpu time :    29.7 secs   av.it.:   9.7
      thresh= 1.013E-04 alpha_mix =  0.700 |ddv_scf|^2 =  1.268E-07

      iter #   3 total cpu time :    30.3 secs   av.it.:   9.5
      thresh= 3.561E-05 alpha_mix =  0.700 |ddv_scf|^2 =  6.704E-09

      iter #   4 total cpu time :    30.8 secs   av.it.:   8.8
      thresh= 8.188E-06 alpha_mix =  0.700 |ddv_scf|^2 =  9.380E-12

      iter #   5 total cpu time :    31.2 secs   av.it.:   9.1
      thresh= 3.063E-07 alpha_mix =  0.700 |ddv_scf|^2 =  2.856E-13

     End of self-consistent calculation

     Convergence has been achieved 


     Representation #  4 modes #   5  6

     Self-consistent Calculation

      iter #   1 total cpu time :    31.6 secs   av.it.:   5.0
      thresh= 1.000E-02 alpha_mix =  0.700 |ddv_scf|^2 =  9.084E-07

      iter #   2 total cpu time :    32.0 secs   av.it.:   9.8
      thresh= 9.531E-05 alpha_mix =  0.700 |ddv_scf|^2 =  1.150E-07

      iter #   3 total cpu time :    32.7 secs   av.it.:   9.4
      thresh= 3.391E-05 alpha_mix =  0.700 |ddv_scf|^2 =  6.156E-09

      iter #   4 total cpu time :    33.1 secs   av.it.:   8.9
      thresh= 7.846E-06 alpha_mix =  0.700 |ddv_scf|^2 =  1.404E-11

      iter #   5 total cpu time :    33.6 secs   av.it.:   9.2
      thresh= 3.747E-07 alpha_mix =  0.700 |ddv_scf|^2 =  4.324E-14

     End of self-consistent calculation

     Convergence has been achieved 

     Number of q in the star =    6
     List of q in the star:
          1   0.000000000   0.500000000   0.000000000
          2   0.000000000  -0.500000000   0.000000000
          3   0.500000000   0.000000000   0.000000000
          4   0.000000000   0.000000000   0.500000000
          5   0.000000000   0.000000000  -0.500000000
          6  -0.500000000   0.000000000   0.000000000

     Diagonalizing the dynamical matrix

     q = (    0.000000000   0.500000000   0.000000000 ) 

 **************************************************************************
     freq (    1) =       4.217679 [THz] =     140.686640 [cm-1]
     freq (    2) =       4.217679 [THz] =     140.686640 [cm-1]
     freq (    3) =       7.187764 [THz] =     239.757994 [cm-1]
     freq (    4) =      13.713777 [THz] =     457.442371 [cm-1]
     freq (    5) =      13.713777 [THz] =     457.442371 [cm-1]
     freq (    6) =      14.325148 [THz] =     477.835498 [cm-1]
 **************************************************************************

     Mode symmetry, C_4v (4mm)  point group:

     freq (  1 -  2) =        140.7  [cm-1]   --> E    G_5 D_5       
     freq (  3 -  3) =        239.8  [cm-1]   --> A_1  G_1 D_1       
     freq (  4 -  5) =        457.4  [cm-1]   --> E    G_5 D_5       
     freq (  6 -  6) =        477.8  [cm-1]   --> B_2  G_4 D_2'      

     Calculation of q =    0.7500000  -0.2500000   0.7500000

   Info: using nr1, nr2, nr3 values from input

   Info: using nr1, nr2, nr3 values from input

     Parallelization info
     --------------------
     sticks:   dense  smooth     PW     G-vecs:    dense   smooth      PW
     Min          63      63     30                  684      684     216
     Max          64      64     31                  688      688     218
     Sum         253     253    121                 2741     2741     869



     bravais-lattice index     =            2
     lattice parameter (alat)  =      10.3320  a.u.
     unit-cell volume          =     275.7358 (a.u.)^3
     number of atoms/cell      =            2
     number of atomic types    =            1
     number of electrons       =         8.00
     number of Kohn-Sham states=            4
     kinetic-energy cutoff     =      18.0000  Ry
     charge density cutoff     =      72.0000  Ry
     Exchange-correlation      = SLA  PW   PBE  PBE ( 1  4  3  4 0 0)

     celldm(1)=  10.332000  celldm(2)=   0.000000  celldm(3)=   0.000000
     celldm(4)=   0.000000  celldm(5)=   0.000000  celldm(6)=   0.000000

     crystal axes: (cart. coord. in units of alat)
               a(1) = (  -0.500000   0.000000   0.500000 )  
               a(2) = (   0.000000   0.500000   0.500000 )  
               a(3) = (  -0.500000   0.500000   0.000000 )  

     reciprocal axes: (cart. coord. in units 2 pi/alat)
               b(1) = ( -1.000000 -1.000000  1.000000 )  
               b(2) = (  1.000000  1.000000  1.000000 )  
               b(3) = ( -1.000000  1.000000 -1.000000 )  


     PseudoPot. # 1 for Si read from file:
     /home/max/quantum_espresso/qe-6.1/pseudo/si_pbe_v1.uspp.F.UPF.txt
     MD5 check sum: a056efeee980c13900f22a371efd63c1
     Pseudo is Ultrasoft + core correction, Zval =  4.0
     Generated by new atomic code, or converted to UPF format
     Using radial grid of  899 points,  6 beta functions with: 
                l(1) =   0
                l(2) =   0
                l(3) =   1
                l(4) =   1
                l(5) =   2
                l(6) =   2
     Q(r) pseudized with  8 coefficients,  rinner =    0.900   0.900   0.900
                                                       0.900   0.900

     atomic species   valence    mass     pseudopotential
        Si             4.00    28.08600     Si( 1.00)

     48 Sym. Ops., with inversion, found



   Cartesian axes

     site n.     atom                  positions (alat units)
         1           Si  tau(   1) = (   0.0000000   0.0000000   0.0000000  )
         2           Si  tau(   2) = (   0.2500000   0.2500000   0.2500000  )

     number of k points=   288

     Number of k-points >= 100: set verbosity='high' to print them.

     Dense  grid:     2741 G-vectors     FFT dimensions: (  20,  20,  20)

     Estimated max dynamical RAM per process >       0.33MB

     Estimated total allocated dynamical RAM >       1.31MB

     Check: negative/imaginary core charge=   -0.000005    0.000000

     The potential is recalculated from file :
     ./_ph0/silicon.10.332.save/charge-density.dat

     Starting wfc are    8 atomic wfcs

     Band Structure Calculation
     Davidson diagonalization with overlap

     ethr =  1.25E-10,  avg # of iterations = 11.6

     total cpu time spent up to now is        4.6 secs

     End of band structure calculation

     Number of k-points >= 100: set verbosity='high' to print the bands.

     highest occupied level (ev):     5.7045

     Writing output data file silicon.10.332.save

                                                                                

     bravais-lattice index     =            2
     lattice parameter (alat)  =      10.3320  a.u.
     unit-cell volume          =     275.7358 (a.u.)^3
     number of atoms/cell      =            2
     number of atomic types    =            1
     kinetic-energy cut-off    =      18.0000  Ry
     charge density cut-off    =      72.0000  Ry
     convergence threshold     =      1.0E-12
     beta                      =       0.7000
     number of iterations used =            4
     Exchange-correlation      = SLA  PW   PBE  PBE ( 1  4  3  4 0 0)


     celldm(1)=   10.33200  celldm(2)=    0.00000  celldm(3)=    0.00000
     celldm(4)=    0.00000  celldm(5)=    0.00000  celldm(6)=    0.00000

     crystal axes: (cart. coord. in units of alat)
               a(1) = ( -0.5000  0.0000  0.5000 )  
               a(2) = (  0.0000  0.5000  0.5000 )  
               a(3) = ( -0.5000  0.5000  0.0000 )  

     reciprocal axes: (cart. coord. in units 2 pi/alat)
               b(1) = ( -1.0000 -1.0000  1.0000 )  
               b(2) = (  1.0000  1.0000  1.0000 )  
               b(3) = ( -1.0000  1.0000 -1.0000 )  


     Atoms inside the unit cell: 

     Cartesian axes

     site n.  atom      mass           positions (alat units)
        1     Si  28.0860   tau(    1) = (    0.00000    0.00000    0.00000  )
        2     Si  28.0860   tau(    2) = (    0.25000    0.25000    0.25000  )

     Computing dynamical matrix for 
                    q = (   0.7500000  -0.2500000   0.7500000 )

      2 Sym.Ops. (no q -> -q+G )


     G cutoff =  194.6891  (    685 G-vectors)     FFT grid: ( 20, 20, 20)
     number of k points=   288

     PseudoPot. # 1 for Si read from file:
     /home/max/quantum_espresso/qe-6.1/pseudo/si_pbe_v1.uspp.F.UPF.txt
     MD5 check sum: a056efeee980c13900f22a371efd63c1
     Pseudo is Ultrasoft + core correction, Zval =  4.0
     Generated by new atomic code, or converted to UPF format
     Using radial grid of  899 points,  6 beta functions with: 
                l(1) =   0
                l(2) =   0
                l(3) =   1
                l(4) =   1
                l(5) =   2
                l(6) =   2
     Q(r) pseudized with  8 coefficients,  rinner =    0.900   0.900   0.900
                                                       0.900   0.900

     Mode symmetry, C_s (m)     point group:


     Atomic displacements:
     There are   6 irreducible representations

     Representation     1      1 modes -A'  To be done

     Representation     2      1 modes -A'  To be done

     Representation     3      1 modes -A'  To be done

     Representation     4      1 modes -A'  To be done

     Representation     5      1 modes -A''  To be done

     Representation     6      1 modes -A''  To be done



     Alpha used in Ewald sum =   0.7000
     PHONON       :    32.19s CPU        36.80s WALL



     Representation #  1 mode #   1

     Self-consistent Calculation

      iter #   1 total cpu time :    37.4 secs   av.it.:   5.3
      thresh= 1.000E-02 alpha_mix =  0.700 |ddv_scf|^2 =  6.121E-05

      iter #   2 total cpu time :    38.4 secs   av.it.:   8.9
      thresh= 7.824E-04 alpha_mix =  0.700 |ddv_scf|^2 =  1.601E-04

      iter #   3 total cpu time :    39.0 secs   av.it.:   7.6
      thresh= 1.265E-03 alpha_mix =  0.700 |ddv_scf|^2 =  1.140E-06

      iter #   4 total cpu time :    39.8 secs   av.it.:   8.4
      thresh= 1.068E-04 alpha_mix =  0.700 |ddv_scf|^2 =  5.646E-08

      iter #   5 total cpu time :    40.7 secs   av.it.:   8.3
      thresh= 2.376E-05 alpha_mix =  0.700 |ddv_scf|^2 =  7.268E-09

      iter #   6 total cpu time :    41.5 secs   av.it.:   8.5
      thresh= 8.525E-06 alpha_mix =  0.700 |ddv_scf|^2 =  7.936E-11

      iter #   7 total cpu time :    42.4 secs   av.it.:   8.8
      thresh= 8.909E-07 alpha_mix =  0.700 |ddv_scf|^2 =  2.871E-12

      iter #   8 total cpu time :    43.2 secs   av.it.:   8.6
      thresh= 1.694E-07 alpha_mix =  0.700 |ddv_scf|^2 =  1.770E-13

     End of self-consistent calculation

     Convergence has been achieved 


     Representation #  2 mode #   2

     Self-consistent Calculation

      iter #   1 total cpu time :    43.8 secs   av.it.:   5.4
      thresh= 1.000E-02 alpha_mix =  0.700 |ddv_scf|^2 =  1.090E-04

      iter #   2 total cpu time :    44.8 secs   av.it.:   8.7
      thresh= 1.044E-03 alpha_mix =  0.700 |ddv_scf|^2 =  3.106E-04

      iter #   3 total cpu time :    45.4 secs   av.it.:   7.4
      thresh= 1.762E-03 alpha_mix =  0.700 |ddv_scf|^2 =  7.822E-07

      iter #   4 total cpu time :    46.4 secs   av.it.:   8.6
      thresh= 8.844E-05 alpha_mix =  0.700 |ddv_scf|^2 =  5.598E-08

      iter #   5 total cpu time :    47.1 secs   av.it.:   8.2
      thresh= 2.366E-05 alpha_mix =  0.700 |ddv_scf|^2 =  1.025E-08

      iter #   6 total cpu time :    47.9 secs   av.it.:   8.5
      thresh= 1.012E-05 alpha_mix =  0.700 |ddv_scf|^2 =  7.874E-11

      iter #   7 total cpu time :    48.9 secs   av.it.:   8.8
      thresh= 8.873E-07 alpha_mix =  0.700 |ddv_scf|^2 =  2.454E-12

      iter #   8 total cpu time :    49.6 secs   av.it.:   8.7
      thresh= 1.567E-07 alpha_mix =  0.700 |ddv_scf|^2 =  5.073E-13

     End of self-consistent calculation

     Convergence has been achieved 


     Representation #  3 mode #   3

     Self-consistent Calculation

      iter #   1 total cpu time :    50.4 secs   av.it.:   5.3
      thresh= 1.000E-02 alpha_mix =  0.700 |ddv_scf|^2 =  8.544E-05

      iter #   2 total cpu time :    51.2 secs   av.it.:   8.8
      thresh= 9.244E-04 alpha_mix =  0.700 |ddv_scf|^2 =  2.279E-04

      iter #   3 total cpu time :    51.9 secs   av.it.:   7.4
      thresh= 1.510E-03 alpha_mix =  0.700 |ddv_scf|^2 =  1.336E-06

      iter #   4 total cpu time :    52.8 secs   av.it.:   8.2
      thresh= 1.156E-04 alpha_mix =  0.700 |ddv_scf|^2 =  5.704E-08

      iter #   5 total cpu time :    53.6 secs   av.it.:   8.4
      thresh= 2.388E-05 alpha_mix =  0.700 |ddv_scf|^2 =  1.051E-08

      iter #   6 total cpu time :    54.5 secs   av.it.:   8.5
      thresh= 1.025E-05 alpha_mix =  0.700 |ddv_scf|^2 =  4.621E-11

      iter #   7 total cpu time :    55.2 secs   av.it.:   8.7
      thresh= 6.798E-07 alpha_mix =  0.700 |ddv_scf|^2 =  1.638E-12

      iter #   8 total cpu time :    56.0 secs   av.it.:   8.8
      thresh= 1.280E-07 alpha_mix =  0.700 |ddv_scf|^2 =  3.440E-13

     End of self-consistent calculation

     Convergence has been achieved 


     Representation #  4 mode #   4

     Self-consistent Calculation

      iter #   1 total cpu time :    56.8 secs   av.it.:   5.2
      thresh= 1.000E-02 alpha_mix =  0.700 |ddv_scf|^2 =  3.771E-05

      iter #   2 total cpu time :    57.6 secs   av.it.:   8.9
[...]
        k(   59) = (  -0.8750000   0.1250000  -0.1250000), wk =   0.0625000
        k(   60) = (  -1.3750000  -0.8750000  -0.1250000), wk =   0.0000000
        k(   61) = (  -1.1250000   0.3750000  -0.3750000), wk =   0.0625000
        k(   62) = (  -1.6250000  -0.6250000  -0.3750000), wk =   0.0000000
        k(   63) = (  -0.3750000   0.3750000   1.1250000), wk =   0.0625000
        k(   64) = (  -0.8750000  -0.6250000   1.1250000), wk =   0.0000000

     Dense  grid:     2741 G-vectors     FFT dimensions: (  20,  20,  20)

     Estimated max dynamical RAM per process >       0.33MB

     Estimated total allocated dynamical RAM >       1.31MB

     Check: negative/imaginary core charge=   -0.000005    0.000000

     The potential is recalculated from file :
     ./_ph0/silicon.10.332.save/charge-density.dat

     Starting wfc are    8 atomic wfcs

     Band Structure Calculation
     Davidson diagonalization with overlap

     ethr =  1.25E-10,  avg # of iterations = 11.6

     total cpu time spent up to now is        7.4 secs

     End of band structure calculation

          k =-0.1250 0.1250 0.1250 (   338 PWs)   bands (ev):

    -5.6289   4.3958   5.7045   5.7045

          k =-0.6250-0.8750 0.1250 (   361 PWs)   bands (ev):

    -2.4368  -0.8967   2.0267   3.0983

          k =-0.3750 0.3750-0.1250 (   352 PWs)   bands (ev):

    -4.6047   1.4027   3.7230   5.2226

          k =-0.8750-0.6250-0.1250 (   361 PWs)   bands (ev):

    -2.4368  -0.8967   2.0267   3.0983

          k = 0.3750-0.3750 0.6250 (   361 PWs)   bands (ev):

    -3.4689  -0.6706   3.7415   4.4523

          k =-0.1250-1.3750 0.6250 (   361 PWs)   bands (ev):

    -2.9736  -0.5906   2.0837   4.1364

          k = 0.1250-0.1250 0.3750 (   353 PWs)   bands (ev):

    -5.1025   2.7771   4.6972   4.7611

          k =-0.3750-1.1250 0.3750 (   361 PWs)   bands (ev):

    -2.9736  -0.5906   2.0837   4.1364

          k =-0.1250 0.6250 0.1250 (   351 PWs)   bands (ev):

    -4.0729   1.0647   3.3753   3.8238

          k =-0.6250-0.3750 0.1250 (   357 PWs)   bands (ev):

    -3.6588   0.1949   2.7354   4.0994

          k = 0.6250-0.1250 0.8750 (   361 PWs)   bands (ev):

    -2.4368  -0.8967   2.0267   3.0983

          k = 0.1250-1.1250 0.8750 (   358 PWs)   bands (ev):

    -2.6033  -0.7996   2.6329   3.3571

          k = 0.3750 0.1250 0.6250 (   357 PWs)   bands (ev):

    -3.6588   0.1949   2.7354   4.0994

          k =-0.1250-0.8750 0.6250 (   361 PWs)   bands (ev):

    -2.4368  -0.8967   2.0267   3.0983

          k =-0.1250-0.8750 0.1250 (   358 PWs)   bands (ev):

    -2.6033  -0.7996   2.6329   3.3571

          k =-0.6250-1.8750 0.1250 (   351 PWs)   bands (ev):

    -4.0729   1.0647   3.3753   3.8238

          k =-0.3750 0.3750 0.3750 (   353 PWs)   bands (ev):

    -4.1735   0.1167   4.9162   4.9162

          k =-0.8750-0.6250 0.3750 (   357 PWs)   bands (ev):

    -3.6588   0.1949   2.7354   4.0994

          k = 0.3750-0.3750 1.1250 (   361 PWs)   bands (ev):

    -2.9736  -0.5906   2.0837   4.1364

          k =-0.1250-1.3750 1.1250 (   361 PWs)   bands (ev):

    -2.4368  -0.8967   2.0267   3.0983

          k = 0.1250-0.3750 0.3750 (   352 PWs)   bands (ev):

    -4.6047   1.4027   3.7230   5.2226

          k =-0.3750-1.3750 0.3750 (   361 PWs)   bands (ev):

    -3.4689  -0.6706   3.7415   4.4523

          k = 0.3750-0.3750-0.1250 (   352 PWs)   bands (ev):

    -4.6047   1.4027   3.7230   5.2226

          k =-0.1250-1.3750-0.1250 (   351 PWs)   bands (ev):

    -4.0729   1.0647   3.3753   3.8238

          k =-0.6250 0.3750-0.3750 (   361 PWs)   bands (ev):

    -3.4689  -0.6706   3.7415   4.4523

          k =-1.1250-0.6250-0.3750 (   357 PWs)   bands (ev):

    -3.6588   0.1949   2.7354   4.0994

          k =-0.3750 0.3750 0.6250 (   361 PWs)   bands (ev):

    -3.4689  -0.6706   3.7415   4.4523

          k =-0.8750-0.6250 0.6250 (   352 PWs)   bands (ev):

    -4.6047   1.4027   3.7230   5.2226

          k =-0.3750 0.1250-0.1250 (   353 PWs)   bands (ev):

    -5.1025   2.7771   4.6972   4.7611

          k =-0.8750-0.8750-0.1250 (   358 PWs)   bands (ev):

    -2.6033  -0.7996   2.6329   3.3571

          k =-0.1250 0.1250 0.3750 (   353 PWs)   bands (ev):

    -5.1025   2.7771   4.6972   4.7611

          k =-0.6250-0.8750 0.3750 (   357 PWs)   bands (ev):

    -3.6588   0.1949   2.7354   4.0994

          k = 0.1250 0.6250-0.1250 (   351 PWs)   bands (ev):

    -4.0729   1.0647   3.3753   3.8238

          k =-0.3750-0.3750-0.1250 (   352 PWs)   bands (ev):

    -4.6047   1.4027   3.7230   5.2226

          k = 0.6250 0.1250-0.1250 (   351 PWs)   bands (ev):

    -4.0729   1.0647   3.3753   3.8238

          k = 0.1250-0.8750-0.1250 (   358 PWs)   bands (ev):

    -2.6033  -0.7996   2.6329   3.3571

          k =-0.8750 0.1250-0.6250 (   361 PWs)   bands (ev):

    -2.4368  -0.8967   2.0267   3.0983

          k =-1.3750-0.8750-0.6250 (   352 PWs)   bands (ev):

    -4.6047   1.4027   3.7230   5.2226

          k = 0.8750-0.1250 0.6250 (   361 PWs)   bands (ev):

    -2.4368  -0.8967   2.0267   3.0983

          k = 0.3750-1.1250 0.6250 (   357 PWs)   bands (ev):

    -3.6588   0.1949   2.7354   4.0994

          k =-0.6250 0.1250 0.8750 (   361 PWs)   bands (ev):

    -2.4368  -0.8967   2.0267   3.0983

          k =-1.1250-0.8750 0.8750 (   338 PWs)   bands (ev):

    -5.6289   4.3958   5.7045   5.7045

          k =-0.1250 0.8750 0.6250 (   361 PWs)   bands (ev):

    -2.4368  -0.8967   2.0267   3.0983

          k =-0.6250-0.1250 0.6250 (   361 PWs)   bands (ev):

    -2.9736  -0.5906   2.0837   4.1364

          k = 0.1250 0.8750-0.6250 (   361 PWs)   bands (ev):

    -2.4368  -0.8967   2.0267   3.0983

          k =-0.3750-0.1250-0.6250 (   357 PWs)   bands (ev):

    -3.6588   0.1949   2.7354   4.0994

          k =-0.6250-0.1250-0.3750 (   357 PWs)   bands (ev):

    -3.6588   0.1949   2.7354   4.0994

          k =-1.1250-1.1250-0.3750 (   351 PWs)   bands (ev):

    -4.0729   1.0647   3.3753   3.8238

          k = 0.6250 0.1250 0.3750 (   357 PWs)   bands (ev):

    -3.6588   0.1949   2.7354   4.0994

          k = 0.1250-0.8750 0.3750 (   361 PWs)   bands (ev):

    -2.4368  -0.8967   2.0267   3.0983

          k =-0.3750-0.1250 0.6250 (   357 PWs)   bands (ev):

    -3.6588   0.1949   2.7354   4.0994

          k =-0.8750-1.1250 0.6250 (   353 PWs)   bands (ev):

    -5.1025   2.7771   4.6972   4.7611

          k = 0.1250 0.6250 0.3750 (   357 PWs)   bands (ev):

    -3.6588   0.1949   2.7354   4.0994

          k =-0.3750-0.3750 0.3750 (   353 PWs)   bands (ev):

    -4.1735   0.1167   4.9162   4.9162

          k =-0.1250 0.6250-0.3750 (   357 PWs)   bands (ev):

    -3.6588   0.1949   2.7354   4.0994

          k =-0.6250-0.3750-0.3750 (   361 PWs)   bands (ev):

    -3.4689  -0.6706   3.7415   4.4523

          k = 0.1250-0.8750-0.1250 (   358 PWs)   bands (ev):

    -2.6033  -0.7996   2.6329   3.3571

          k =-0.3750-1.8750-0.1250 (   353 PWs)   bands (ev):

    -5.1025   2.7771   4.6972   4.7611

          k =-0.8750 0.1250-0.1250 (   358 PWs)   bands (ev):

    -2.6033  -0.7996   2.6329   3.3571

          k =-1.3750-0.8750-0.1250 (   361 PWs)   bands (ev):

    -2.4368  -0.8967   2.0267   3.0983

          k =-1.1250 0.3750-0.3750 (   361 PWs)   bands (ev):

    -2.9736  -0.5906   2.0837   4.1364

          k =-1.6250-0.6250-0.3750 (   361 PWs)   bands (ev):

    -3.4689  -0.6706   3.7415   4.4523

          k =-0.3750 0.3750 1.1250 (   361 PWs)   bands (ev):

    -2.9736  -0.5906   2.0837   4.1364

          k =-0.8750-0.6250 1.1250 (   353 PWs)   bands (ev):

    -5.1025   2.7771   4.6972   4.7611

     highest occupied level (ev):     5.7045

     Writing output data file silicon.10.332.save

                                                                                

     bravais-lattice index     =            2
     lattice parameter (alat)  =      10.3320  a.u.
     unit-cell volume          =     275.7358 (a.u.)^3
     number of atoms/cell      =            2
     number of atomic types    =            1
     kinetic-energy cut-off    =      18.0000  Ry
     charge density cut-off    =      72.0000  Ry
     convergence threshold     =      1.0E-12
     beta                      =       0.7000
     number of iterations used =            4
     Exchange-correlation      = SLA  PW   PBE  PBE ( 1  4  3  4 0 0)


     celldm(1)=   10.33200  celldm(2)=    0.00000  celldm(3)=    0.00000
     celldm(4)=    0.00000  celldm(5)=    0.00000  celldm(6)=    0.00000

     crystal axes: (cart. coord. in units of alat)
               a(1) = ( -0.5000  0.0000  0.5000 )  
               a(2) = (  0.0000  0.5000  0.5000 )  
               a(3) = ( -0.5000  0.5000  0.0000 )  

     reciprocal axes: (cart. coord. in units 2 pi/alat)
               b(1) = ( -1.0000 -1.0000  1.0000 )  
               b(2) = (  1.0000  1.0000  1.0000 )  
               b(3) = ( -1.0000  1.0000 -1.0000 )  


     Atoms inside the unit cell: 

     Cartesian axes

     site n.  atom      mass           positions (alat units)
        1     Si  28.0860   tau(    1) = (    0.00000    0.00000    0.00000  )
        2     Si  28.0860   tau(    2) = (    0.25000    0.25000    0.25000  )

     Computing dynamical matrix for 
                    q = (  -0.5000000  -1.0000000   0.0000000 )

      8 Sym.Ops. (no q -> -q+G )


     G cutoff =  194.6891  (    685 G-vectors)     FFT grid: ( 20, 20, 20)
     number of k points=    64

     PseudoPot. # 1 for Si read from file:
     /home/max/quantum_espresso/qe-6.1/pseudo/si_pbe_v1.uspp.F.UPF.txt
     MD5 check sum: a056efeee980c13900f22a371efd63c1
     Pseudo is Ultrasoft + core correction, Zval =  4.0
     Generated by new atomic code, or converted to UPF format
     Using radial grid of  899 points,  6 beta functions with: 
                l(1) =   0
                l(2) =   0
                l(3) =   1
                l(4) =   1
                l(5) =   2
                l(6) =   2
     Q(r) pseudized with  8 coefficients,  rinner =    0.900   0.900   0.900
                                                       0.900   0.900


     Atomic displacements:
     There are   3 irreducible representations

     Representation     1      2 modes -  To be done

     Representation     2      2 modes -  To be done

     Representation     3      2 modes -  To be done



     Alpha used in Ewald sum =   0.7000
     PHONON       :  1m23.06s CPU     1m33.32s WALL



     Representation #  1 modes #   1  2

     Self-consistent Calculation

      iter #   1 total cpu time :    93.6 secs   av.it.:   5.3
      thresh= 1.000E-02 alpha_mix =  0.700 |ddv_scf|^2 =  6.336E-06

      iter #   2 total cpu time :    94.0 secs   av.it.:   9.9
      thresh= 2.517E-04 alpha_mix =  0.700 |ddv_scf|^2 =  3.431E-06

      iter #   3 total cpu time :    94.5 secs   av.it.:   9.2
      thresh= 1.852E-04 alpha_mix =  0.700 |ddv_scf|^2 =  8.439E-09

      iter #   4 total cpu time :    94.9 secs   av.it.:   9.1
      thresh= 9.186E-06 alpha_mix =  0.700 |ddv_scf|^2 =  1.914E-11

      iter #   5 total cpu time :    95.3 secs   av.it.:   9.2
      thresh= 4.375E-07 alpha_mix =  0.700 |ddv_scf|^2 =  5.281E-13

     End of self-consistent calculation

     Convergence has been achieved 


     Representation #  2 modes #   3  4

     Self-consistent Calculation

      iter #   1 total cpu time :    95.6 secs   av.it.:   5.2
      thresh= 1.000E-02 alpha_mix =  0.700 |ddv_scf|^2 =  9.818E-06

      iter #   2 total cpu time :    95.9 secs   av.it.:   9.9
      thresh= 3.133E-04 alpha_mix =  0.700 |ddv_scf|^2 =  1.306E-05

      iter #   3 total cpu time :    96.5 secs   av.it.:   9.1
      thresh= 3.613E-04 alpha_mix =  0.700 |ddv_scf|^2 =  9.922E-09

      iter #   4 total cpu time :    96.8 secs   av.it.:   8.9
      thresh= 9.961E-06 alpha_mix =  0.700 |ddv_scf|^2 =  8.067E-11

      iter #   5 total cpu time :    97.2 secs   av.it.:   9.4
      thresh= 8.981E-07 alpha_mix =  0.700 |ddv_scf|^2 =  1.737E-12

      iter #   6 total cpu time :    97.6 secs   av.it.:   9.1
      thresh= 1.318E-07 alpha_mix =  0.700 |ddv_scf|^2 =  1.464E-14

     End of self-consistent calculation

     Convergence has been achieved 


     Representation #  3 modes #   5  6

     Self-consistent Calculation

      iter #   1 total cpu time :    97.9 secs   av.it.:   5.1
      thresh= 1.000E-02 alpha_mix =  0.700 |ddv_scf|^2 =  2.652E-06

      iter #   2 total cpu time :    98.4 secs   av.it.:   9.7
      thresh= 1.628E-04 alpha_mix =  0.700 |ddv_scf|^2 =  1.448E-06

      iter #   3 total cpu time :    98.8 secs   av.it.:   9.1
      thresh= 1.203E-04 alpha_mix =  0.700 |ddv_scf|^2 =  8.317E-09

      iter #   4 total cpu time :    99.1 secs   av.it.:   8.8
      thresh= 9.120E-06 alpha_mix =  0.700 |ddv_scf|^2 =  4.269E-11

      iter #   5 total cpu time :    99.5 secs   av.it.:   9.1
      thresh= 6.534E-07 alpha_mix =  0.700 |ddv_scf|^2 =  6.982E-13

     End of self-consistent calculation

     Convergence has been achieved 

     Number of q in the star =    6
     List of q in the star:
          1  -0.500000000  -1.000000000   0.000000000
          2   0.000000000   1.000000000   0.500000000
          3   0.000000000  -1.000000000  -0.500000000
          4   0.500000000   1.000000000   0.000000000
          5  -1.000000000  -0.500000000   0.000000000
          6   0.000000000  -0.500000000  -1.000000000

     Diagonalizing the dynamical matrix

     q = (   -0.500000000  -1.000000000   0.000000000 ) 

 **************************************************************************
     freq (    1) =       6.998386 [THz] =     233.441035 [cm-1]
     freq (    2) =       6.998386 [THz] =     233.441035 [cm-1]
     freq (    3) =      10.786878 [THz] =     359.811508 [cm-1]
     freq (    4) =      10.786878 [THz] =     359.811508 [cm-1]
     freq (    5) =      13.791027 [THz] =     460.019145 [cm-1]
     freq (    6) =      13.791027 [THz] =     460.019145 [cm-1]
 **************************************************************************

     init_run     :      0.54s CPU      0.59s WALL (       7 calls)
     electrons    :      5.32s CPU      5.93s WALL (       7 calls)

     Called by init_run:
     wfcinit      :      0.00s CPU      0.00s WALL (       7 calls)
     potinit      :      0.02s CPU      0.02s WALL (       7 calls)

     Called by electrons:
     c_bands      :      5.31s CPU      5.91s WALL (       7 calls)
     v_of_rho     :      0.01s CPU      0.01s WALL (       8 calls)
     newd         :      0.03s CPU      0.03s WALL (       8 calls)

     Called by c_bands:
     init_us_2    :      0.69s CPU      0.76s WALL (   17588 calls)
     cegterg      :      4.51s CPU      5.01s WALL (     796 calls)

     Called by sum_band:

     Called by *egterg:
     h_psi        :     48.98s CPU     54.73s WALL (  152269 calls)
     s_psi        :      5.90s CPU      6.57s WALL (  309258 calls)
     g_psi        :      0.03s CPU      0.03s WALL (    9268 calls)
     cdiaghg      :      0.49s CPU      0.55s WALL (   10064 calls)

     Called by h_psi:
     h_psi:pot    :     48.79s CPU     54.51s WALL (  152269 calls)
     h_psi:calbec :      5.26s CPU      5.96s WALL (  152269 calls)
     vloc_psi     :     40.35s CPU     45.01s WALL (  152269 calls)
     add_vuspsi   :      2.95s CPU      3.30s WALL (  152269 calls)

     General routines
     calbec       :     11.46s CPU     12.87s WALL (  345630 calls)
     fft          :      0.56s CPU      0.63s WALL (    5239 calls)
     ffts         :      0.15s CPU      0.18s WALL (    2748 calls)
     fftw         :     47.08s CPU     52.57s WALL ( 1378442 calls)
     davcio       :      0.31s CPU      0.37s WALL (   79045 calls)

     Parallel routines
     fft_scatter  :     14.69s CPU     16.63s WALL ( 1386429 calls)

     PHONON       :  1m28.88s CPU     1m39.49s WALL

     INITIALIZATION: 
     phq_setup    :      0.06s CPU      0.07s WALL (       8 calls)
     phq_init     :      2.23s CPU      2.45s WALL (       8 calls)

     phq_init     :      2.23s CPU      2.45s WALL (       8 calls)
     set_drhoc    :      0.27s CPU      0.30s WALL (      24 calls)
     init_vloc    :      0.01s CPU      0.01s WALL (       8 calls)
     init_us_1    :      0.50s CPU      0.53s WALL (       8 calls)
     newd         :      0.03s CPU      0.03s WALL (       8 calls)
     dvanqq       :      0.24s CPU      0.25s WALL (       8 calls)
     drho         :      1.16s CPU      1.32s WALL (       8 calls)

     DYNAMICAL MATRIX:
     dynmat0      :      0.51s CPU      0.53s WALL (       8 calls)
     phqscf       :     78.19s CPU     87.55s WALL (       8 calls)
     dynmatrix    :      0.01s CPU      0.01s WALL (       8 calls)

     phqscf       :     78.19s CPU     87.55s WALL (       8 calls)
     solve_linter :     77.40s CPU     86.68s WALL (      32 calls)
     drhodv       :      0.56s CPU      0.62s WALL (      32 calls)

     dynmat0      :      0.51s CPU      0.53s WALL (       8 calls)
     dynmat_us    :      0.29s CPU      0.30s WALL (       8 calls)
     d2ionq       :      0.01s CPU      0.01s WALL (       8 calls)
     dynmatcc     :      0.21s CPU      0.22s WALL (       8 calls)

     dynmat_us    :      0.29s CPU      0.30s WALL (       8 calls)
     addusdynmat  :      0.00s CPU      0.00s WALL (       8 calls)

     phqscf       :     78.19s CPU     87.55s WALL (       8 calls)
     solve_linter :     77.40s CPU     86.68s WALL (      32 calls)

     solve_linter :     77.40s CPU     86.68s WALL (      32 calls)
     dvqpsi_us    :      1.73s CPU      1.94s WALL (    2508 calls)
     ortho        :      1.30s CPU      1.49s WALL (   15550 calls)
     cgsolve      :     60.92s CPU     68.23s WALL (   15550 calls)
     incdrhoscf   :      5.30s CPU      5.97s WALL (   15550 calls)
     addusddens   :      1.16s CPU      1.25s WALL (     228 calls)
     vpsifft      :      3.87s CPU      4.29s WALL (   12922 calls)
     dv_of_drho   :      0.24s CPU      0.26s WALL (     295 calls)
     mix_pot      :      0.06s CPU      0.07s WALL (     201 calls)
     psymdvscf    :      0.81s CPU      0.86s WALL (     196 calls)
     newdq        :      1.26s CPU      1.40s WALL (     201 calls)
     adddvscf     :      0.47s CPU      0.52s WALL (   13042 calls)
     drhodvus     :      0.01s CPU      0.01s WALL (      32 calls)

     dvqpsi_us    :      1.73s CPU      1.94s WALL (    2508 calls)
     dvqpsi_us_on :      0.83s CPU      0.94s WALL (    2508 calls)

     cgsolve      :     60.92s CPU     68.23s WALL (   15550 calls)
     ch_psi       :     58.40s CPU     65.32s WALL (  141409 calls)

     ch_psi       :     58.40s CPU     65.32s WALL (  141409 calls)
     h_psi        :     48.98s CPU     54.73s WALL (  152269 calls)
     last         :     10.03s CPU     11.30s WALL (  141409 calls)

     h_psi        :     48.98s CPU     54.73s WALL (  152269 calls)
     add_vuspsi   :      2.95s CPU      3.30s WALL (  152269 calls)

     incdrhoscf   :      5.30s CPU      5.97s WALL (   15550 calls)
     addusdbec    :      0.78s CPU      0.89s WALL (   17998 calls)

     drhodvus     :      0.01s CPU      0.01s WALL (      32 calls)

      General routines
     calbec       :     11.46s CPU     12.87s WALL (  345630 calls)
     fft          :      0.56s CPU      0.63s WALL (    5239 calls)
     ffts         :      0.15s CPU      0.18s WALL (    2748 calls)
     fftw         :     47.08s CPU     52.57s WALL ( 1378442 calls)
     davcio       :      0.31s CPU      0.37s WALL (   79045 calls)
     write_rec    :      0.22s CPU      0.26s WALL (     233 calls)


     PHONON       :  1m28.88s CPU     1m39.49s WALL


   This run was terminated on:  12:23:25   9Nov2017            

=------------------------------------------------------------------------------=
   JOB DONE.
=------------------------------------------------------------------------------=
