
     Program PWSCF v.6.1 (svn rev. 13369) starts on 10Nov2017 at 10: 3:50 

     This program is part of the open-source Quantum ESPRESSO suite
     for quantum simulation of materials; please cite
         "P. Giannozzi et al., J. Phys.:Condens. Matter 21 395502 (2009);
          URL http://www.quantum-espresso.org", 
     in publications or presentations arising from this work. More details at
     http://www.quantum-espresso.org/quote

     Parallel version (MPI), running on     4 processors
     R & G space division:  proc/nbgrp/npool/nimage =       4
     Waiting for input...
     Reading input from standard input
     Message from routine read_cards :
     DEPRECATED: no units specified in ATOMIC_POSITIONS card
     Message from routine read_cards :
     ATOMIC_POSITIONS: units set to alat

     Current dimensions of program PWSCF are:
     Max number of different atomic species (ntypx) = 10
     Max number of k-points (npk) =  40000
     Max angular momentum in pseudopotentials (lmaxx) =  3

     Subspace diagonalization in iterative solution of the eigenvalue problem:
     a serial algorithm will be used


     Parallelization info
     --------------------
     sticks:   dense  smooth     PW     G-vecs:    dense   smooth      PW
     Min         136      66     22                 2072      722     152
     Max         137      67     23                 2073      724     153
     Sum         547     265     91                 8291     2891     609



     bravais-lattice index     =            2
     lattice parameter (alat)  =      10.4070  a.u.
     unit-cell volume          =     281.7842 (a.u.)^3
     number of atoms/cell      =            2
     number of atomic types    =            1
     number of electrons       =         8.00
     number of Kohn-Sham states=            4
     kinetic-energy cutoff     =      18.0000  Ry
     charge density cutoff     =     144.0000  Ry
     convergence threshold     =      1.0E-08
     mixing beta               =       0.7000
     number of iterations used =            8  plain     mixing
     Exchange-correlation      = SLA  PW   PBE  PBE ( 1  4  3  4 0 0)

     celldm(1)=  10.407000  celldm(2)=   0.000000  celldm(3)=   0.000000
     celldm(4)=   0.000000  celldm(5)=   0.000000  celldm(6)=   0.000000

     crystal axes: (cart. coord. in units of alat)
               a(1) = (  -0.500000   0.000000   0.500000 )  
               a(2) = (   0.000000   0.500000   0.500000 )  
               a(3) = (  -0.500000   0.500000   0.000000 )  

     reciprocal axes: (cart. coord. in units 2 pi/alat)
               b(1) = ( -1.000000 -1.000000  1.000000 )  
               b(2) = (  1.000000  1.000000  1.000000 )  
               b(3) = ( -1.000000  1.000000 -1.000000 )  


     PseudoPot. # 1 for Si read from file:
     /home/max/quantum_espresso/qe-6.1/pseudo/si_pbe_v1.uspp.F.UPF.txt
     MD5 check sum: a056efeee980c13900f22a371efd63c1
     Pseudo is Ultrasoft + core correction, Zval =  4.0
     Generated by new atomic code, or converted to UPF format
     Using radial grid of  899 points,  6 beta functions with: 
                l(1) =   0
                l(2) =   0
                l(3) =   1
                l(4) =   1
                l(5) =   2
                l(6) =   2
     Q(r) pseudized with  8 coefficients,  rinner =    0.900   0.900   0.900
                                                       0.900   0.900

     atomic species   valence    mass     pseudopotential
        Si             4.00    28.08600     Si( 1.00)

     24 Sym. Ops. (no inversion) found
          (note: 24 additional sym.ops. were found but ignored
           their fractional translations are incommensurate with FFT grid)


   Cartesian axes

     site n.     atom                  positions (alat units)
         1           Si  tau(   1) = (   0.0000000   0.0000000   0.0000000  )
         2           Si  tau(   2) = (   0.2500000   0.2500000   0.2500000  )

     number of k points=    60
                       cart. coord. in units 2pi/alat
        k(    1) = (  -0.0625000   0.0625000   0.0625000), wk =   0.0078125
        k(    2) = (  -0.1875000   0.1875000  -0.0625000), wk =   0.0234375
        k(    3) = (  -0.3125000   0.3125000  -0.1875000), wk =   0.0234375
        k(    4) = (  -0.4375000   0.4375000  -0.3125000), wk =   0.0234375
        k(    5) = (   0.4375000  -0.4375000   0.5625000), wk =   0.0234375
        k(    6) = (   0.3125000  -0.3125000   0.4375000), wk =   0.0234375
        k(    7) = (   0.1875000  -0.1875000   0.3125000), wk =   0.0234375
        k(    8) = (   0.0625000  -0.0625000   0.1875000), wk =   0.0234375
        k(    9) = (  -0.0625000   0.3125000   0.0625000), wk =   0.0234375
        k(   10) = (  -0.1875000   0.4375000  -0.0625000), wk =   0.0468750
        k(   11) = (  -0.3125000   0.5625000  -0.1875000), wk =   0.0468750
        k(   12) = (   0.5625000  -0.3125000   0.6875000), wk =   0.0468750
        k(   13) = (   0.4375000  -0.1875000   0.5625000), wk =   0.0468750
        k(   14) = (   0.3125000  -0.0625000   0.4375000), wk =   0.0468750
        k(   15) = (   0.1875000   0.0625000   0.3125000), wk =   0.0468750
        k(   16) = (  -0.0625000   0.5625000   0.0625000), wk =   0.0234375
        k(   17) = (  -0.1875000   0.6875000  -0.0625000), wk =   0.0468750
        k(   18) = (   0.6875000  -0.1875000   0.8125000), wk =   0.0468750
        k(   19) = (   0.5625000  -0.0625000   0.6875000), wk =   0.0468750
        k(   20) = (   0.4375000   0.0625000   0.5625000), wk =   0.0468750
        k(   21) = (   0.3125000   0.1875000   0.4375000), wk =   0.0468750
        k(   22) = (  -0.0625000   0.8125000   0.0625000), wk =   0.0234375
        k(   23) = (   0.8125000  -0.0625000   0.9375000), wk =   0.0468750
        k(   24) = (   0.6875000   0.0625000   0.8125000), wk =   0.0468750
        k(   25) = (   0.5625000   0.1875000   0.6875000), wk =   0.0468750
        k(   26) = (   0.4375000   0.3125000   0.5625000), wk =   0.0468750
        k(   27) = (  -0.0625000  -0.9375000   0.0625000), wk =   0.0234375
        k(   28) = (  -0.1875000  -0.8125000  -0.0625000), wk =   0.0468750
        k(   29) = (  -0.3125000  -0.6875000  -0.1875000), wk =   0.0468750
        k(   30) = (  -0.0625000  -0.6875000   0.0625000), wk =   0.0234375
        k(   31) = (  -0.1875000  -0.5625000  -0.0625000), wk =   0.0468750
        k(   32) = (  -0.0625000  -0.4375000   0.0625000), wk =   0.0234375
        k(   33) = (  -0.1875000   0.1875000   0.1875000), wk =   0.0078125
        k(   34) = (  -0.3125000   0.3125000   0.0625000), wk =   0.0234375
        k(   35) = (  -0.4375000   0.4375000  -0.0625000), wk =   0.0234375
        k(   36) = (   0.4375000  -0.4375000   0.8125000), wk =   0.0234375
        k(   37) = (   0.3125000  -0.3125000   0.6875000), wk =   0.0234375
        k(   38) = (   0.1875000  -0.1875000   0.5625000), wk =   0.0234375
        k(   39) = (  -0.1875000   0.4375000   0.1875000), wk =   0.0234375
        k(   40) = (  -0.3125000   0.5625000   0.0625000), wk =   0.0468750
        k(   41) = (   0.5625000  -0.3125000   0.9375000), wk =   0.0468750
        k(   42) = (   0.4375000  -0.1875000   0.8125000), wk =   0.0468750
        k(   43) = (   0.3125000  -0.0625000   0.6875000), wk =   0.0468750
        k(   44) = (  -0.1875000   0.6875000   0.1875000), wk =   0.0234375
        k(   45) = (   0.6875000  -0.1875000   1.0625000), wk =   0.0468750
        k(   46) = (   0.5625000  -0.0625000   0.9375000), wk =   0.0468750
        k(   47) = (   0.4375000   0.0625000   0.8125000), wk =   0.0468750
        k(   48) = (  -0.1875000  -1.0625000   0.1875000), wk =   0.0234375
        k(   49) = (  -0.3125000  -0.9375000   0.0625000), wk =   0.0468750
        k(   50) = (  -0.1875000  -0.8125000   0.1875000), wk =   0.0234375
        k(   51) = (  -0.3125000   0.3125000   0.3125000), wk =   0.0078125
        k(   52) = (  -0.4375000   0.4375000   0.1875000), wk =   0.0234375
        k(   53) = (   0.4375000  -0.4375000   1.0625000), wk =   0.0234375
        k(   54) = (   0.3125000  -0.3125000   0.9375000), wk =   0.0234375
        k(   55) = (  -0.3125000   0.5625000   0.3125000), wk =   0.0234375
        k(   56) = (   0.5625000  -0.3125000   1.1875000), wk =   0.0468750
        k(   57) = (   0.4375000  -0.1875000   1.0625000), wk =   0.0468750
        k(   58) = (  -0.3125000  -1.1875000   0.3125000), wk =   0.0234375
        k(   59) = (  -0.4375000   0.4375000   0.4375000), wk =   0.0078125
        k(   60) = (   0.4375000  -0.4375000   1.3125000), wk =   0.0234375

     Dense  grid:     8291 G-vectors     FFT dimensions: (  30,  30,  30)

     Smooth grid:     2891 G-vectors     FFT dimensions: (  20,  20,  20)

     Estimated max dynamical RAM per process >       1.75MB

     Estimated total allocated dynamical RAM >       7.01MB

     Initial potential from superposition of free atoms

     starting charge    7.99866, renormalised to    8.00000
     Starting wfc are    8 randomized atomic wfcs

     total cpu time spent up to now is        0.4 secs

     per-process dynamical memory:     8.6 Mb

     Self-consistent Calculation

     iteration #  1     ecut=    18.00 Ry     beta=0.70
     Davidson diagonalization with overlap
     ethr =  1.00E-02,  avg # of iterations =  2.0

     Threshold (ethr) on eigenvalues was too large:
     Diagonalizing with lowered threshold

     Davidson diagonalization with overlap
     ethr =  6.52E-04,  avg # of iterations =  1.0

     total cpu time spent up to now is        0.8 secs

     total energy              =     -19.18906912 Ry
     Harris-Foulkes estimate   =     -19.20062679 Ry
     estimated scf accuracy    <       0.05189969 Ry

     iteration #  2     ecut=    18.00 Ry     beta=0.70
     Davidson diagonalization with overlap
     ethr =  6.49E-04,  avg # of iterations =  1.0

     total cpu time spent up to now is        1.0 secs

     total energy              =     -19.19065672 Ry
     Harris-Foulkes estimate   =     -19.19082643 Ry
     estimated scf accuracy    <       0.00245563 Ry

     iteration #  3     ecut=    18.00 Ry     beta=0.70
     Davidson diagonalization with overlap
     ethr =  3.07E-05,  avg # of iterations =  1.9

     total cpu time spent up to now is        1.4 secs

     total energy              =     -19.19092059 Ry
     Harris-Foulkes estimate   =     -19.19093268 Ry
     estimated scf accuracy    <       0.00003844 Ry

     iteration #  4     ecut=    18.00 Ry     beta=0.70
     Davidson diagonalization with overlap
     ethr =  4.81E-07,  avg # of iterations =  2.8

     total cpu time spent up to now is        1.8 secs

     total energy              =     -19.19094464 Ry
     Harris-Foulkes estimate   =     -19.19094511 Ry
     estimated scf accuracy    <       0.00000202 Ry

     iteration #  5     ecut=    18.00 Ry     beta=0.70
     Davidson diagonalization with overlap
     ethr =  2.53E-08,  avg # of iterations =  2.1

     total cpu time spent up to now is        2.0 secs

     total energy              =     -19.19094506 Ry
     Harris-Foulkes estimate   =     -19.19094507 Ry
     estimated scf accuracy    <       0.00000004 Ry

     iteration #  6     ecut=    18.00 Ry     beta=0.70
     Davidson diagonalization with overlap
     ethr =  5.60E-10,  avg # of iterations =  2.7

     total cpu time spent up to now is        2.2 secs

     End of self-consistent calculation

          k =-0.0625 0.0625 0.0625 (   338 PWs)   bands (ev):

    -5.8599   5.2319   5.6845   5.6845

          k =-0.1875 0.1875-0.0625 (   355 PWs)   bands (ev):

    -5.5992   3.7378   4.9000   5.5667

          k =-0.3125 0.3125-0.1875 (   360 PWs)   bands (ev):

    -4.9692   1.5595   4.4189   5.1146

          k =-0.4375 0.4375-0.3125 (   364 PWs)   bands (ev):

    -4.0939  -0.2793   4.2034   4.7167

          k = 0.4375-0.4375 0.5625 (   364 PWs)   bands (ev):

    -3.6629  -0.9577   4.2500   4.5049

          k = 0.3125-0.3125 0.4375 (   357 PWs)   bands (ev):

    -4.3927   0.2636   4.5271   4.5295

          k = 0.1875-0.1875 0.3125 (   357 PWs)   bands (ev):

    -5.2160   2.2730   4.7995   4.9844

          k = 0.0625-0.0625 0.1875 (   346 PWs)   bands (ev):

    -5.7287   4.4800   5.2711   5.4194

          k =-0.0625 0.3125 0.0625 (   354 PWs)   bands (ev):

    -5.4673   3.5851   4.7278   4.8018

          k =-0.1875 0.4375-0.0625 (   358 PWs)   bands (ev):

    -4.9564   2.1106   3.7813   4.5496

          k =-0.3125 0.5625-0.1875 (   364 PWs)   bands (ev):

    -4.1354   0.3028   3.2884   4.1525

          k = 0.5625-0.3125 0.6875 (   368 PWs)   bands (ev):

    -3.4002  -0.8686   3.0030   4.0627

          k = 0.4375-0.1875 0.5625 (   364 PWs)   bands (ev):

    -3.8413  -0.2011   2.9362   4.3384

          k = 0.3125-0.0625 0.4375 (   361 PWs)   bands (ev):

    -4.7154   1.4775   3.2404   4.8314

          k = 0.1875 0.0625 0.3125 (   359 PWs)   bands (ev):

    -5.3407   2.9295   4.3375   5.1943

          k =-0.0625 0.5625 0.0625 (   357 PWs)   bands (ev):

    -4.5656   1.6006   3.6430   3.7613

          k =-0.1875 0.6875-0.0625 (   359 PWs)   bands (ev):

    -3.8332   0.3906   2.8791   3.4245

          k = 0.6875-0.1875 0.8125 (   367 PWs)   bands (ev):

    -2.9634  -0.7723   2.0619   3.3935

          k = 0.5625-0.0625 0.6875 (   369 PWs)   bands (ev):

    -3.0343  -0.6800   1.7216   3.7276

          k = 0.4375 0.0625 0.5625 (   365 PWs)   bands (ev):

    -3.9038   0.2568   2.3052   4.2959

          k = 0.3125 0.1875 0.4375 (   361 PWs)   bands (ev):

    -4.6057   0.8983   3.8864   4.7339

          k =-0.0625 0.8125 0.0625 (   364 PWs)   bands (ev):

    -3.1954  -0.4554   2.9726   3.1813

          k = 0.8125-0.0625 0.9375 (   363 PWs)   bands (ev):

    -2.3101  -1.4216   2.4347   2.9468

          k = 0.6875 0.0625 0.8125 (   369 PWs)   bands (ev):

    -2.4110  -1.2563   1.7297   3.2535

          k = 0.5625 0.1875 0.6875 (   367 PWs)   bands (ev):

    -3.1501  -0.8353   2.2509   3.8381

          k = 0.4375 0.3125 0.5625 (   366 PWs)   bands (ev):

    -3.7422  -0.6735   3.7105   4.4078

          k =-0.0625-0.9375 0.0625 (   362 PWs)   bands (ev):

    -2.3586  -1.4373   2.8383   3.0627

          k =-0.1875-0.8125-0.0625 (   361 PWs)   bands (ev):

    -3.1130  -0.5176   2.5869   3.1028

          k =-0.3125-0.6875-0.1875 (   365 PWs)   bands (ev):

    -3.5754  -0.2433   2.6359   3.6857

          k =-0.0625-0.6875 0.0625 (   362 PWs)   bands (ev):

    -3.9355   0.5669   3.2412   3.4160

          k =-0.1875-0.5625-0.0625 (   358 PWs)   bands (ev):

    -4.4516   1.2695   3.2862   3.9187

          k =-0.0625-0.4375 0.0625 (   353 PWs)   bands (ev):

    -5.0782   2.6164   4.1724   4.2063

          k =-0.1875 0.1875 0.1875 (   359 PWs)   bands (ev):

    -5.4709   3.0308   5.2533   5.2533

          k =-0.3125 0.3125 0.0625 (   362 PWs)   bands (ev):

    -5.0888   2.1954   3.7795   5.2674

          k =-0.4375 0.4375-0.0625 (   362 PWs)   bands (ev):

    -4.3611   0.8494   2.7258   4.7753

          k = 0.4375-0.4375 0.8125 (   367 PWs)   bands (ev):

    -3.4938  -0.5960   2.5681   4.2583

          k = 0.3125-0.3125 0.6875 (   368 PWs)   bands (ev):

    -3.4786  -0.6239   2.8573   3.9491

          k = 0.1875-0.1875 0.5625 (   358 PWs)   bands (ev):

    -4.3438   0.8463   3.4574   3.9276

          k =-0.1875 0.4375 0.1875 (   362 PWs)   bands (ev):

    -4.8384   1.5464   4.2605   4.3362

          k =-0.3125 0.5625 0.0625 (   361 PWs)   bands (ev):

    -4.2278   0.7785   2.7812   4.1442

          k = 0.5625-0.3125 0.9375 (   367 PWs)   bands (ev):

    -3.3614  -0.3041   2.0144   3.5940

          k = 0.4375-0.1875 0.8125 (   369 PWs)   bands (ev):

    -2.8893  -0.8986   2.0134   3.2910

          k = 0.3125-0.0625 0.6875 (   365 PWs)   bands (ev):

    -3.6370   0.0759   2.4283   3.4646

          k =-0.1875 0.6875 0.1875 (   362 PWs)   bands (ev):

    -3.7430   0.1354   2.7508   3.6044

          k = 0.6875-0.1875 1.0625 (   363 PWs)   bands (ev):

    -2.9603  -0.6541   2.1938   2.9438

          k = 0.5625-0.0625 0.9375 (   370 PWs)   bands (ev):

    -2.1759  -1.3950   1.8879   2.4580

          k = 0.4375 0.0625 0.8125 (   371 PWs)   bands (ev):

    -2.7633  -0.8552   1.8770   2.9198

          k =-0.1875-1.0625 0.1875 (   364 PWs)   bands (ev):

    -2.3329  -1.3709   1.9888   3.2697

          k =-0.3125-0.9375 0.0625 (   368 PWs)   bands (ev):

    -2.2351  -1.4033   2.0799   2.6646

          k =-0.1875-0.8125 0.1875 (   364 PWs)   bands (ev):

    -3.0549  -0.6150   2.2453   3.3825

          k =-0.3125 0.3125 0.3125 (   359 PWs)   bands (ev):

    -4.7342   0.8738   4.8473   4.8473

          k =-0.4375 0.4375 0.1875 (   362 PWs)   bands (ev):

    -4.2675   0.3033   3.4137   4.7606

          k = 0.4375-0.4375 1.0625 (   367 PWs)   bands (ev):

    -3.4965  -0.2362   1.9360   4.1961

          k = 0.3125-0.3125 0.9375 (   366 PWs)   bands (ev):

    -2.6983  -1.0061   1.6115   3.6638

          k =-0.3125 0.5625 0.3125 (   368 PWs)   bands (ev):

    -3.9629  -0.2405   3.7356   4.2133

          k = 0.5625-0.3125 1.1875 (   368 PWs)   bands (ev):

    -3.3599  -0.6027   2.4653   3.7538

          k = 0.4375-0.1875 1.0625 (   372 PWs)   bands (ev):

    -2.5634  -1.0743   1.7013   3.0613

          k =-0.3125-1.1875 0.3125 (   365 PWs)   bands (ev):

    -3.0117  -0.8797   2.0882   3.7613

          k =-0.4375 0.4375 0.4375 (   356 PWs)   bands (ev):

    -3.8721  -0.7283   4.6299   4.6299

          k = 0.4375-0.4375 1.3125 (   365 PWs)   bands (ev):

    -3.5319  -0.9037   3.4278   4.3697

     highest occupied level (ev):     5.6845

!    total energy              =     -19.19094508 Ry
     Harris-Foulkes estimate   =     -19.19094508 Ry
     estimated scf accuracy    <          6.2E-09 Ry

     The total energy is the sum of the following terms:

     one-electron contribution =       4.79123501 Ry
     hartree contribution      =       1.15210538 Ry
     xc contribution           =      -8.57067082 Ry
     ewald contribution        =     -16.56361465 Ry

     convergence has been achieved in   6 iterations

     Writing output data file silicon.10.407.save

     init_run     :      0.27s CPU      0.29s WALL (       1 calls)
     electrons    :      1.29s CPU      1.83s WALL (       1 calls)

     Called by init_run:
     wfcinit      :      0.08s CPU      0.08s WALL (       1 calls)
     potinit      :      0.02s CPU      0.02s WALL (       1 calls)

     Called by electrons:
     c_bands      :      0.88s CPU      1.26s WALL (       7 calls)
     sum_band     :      0.26s CPU      0.39s WALL (       7 calls)
     v_of_rho     :      0.07s CPU      0.08s WALL (       7 calls)
     newd         :      0.08s CPU      0.10s WALL (       7 calls)
     mix_rho      :      0.00s CPU      0.01s WALL (       7 calls)

     Called by c_bands:
     init_us_2    :      0.06s CPU      0.07s WALL (     900 calls)
     cegterg      :      0.75s CPU      1.08s WALL (     420 calls)

     Called by sum_band:
     sum_band:bec :      0.00s CPU      0.01s WALL (     420 calls)
     addusdens    :      0.09s CPU      0.11s WALL (       7 calls)

     Called by *egterg:
     h_psi        :      0.53s CPU      0.74s WALL (    1298 calls)
     s_psi        :      0.06s CPU      0.06s WALL (    1298 calls)
     g_psi        :      0.00s CPU      0.00s WALL (     818 calls)
     cdiaghg      :      0.09s CPU      0.13s WALL (    1178 calls)

     Called by h_psi:
     h_psi:pot    :      0.53s CPU      0.74s WALL (    1298 calls)
     h_psi:calbec :      0.09s CPU      0.13s WALL (    1298 calls)
     vloc_psi     :      0.38s CPU      0.54s WALL (    1298 calls)
     add_vuspsi   :      0.06s CPU      0.06s WALL (    1298 calls)

     General routines
     calbec       :      0.11s CPU      0.18s WALL (    1718 calls)
     fft          :      0.08s CPU      0.12s WALL (     112 calls)
     ffts         :      0.00s CPU      0.00s WALL (      14 calls)
     fftw         :      0.40s CPU      0.59s WALL (   11614 calls)
     interpolate  :      0.01s CPU      0.01s WALL (      14 calls)
     davcio       :      0.00s CPU      0.00s WALL (      60 calls)

     Parallel routines
     fft_scatter  :      0.27s CPU      0.48s WALL (   11740 calls)

     PWSCF        :     1.82s CPU         2.40s WALL


   This run was terminated on:  10: 3:53  10Nov2017            

=------------------------------------------------------------------------------=
   JOB DONE.
=------------------------------------------------------------------------------=
