
     Program PWSCF v.6.1 (svn rev. 13369) starts on 10Nov2017 at 12: 8:17 

     This program is part of the open-source Quantum ESPRESSO suite
     for quantum simulation of materials; please cite
         "P. Giannozzi et al., J. Phys.:Condens. Matter 21 395502 (2009);
          URL http://www.quantum-espresso.org", 
     in publications or presentations arising from this work. More details at
     http://www.quantum-espresso.org/quote

     Parallel version (MPI), running on     4 processors
     R & G space division:  proc/nbgrp/npool/nimage =       4
     Waiting for input...
     Reading input from standard input
     Message from routine read_cards :
     DEPRECATED: no units specified in ATOMIC_POSITIONS card
     Message from routine read_cards :
     ATOMIC_POSITIONS: units set to alat

     Current dimensions of program PWSCF are:
     Max number of different atomic species (ntypx) = 10
     Max number of k-points (npk) =  40000
     Max angular momentum in pseudopotentials (lmaxx) =  3

     Subspace diagonalization in iterative solution of the eigenvalue problem:
     a serial algorithm will be used


     Parallelization info
     --------------------
     sticks:   dense  smooth     PW     G-vecs:    dense   smooth      PW
     Min         259     127     40                 5518     1930     362
     Max         260     128     41                 5520     1933     366
     Sum        1039     511    163                22075     7727    1459



     bravais-lattice index     =            2
     lattice parameter (alat)  =      10.3330  a.u.
     unit-cell volume          =     275.8159 (a.u.)^3
     number of atoms/cell      =            2
     number of atomic types    =            1
     number of electrons       =         8.00
     number of Kohn-Sham states=            4
     kinetic-energy cutoff     =      35.0000  Ry
     charge density cutoff     =     280.0000  Ry
     convergence threshold     =      1.0E-08
     mixing beta               =       0.7000
     number of iterations used =            8  plain     mixing
     Exchange-correlation      = SLA  PW   PBE  PBE ( 1  4  3  4 0 0)

     celldm(1)=  10.333000  celldm(2)=   0.000000  celldm(3)=   0.000000
     celldm(4)=   0.000000  celldm(5)=   0.000000  celldm(6)=   0.000000

     crystal axes: (cart. coord. in units of alat)
               a(1) = (  -0.500000   0.000000   0.500000 )  
               a(2) = (   0.000000   0.500000   0.500000 )  
               a(3) = (  -0.500000   0.500000   0.000000 )  

     reciprocal axes: (cart. coord. in units 2 pi/alat)
               b(1) = ( -1.000000 -1.000000  1.000000 )  
               b(2) = (  1.000000  1.000000  1.000000 )  
               b(3) = ( -1.000000  1.000000 -1.000000 )  


     PseudoPot. # 1 for Si read from file:
     /home/max/quantum_espresso/qe-6.1/pseudo/si_pbe_v1.uspp.F.UPF.txt
     MD5 check sum: a056efeee980c13900f22a371efd63c1
     Pseudo is Ultrasoft + core correction, Zval =  4.0
     Generated by new atomic code, or converted to UPF format
     Using radial grid of  899 points,  6 beta functions with: 
                l(1) =   0
                l(2) =   0
                l(3) =   1
                l(4) =   1
                l(5) =   2
                l(6) =   2
     Q(r) pseudized with  8 coefficients,  rinner =    0.900   0.900   0.900
                                                       0.900   0.900

     atomic species   valence    mass     pseudopotential
        Si             4.00    28.08600     Si( 1.00)

     48 Sym. Ops., with inversion, found (24 have fractional translation)



   Cartesian axes

     site n.     atom                  positions (alat units)
         1           Si  tau(   1) = (   0.0000000   0.0000000   0.0000000  )
         2           Si  tau(   2) = (   0.2500000   0.2500000   0.2500000  )

     number of k points=    28
                       cart. coord. in units 2pi/alat
        k(    1) = (  -0.0833333   0.0833333   0.0833333), wk =   0.0185185
        k(    2) = (  -0.2500000   0.2500000  -0.0833333), wk =   0.0555556
        k(    3) = (  -0.4166667   0.4166667  -0.2500000), wk =   0.0555556
        k(    4) = (   0.4166667  -0.4166667   0.5833333), wk =   0.0555556
        k(    5) = (   0.2500000  -0.2500000   0.4166667), wk =   0.0555556
        k(    6) = (   0.0833333  -0.0833333   0.2500000), wk =   0.0555556
        k(    7) = (  -0.0833333   0.4166667   0.0833333), wk =   0.0555556
        k(    8) = (  -0.2500000   0.5833333  -0.0833333), wk =   0.1111111
        k(    9) = (   0.5833333  -0.2500000   0.7500000), wk =   0.1111111
        k(   10) = (   0.4166667  -0.0833333   0.5833333), wk =   0.1111111
        k(   11) = (   0.2500000   0.0833333   0.4166667), wk =   0.1111111
        k(   12) = (  -0.0833333   0.7500000   0.0833333), wk =   0.0555556
        k(   13) = (   0.7500000  -0.0833333   0.9166667), wk =   0.1111111
        k(   14) = (   0.5833333   0.0833333   0.7500000), wk =   0.1111111
        k(   15) = (   0.4166667   0.2500000   0.5833333), wk =   0.1111111
        k(   16) = (  -0.0833333  -0.9166667   0.0833333), wk =   0.0555556
        k(   17) = (  -0.2500000  -0.7500000  -0.0833333), wk =   0.1111111
        k(   18) = (  -0.0833333  -0.5833333   0.0833333), wk =   0.0555556
        k(   19) = (  -0.2500000   0.2500000   0.2500000), wk =   0.0185185
        k(   20) = (  -0.4166667   0.4166667   0.0833333), wk =   0.0555556
        k(   21) = (   0.4166667  -0.4166667   0.9166667), wk =   0.0555556
        k(   22) = (   0.2500000  -0.2500000   0.7500000), wk =   0.0555556
        k(   23) = (  -0.2500000   0.5833333   0.2500000), wk =   0.0555556
        k(   24) = (   0.5833333  -0.2500000   1.0833333), wk =   0.1111111
        k(   25) = (   0.4166667  -0.0833333   0.9166667), wk =   0.1111111
        k(   26) = (  -0.2500000  -1.0833333   0.2500000), wk =   0.0555556
        k(   27) = (  -0.4166667   0.4166667   0.4166667), wk =   0.0185185
        k(   28) = (   0.4166667  -0.4166667   1.2500000), wk =   0.0555556

     Dense  grid:    22075 G-vectors     FFT dimensions: (  40,  40,  40)

     Smooth grid:     7727 G-vectors     FFT dimensions: (  27,  27,  27)

     Estimated max dynamical RAM per process >       3.97MB

     Estimated total allocated dynamical RAM >      15.88MB

     Initial potential from superposition of free atoms

     starting charge    7.99866, renormalised to    8.00000
     Starting wfc are    8 randomized atomic wfcs

     total cpu time spent up to now is        0.6 secs

     per-process dynamical memory:    11.3 Mb

     Self-consistent Calculation

     iteration #  1     ecut=    35.00 Ry     beta=0.70
     Davidson diagonalization with overlap
     ethr =  1.00E-02,  avg # of iterations =  2.0

     Threshold (ethr) on eigenvalues was too large:
     Diagonalizing with lowered threshold

     Davidson diagonalization with overlap
     ethr =  6.77E-04,  avg # of iterations =  1.0

     total cpu time spent up to now is        1.4 secs

     total energy              =     -19.19131184 Ry
     Harris-Foulkes estimate   =     -19.20376489 Ry
     estimated scf accuracy    <       0.05364527 Ry

     iteration #  2     ecut=    35.00 Ry     beta=0.70
     Davidson diagonalization with overlap
     ethr =  6.71E-04,  avg # of iterations =  1.0

     total cpu time spent up to now is        1.6 secs

     total energy              =     -19.19306771 Ry
     Harris-Foulkes estimate   =     -19.19323885 Ry
     estimated scf accuracy    <       0.00245217 Ry

     iteration #  3     ecut=    35.00 Ry     beta=0.70
     Davidson diagonalization with overlap
     ethr =  3.07E-05,  avg # of iterations =  2.1

     total cpu time spent up to now is        1.9 secs

     total energy              =     -19.19340564 Ry
     Harris-Foulkes estimate   =     -19.19341854 Ry
     estimated scf accuracy    <       0.00004195 Ry

     iteration #  4     ecut=    35.00 Ry     beta=0.70
     Davidson diagonalization with overlap
     ethr =  5.24E-07,  avg # of iterations =  3.5

     total cpu time spent up to now is        2.3 secs

     total energy              =     -19.19344368 Ry
     Harris-Foulkes estimate   =     -19.19344458 Ry
     estimated scf accuracy    <       0.00000329 Ry

     iteration #  5     ecut=    35.00 Ry     beta=0.70
     Davidson diagonalization with overlap
     ethr =  4.11E-08,  avg # of iterations =  2.0

     total cpu time spent up to now is        2.6 secs

     End of self-consistent calculation

          k =-0.0833 0.0833 0.0833 (   944 PWs)   bands (ev):

    -5.7493   5.1212   5.8392   5.8392

          k =-0.2500 0.2500-0.0833 (   954 PWs)   bands (ev):

    -5.2797   3.0549   4.6223   5.6300

          k =-0.4167 0.4167-0.2500 (   959 PWs)   bands (ev):

    -4.2055   0.3301   4.1595   5.0015

          k = 0.4167-0.4167 0.5833 (   964 PWs)   bands (ev):

    -3.5223  -0.7936   4.2223   4.6271

          k = 0.2500-0.2500 0.4167 (   961 PWs)   bands (ev):

    -4.6100   1.1644   4.6882   4.7147

          k = 0.0833-0.0833 0.2500 (   951 PWs)   bands (ev):

    -5.5122   4.0551   5.2043   5.3825

          k =-0.0833 0.4167 0.0833 (   959 PWs)   bands (ev):

    -5.0420   2.8581   4.4661   4.4850

          k =-0.2500 0.5833-0.0833 (   966 PWs)   bands (ev):

    -4.1458   1.0386   3.1702   4.1027

          k = 0.5833-0.2500 0.7500 (   964 PWs)   bands (ev):

    -3.0514  -0.6793   2.5725   3.8803

          k = 0.4167-0.0833 0.5833 (   963 PWs)   bands (ev):

    -3.7585   0.3578   2.5369   4.3577

          k = 0.2500 0.0833 0.4167 (   956 PWs)   bands (ev):

    -4.8202   2.0369   3.8564   5.0133

          k =-0.0833 0.7500 0.0833 (   975 PWs)   bands (ev):

    -3.4443   0.2136   3.1373   3.4699

          k = 0.7500-0.0833 0.9167 (   972 PWs)   bands (ev):

    -2.2681  -1.1090   2.3120   3.0720

          k = 0.5833 0.0833 0.7500 (   969 PWs)   bands (ev):

    -2.6374  -0.7709   1.8351   3.6087

          k = 0.4167 0.2500 0.5833 (   965 PWs)   bands (ev):

    -3.6500  -0.3056   3.4566   4.4532

          k =-0.0833-0.9167 0.0833 (   965 PWs)   bands (ev):

    -2.3567  -1.1161   2.8720   3.2573

          k =-0.2500-0.7500-0.0833 (   967 PWs)   bands (ev):

    -3.2793  -0.0053   2.6257   3.4075

          k =-0.0833-0.5833 0.0833 (   971 PWs)   bands (ev):

    -4.3477   1.5646   3.6725   3.8867

          k =-0.2500 0.2500 0.2500 (   947 PWs)   bands (ev):

    -5.0538   2.0912   5.2334   5.2334

          k =-0.4167 0.4167 0.0833 (   960 PWs)   bands (ev):

    -4.3853   1.1594   3.1343   5.0653

          k = 0.4167-0.4167 0.9167 (   964 PWs)   bands (ev):

    -3.2269  -0.2684   2.0466   4.2918

          k = 0.2500-0.2500 0.7500 (   963 PWs)   bands (ev):

    -3.1746  -0.3470   2.5153   3.8177

          k =-0.2500 0.5833 0.2500 (   971 PWs)   bands (ev):

    -3.9684   0.3648   3.5848   4.1855

          k = 0.5833-0.2500 1.0833 (   966 PWs)   bands (ev):

    -2.9831  -0.3860   2.1461   3.4069

          k = 0.4167-0.0833 0.9167 (   963 PWs)   bands (ev):

    -2.1657  -1.1167   1.9889   2.7515

          k =-0.2500-1.0833 0.2500 (   967 PWs)   bands (ev):

    -2.3736  -1.0196   1.8645   3.6259

          k =-0.4167 0.4167 0.4167 (   963 PWs)   bands (ev):

    -3.8834  -0.3997   4.8486   4.8486

          k = 0.4167-0.4167 1.2500 (   965 PWs)   bands (ev):

    -3.2898  -0.7022   3.0382   4.4164

     highest occupied level (ev):     5.8392

!    total energy              =     -19.19344410 Ry
     Harris-Foulkes estimate   =     -19.19344410 Ry
     estimated scf accuracy    <          8.5E-09 Ry

     The total energy is the sum of the following terms:

     one-electron contribution =       4.95172194 Ry
     hartree contribution      =       1.13378558 Ry
     xc contribution           =      -8.59671631 Ry
     ewald contribution        =     -16.68223531 Ry

     convergence has been achieved in   5 iterations


     Computing stress (Cartesian axis) and pressure

          total   stress  (Ry/bohr**3)                   (kbar)     P=   -0.33
  -0.00000222  -0.00000000   0.00000000         -0.33     -0.00      0.00
  -0.00000000  -0.00000222   0.00000000         -0.00     -0.33      0.00
  -0.00000000   0.00000000  -0.00000222         -0.00      0.00     -0.33


     Writing output data file silicon.35.save

     init_run     :      0.43s CPU      0.46s WALL (       1 calls)
     electrons    :      1.75s CPU      2.07s WALL (       1 calls)
     stress       :      0.42s CPU      0.60s WALL (       1 calls)

     Called by init_run:
     wfcinit      :      0.12s CPU      0.13s WALL (       1 calls)
     potinit      :      0.03s CPU      0.04s WALL (       1 calls)

     Called by electrons:
     c_bands      :      1.10s CPU      1.36s WALL (       6 calls)
     sum_band     :      0.40s CPU      0.44s WALL (       6 calls)
     v_of_rho     :      0.12s CPU      0.12s WALL (       6 calls)
     newd         :      0.16s CPU      0.18s WALL (       6 calls)
     mix_rho      :      0.01s CPU      0.01s WALL (       6 calls)

     Called by c_bands:
     init_us_2    :      0.07s CPU      0.08s WALL (     392 calls)
     cegterg      :      0.95s CPU      1.20s WALL (     168 calls)

     Called by sum_band:
     sum_band:bec :      0.00s CPU      0.00s WALL (     168 calls)
     addusdens    :      0.17s CPU      0.18s WALL (       6 calls)

     Called by *egterg:
     h_psi        :      0.89s CPU      1.09s WALL (     523 calls)
     s_psi        :      0.05s CPU      0.06s WALL (     523 calls)
     g_psi        :      0.00s CPU      0.00s WALL (     327 calls)
     cdiaghg      :      0.03s CPU      0.04s WALL (     467 calls)

     Called by h_psi:
     h_psi:pot    :      0.89s CPU      1.08s WALL (     523 calls)
     h_psi:calbec :      0.07s CPU      0.09s WALL (     523 calls)
     vloc_psi     :      0.76s CPU      0.93s WALL (     523 calls)
     add_vuspsi   :      0.06s CPU      0.06s WALL (     523 calls)

     General routines
     calbec       :      0.13s CPU      0.28s WALL (     719 calls)
     fft          :      0.09s CPU      0.10s WALL (     110 calls)
     ffts         :      0.01s CPU      0.01s WALL (      12 calls)
     fftw         :      0.79s CPU      0.97s WALL (    4612 calls)
     interpolate  :      0.02s CPU      0.02s WALL (      12 calls)
     davcio       :      0.00s CPU      0.00s WALL (      28 calls)

     Parallel routines
     fft_scatter  :      0.23s CPU      0.37s WALL (    4734 calls)

     PWSCF        :     2.82s CPU         3.35s WALL


   This run was terminated on:  12: 8:21  10Nov2017            

=------------------------------------------------------------------------------=
   JOB DONE.
=------------------------------------------------------------------------------=
