
     Program PWSCF v.6.1 (svn rev. 13369) starts on 10Nov2017 at 10:32: 7 

     This program is part of the open-source Quantum ESPRESSO suite
     for quantum simulation of materials; please cite
         "P. Giannozzi et al., J. Phys.:Condens. Matter 21 395502 (2009);
          URL http://www.quantum-espresso.org", 
     in publications or presentations arising from this work. More details at
     http://www.quantum-espresso.org/quote

     Parallel version (MPI), running on     4 processors
     R & G space division:  proc/nbgrp/npool/nimage =       4
     Waiting for input...
     Reading input from standard input
     Message from routine read_cards :
     DEPRECATED: no units specified in ATOMIC_POSITIONS card
     Message from routine read_cards :
     ATOMIC_POSITIONS: units set to alat

     Current dimensions of program PWSCF are:
     Max number of different atomic species (ntypx) = 10
     Max number of k-points (npk) =  40000
     Max angular momentum in pseudopotentials (lmaxx) =  3

     Subspace diagonalization in iterative solution of the eigenvalue problem:
     a serial algorithm will be used


     Parallelization info
     --------------------
     sticks:   dense  smooth     PW     G-vecs:    dense   smooth      PW
     Min         222     109     37                 4369     1545     309
     Max         223     110     38                 4370     1546     312
     Sum         889     439    151                17477     6183    1243



     bravais-lattice index     =            2
     lattice parameter (alat)  =      10.3600  a.u.
     unit-cell volume          =     277.9837 (a.u.)^3
     number of atoms/cell      =            2
     number of atomic types    =            1
     number of electrons       =         8.00
     number of Kohn-Sham states=            4
     kinetic-energy cutoff     =      30.0000  Ry
     charge density cutoff     =     240.0000  Ry
     convergence threshold     =      1.0E-08
     mixing beta               =       0.7000
     number of iterations used =            8  plain     mixing
     Exchange-correlation      = SLA  PW   PBE  PBE ( 1  4  3  4 0 0)

     celldm(1)=  10.360000  celldm(2)=   0.000000  celldm(3)=   0.000000
     celldm(4)=   0.000000  celldm(5)=   0.000000  celldm(6)=   0.000000

     crystal axes: (cart. coord. in units of alat)
               a(1) = (  -0.500000   0.000000   0.500000 )  
               a(2) = (   0.000000   0.500000   0.500000 )  
               a(3) = (  -0.500000   0.500000   0.000000 )  

     reciprocal axes: (cart. coord. in units 2 pi/alat)
               b(1) = ( -1.000000 -1.000000  1.000000 )  
               b(2) = (  1.000000  1.000000  1.000000 )  
               b(3) = ( -1.000000  1.000000 -1.000000 )  


     PseudoPot. # 1 for Si read from file:
     /home/max/quantum_espresso/qe-6.1/pseudo/si_pbe_v1.uspp.F.UPF.txt
     MD5 check sum: a056efeee980c13900f22a371efd63c1
     Pseudo is Ultrasoft + core correction, Zval =  4.0
     Generated by new atomic code, or converted to UPF format
     Using radial grid of  899 points,  6 beta functions with: 
                l(1) =   0
                l(2) =   0
                l(3) =   1
                l(4) =   1
                l(5) =   2
                l(6) =   2
     Q(r) pseudized with  8 coefficients,  rinner =    0.900   0.900   0.900
                                                       0.900   0.900

     atomic species   valence    mass     pseudopotential
        Si             4.00    28.08600     Si( 1.00)

     48 Sym. Ops., with inversion, found (24 have fractional translation)



   Cartesian axes

     site n.     atom                  positions (alat units)
         1           Si  tau(   1) = (   0.0000000   0.0000000   0.0000000  )
         2           Si  tau(   2) = (   0.2500000   0.2500000   0.2500000  )

     number of k points=    28
                       cart. coord. in units 2pi/alat
        k(    1) = (  -0.0833333   0.0833333   0.0833333), wk =   0.0185185
        k(    2) = (  -0.2500000   0.2500000  -0.0833333), wk =   0.0555556
        k(    3) = (  -0.4166667   0.4166667  -0.2500000), wk =   0.0555556
        k(    4) = (   0.4166667  -0.4166667   0.5833333), wk =   0.0555556
        k(    5) = (   0.2500000  -0.2500000   0.4166667), wk =   0.0555556
        k(    6) = (   0.0833333  -0.0833333   0.2500000), wk =   0.0555556
        k(    7) = (  -0.0833333   0.4166667   0.0833333), wk =   0.0555556
        k(    8) = (  -0.2500000   0.5833333  -0.0833333), wk =   0.1111111
        k(    9) = (   0.5833333  -0.2500000   0.7500000), wk =   0.1111111
        k(   10) = (   0.4166667  -0.0833333   0.5833333), wk =   0.1111111
        k(   11) = (   0.2500000   0.0833333   0.4166667), wk =   0.1111111
        k(   12) = (  -0.0833333   0.7500000   0.0833333), wk =   0.0555556
        k(   13) = (   0.7500000  -0.0833333   0.9166667), wk =   0.1111111
        k(   14) = (   0.5833333   0.0833333   0.7500000), wk =   0.1111111
        k(   15) = (   0.4166667   0.2500000   0.5833333), wk =   0.1111111
        k(   16) = (  -0.0833333  -0.9166667   0.0833333), wk =   0.0555556
        k(   17) = (  -0.2500000  -0.7500000  -0.0833333), wk =   0.1111111
        k(   18) = (  -0.0833333  -0.5833333   0.0833333), wk =   0.0555556
        k(   19) = (  -0.2500000   0.2500000   0.2500000), wk =   0.0185185
        k(   20) = (  -0.4166667   0.4166667   0.0833333), wk =   0.0555556
        k(   21) = (   0.4166667  -0.4166667   0.9166667), wk =   0.0555556
        k(   22) = (   0.2500000  -0.2500000   0.7500000), wk =   0.0555556
        k(   23) = (  -0.2500000   0.5833333   0.2500000), wk =   0.0555556
        k(   24) = (   0.5833333  -0.2500000   1.0833333), wk =   0.1111111
        k(   25) = (   0.4166667  -0.0833333   0.9166667), wk =   0.1111111
        k(   26) = (  -0.2500000  -1.0833333   0.2500000), wk =   0.0555556
        k(   27) = (  -0.4166667   0.4166667   0.4166667), wk =   0.0185185
        k(   28) = (   0.4166667  -0.4166667   1.2500000), wk =   0.0555556

     Dense  grid:    17477 G-vectors     FFT dimensions: (  40,  40,  40)

     Smooth grid:     6183 G-vectors     FFT dimensions: (  25,  25,  25)

     Estimated max dynamical RAM per process >       3.38MB

     Estimated total allocated dynamical RAM >      13.50MB

     Initial potential from superposition of free atoms

     starting charge    7.99866, renormalised to    8.00000
     Starting wfc are    8 randomized atomic wfcs

     total cpu time spent up to now is        0.9 secs

     per-process dynamical memory:     9.8 Mb

     Self-consistent Calculation

     iteration #  1     ecut=    30.00 Ry     beta=0.70
     Davidson diagonalization with overlap
     ethr =  1.00E-02,  avg # of iterations =  2.0

     Threshold (ethr) on eigenvalues was too large:
     Diagonalizing with lowered threshold

     Davidson diagonalization with overlap
     ethr =  6.67E-04,  avg # of iterations =  1.0

     total cpu time spent up to now is        1.3 secs

     total energy              =     -19.19125823 Ry
     Harris-Foulkes estimate   =     -19.20338707 Ry
     estimated scf accuracy    <       0.05295169 Ry

     iteration #  2     ecut=    30.00 Ry     beta=0.70
     Davidson diagonalization with overlap
     ethr =  6.62E-04,  avg # of iterations =  1.0

     total cpu time spent up to now is        1.5 secs

     total energy              =     -19.19295679 Ry
     Harris-Foulkes estimate   =     -19.19312673 Ry
     estimated scf accuracy    <       0.00245188 Ry

     iteration #  3     ecut=    30.00 Ry     beta=0.70
     Davidson diagonalization with overlap
     ethr =  3.06E-05,  avg # of iterations =  2.1

     total cpu time spent up to now is        1.8 secs

     total energy              =     -19.19328071 Ry
     Harris-Foulkes estimate   =     -19.19329345 Ry
     estimated scf accuracy    <       0.00004135 Ry

     iteration #  4     ecut=    30.00 Ry     beta=0.70
     Davidson diagonalization with overlap
     ethr =  5.17E-07,  avg # of iterations =  3.4

     total cpu time spent up to now is        2.1 secs

     total energy              =     -19.19331817 Ry
     Harris-Foulkes estimate   =     -19.19331900 Ry
     estimated scf accuracy    <       0.00000306 Ry

     iteration #  5     ecut=    30.00 Ry     beta=0.70
     Davidson diagonalization with overlap
     ethr =  3.82E-08,  avg # of iterations =  2.0

     total cpu time spent up to now is        2.8 secs

     total energy              =     -19.19331857 Ry
     Harris-Foulkes estimate   =     -19.19331857 Ry
     estimated scf accuracy    <       0.00000001 Ry

     iteration #  6     ecut=    30.00 Ry     beta=0.70
     Davidson diagonalization with overlap
     ethr =  1.47E-10,  avg # of iterations =  3.9

     total cpu time spent up to now is        3.2 secs

     End of self-consistent calculation

          k =-0.0833 0.0833 0.0833 (   764 PWs)   bands (ev):

    -5.7770   5.0409   5.7605   5.7605

          k =-0.2500 0.2500-0.0833 (   775 PWs)   bands (ev):

    -5.3107   2.9809   4.5527   5.5516

          k =-0.4167 0.4167-0.2500 (   771 PWs)   bands (ev):

    -4.2448   0.2744   4.0904   4.9273

          k = 0.4167-0.4167 0.5833 (   775 PWs)   bands (ev):

    -3.5687  -0.8396   4.1513   4.5560

          k = 0.2500-0.2500 0.4167 (   776 PWs)   bands (ev):

    -4.6459   1.1027   4.6178   4.6403

          k = 0.0833-0.0833 0.2500 (   781 PWs)   bands (ev):

    -5.5415   3.9756   5.1311   5.3048

          k =-0.0833 0.4167 0.0833 (   777 PWs)   bands (ev):

    -5.0746   2.7791   4.3959   4.4171

          k =-0.2500 0.5833-0.0833 (   775 PWs)   bands (ev):

    -4.1848   0.9693   3.1112   4.0369

          k = 0.5833-0.2500 0.7500 (   769 PWs)   bands (ev):

    -3.1007  -0.7325   2.5153   3.8169

          k = 0.4167-0.0833 0.5833 (   771 PWs)   bands (ev):

    -3.8009   0.2944   2.4829   4.2898

          k = 0.2500 0.0833 0.4167 (   778 PWs)   bands (ev):

    -4.8544   1.9660   3.7921   4.9389

          k =-0.0833 0.7500 0.0833 (   774 PWs)   bands (ev):

    -3.4879   0.1450   3.0798   3.4085

          k = 0.7500-0.0833 0.9167 (   764 PWs)   bands (ev):

    -2.3210  -1.1694   2.2629   3.0151

          k = 0.5833 0.0833 0.7500 (   767 PWs)   bands (ev):

    -2.6895  -0.8299   1.7890   3.5474

          k = 0.4167 0.2500 0.5833 (   773 PWs)   bands (ev):

    -3.6942  -0.3581   3.3913   4.3840

          k =-0.0833-0.9167 0.0833 (   769 PWs)   bands (ev):

    -2.4080  -1.1760   2.8165   3.1972

          k =-0.2500-0.7500-0.0833 (   770 PWs)   bands (ev):

    -3.3247  -0.0718   2.5725   3.3482

          k =-0.0833-0.5833 0.0833 (   777 PWs)   bands (ev):

    -4.3850   1.4889   3.6102   3.8227

          k =-0.2500 0.2500 0.2500 (   778 PWs)   bands (ev):

    -5.0864   2.0250   5.1586   5.1586

          k =-0.4167 0.4167 0.0833 (   783 PWs)   bands (ev):

    -4.4229   1.0933   3.0753   4.9909

          k = 0.4167-0.4167 0.9167 (   773 PWs)   bands (ev):

    -3.2740  -0.3282   1.9973   4.2238

          k = 0.2500-0.2500 0.7500 (   768 PWs)   bands (ev):

    -3.2217  -0.4065   2.4609   3.7536

          k =-0.2500 0.5833 0.2500 (   777 PWs)   bands (ev):

    -4.0092   0.3053   3.5185   4.1188

          k = 0.5833-0.2500 1.0833 (   764 PWs)   bands (ev):

    -3.0316  -0.4482   2.0965   3.3484

          k = 0.4167-0.0833 0.9167 (   763 PWs)   bands (ev):

    -2.2207  -1.1771   1.9429   2.6991

          k =-0.2500-1.0833 0.2500 (   764 PWs)   bands (ev):

    -2.4273  -1.0785   1.8193   3.5631

          k =-0.4167 0.4167 0.4167 (   769 PWs)   bands (ev):

    -3.9260  -0.4487   4.7754   4.7754

          k = 0.4167-0.4167 1.2500 (   771 PWs)   bands (ev):

    -3.3377  -0.7518   2.9763   4.3472

     highest occupied level (ev):     5.7605

!    total energy              =     -19.19331861 Ry
     Harris-Foulkes estimate   =     -19.19331861 Ry
     estimated scf accuracy    <          1.0E-09 Ry

     The total energy is the sum of the following terms:

     one-electron contribution =       4.89242250 Ry
     hartree contribution      =       1.14070281 Ry
     xc contribution           =      -8.58768548 Ry
     ewald contribution        =     -16.63875844 Ry

     convergence has been achieved in   6 iterations

     Writing output data file silicon.10.360.save

     init_run     :      0.39s CPU      0.80s WALL (       1 calls)
     electrons    :      1.59s CPU      2.32s WALL (       1 calls)

     Called by init_run:
     wfcinit      :      0.12s CPU      0.24s WALL (       1 calls)
     potinit      :      0.04s CPU      0.10s WALL (       1 calls)

     Called by electrons:
     c_bands      :      0.95s CPU      1.40s WALL (       7 calls)
     sum_band     :      0.36s CPU      0.52s WALL (       7 calls)
     v_of_rho     :      0.14s CPU      0.25s WALL (       7 calls)
     newd         :      0.16s CPU      0.25s WALL (       7 calls)
     mix_rho      :      0.01s CPU      0.02s WALL (       7 calls)

     Called by c_bands:
     init_us_2    :      0.05s CPU      0.06s WALL (     420 calls)
     cegterg      :      0.82s CPU      1.24s WALL (     196 calls)

     Called by sum_band:
     sum_band:bec :      0.00s CPU      0.00s WALL (     196 calls)
     addusdens    :      0.16s CPU      0.21s WALL (       7 calls)

     Called by *egterg:
     h_psi        :      0.72s CPU      1.14s WALL (     657 calls)
     s_psi        :      0.05s CPU      0.06s WALL (     657 calls)
     g_psi        :      0.00s CPU      0.00s WALL (     433 calls)
     cdiaghg      :      0.05s CPU      0.07s WALL (     601 calls)

     Called by h_psi:
     h_psi:pot    :      0.72s CPU      1.14s WALL (     657 calls)
     h_psi:calbec :      0.08s CPU      0.12s WALL (     657 calls)
     vloc_psi     :      0.58s CPU      0.95s WALL (     657 calls)
     add_vuspsi   :      0.05s CPU      0.06s WALL (     657 calls)

     General routines
     calbec       :      0.10s CPU      0.15s WALL (     853 calls)
     fft          :      0.11s CPU      0.25s WALL (     112 calls)
     ffts         :      0.00s CPU      0.00s WALL (      14 calls)
     fftw         :      0.59s CPU      1.02s WALL (    5694 calls)
     interpolate  :      0.01s CPU      0.02s WALL (      14 calls)
     davcio       :      0.00s CPU      0.00s WALL (      28 calls)

     Parallel routines
     fft_scatter  :      0.35s CPU      0.86s WALL (    5820 calls)

     PWSCF        :     2.20s CPU         3.35s WALL


   This run was terminated on:  10:32:11  10Nov2017            

=------------------------------------------------------------------------------=
   JOB DONE.
=------------------------------------------------------------------------------=
