
     Program PWSCF v.6.1 (svn rev. 13369) starts on 10Nov2017 at 10:28:33 

     This program is part of the open-source Quantum ESPRESSO suite
     for quantum simulation of materials; please cite
         "P. Giannozzi et al., J. Phys.:Condens. Matter 21 395502 (2009);
          URL http://www.quantum-espresso.org", 
     in publications or presentations arising from this work. More details at
     http://www.quantum-espresso.org/quote

     Parallel version (MPI), running on     4 processors
     R & G space division:  proc/nbgrp/npool/nimage =       4
     Waiting for input...
     Reading input from standard input
     Message from routine read_cards :
     DEPRECATED: no units specified in ATOMIC_POSITIONS card
     Message from routine read_cards :
     ATOMIC_POSITIONS: units set to alat

     Current dimensions of program PWSCF are:
     Max number of different atomic species (ntypx) = 10
     Max number of k-points (npk) =  40000
     Max angular momentum in pseudopotentials (lmaxx) =  3

     Subspace diagonalization in iterative solution of the eigenvalue problem:
     a serial algorithm will be used


     Parallelization info
     --------------------
     sticks:   dense  smooth     PW     G-vecs:    dense   smooth      PW
     Min         214     108     37                 4215     1489     284
     Max         215     109     38                 4218     1492     285
     Sum         859     433    151                16865     5961    1139



     bravais-lattice index     =            2
     lattice parameter (alat)  =      10.2400  a.u.
     unit-cell volume          =     268.4355 (a.u.)^3
     number of atoms/cell      =            2
     number of atomic types    =            1
     number of electrons       =         8.00
     number of Kohn-Sham states=            4
     kinetic-energy cutoff     =      30.0000  Ry
     charge density cutoff     =     240.0000  Ry
     convergence threshold     =      1.0E-08
     mixing beta               =       0.7000
     number of iterations used =            8  plain     mixing
     Exchange-correlation      = SLA  PW   PBE  PBE ( 1  4  3  4 0 0)

     celldm(1)=  10.240000  celldm(2)=   0.000000  celldm(3)=   0.000000
     celldm(4)=   0.000000  celldm(5)=   0.000000  celldm(6)=   0.000000

     crystal axes: (cart. coord. in units of alat)
               a(1) = (  -0.500000   0.000000   0.500000 )  
               a(2) = (   0.000000   0.500000   0.500000 )  
               a(3) = (  -0.500000   0.500000   0.000000 )  

     reciprocal axes: (cart. coord. in units 2 pi/alat)
               b(1) = ( -1.000000 -1.000000  1.000000 )  
               b(2) = (  1.000000  1.000000  1.000000 )  
               b(3) = ( -1.000000  1.000000 -1.000000 )  


     PseudoPot. # 1 for Si read from file:
     /home/max/quantum_espresso/qe-6.1/pseudo/si_pbe_v1.uspp.F.UPF.txt
     MD5 check sum: a056efeee980c13900f22a371efd63c1
     Pseudo is Ultrasoft + core correction, Zval =  4.0
     Generated by new atomic code, or converted to UPF format
     Using radial grid of  899 points,  6 beta functions with: 
                l(1) =   0
                l(2) =   0
                l(3) =   1
                l(4) =   1
                l(5) =   2
                l(6) =   2
     Q(r) pseudized with  8 coefficients,  rinner =    0.900   0.900   0.900
                                                       0.900   0.900

     atomic species   valence    mass     pseudopotential
        Si             4.00    28.08600     Si( 1.00)

     48 Sym. Ops., with inversion, found (24 have fractional translation)



   Cartesian axes

     site n.     atom                  positions (alat units)
         1           Si  tau(   1) = (   0.0000000   0.0000000   0.0000000  )
         2           Si  tau(   2) = (   0.2500000   0.2500000   0.2500000  )

     number of k points=    28
                       cart. coord. in units 2pi/alat
        k(    1) = (  -0.0833333   0.0833333   0.0833333), wk =   0.0185185
        k(    2) = (  -0.2500000   0.2500000  -0.0833333), wk =   0.0555556
        k(    3) = (  -0.4166667   0.4166667  -0.2500000), wk =   0.0555556
        k(    4) = (   0.4166667  -0.4166667   0.5833333), wk =   0.0555556
        k(    5) = (   0.2500000  -0.2500000   0.4166667), wk =   0.0555556
        k(    6) = (   0.0833333  -0.0833333   0.2500000), wk =   0.0555556
        k(    7) = (  -0.0833333   0.4166667   0.0833333), wk =   0.0555556
        k(    8) = (  -0.2500000   0.5833333  -0.0833333), wk =   0.1111111
        k(    9) = (   0.5833333  -0.2500000   0.7500000), wk =   0.1111111
        k(   10) = (   0.4166667  -0.0833333   0.5833333), wk =   0.1111111
        k(   11) = (   0.2500000   0.0833333   0.4166667), wk =   0.1111111
        k(   12) = (  -0.0833333   0.7500000   0.0833333), wk =   0.0555556
        k(   13) = (   0.7500000  -0.0833333   0.9166667), wk =   0.1111111
        k(   14) = (   0.5833333   0.0833333   0.7500000), wk =   0.1111111
        k(   15) = (   0.4166667   0.2500000   0.5833333), wk =   0.1111111
        k(   16) = (  -0.0833333  -0.9166667   0.0833333), wk =   0.0555556
        k(   17) = (  -0.2500000  -0.7500000  -0.0833333), wk =   0.1111111
        k(   18) = (  -0.0833333  -0.5833333   0.0833333), wk =   0.0555556
        k(   19) = (  -0.2500000   0.2500000   0.2500000), wk =   0.0185185
        k(   20) = (  -0.4166667   0.4166667   0.0833333), wk =   0.0555556
        k(   21) = (   0.4166667  -0.4166667   0.9166667), wk =   0.0555556
        k(   22) = (   0.2500000  -0.2500000   0.7500000), wk =   0.0555556
        k(   23) = (  -0.2500000   0.5833333   0.2500000), wk =   0.0555556
        k(   24) = (   0.5833333  -0.2500000   1.0833333), wk =   0.1111111
        k(   25) = (   0.4166667  -0.0833333   0.9166667), wk =   0.1111111
        k(   26) = (  -0.2500000  -1.0833333   0.2500000), wk =   0.0555556
        k(   27) = (  -0.4166667   0.4166667   0.4166667), wk =   0.0185185
        k(   28) = (   0.4166667  -0.4166667   1.2500000), wk =   0.0555556

     Dense  grid:    16865 G-vectors     FFT dimensions: (  36,  36,  36)

     Smooth grid:     5961 G-vectors     FFT dimensions: (  25,  25,  25)

     Estimated max dynamical RAM per process >       3.00MB

     Estimated total allocated dynamical RAM >      12.01MB

     Initial potential from superposition of free atoms

     starting charge    7.99866, renormalised to    8.00000
     Starting wfc are    8 randomized atomic wfcs

     total cpu time spent up to now is        0.5 secs

     per-process dynamical memory:     9.9 Mb

     Self-consistent Calculation

     iteration #  1     ecut=    30.00 Ry     beta=0.70
     Davidson diagonalization with overlap
     ethr =  1.00E-02,  avg # of iterations =  2.0

     Threshold (ethr) on eigenvalues was too large:
     Diagonalizing with lowered threshold

     Davidson diagonalization with overlap
     ethr =  7.09E-04,  avg # of iterations =  1.0

     total cpu time spent up to now is        1.3 secs

     total energy              =     -19.19040430 Ry
     Harris-Foulkes estimate   =     -19.20399236 Ry
     estimated scf accuracy    <       0.05609633 Ry

     iteration #  2     ecut=    30.00 Ry     beta=0.70
     Davidson diagonalization with overlap
     ethr =  7.01E-04,  avg # of iterations =  1.0

     total cpu time spent up to now is        1.6 secs

     total energy              =     -19.19234959 Ry
     Harris-Foulkes estimate   =     -19.19251778 Ry
     estimated scf accuracy    <       0.00243718 Ry

     iteration #  3     ecut=    30.00 Ry     beta=0.70
     Davidson diagonalization with overlap
     ethr =  3.05E-05,  avg # of iterations =  2.0

     total cpu time spent up to now is        1.8 secs

     total energy              =     -19.19270278 Ry
     Harris-Foulkes estimate   =     -19.19271709 Ry
     estimated scf accuracy    <       0.00004614 Ry

     iteration #  4     ecut=    30.00 Ry     beta=0.70
     Davidson diagonalization with overlap
     ethr =  5.77E-07,  avg # of iterations =  3.3

     total cpu time spent up to now is        2.1 secs

     total energy              =     -19.19274544 Ry
     Harris-Foulkes estimate   =     -19.19274651 Ry
     estimated scf accuracy    <       0.00000371 Ry

     iteration #  5     ecut=    30.00 Ry     beta=0.70
     Davidson diagonalization with overlap
     ethr =  4.64E-08,  avg # of iterations =  2.0

     total cpu time spent up to now is        2.3 secs

     total energy              =     -19.19274593 Ry
     Harris-Foulkes estimate   =     -19.19274592 Ry
     estimated scf accuracy    <       0.00000001 Ry

     iteration #  6     ecut=    30.00 Ry     beta=0.70
     Davidson diagonalization with overlap
     ethr =  1.46E-10,  avg # of iterations =  4.0

     total cpu time spent up to now is        2.6 secs

     End of self-consistent calculation

          k =-0.0833 0.0833 0.0833 (   737 PWs)   bands (ev):

    -5.6515   5.4026   6.1165   6.1165

          k =-0.2500 0.2500-0.0833 (   750 PWs)   bands (ev):

    -5.1706   3.3134   4.8676   5.9062

          k =-0.4167 0.4167-0.2500 (   747 PWs)   bands (ev):

    -4.0671   0.5255   4.4033   5.2631

          k = 0.4167-0.4167 0.5833 (   747 PWs)   bands (ev):

    -3.3587  -0.6325   4.4730   4.8779

          k = 0.2500-0.2500 0.4167 (   752 PWs)   bands (ev):

    -4.4835   1.3804   4.9365   4.9771

          k = 0.0833-0.0833 0.2500 (   747 PWs)   bands (ev):

    -5.4087   4.3329   5.4620   5.6564

          k =-0.0833 0.4167 0.0833 (   743 PWs)   bands (ev):

    -4.9273   3.1346   4.7137   4.7244

          k =-0.2500 0.5833-0.0833 (   745 PWs)   bands (ev):

    -4.0083   1.2816   3.3785   4.3348

          k = 0.5833-0.2500 0.7500 (   741 PWs)   bands (ev):

    -2.8775  -0.4929   2.7751   4.1037

          k = 0.4167-0.0833 0.5833 (   747 PWs)   bands (ev):

    -3.6092   0.5799   2.7280   4.5972

          k = 0.2500 0.0833 0.4167 (   750 PWs)   bands (ev):

    -4.6997   2.2853   4.0832   5.2754

          k =-0.0833 0.7500 0.0833 (   748 PWs)   bands (ev):

    -3.2906   0.4549   3.3402   3.6862

          k = 0.7500-0.0833 0.9167 (   741 PWs)   bands (ev):

    -2.0820  -0.8965   2.4855   3.2726

          k = 0.5833 0.0833 0.7500 (   739 PWs)   bands (ev):

    -2.4537  -0.5639   1.9980   3.8246

          k = 0.4167 0.2500 0.5833 (   748 PWs)   bands (ev):

    -3.4947  -0.1215   3.6876   4.6969

          k =-0.0833-0.9167 0.0833 (   744 PWs)   bands (ev):

    -2.1761  -0.9053   3.0676   3.4690

          k =-0.2500-0.7500-0.0833 (   744 PWs)   bands (ev):

    -3.1196   0.2282   2.8134   3.6164

          k =-0.0833-0.5833 0.0833 (   737 PWs)   bands (ev):

    -4.2162   1.8302   3.8923   4.1122

          k =-0.2500 0.2500 0.2500 (   751 PWs)   bands (ev):

    -4.9389   2.3231   5.4972   5.4972

          k =-0.4167 0.4167 0.0833 (   746 PWs)   bands (ev):

    -4.2532   1.3905   3.3424   5.3275

          k = 0.4167-0.4167 0.9167 (   740 PWs)   bands (ev):

    -3.0610  -0.0586   2.2214   4.5315

          k = 0.2500-0.2500 0.7500 (   739 PWs)   bands (ev):

    -3.0089  -0.1383   2.7078   4.0436

          k =-0.2500 0.5833 0.2500 (   747 PWs)   bands (ev):

    -3.8247   0.5734   3.8190   4.4205

          k = 0.5833-0.2500 1.0833 (   740 PWs)   bands (ev):

    -2.8121  -0.1674   2.3217   3.6127

          k = 0.4167-0.0833 0.9167 (   740 PWs)   bands (ev):

    -1.9722  -0.9043   2.1514   2.9362

          k =-0.2500-1.0833 0.2500 (   740 PWs)   bands (ev):

    -2.1844  -0.8129   2.0238   3.8471

          k =-0.4167 0.4167 0.4167 (   757 PWs)   bands (ev):

    -3.7333  -0.2277   5.1065   5.1065

          k = 0.4167-0.4167 1.2500 (   745 PWs)   bands (ev):

    -3.1211  -0.5288   3.2568   4.6601

     highest occupied level (ev):     6.1165

!    total energy              =     -19.19274596 Ry
     Harris-Foulkes estimate   =     -19.19274597 Ry
     estimated scf accuracy    <          9.3E-10 Ry

     The total energy is the sum of the following terms:

     one-electron contribution =       5.16007357 Ry
     hartree contribution      =       1.10999782 Ry
     xc contribution           =      -8.62907346 Ry
     ewald contribution        =     -16.83374389 Ry

     convergence has been achieved in   6 iterations

     Writing output data file silicon.10.24.save

     init_run     :      0.34s CPU      0.38s WALL (       1 calls)
     electrons    :      1.56s CPU      2.13s WALL (       1 calls)

     Called by init_run:
     wfcinit      :      0.08s CPU      0.09s WALL (       1 calls)
     potinit      :      0.02s CPU      0.02s WALL (       1 calls)

     Called by electrons:
     c_bands      :      0.95s CPU      1.38s WALL (       7 calls)
     sum_band     :      0.36s CPU      0.44s WALL (       7 calls)
     v_of_rho     :      0.10s CPU      0.13s WALL (       7 calls)
     newd         :      0.17s CPU      0.20s WALL (       7 calls)
     mix_rho      :      0.01s CPU      0.01s WALL (       7 calls)

     Called by c_bands:
     init_us_2    :      0.05s CPU      0.06s WALL (     420 calls)
     cegterg      :      0.82s CPU      1.21s WALL (     196 calls)

     Called by sum_band:
     sum_band:bec :      0.00s CPU      0.00s WALL (     196 calls)
     addusdens    :      0.17s CPU      0.20s WALL (       7 calls)

     Called by *egterg:
     h_psi        :      0.69s CPU      0.99s WALL (     655 calls)
     s_psi        :      0.05s CPU      0.06s WALL (     655 calls)
     g_psi        :      0.00s CPU      0.00s WALL (     431 calls)
     cdiaghg      :      0.05s CPU      0.07s WALL (     599 calls)

     Called by h_psi:
     h_psi:pot    :      0.69s CPU      0.99s WALL (     655 calls)
     h_psi:calbec :      0.07s CPU      0.10s WALL (     655 calls)
     vloc_psi     :      0.56s CPU      0.83s WALL (     655 calls)
     add_vuspsi   :      0.05s CPU      0.06s WALL (     655 calls)

     General routines
     calbec       :      0.09s CPU      0.13s WALL (     851 calls)
     fft          :      0.11s CPU      0.15s WALL (     112 calls)
     ffts         :      0.00s CPU      0.00s WALL (      14 calls)
     fftw         :      0.58s CPU      0.86s WALL (    5704 calls)
     interpolate  :      0.02s CPU      0.02s WALL (      14 calls)
     davcio       :      0.00s CPU      0.00s WALL (      28 calls)

     Parallel routines
     fft_scatter  :      0.35s CPU      0.63s WALL (    5830 calls)

     PWSCF        :     2.14s CPU         2.80s WALL


   This run was terminated on:  10:28:35  10Nov2017            

=------------------------------------------------------------------------------=
   JOB DONE.
=------------------------------------------------------------------------------=
