
     Program PWSCF v.6.1 (svn rev. 13369) starts on 10Nov2017 at 13:43:52 

     This program is part of the open-source Quantum ESPRESSO suite
     for quantum simulation of materials; please cite
         "P. Giannozzi et al., J. Phys.:Condens. Matter 21 395502 (2009);
          URL http://www.quantum-espresso.org", 
     in publications or presentations arising from this work. More details at
     http://www.quantum-espresso.org/quote

     Parallel version (MPI), running on     4 processors
     R & G space division:  proc/nbgrp/npool/nimage =       4
     Waiting for input...
     Reading input from standard input
     Message from routine read_cards :
     DEPRECATED: no units specified in ATOMIC_POSITIONS card
     Message from routine read_cards :
     ATOMIC_POSITIONS: units set to alat

     Current dimensions of program PWSCF are:
     Max number of different atomic species (ntypx) = 10
     Max number of k-points (npk) =  40000
     Max angular momentum in pseudopotentials (lmaxx) =  3

     Subspace diagonalization in iterative solution of the eigenvalue problem:
     a serial algorithm will be used


     Parallelization info
     --------------------
     sticks:   dense  smooth     PW     G-vecs:    dense   smooth      PW
     Min         105      49     18                 1394      477     102
     Max         106      50     19                 1395      481     104
     Sum         421     199     73                 5577     1917     411



     bravais-lattice index     =            2
     lattice parameter (alat)  =      10.3330  a.u.
     unit-cell volume          =     275.8159 (a.u.)^3
     number of atoms/cell      =            2
     number of atomic types    =            1
     number of electrons       =         8.00
     number of Kohn-Sham states=            4
     kinetic-energy cutoff     =      14.0000  Ry
     charge density cutoff     =     112.0000  Ry
     convergence threshold     =      1.0E-08
     mixing beta               =       0.7000
     number of iterations used =            8  plain     mixing
     Exchange-correlation      = SLA  PW   PBE  PBE ( 1  4  3  4 0 0)

     celldm(1)=  10.333000  celldm(2)=   0.000000  celldm(3)=   0.000000
     celldm(4)=   0.000000  celldm(5)=   0.000000  celldm(6)=   0.000000

     crystal axes: (cart. coord. in units of alat)
               a(1) = (  -0.500000   0.000000   0.500000 )  
               a(2) = (   0.000000   0.500000   0.500000 )  
               a(3) = (  -0.500000   0.500000   0.000000 )  

     reciprocal axes: (cart. coord. in units 2 pi/alat)
               b(1) = ( -1.000000 -1.000000  1.000000 )  
               b(2) = (  1.000000  1.000000  1.000000 )  
               b(3) = ( -1.000000  1.000000 -1.000000 )  


     PseudoPot. # 1 for Si read from file:
     /home/s1333534/quantum_espresso/qe-6.1/pseudo/si_pbe_v1.uspp.F.UPF.txt
     MD5 check sum: a056efeee980c13900f22a371efd63c1
     Pseudo is Ultrasoft + core correction, Zval =  4.0
     Generated by new atomic code, or converted to UPF format
     Using radial grid of  899 points,  6 beta functions with: 
                l(1) =   0
                l(2) =   0
                l(3) =   1
                l(4) =   1
                l(5) =   2
                l(6) =   2
     Q(r) pseudized with  8 coefficients,  rinner =    0.900   0.900   0.900
                                                       0.900   0.900

     atomic species   valence    mass     pseudopotential
        Si             4.00    28.08600     Si( 1.00)

     24 Sym. Ops. (no inversion) found
          (note: 24 additional sym.ops. were found but ignored
           their fractional translations are incommensurate with FFT grid)


   Cartesian axes

     site n.     atom                  positions (alat units)
         1           Si  tau(   1) = (   0.0000000   0.0000000   0.0000000  )
         2           Si  tau(   2) = (   0.2500000   0.2500000   0.2500000  )

     number of k points=    10
                       cart. coord. in units 2pi/alat
        k(    1) = (  -0.1250000   0.1250000   0.1250000), wk =   0.0625000
        k(    2) = (  -0.3750000   0.3750000  -0.1250000), wk =   0.1875000
        k(    3) = (   0.3750000  -0.3750000   0.6250000), wk =   0.1875000
        k(    4) = (   0.1250000  -0.1250000   0.3750000), wk =   0.1875000
        k(    5) = (  -0.1250000   0.6250000   0.1250000), wk =   0.1875000
        k(    6) = (   0.6250000  -0.1250000   0.8750000), wk =   0.3750000
        k(    7) = (   0.3750000   0.1250000   0.6250000), wk =   0.3750000
        k(    8) = (  -0.1250000  -0.8750000   0.1250000), wk =   0.1875000
        k(    9) = (  -0.3750000   0.3750000   0.3750000), wk =   0.0625000
        k(   10) = (   0.3750000  -0.3750000   1.1250000), wk =   0.1875000

     Dense  grid:     5577 G-vectors     FFT dimensions: (  25,  25,  25)

     Smooth grid:     1917 G-vectors     FFT dimensions: (  18,  18,  18)

     Estimated max dynamical RAM per process >       0.97MB

     Estimated total allocated dynamical RAM >       3.86MB

     Initial potential from superposition of free atoms

     starting charge    7.99866, renormalised to    8.00000
     Starting wfc are    8 randomized atomic wfcs

     total cpu time spent up to now is        0.2 secs

     per-process dynamical memory:     7.2 Mb

     Self-consistent Calculation

     iteration #  1     ecut=    14.00 Ry     beta=0.70
     Davidson diagonalization with overlap
     ethr =  1.00E-02,  avg # of iterations =  2.0

     Threshold (ethr) on eigenvalues was too large:
     Diagonalizing with lowered threshold

     Davidson diagonalization with overlap
     ethr =  6.71E-04,  avg # of iterations =  1.0

     total cpu time spent up to now is        0.2 secs

     total energy              =     -19.18072526 Ry
     Harris-Foulkes estimate   =     -19.19278799 Ry
     estimated scf accuracy    <       0.05362024 Ry

     iteration #  2     ecut=    14.00 Ry     beta=0.70
     Davidson diagonalization with overlap
     ethr =  6.70E-04,  avg # of iterations =  1.0

     total cpu time spent up to now is        0.3 secs

     total energy              =     -19.18237265 Ry
     Harris-Foulkes estimate   =     -19.18254939 Ry
     estimated scf accuracy    <       0.00249576 Ry

     iteration #  3     ecut=    14.00 Ry     beta=0.70
     Davidson diagonalization with overlap
     ethr =  3.12E-05,  avg # of iterations =  1.9

     total cpu time spent up to now is        0.3 secs

     total energy              =     -19.18262562 Ry
     Harris-Foulkes estimate   =     -19.18263698 Ry
     estimated scf accuracy    <       0.00003965 Ry

     iteration #  4     ecut=    14.00 Ry     beta=0.70
     Davidson diagonalization with overlap
     ethr =  4.96E-07,  avg # of iterations =  2.7

     total cpu time spent up to now is        0.3 secs

     total energy              =     -19.18264291 Ry
     Harris-Foulkes estimate   =     -19.18264310 Ry
     estimated scf accuracy    <       0.00000117 Ry

     iteration #  5     ecut=    14.00 Ry     beta=0.70
     Davidson diagonalization with overlap
     ethr =  1.46E-08,  avg # of iterations =  2.3

     total cpu time spent up to now is        0.3 secs

     total energy              =     -19.18264318 Ry
     Harris-Foulkes estimate   =     -19.18264318 Ry
     estimated scf accuracy    <       0.00000003 Ry

     iteration #  6     ecut=    14.00 Ry     beta=0.70
     Davidson diagonalization with overlap
     ethr =  3.18E-10,  avg # of iterations =  2.7

     total cpu time spent up to now is        0.4 secs

     End of self-consistent calculation

          k =-0.1250 0.1250 0.1250 (   256 PWs)   bands (ev):

    -5.6187   4.3985   5.7010   5.7010

          k =-0.3750 0.3750-0.1250 (   249 PWs)   bands (ev):

    -4.5943   1.4117   3.7208   5.2229

          k = 0.3750-0.3750 0.6250 (   246 PWs)   bands (ev):

    -3.4538  -0.6653   3.7426   4.4529

          k = 0.1250-0.1250 0.3750 (   243 PWs)   bands (ev):

    -5.0893   2.7900   4.6975   4.7630

          k =-0.1250 0.6250 0.1250 (   241 PWs)   bands (ev):

    -4.0579   1.0827   3.3717   3.8236

          k = 0.6250-0.1250 0.8750 (   244 PWs)   bands (ev):

    -2.4194  -0.8774   2.0159   3.0925

          k = 0.3750 0.1250 0.6250 (   243 PWs)   bands (ev):

    -3.6449   0.2093   2.7308   4.0982

          k =-0.1250-0.8750 0.1250 (   236 PWs)   bands (ev):

    -2.5841  -0.7779   2.6264   3.3564

          k =-0.3750 0.3750 0.3750 (   247 PWs)   bands (ev):

    -4.1634   0.1216   4.9165   4.9165

          k = 0.3750-0.3750 1.1250 (   242 PWs)   bands (ev):

    -2.9560  -0.5749   2.0756   4.1365

     highest occupied level (ev):     5.7010

!    total energy              =     -19.18264319 Ry
     Harris-Foulkes estimate   =     -19.18264319 Ry
     estimated scf accuracy    <          2.8E-09 Ry

     The total energy is the sum of the following terms:

     one-electron contribution =       4.96329251 Ry
     hartree contribution      =       1.13079772 Ry
     xc contribution           =      -8.59449808 Ry
     ewald contribution        =     -16.68223534 Ry

     convergence has been achieved in   6 iterations


     Computing stress (Cartesian axis) and pressure

          total   stress  (Ry/bohr**3)                   (kbar)     P=  -17.20
  -0.00011690   0.00000000   0.00000000        -17.20      0.00      0.00
   0.00000000  -0.00011690  -0.00000000          0.00    -17.20     -0.00
   0.00000000  -0.00000000  -0.00011690          0.00     -0.00    -17.20


     Writing output data file silicon.14.save

     init_run     :      0.11s CPU      0.12s WALL (       1 calls)
     electrons    :      0.18s CPU      0.20s WALL (       1 calls)
     stress       :      0.06s CPU      0.06s WALL (       1 calls)

     Called by init_run:
     wfcinit      :      0.01s CPU      0.01s WALL (       1 calls)
     potinit      :      0.01s CPU      0.01s WALL (       1 calls)

     Called by electrons:
     c_bands      :      0.07s CPU      0.07s WALL (       7 calls)
     sum_band     :      0.06s CPU      0.06s WALL (       7 calls)
     v_of_rho     :      0.02s CPU      0.02s WALL (       7 calls)
     newd         :      0.04s CPU      0.04s WALL (       7 calls)
     mix_rho      :      0.00s CPU      0.00s WALL (       7 calls)

     Called by c_bands:
     init_us_2    :      0.01s CPU      0.01s WALL (     160 calls)
     cegterg      :      0.06s CPU      0.06s WALL (      70 calls)

     Called by sum_band:
     sum_band:bec :      0.00s CPU      0.00s WALL (      70 calls)
     addusdens    :      0.05s CPU      0.05s WALL (       7 calls)

     Called by *egterg:
     h_psi        :      0.05s CPU      0.05s WALL (     216 calls)
     s_psi        :      0.00s CPU      0.00s WALL (     216 calls)
     g_psi        :      0.00s CPU      0.00s WALL (     136 calls)
     cdiaghg      :      0.01s CPU      0.01s WALL (     196 calls)

     Called by h_psi:
     h_psi:pot    :      0.05s CPU      0.05s WALL (     216 calls)
     h_psi:calbec :      0.00s CPU      0.00s WALL (     216 calls)
     vloc_psi     :      0.04s CPU      0.05s WALL (     216 calls)
     add_vuspsi   :      0.00s CPU      0.00s WALL (     216 calls)

     General routines
     calbec       :      0.00s CPU      0.00s WALL (     296 calls)
     fft          :      0.01s CPU      0.01s WALL (     126 calls)
     ffts         :      0.00s CPU      0.00s WALL (      14 calls)
     fftw         :      0.05s CPU      0.05s WALL (    1932 calls)
     interpolate  :      0.00s CPU      0.00s WALL (      14 calls)
     davcio       :      0.00s CPU      0.00s WALL (      10 calls)

     Parallel routines
     fft_scatter  :      0.01s CPU      0.01s WALL (    2072 calls)

     PWSCF        :     0.44s CPU         0.65s WALL


   This run was terminated on:  13:43:53  10Nov2017            

=------------------------------------------------------------------------------=
   JOB DONE.
=------------------------------------------------------------------------------=
