
     Program PHONON v.6.1 (svn rev. 13369) starts on  9Nov2017 at  1:38:29 

     This program is part of the open-source Quantum ESPRESSO suite
     for quantum simulation of materials; please cite
         "P. Giannozzi et al., J. Phys.:Condens. Matter 21 395502 (2009);
          URL http://www.quantum-espresso.org", 
     in publications or presentations arising from this work. More details at
     http://www.quantum-espresso.org/quote

     Parallel version (MPI), running on     4 processors
     R & G space division:  proc/nbgrp/npool/nimage =       4

     Reading data from directory:
     ./silicon.10.44.save

   Info: using nr1, nr2, nr3 values from input

   Info: using nr1, nr2, nr3 values from input

     IMPORTANT: XC functional enforced from input :
     Exchange-correlation      = SLA  PW   PBE  PBE ( 1  4  3  4 0 0)
     Any further DFT definition will be discarded
     Please, verify this is what you really want


     Parallelization info
     --------------------
     sticks:   dense  smooth     PW     G-vecs:    dense   smooth      PW
     Min          66      66     22                  722      722     152
     Max          67      67     23                  724      724     153
     Sum         265     265     91                 2891     2891     609


     Check: negative/imaginary core charge=   -0.000006    0.000000


     Dynamical matrices for ( 4, 4, 4)  uniform grid of q-points
     (   8q-points):
       N         xq(1)         xq(2)         xq(3) 
       1   0.000000000   0.000000000   0.000000000
       2  -0.250000000   0.250000000  -0.250000000
       3   0.500000000  -0.500000000   0.500000000
       4   0.000000000   0.500000000   0.000000000
       5   0.750000000  -0.250000000   0.750000000
       6   0.500000000   0.000000000   0.500000000
       7   0.000000000  -1.000000000   0.000000000
       8  -0.500000000  -1.000000000   0.000000000

     Calculation of q =    0.0000000   0.0000000   0.0000000

                                                                                

     bravais-lattice index     =            2
     lattice parameter (alat)  =      10.4400  a.u.
     unit-cell volume          =     284.4733 (a.u.)^3
     number of atoms/cell      =            2
     number of atomic types    =            1
     kinetic-energy cut-off    =      18.0000  Ry
     charge density cut-off    =      72.0000  Ry
     convergence threshold     =      1.0E-12
     beta                      =       0.7000
     number of iterations used =            4
     Exchange-correlation      = SLA  PW   PBE  PBE ( 1  4  3  4 0 0)


     celldm(1)=   10.44000  celldm(2)=    0.00000  celldm(3)=    0.00000
     celldm(4)=    0.00000  celldm(5)=    0.00000  celldm(6)=    0.00000

     crystal axes: (cart. coord. in units of alat)
               a(1) = ( -0.5000  0.0000  0.5000 )  
               a(2) = (  0.0000  0.5000  0.5000 )  
               a(3) = ( -0.5000  0.5000  0.0000 )  

     reciprocal axes: (cart. coord. in units 2 pi/alat)
               b(1) = ( -1.0000 -1.0000  1.0000 )  
               b(2) = (  1.0000  1.0000  1.0000 )  
               b(3) = ( -1.0000  1.0000 -1.0000 )  


     Atoms inside the unit cell: 

     Cartesian axes

     site n.  atom      mass           positions (alat units)
        1     Si  28.0860   tau(    1) = (    0.00000    0.00000    0.00000  )
        2     Si  28.0860   tau(    2) = (    0.25000    0.25000    0.25000  )

     Computing dynamical matrix for 
                    q = (   0.0000000   0.0000000   0.0000000 )

     49 Sym.Ops. (with q -> -q+G )


     G cutoff =  198.7805  (    722 G-vectors)     FFT grid: ( 20, 20, 20)
     number of k points=    10

     PseudoPot. # 1 for Si read from file:
     /home/max/quantum_espresso/qe-6.1/pseudo/si_pbe_v1.uspp.F.UPF.txt
     MD5 check sum: a056efeee980c13900f22a371efd63c1
     Pseudo is Ultrasoft + core correction, Zval =  4.0
     Generated by new atomic code, or converted to UPF format
     Using radial grid of  899 points,  6 beta functions with: 
                l(1) =   0
                l(2) =   0
                l(3) =   1
                l(4) =   1
                l(5) =   2
                l(6) =   2
     Q(r) pseudized with  8 coefficients,  rinner =    0.900   0.900   0.900
                                                       0.900   0.900

     Mode symmetry, O_h (m-3m)  point group:


     Electric field:
     Dielectric constant
     Born effective charges in two ways 


     Atomic displacements:
     There are   2 irreducible representations

     Representation     1      3 modes -T_2g G_25' G_5+  To be done

     Representation     2      3 modes -T_1u G_15  G_4-  To be done



     Alpha used in Ewald sum =   0.7000
     PHONON       :     0.40s CPU         0.41s WALL


     Electric Fields Calculation

      iter #   1 total cpu time :     1.0 secs   av.it.:   5.6
      thresh= 1.000E-02 alpha_mix =  0.700 |ddv_scf|^2 =  9.728E-07

      iter #   2 total cpu time :     1.2 secs   av.it.:   9.9
      thresh= 9.863E-05 alpha_mix =  0.700 |ddv_scf|^2 =  6.430E-08

      iter #   3 total cpu time :     1.3 secs   av.it.:   9.8
      thresh= 2.536E-05 alpha_mix =  0.700 |ddv_scf|^2 =  5.124E-09

      iter #   4 total cpu time :     1.5 secs   av.it.:   9.0
      thresh= 7.158E-06 alpha_mix =  0.700 |ddv_scf|^2 =  3.127E-11

      iter #   5 total cpu time :     1.7 secs   av.it.:   9.2
      thresh= 5.592E-07 alpha_mix =  0.700 |ddv_scf|^2 =  1.617E-14

     End of electric fields calculation

          Dielectric constant in cartesian axis 

          (      14.134209749      -0.000000000      -0.000000000 )
          (      -0.000000000      14.134209749       0.000000000 )
          (      -0.000000000       0.000000000      14.134209749 )

          Effective charges (d Force / dE) in cartesian axis

           atom      1   Si 
      Ex  (       -0.03259       -0.00000        0.00000 )
      Ey  (       -0.00000       -0.03259        0.00000 )
      Ez  (        0.00000        0.00000       -0.03259 )
           atom      2   Si 
      Ex  (       -0.03259        0.00000        0.00000 )
      Ey  (        0.00000       -0.03259       -0.00000 )
      Ez  (        0.00000       -0.00000       -0.03259 )


     Representation #  1 modes #   1  2  3

     Self-consistent Calculation

      iter #   1 total cpu time :     2.1 secs   av.it.:   4.9
      thresh= 1.000E-02 alpha_mix =  0.700 |ddv_scf|^2 =  1.873E-07

      iter #   2 total cpu time :     2.2 secs   av.it.:   9.9
      thresh= 4.327E-05 alpha_mix =  0.700 |ddv_scf|^2 =  1.044E-08

      iter #   3 total cpu time :     2.4 secs   av.it.:   9.5
      thresh= 1.022E-05 alpha_mix =  0.700 |ddv_scf|^2 =  7.210E-10

      iter #   4 total cpu time :     2.8 secs   av.it.:   9.1
      thresh= 2.685E-06 alpha_mix =  0.700 |ddv_scf|^2 =  1.867E-12

      iter #   5 total cpu time :     2.9 secs   av.it.:   9.4
      thresh= 1.366E-07 alpha_mix =  0.700 |ddv_scf|^2 =  1.578E-14

     End of self-consistent calculation

     Convergence has been achieved 


     Representation #  2 modes #   4  5  6

     Self-consistent Calculation

      iter #   1 total cpu time :     3.2 secs   av.it.:   5.0
      thresh= 1.000E-02 alpha_mix =  0.700 |ddv_scf|^2 =  1.966E-07

      iter #   2 total cpu time :     3.3 secs   av.it.:   9.6
      thresh= 4.434E-05 alpha_mix =  0.700 |ddv_scf|^2 =  1.639E-08

      iter #   3 total cpu time :     3.5 secs   av.it.:   9.3
      thresh= 1.280E-05 alpha_mix =  0.700 |ddv_scf|^2 =  9.781E-10

      iter #   4 total cpu time :     3.7 secs   av.it.:   9.5
      thresh= 3.127E-06 alpha_mix =  0.700 |ddv_scf|^2 =  5.700E-12

      iter #   5 total cpu time :     3.9 secs   av.it.:   9.1
      thresh= 2.388E-07 alpha_mix =  0.700 |ddv_scf|^2 =  5.295E-15

     End of self-consistent calculation

     Convergence has been achieved 

     Number of q in the star =    1
     List of q in the star:
          1   0.000000000   0.000000000   0.000000000

          Dielectric constant in cartesian axis 

          (      14.134209749      -0.000000000      -0.000000000 )
          (      -0.000000000      14.134209749       0.000000000 )
          (      -0.000000000       0.000000000      14.134209749 )

          Effective charges (d Force / dE) in cartesian axis

           atom      1   Si 
      Ex  (       -0.03259       -0.00000        0.00000 )
      Ey  (       -0.00000       -0.03259        0.00000 )
      Ez  (        0.00000        0.00000       -0.03259 )
           atom      2   Si 
      Ex  (       -0.03259        0.00000        0.00000 )
      Ey  (        0.00000       -0.03259       -0.00000 )
      Ez  (        0.00000       -0.00000       -0.03259 )

          Effective charges (d P / du) in cartesian axis 

           atom      1   Si 
      Px  (       -0.07695        0.00000        0.00000 )
      Py  (        0.00000       -0.07695       -0.00000 )
      Pz  (        0.00000        0.00000       -0.07695 )
           atom      2   Si 
      Px  (       -0.07695       -0.00000        0.00000 )
      Py  (       -0.00000       -0.07695        0.00000 )
      Pz  (       -0.00000       -0.00000       -0.07695 )

     Diagonalizing the dynamical matrix

     q = (    0.000000000   0.000000000   0.000000000 ) 

 **************************************************************************
     freq (    1) =       1.695783 [THz] =      56.565235 [cm-1]
     freq (    2) =       1.695783 [THz] =      56.565235 [cm-1]
     freq (    3) =       1.695783 [THz] =      56.565235 [cm-1]
     freq (    4) =      15.426753 [THz] =     514.581084 [cm-1]
     freq (    5) =      15.426753 [THz] =     514.581084 [cm-1]
     freq (    6) =      15.426753 [THz] =     514.581084 [cm-1]
 **************************************************************************

     Mode symmetry, O_h (m-3m)  point group:

     freq (  1 -  3) =         56.6  [cm-1]   --> T_1u G_15  G_4- I  
     freq (  4 -  6) =        514.6  [cm-1]   --> T_2g G_25' G_5+ R  

     Calculation of q =   -0.2500000   0.2500000  -0.2500000

   Info: using nr1, nr2, nr3 values from input

   Info: using nr1, nr2, nr3 values from input

     Parallelization info
     --------------------
     sticks:   dense  smooth     PW     G-vecs:    dense   smooth      PW
     Min          66      66     27                  722      722     175
     Max          67      67     28                  724      724     176
     Sum         265     265    109                 2891     2891     701



     bravais-lattice index     =            2
     lattice parameter (alat)  =      10.4400  a.u.
     unit-cell volume          =     284.4733 (a.u.)^3
     number of atoms/cell      =            2
     number of atomic types    =            1
     number of electrons       =         8.00
     number of Kohn-Sham states=            4
     kinetic-energy cutoff     =      18.0000  Ry
     charge density cutoff     =      72.0000  Ry
     Exchange-correlation      = SLA  PW   PBE  PBE ( 1  4  3  4 0 0)

     celldm(1)=  10.440000  celldm(2)=   0.000000  celldm(3)=   0.000000
     celldm(4)=   0.000000  celldm(5)=   0.000000  celldm(6)=   0.000000

     crystal axes: (cart. coord. in units of alat)
               a(1) = (  -0.500000   0.000000   0.500000 )  
               a(2) = (   0.000000   0.500000   0.500000 )  
               a(3) = (  -0.500000   0.500000   0.000000 )  

     reciprocal axes: (cart. coord. in units 2 pi/alat)
               b(1) = ( -1.000000 -1.000000  1.000000 )  
               b(2) = (  1.000000  1.000000  1.000000 )  
               b(3) = ( -1.000000  1.000000 -1.000000 )  


     PseudoPot. # 1 for Si read from file:
     /home/max/quantum_espresso/qe-6.1/pseudo/si_pbe_v1.uspp.F.UPF.txt
     MD5 check sum: a056efeee980c13900f22a371efd63c1
     Pseudo is Ultrasoft + core correction, Zval =  4.0
     Generated by new atomic code, or converted to UPF format
     Using radial grid of  899 points,  6 beta functions with: 
                l(1) =   0
                l(2) =   0
                l(3) =   1
                l(4) =   1
                l(5) =   2
                l(6) =   2
     Q(r) pseudized with  8 coefficients,  rinner =    0.900   0.900   0.900
                                                       0.900   0.900

     atomic species   valence    mass     pseudopotential
        Si             4.00    28.08600     Si( 1.00)

     48 Sym. Ops., with inversion, found



   Cartesian axes

     site n.     atom                  positions (alat units)
         1           Si  tau(   1) = (   0.0000000   0.0000000   0.0000000  )
         2           Si  tau(   2) = (   0.2500000   0.2500000   0.2500000  )

     number of k points=   120

     Number of k-points >= 100: set verbosity='high' to print them.

     Dense  grid:     2891 G-vectors     FFT dimensions: (  20,  20,  20)

     Estimated max dynamical RAM per process >       0.33MB

     Estimated total allocated dynamical RAM >       1.34MB

     Check: negative/imaginary core charge=   -0.000006    0.000000

     The potential is recalculated from file :
     ./_ph0/silicon.10.44.save/charge-density.dat

     Starting wfc are    8 atomic wfcs

     Band Structure Calculation
     Davidson diagonalization with overlap

     ethr =  1.25E-10,  avg # of iterations = 11.7

     total cpu time spent up to now is        0.9 secs

     End of band structure calculation

     Number of k-points >= 100: set verbosity='high' to print the bands.

     highest occupied level (ev):     5.3978

     Writing output data file silicon.10.44.save

                                                                                

     bravais-lattice index     =            2
     lattice parameter (alat)  =      10.4400  a.u.
     unit-cell volume          =     284.4733 (a.u.)^3
     number of atoms/cell      =            2
     number of atomic types    =            1
     kinetic-energy cut-off    =      18.0000  Ry
     charge density cut-off    =      72.0000  Ry
     convergence threshold     =      1.0E-12
     beta                      =       0.7000
     number of iterations used =            4
     Exchange-correlation      = SLA  PW   PBE  PBE ( 1  4  3  4 0 0)


     celldm(1)=   10.44000  celldm(2)=    0.00000  celldm(3)=    0.00000
     celldm(4)=    0.00000  celldm(5)=    0.00000  celldm(6)=    0.00000

     crystal axes: (cart. coord. in units of alat)
               a(1) = ( -0.5000  0.0000  0.5000 )  
               a(2) = (  0.0000  0.5000  0.5000 )  
               a(3) = ( -0.5000  0.5000  0.0000 )  

     reciprocal axes: (cart. coord. in units 2 pi/alat)
               b(1) = ( -1.0000 -1.0000  1.0000 )  
               b(2) = (  1.0000  1.0000  1.0000 )  
               b(3) = ( -1.0000  1.0000 -1.0000 )  


     Atoms inside the unit cell: 

     Cartesian axes

     site n.  atom      mass           positions (alat units)
        1     Si  28.0860   tau(    1) = (    0.00000    0.00000    0.00000  )
        2     Si  28.0860   tau(    2) = (    0.25000    0.25000    0.25000  )

     Computing dynamical matrix for 
                    q = (  -0.2500000   0.2500000  -0.2500000 )

      6 Sym.Ops. (no q -> -q+G )


     G cutoff =  198.7805  (    722 G-vectors)     FFT grid: ( 20, 20, 20)
     number of k points=   120

     PseudoPot. # 1 for Si read from file:
     /home/max/quantum_espresso/qe-6.1/pseudo/si_pbe_v1.uspp.F.UPF.txt
     MD5 check sum: a056efeee980c13900f22a371efd63c1
     Pseudo is Ultrasoft + core correction, Zval =  4.0
     Generated by new atomic code, or converted to UPF format
     Using radial grid of  899 points,  6 beta functions with: 
                l(1) =   0
                l(2) =   0
                l(3) =   1
                l(4) =   1
                l(5) =   2
                l(6) =   2
     Q(r) pseudized with  8 coefficients,  rinner =    0.900   0.900   0.900
                                                       0.900   0.900

     Mode symmetry, C_3v (3m)   point group:


     Atomic displacements:
     There are   4 irreducible representations

     Representation     1      1 modes -A_1  L_1  To be done

     Representation     2      1 modes -A_1  L_1  To be done

     Representation     3      2 modes -E    L_3  To be done

     Representation     4      2 modes -E    L_3  To be done



     Alpha used in Ewald sum =   0.7000
     PHONON       :     5.03s CPU         5.32s WALL



     Representation #  1 mode #   1

     Self-consistent Calculation

      iter #   1 total cpu time :     5.5 secs   av.it.:   5.5
      thresh= 1.000E-02 alpha_mix =  0.700 |ddv_scf|^2 =  2.403E-03

      iter #   2 total cpu time :     5.8 secs   av.it.:   7.5
      thresh= 4.902E-03 alpha_mix =  0.700 |ddv_scf|^2 =  3.676E-02

      iter #   3 total cpu time :     6.0 secs   av.it.:   6.3
      thresh= 1.000E-02 alpha_mix =  0.700 |ddv_scf|^2 =  1.694E-06

      iter #   4 total cpu time :     6.3 secs   av.it.:   8.2
      thresh= 1.302E-04 alpha_mix =  0.700 |ddv_scf|^2 =  1.172E-07

      iter #   5 total cpu time :     6.6 secs   av.it.:   8.1
      thresh= 3.424E-05 alpha_mix =  0.700 |ddv_scf|^2 =  4.740E-09

      iter #   6 total cpu time :     7.0 secs   av.it.:   8.1
      thresh= 6.885E-06 alpha_mix =  0.700 |ddv_scf|^2 =  3.998E-09

      iter #   7 total cpu time :     7.2 secs   av.it.:   6.3
      thresh= 6.323E-06 alpha_mix =  0.700 |ddv_scf|^2 =  7.229E-10

      iter #   8 total cpu time :     7.5 secs   av.it.:   7.2
      thresh= 2.689E-06 alpha_mix =  0.700 |ddv_scf|^2 =  4.791E-12

      iter #   9 total cpu time :     7.7 secs   av.it.:   7.1
      thresh= 2.189E-07 alpha_mix =  0.700 |ddv_scf|^2 =  2.401E-13

     End of self-consistent calculation

     Convergence has been achieved 


     Representation #  2 mode #   2

     Self-consistent Calculation

      iter #   1 total cpu time :     7.9 secs   av.it.:   5.5
      thresh= 1.000E-02 alpha_mix =  0.700 |ddv_scf|^2 =  2.403E-03

      iter #   2 total cpu time :     8.2 secs   av.it.:   7.5
      thresh= 4.902E-03 alpha_mix =  0.700 |ddv_scf|^2 =  3.676E-02

      iter #   3 total cpu time :     8.4 secs   av.it.:   6.3
      thresh= 1.000E-02 alpha_mix =  0.700 |ddv_scf|^2 =  1.694E-06

      iter #   4 total cpu time :     8.9 secs   av.it.:   8.2
      thresh= 1.302E-04 alpha_mix =  0.700 |ddv_scf|^2 =  1.172E-07

      iter #   5 total cpu time :     9.2 secs   av.it.:   8.1
      thresh= 3.424E-05 alpha_mix =  0.700 |ddv_scf|^2 =  4.740E-09

      iter #   6 total cpu time :     9.4 secs   av.it.:   8.1
      thresh= 6.885E-06 alpha_mix =  0.700 |ddv_scf|^2 =  3.998E-09

      iter #   7 total cpu time :     9.6 secs   av.it.:   6.3
      thresh= 6.323E-06 alpha_mix =  0.700 |ddv_scf|^2 =  7.229E-10

      iter #   8 total cpu time :     9.9 secs   av.it.:   7.2
      thresh= 2.689E-06 alpha_mix =  0.700 |ddv_scf|^2 =  4.791E-12

      iter #   9 total cpu time :    10.1 secs   av.it.:   7.1
      thresh= 2.189E-07 alpha_mix =  0.700 |ddv_scf|^2 =  2.401E-13

     End of self-consistent calculation

     Convergence has been achieved 


     Representation #  3 modes #   3  4

     Self-consistent Calculation

      iter #   1 total cpu time :    10.6 secs   av.it.:   4.9
      thresh= 1.000E-02 alpha_mix =  0.700 |ddv_scf|^2 =  5.420E-07

      iter #   2 total cpu time :    11.3 secs   av.it.:   9.6
      thresh= 7.362E-05 alpha_mix =  0.700 |ddv_scf|^2 =  4.091E-08

      iter #   3 total cpu time :    11.9 secs   av.it.:   9.3
      thresh= 2.023E-05 alpha_mix =  0.700 |ddv_scf|^2 =  3.551E-09

      iter #   4 total cpu time :    12.5 secs   av.it.:   9.0
      thresh= 5.959E-06 alpha_mix =  0.700 |ddv_scf|^2 =  1.169E-11

      iter #   5 total cpu time :    13.2 secs   av.it.:   9.2
      thresh= 3.419E-07 alpha_mix =  0.700 |ddv_scf|^2 =  5.139E-13

     End of self-consistent calculation

     Convergence has been achieved 


     Representation #  4 modes #   5  6

     Self-consistent Calculation

      iter #   1 total cpu time :    13.7 secs   av.it.:   5.0
      thresh= 1.000E-02 alpha_mix =  0.700 |ddv_scf|^2 =  5.418E-07

      iter #   2 total cpu time :    14.3 secs   av.it.:   9.7
      thresh= 7.361E-05 alpha_mix =  0.700 |ddv_scf|^2 =  4.085E-08

      iter #   3 total cpu time :    15.0 secs   av.it.:   9.4
      thresh= 2.021E-05 alpha_mix =  0.700 |ddv_scf|^2 =  3.547E-09

      iter #   4 total cpu time :    15.6 secs   av.it.:   9.1
      thresh= 5.955E-06 alpha_mix =  0.700 |ddv_scf|^2 =  1.170E-11

      iter #   5 total cpu time :    16.2 secs   av.it.:   9.3
      thresh= 3.420E-07 alpha_mix =  0.700 |ddv_scf|^2 =  5.142E-13

     End of self-consistent calculation

     Convergence has been achieved 

     Number of q in the star =    8
     List of q in the star:
          1  -0.250000000   0.250000000  -0.250000000
          2   0.250000000  -0.250000000  -0.250000000
          3   0.250000000  -0.250000000   0.250000000
          4   0.250000000   0.250000000   0.250000000
          5  -0.250000000  -0.250000000  -0.250000000
          6  -0.250000000  -0.250000000   0.250000000
          7  -0.250000000   0.250000000   0.250000000
          8   0.250000000   0.250000000  -0.250000000

     Diagonalizing the dynamical matrix

     q = (   -0.250000000   0.250000000  -0.250000000 ) 

 **************************************************************************
     freq (    1) =       3.378566 [THz] =     112.696829 [cm-1]
     freq (    2) =       3.378566 [THz] =     112.696829 [cm-1]
     freq (    3) =       6.718343 [THz] =     224.099799 [cm-1]
     freq (    4) =      14.534792 [THz] =     484.828473 [cm-1]
     freq (    5) =      14.788120 [THz] =     493.278583 [cm-1]
     freq (    6) =      14.788120 [THz] =     493.278583 [cm-1]
 **************************************************************************

     Mode symmetry, C_3v (3m)   point group:

     freq (  1 -  2) =        112.7  [cm-1]   --> E    L_3           
     freq (  3 -  3) =        224.1  [cm-1]   --> A_1  L_1           
     freq (  4 -  4) =        484.8  [cm-1]   --> A_1  L_1           
     freq (  5 -  6) =        493.3  [cm-1]   --> E    L_3           

     Calculation of q =    0.5000000  -0.5000000   0.5000000

   Info: using nr1, nr2, nr3 values from input

   Info: using nr1, nr2, nr3 values from input

     Parallelization info
     --------------------
     sticks:   dense  smooth     PW     G-vecs:    dense   smooth      PW
     Min          66      66     27                  722      722     186
     Max          67      67     28                  724      724     189
     Sum         265     265    109                 2891     2891     749



     bravais-lattice index     =            2
     lattice parameter (alat)  =      10.4400  a.u.
     unit-cell volume          =     284.4733 (a.u.)^3
     number of atoms/cell      =            2
     number of atomic types    =            1
     number of electrons       =         8.00
     number of Kohn-Sham states=            4
     kinetic-energy cutoff     =      18.0000  Ry
     charge density cutoff     =      72.0000  Ry
     Exchange-correlation      = SLA  PW   PBE  PBE ( 1  4  3  4 0 0)

     celldm(1)=  10.440000  celldm(2)=   0.000000  celldm(3)=   0.000000
     celldm(4)=   0.000000  celldm(5)=   0.000000  celldm(6)=   0.000000

     crystal axes: (cart. coord. in units of alat)
               a(1) = (  -0.500000   0.000000   0.500000 )  
               a(2) = (   0.000000   0.500000   0.500000 )  
               a(3) = (  -0.500000   0.500000   0.000000 )  

     reciprocal axes: (cart. coord. in units 2 pi/alat)
               b(1) = ( -1.000000 -1.000000  1.000000 )  
               b(2) = (  1.000000  1.000000  1.000000 )  
               b(3) = ( -1.000000  1.000000 -1.000000 )  


     PseudoPot. # 1 for Si read from file:
     /home/max/quantum_espresso/qe-6.1/pseudo/si_pbe_v1.uspp.F.UPF.txt
     MD5 check sum: a056efeee980c13900f22a371efd63c1
     Pseudo is Ultrasoft + core correction, Zval =  4.0
     Generated by new atomic code, or converted to UPF format
     Using radial grid of  899 points,  6 beta functions with: 
                l(1) =   0
                l(2) =   0
                l(3) =   1
                l(4) =   1
                l(5) =   2
                l(6) =   2
     Q(r) pseudized with  8 coefficients,  rinner =    0.900   0.900   0.900
                                                       0.900   0.900

     atomic species   valence    mass     pseudopotential
        Si             4.00    28.08600     Si( 1.00)

     48 Sym. Ops., with inversion, found



   Cartesian axes

     site n.     atom                  positions (alat units)
         1           Si  tau(   1) = (   0.0000000   0.0000000   0.0000000  )
         2           Si  tau(   2) = (   0.2500000   0.2500000   0.2500000  )

     number of k points=    60
                       cart. coord. in units 2pi/alat
        k(    1) = (  -0.1250000   0.1250000   0.1250000), wk =   0.0468750
        k(    2) = (   0.3750000  -0.3750000   0.6250000), wk =   0.0000000
        k(    3) = (  -0.3750000   0.3750000  -0.1250000), wk =   0.0468750
        k(    4) = (   0.1250000  -0.1250000   0.3750000), wk =   0.0000000
        k(    5) = (   0.3750000  -0.3750000   0.6250000), wk =   0.0468750
        k(    6) = (   0.8750000  -0.8750000   1.1250000), wk =   0.0000000
        k(    7) = (   0.1250000  -0.1250000   0.3750000), wk =   0.0468750
        k(    8) = (   0.6250000  -0.6250000   0.8750000), wk =   0.0000000
        k(    9) = (  -0.1250000   0.6250000   0.1250000), wk =   0.0937500
        k(   10) = (   0.3750000   0.1250000   0.6250000), wk =   0.0000000
        k(   11) = (   0.6250000  -0.1250000   0.8750000), wk =   0.0937500
        k(   12) = (   1.1250000  -0.6250000   1.3750000), wk =   0.0000000
        k(   13) = (   0.3750000   0.1250000   0.6250000), wk =   0.0937500
        k(   14) = (   0.8750000  -0.3750000   1.1250000), wk =   0.0000000
        k(   15) = (  -0.1250000  -0.8750000   0.1250000), wk =   0.0937500
        k(   16) = (   0.3750000  -1.3750000   0.6250000), wk =   0.0000000
        k(   17) = (  -0.3750000   0.3750000   0.3750000), wk =   0.0468750
        k(   18) = (   0.1250000  -0.1250000   0.8750000), wk =   0.0000000
        k(   19) = (   0.3750000  -0.3750000   1.1250000), wk =   0.0468750
        k(   20) = (   0.8750000  -0.8750000   1.6250000), wk =   0.0000000
        k(   21) = (   0.1250000  -0.1250000   0.1250000), wk =   0.0156250
        k(   22) = (   0.6250000  -0.6250000   0.6250000), wk =   0.0000000
        k(   23) = (  -0.3750000  -0.3750000  -0.1250000), wk =   0.0937500
        k(   24) = (   0.1250000  -0.8750000   0.3750000), wk =   0.0000000
        k(   25) = (  -0.1250000  -0.3750000   0.3750000), wk =   0.0468750
        k(   26) = (   0.3750000  -0.8750000   0.8750000), wk =   0.0000000
        k(   27) = (   0.3750000   0.3750000   0.6250000), wk =   0.0937500
        k(   28) = (   0.8750000  -0.1250000   1.1250000), wk =   0.0000000
        k(   29) = (   0.6250000   0.3750000  -0.3750000), wk =   0.0468750
        k(   30) = (   1.1250000  -0.1250000   0.1250000), wk =   0.0000000
        k(   31) = (   0.1250000   0.1250000   0.3750000), wk =   0.0937500
        k(   32) = (   0.6250000  -0.3750000   0.8750000), wk =   0.0000000
        k(   33) = (   0.3750000   0.1250000  -0.1250000), wk =   0.0468750
        k(   34) = (   0.8750000  -0.3750000   0.3750000), wk =   0.0000000
        k(   35) = (  -0.1250000  -0.6250000  -0.1250000), wk =   0.0468750
        k(   36) = (   0.3750000  -1.1250000   0.3750000), wk =   0.0000000
        k(   37) = (   0.1250000  -0.6250000   0.1250000), wk =   0.0468750
        k(   38) = (   0.6250000  -1.1250000   0.6250000), wk =   0.0000000
        k(   39) = (   0.6250000   0.1250000   0.8750000), wk =   0.0937500
        k(   40) = (   1.1250000  -0.3750000   1.3750000), wk =   0.0000000
        k(   41) = (  -0.8750000   0.1250000   0.6250000), wk =   0.0937500
        k(   42) = (  -0.3750000  -0.3750000   1.1250000), wk =   0.0000000
        k(   43) = (   0.8750000   0.1250000  -0.6250000), wk =   0.0937500
        k(   44) = (   1.3750000  -0.3750000  -0.1250000), wk =   0.0000000
        k(   45) = (   0.3750000  -0.1250000   0.6250000), wk =   0.0937500
        k(   46) = (   0.8750000  -0.6250000   1.1250000), wk =   0.0000000
        k(   47) = (  -0.6250000  -0.1250000   0.3750000), wk =   0.0937500
        k(   48) = (  -0.1250000  -0.6250000   0.8750000), wk =   0.0000000
        k(   49) = (   0.6250000  -0.1250000  -0.3750000), wk =   0.0937500
        k(   50) = (   1.1250000  -0.6250000   0.1250000), wk =   0.0000000
        k(   51) = (  -0.1250000   0.8750000  -0.1250000), wk =   0.0468750
        k(   52) = (   0.3750000   0.3750000   0.3750000), wk =   0.0000000
        k(   53) = (   0.1250000   0.8750000   0.1250000), wk =   0.0468750
        k(   54) = (   0.6250000   0.3750000   0.6250000), wk =   0.0000000
        k(   55) = (   0.3750000  -0.3750000   0.3750000), wk =   0.0156250
        k(   56) = (   0.8750000  -0.8750000   0.8750000), wk =   0.0000000
        k(   57) = (   0.3750000   0.3750000   1.1250000), wk =   0.0937500
        k(   58) = (   0.8750000  -0.1250000   1.6250000), wk =   0.0000000
        k(   59) = (   1.1250000   0.3750000  -0.3750000), wk =   0.0468750
        k(   60) = (   1.6250000  -0.1250000   0.1250000), wk =   0.0000000

     Dense  grid:     2891 G-vectors     FFT dimensions: (  20,  20,  20)

     Estimated max dynamical RAM per process >       0.33MB

     Estimated total allocated dynamical RAM >       1.34MB

     Check: negative/imaginary core charge=   -0.000006    0.000000

     The potential is recalculated from file :
     ./_ph0/silicon.10.44.save/charge-density.dat

     Starting wfc are    8 atomic wfcs

     Band Structure Calculation
     Davidson diagonalization with overlap

     ethr =  1.25E-10,  avg # of iterations = 11.7

     total cpu time spent up to now is        1.7 secs

     End of band structure calculation

          k =-0.1250 0.1250 0.1250 (   359 PWs)   bands (ev):

    -5.7419   4.0833   5.3978   5.3978

          k = 0.3750-0.3750 0.6250 (   369 PWs)   bands (ev):

    -3.6524  -0.8623   3.4733   4.1791

          k =-0.3750 0.3750-0.1250 (   366 PWs)   bands (ev):

    -4.7468   1.1438   3.4692   4.9240

          k = 0.1250-0.1250 0.3750 (   362 PWs)   bands (ev):

    -5.2293   2.4801   4.4234   4.4697

          k = 0.3750-0.3750 0.6250 (   369 PWs)   bands (ev):

    -3.6524  -0.8623   3.4733   4.1791

          k = 0.8750-0.8750 1.1250 (   359 PWs)   bands (ev):

    -5.7419   4.0833   5.3978   5.3978

          k = 0.1250-0.1250 0.3750 (   362 PWs)   bands (ev):

    -5.2293   2.4801   4.4234   4.4697

          k = 0.6250-0.6250 0.8750 (   366 PWs)   bands (ev):

    -4.7468   1.1438   3.4692   4.9240

          k =-0.1250 0.6250 0.1250 (   365 PWs)   bands (ev):

    -4.2285   0.7792   3.1384   3.5735

          k = 0.3750 0.1250 0.6250 (   369 PWs)   bands (ev):

    -3.8297  -0.0503   2.5116   3.8419

          k = 0.6250-0.1250 0.8750 (   373 PWs)   bands (ev):

    -2.6464  -1.1368   1.8416   2.8782

          k = 1.1250-0.6250 1.3750 (   366 PWs)   bands (ev):

    -4.7468   1.1438   3.4692   4.9240

          k = 0.3750 0.1250 0.6250 (   369 PWs)   bands (ev):

    -3.8297  -0.0503   2.5116   3.8419

          k = 0.8750-0.3750 1.1250 (   365 PWs)   bands (ev):

    -4.2285   0.7792   3.1384   3.5735

          k =-0.1250-0.8750 0.1250 (   366 PWs)   bands (ev):

    -2.8005  -1.0459   2.4267   3.1187

          k = 0.3750-1.3750 0.6250 (   369 PWs)   bands (ev):

    -3.6524  -0.8623   3.4733   4.1791

          k =-0.3750 0.3750 0.3750 (   362 PWs)   bands (ev):

    -4.3300  -0.0942   4.6266   4.6266

          k = 0.1250-0.1250 0.8750 (   366 PWs)   bands (ev):

    -2.8005  -1.0459   2.4267   3.1187

          k = 0.3750-0.3750 1.1250 (   369 PWs)   bands (ev):

    -3.1698  -0.8154   1.8859   3.8735

          k = 0.8750-0.8750 1.6250 (   365 PWs)   bands (ev):

    -4.2285   0.7792   3.1384   3.5735

          k = 0.1250-0.1250 0.1250 (   359 PWs)   bands (ev):

    -5.7419   4.0833   5.3978   5.3978

          k = 0.6250-0.6250 0.6250 (   362 PWs)   bands (ev):

    -4.3300  -0.0942   4.6266   4.6266

          k =-0.3750-0.3750-0.1250 (   366 PWs)   bands (ev):

    -4.7468   1.1438   3.4692   4.9240

          k = 0.1250-0.8750 0.3750 (   373 PWs)   bands (ev):

    -2.6464  -1.1368   1.8416   2.8782

          k =-0.1250-0.3750 0.3750 (   366 PWs)   bands (ev):

    -4.7468   1.1438   3.4692   4.9240

          k = 0.3750-0.8750 0.8750 (   365 PWs)   bands (ev):

    -4.2285   0.7792   3.1384   3.5735

          k = 0.3750 0.3750 0.6250 (   369 PWs)   bands (ev):

    -3.6524  -0.8623   3.4733   4.1791

          k = 0.8750-0.1250 1.1250 (   366 PWs)   bands (ev):

    -2.8005  -1.0459   2.4267   3.1187

          k = 0.6250 0.3750-0.3750 (   369 PWs)   bands (ev):

    -3.6524  -0.8623   3.4733   4.1791

          k = 1.1250-0.1250 0.1250 (   366 PWs)   bands (ev):

    -2.8005  -1.0459   2.4267   3.1187

          k = 0.1250 0.1250 0.3750 (   362 PWs)   bands (ev):

    -5.2293   2.4801   4.4234   4.4697

          k = 0.6250-0.3750 0.8750 (   369 PWs)   bands (ev):

    -3.8297  -0.0503   2.5116   3.8419

          k = 0.3750 0.1250-0.1250 (   362 PWs)   bands (ev):

    -5.2293   2.4801   4.4234   4.4697

          k = 0.8750-0.3750 0.3750 (   369 PWs)   bands (ev):

    -3.1698  -0.8154   1.8859   3.8735

          k =-0.1250-0.6250-0.1250 (   365 PWs)   bands (ev):

    -4.2285   0.7792   3.1384   3.5735

          k = 0.3750-1.1250 0.3750 (   369 PWs)   bands (ev):

    -3.1698  -0.8154   1.8859   3.8735

          k = 0.1250-0.6250 0.1250 (   365 PWs)   bands (ev):

    -4.2285   0.7792   3.1384   3.5735

          k = 0.6250-1.1250 0.6250 (   366 PWs)   bands (ev):

    -4.7468   1.1438   3.4692   4.9240

          k = 0.6250 0.1250 0.8750 (   373 PWs)   bands (ev):

    -2.6464  -1.1368   1.8416   2.8782

          k = 1.1250-0.3750 1.3750 (   369 PWs)   bands (ev):

    -3.8297  -0.0503   2.5116   3.8419

          k =-0.8750 0.1250 0.6250 (   373 PWs)   bands (ev):

    -2.6464  -1.1368   1.8416   2.8782

          k =-0.3750-0.3750 1.1250 (   369 PWs)   bands (ev):

    -3.1698  -0.8154   1.8859   3.8735

          k = 0.8750 0.1250-0.6250 (   373 PWs)   bands (ev):

    -2.6464  -1.1368   1.8416   2.8782

          k = 1.3750-0.3750-0.1250 (   369 PWs)   bands (ev):

    -3.8297  -0.0503   2.5116   3.8419

          k = 0.3750-0.1250 0.6250 (   369 PWs)   bands (ev):

    -3.8297  -0.0503   2.5116   3.8419

          k = 0.8750-0.6250 1.1250 (   362 PWs)   bands (ev):

    -5.2293   2.4801   4.4234   4.4697

          k =-0.6250-0.1250 0.3750 (   369 PWs)   bands (ev):

    -3.8297  -0.0503   2.5116   3.8419

          k =-0.1250-0.6250 0.8750 (   373 PWs)   bands (ev):

    -2.6464  -1.1368   1.8416   2.8782

          k = 0.6250-0.1250-0.3750 (   369 PWs)   bands (ev):

    -3.8297  -0.0503   2.5116   3.8419

          k = 1.1250-0.6250 0.1250 (   373 PWs)   bands (ev):

    -2.6464  -1.1368   1.8416   2.8782

          k =-0.1250 0.8750-0.1250 (   366 PWs)   bands (ev):

    -2.8005  -1.0459   2.4267   3.1187

          k = 0.3750 0.3750 0.3750 (   362 PWs)   bands (ev):

    -4.3300  -0.0942   4.6266   4.6266

          k = 0.1250 0.8750 0.1250 (   366 PWs)   bands (ev):

    -2.8005  -1.0459   2.4267   3.1187

          k = 0.6250 0.3750 0.6250 (   369 PWs)   bands (ev):

    -3.6524  -0.8623   3.4733   4.1791

          k = 0.3750-0.3750 0.3750 (   362 PWs)   bands (ev):

    -4.3300  -0.0942   4.6266   4.6266

          k = 0.8750-0.8750 0.8750 (   359 PWs)   bands (ev):

    -5.7419   4.0833   5.3978   5.3978

          k = 0.3750 0.3750 1.1250 (   369 PWs)   bands (ev):

    -3.1698  -0.8154   1.8859   3.8735

          k = 0.8750-0.1250 1.6250 (   373 PWs)   bands (ev):

    -2.6464  -1.1368   1.8416   2.8782

          k = 1.1250 0.3750-0.3750 (   369 PWs)   bands (ev):

    -3.1698  -0.8154   1.8859   3.8735

          k = 1.6250-0.1250 0.1250 (   362 PWs)   bands (ev):

    -5.2293   2.4801   4.4234   4.4697

     highest occupied level (ev):     5.3978

     Writing output data file silicon.10.44.save

                                                                                

     bravais-lattice index     =            2
     lattice parameter (alat)  =      10.4400  a.u.
     unit-cell volume          =     284.4733 (a.u.)^3
     number of atoms/cell      =            2
     number of atomic types    =            1
     kinetic-energy cut-off    =      18.0000  Ry
     charge density cut-off    =      72.0000  Ry
     convergence threshold     =      1.0E-12
     beta                      =       0.7000
     number of iterations used =            4
     Exchange-correlation      = SLA  PW   PBE  PBE ( 1  4  3  4 0 0)


     celldm(1)=   10.44000  celldm(2)=    0.00000  celldm(3)=    0.00000
     celldm(4)=    0.00000  celldm(5)=    0.00000  celldm(6)=    0.00000

     crystal axes: (cart. coord. in units of alat)
               a(1) = ( -0.5000  0.0000  0.5000 )  
               a(2) = (  0.0000  0.5000  0.5000 )  
               a(3) = ( -0.5000  0.5000  0.0000 )  

     reciprocal axes: (cart. coord. in units 2 pi/alat)
               b(1) = ( -1.0000 -1.0000  1.0000 )  
               b(2) = (  1.0000  1.0000  1.0000 )  
               b(3) = ( -1.0000  1.0000 -1.0000 )  


     Atoms inside the unit cell: 

     Cartesian axes

     site n.  atom      mass           positions (alat units)
        1     Si  28.0860   tau(    1) = (    0.00000    0.00000    0.00000  )
        2     Si  28.0860   tau(    2) = (    0.25000    0.25000    0.25000  )

     Computing dynamical matrix for 
                    q = (   0.5000000  -0.5000000   0.5000000 )

     13 Sym.Ops. (with q -> -q+G )


     G cutoff =  198.7805  (    722 G-vectors)     FFT grid: ( 20, 20, 20)
     number of k points=    60

     PseudoPot. # 1 for Si read from file:
     /home/max/quantum_espresso/qe-6.1/pseudo/si_pbe_v1.uspp.F.UPF.txt
     MD5 check sum: a056efeee980c13900f22a371efd63c1
     Pseudo is Ultrasoft + core correction, Zval =  4.0
     Generated by new atomic code, or converted to UPF format
     Using radial grid of  899 points,  6 beta functions with: 
                l(1) =   0
                l(2) =   0
                l(3) =   1
                l(4) =   1
                l(5) =   2
                l(6) =   2
     Q(r) pseudized with  8 coefficients,  rinner =    0.900   0.900   0.900
                                                       0.900   0.900


     Atomic displacements:
     There are   4 irreducible representations

     Representation     1      1 modes -  To be done

     Representation     2      1 modes -  To be done

     Representation     3      2 modes -  To be done

     Representation     4      2 modes -  To be done



     Alpha used in Ewald sum =   0.7000
     PHONON       :    16.20s CPU        17.08s WALL



     Representation #  1 mode #   1

     Self-consistent Calculation

      iter #   1 total cpu time :    17.2 secs   av.it.:   4.8
      thresh= 1.000E-02 alpha_mix =  0.700 |ddv_scf|^2 =  2.410E-05

      iter #   2 total cpu time :    17.3 secs   av.it.:   8.4
      thresh= 4.909E-04 alpha_mix =  0.700 |ddv_scf|^2 =  2.227E-05

      iter #   3 total cpu time :    17.5 secs   av.it.:   7.5
      thresh= 4.719E-04 alpha_mix =  0.700 |ddv_scf|^2 =  3.919E-08

      iter #   4 total cpu time :    17.6 secs   av.it.:   7.6
      thresh= 1.980E-05 alpha_mix =  0.700 |ddv_scf|^2 =  1.369E-10

      iter #   5 total cpu time :    17.7 secs   av.it.:   7.8
      thresh= 1.170E-06 alpha_mix =  0.700 |ddv_scf|^2 =  3.847E-12

      iter #   6 total cpu time :    17.9 secs   av.it.:   7.8
      thresh= 1.961E-07 alpha_mix =  0.700 |ddv_scf|^2 =  7.253E-14

     End of self-consistent calculation

     Convergence has been achieved 


     Representation #  2 mode #   2

     Self-consistent Calculation

      iter #   1 total cpu time :    18.0 secs   av.it.:   5.6
      thresh= 1.000E-02 alpha_mix =  0.700 |ddv_scf|^2 =  3.361E-04

      iter #   2 total cpu time :    18.2 secs   av.it.:   8.3
      thresh= 1.833E-03 alpha_mix =  0.700 |ddv_scf|^2 =  1.043E-03

      iter #   3 total cpu time :    18.3 secs   av.it.:   7.1
      thresh= 3.229E-03 alpha_mix =  0.700 |ddv_scf|^2 =  1.476E-07

      iter #   4 total cpu time :    18.4 secs   av.it.:   8.2
      thresh= 3.842E-05 alpha_mix =  0.700 |ddv_scf|^2 =  1.053E-08

      iter #   5 total cpu time :    18.8 secs   av.it.:   8.4
      thresh= 1.026E-05 alpha_mix =  0.700 |ddv_scf|^2 =  1.402E-10

      iter #   6 total cpu time :    18.9 secs   av.it.:   8.2
      thresh= 1.184E-06 alpha_mix =  0.700 |ddv_scf|^2 =  3.295E-12

      iter #   7 total cpu time :    19.1 secs   av.it.:   7.8
      thresh= 1.815E-07 alpha_mix =  0.700 |ddv_scf|^2 =  9.191E-15

     End of self-consistent calculation

     Convergence has been achieved 


     Representation #  3 modes #   3  4

     Self-consistent Calculation

      iter #   1 total cpu time :    19.3 secs   av.it.:   4.7
      thresh= 1.000E-02 alpha_mix =  0.700 |ddv_scf|^2 =  3.480E-07

      iter #   2 total cpu time :    19.6 secs   av.it.:   9.0
      thresh= 5.900E-05 alpha_mix =  0.700 |ddv_scf|^2 =  3.022E-08

      iter #   3 total cpu time :    19.9 secs   av.it.:   8.3
      thresh= 1.738E-05 alpha_mix =  0.700 |ddv_scf|^2 =  5.170E-10

      iter #   4 total cpu time :    20.2 secs   av.it.:   8.9
      thresh= 2.274E-06 alpha_mix =  0.700 |ddv_scf|^2 =  6.528E-12

      iter #   5 total cpu time :    20.4 secs   av.it.:   8.7
      thresh= 2.555E-07 alpha_mix =  0.700 |ddv_scf|^2 =  3.706E-14

     End of self-consistent calculation

     Convergence has been achieved 


     Representation #  4 modes #   5  6

     Self-consistent Calculation

      iter #   1 total cpu time :    20.9 secs   av.it.:   4.9
      thresh= 1.000E-02 alpha_mix =  0.700 |ddv_scf|^2 =  9.453E-07

      iter #   2 total cpu time :    21.2 secs   av.it.:   9.5
      thresh= 9.723E-05 alpha_mix =  0.700 |ddv_scf|^2 =  7.532E-08

      iter #   3 total cpu time :    21.5 secs   av.it.:   9.3
      thresh= 2.744E-05 alpha_mix =  0.700 |ddv_scf|^2 =  4.589E-09

      iter #   4 total cpu time :    21.8 secs   av.it.:   8.5
      thresh= 6.774E-06 alpha_mix =  0.700 |ddv_scf|^2 =  6.733E-12

      iter #   5 total cpu time :    22.0 secs   av.it.:   8.8
      thresh= 2.595E-07 alpha_mix =  0.700 |ddv_scf|^2 =  2.646E-14

     End of self-consistent calculation

     Convergence has been achieved 

     Number of q in the star =    4
     List of q in the star:
          1   0.500000000  -0.500000000   0.500000000
          2   0.500000000   0.500000000   0.500000000
          3  -0.500000000   0.500000000   0.500000000
          4   0.500000000   0.500000000  -0.500000000

     Diagonalizing the dynamical matrix

     q = (    0.500000000  -0.500000000   0.500000000 ) 

 **************************************************************************
     freq (    1) =       5.171801 [THz] =     172.512701 [cm-1]
     freq (    2) =       5.171801 [THz] =     172.512701 [cm-1]
     freq (    3) =      11.721416 [THz] =     390.984340 [cm-1]
     freq (    4) =      12.175211 [THz] =     406.121330 [cm-1]
     freq (    5) =      14.546315 [THz] =     485.212850 [cm-1]
     freq (    6) =      14.546315 [THz] =     485.212850 [cm-1]
 **************************************************************************

     Calculation of q =    0.0000000   0.5000000   0.0000000

   Info: using nr1, nr2, nr3 values from input

   Info: using nr1, nr2, nr3 values from input

     Parallelization info
     --------------------
     sticks:   dense  smooth     PW     G-vecs:    dense   smooth      PW
     Min          66      66     27                  722      722     181
     Max          67      67     28                  724      724     182
     Sum         265     265    109                 2891     2891     725



     bravais-lattice index     =            2
     lattice parameter (alat)  =      10.4400  a.u.
     unit-cell volume          =     284.4733 (a.u.)^3
     number of atoms/cell      =            2
     number of atomic types    =            1
     number of electrons       =         8.00
     number of Kohn-Sham states=            4
     kinetic-energy cutoff     =      18.0000  Ry
     charge density cutoff     =      72.0000  Ry
     Exchange-correlation      = SLA  PW   PBE  PBE ( 1  4  3  4 0 0)

     celldm(1)=  10.440000  celldm(2)=   0.000000  celldm(3)=   0.000000
     celldm(4)=   0.000000  celldm(5)=   0.000000  celldm(6)=   0.000000

     crystal axes: (cart. coord. in units of alat)
               a(1) = (  -0.500000   0.000000   0.500000 )  
               a(2) = (   0.000000   0.500000   0.500000 )  
               a(3) = (  -0.500000   0.500000   0.000000 )  

     reciprocal axes: (cart. coord. in units 2 pi/alat)
               b(1) = ( -1.000000 -1.000000  1.000000 )  
               b(2) = (  1.000000  1.000000  1.000000 )  
               b(3) = ( -1.000000  1.000000 -1.000000 )  


     PseudoPot. # 1 for Si read from file:
     /home/max/quantum_espresso/qe-6.1/pseudo/si_pbe_v1.uspp.F.UPF.txt
     MD5 check sum: a056efeee980c13900f22a371efd63c1
     Pseudo is Ultrasoft + core correction, Zval =  4.0
     Generated by new atomic code, or converted to UPF format
     Using radial grid of  899 points,  6 beta functions with: 
                l(1) =   0
                l(2) =   0
                l(3) =   1
                l(4) =   1
                l(5) =   2
                l(6) =   2
     Q(r) pseudized with  8 coefficients,  rinner =    0.900   0.900   0.900
                                                       0.900   0.900

     atomic species   valence    mass     pseudopotential
        Si             4.00    28.08600     Si( 1.00)

     48 Sym. Ops., with inversion, found



   Cartesian axes

     site n.     atom                  positions (alat units)
         1           Si  tau(   1) = (   0.0000000   0.0000000   0.0000000  )
         2           Si  tau(   2) = (   0.2500000   0.2500000   0.2500000  )

     number of k points=    80
                       cart. coord. in units 2pi/alat
        k(    1) = (  -0.1250000   0.1250000   0.1250000), wk =   0.0312500
        k(    2) = (  -0.1250000   0.6250000   0.1250000), wk =   0.0000000
        k(    3) = (  -0.3750000   0.3750000  -0.1250000), wk =   0.0625000
        k(    4) = (  -0.3750000   0.8750000  -0.1250000), wk =   0.0000000
        k(    5) = (   0.3750000  -0.3750000   0.6250000), wk =   0.0625000
        k(    6) = (   0.3750000   0.1250000   0.6250000), wk =   0.0000000
        k(    7) = (   0.1250000  -0.1250000   0.3750000), wk =   0.0625000
        k(    8) = (   0.1250000   0.3750000   0.3750000), wk =   0.0000000
        k(    9) = (  -0.1250000   0.6250000   0.1250000), wk =   0.0312500
        k(   10) = (  -0.1250000   1.1250000   0.1250000), wk =   0.0000000
        k(   11) = (   0.6250000  -0.1250000   0.8750000), wk =   0.0625000
        k(   12) = (   0.6250000   0.3750000   0.8750000), wk =   0.0000000
        k(   13) = (   0.3750000   0.1250000   0.6250000), wk =   0.0625000
        k(   14) = (   0.3750000   0.6250000   0.6250000), wk =   0.0000000
        k(   15) = (  -0.1250000  -0.8750000   0.1250000), wk =   0.0312500
        k(   16) = (  -0.1250000  -0.3750000   0.1250000), wk =   0.0000000
        k(   17) = (  -0.3750000   0.3750000   0.3750000), wk =   0.0312500
        k(   18) = (  -0.3750000   0.8750000   0.3750000), wk =   0.0000000
        k(   19) = (   0.3750000  -0.3750000   1.1250000), wk =   0.0625000
        k(   20) = (   0.3750000   0.1250000   1.1250000), wk =   0.0000000
        k(   21) = (  -0.1250000  -0.1250000   0.1250000), wk =   0.0312500
        k(   22) = (  -0.1250000   0.3750000   0.1250000), wk =   0.0000000
        k(   23) = (   0.1250000  -0.3750000   0.3750000), wk =   0.0625000
        k(   24) = (   0.1250000   0.1250000   0.3750000), wk =   0.0000000
        k(   25) = (   0.3750000  -0.1250000   0.3750000), wk =   0.0312500
        k(   26) = (   0.3750000   0.3750000   0.3750000), wk =   0.0000000
        k(   27) = (   0.3750000   0.1250000   0.3750000), wk =   0.0312500
        k(   28) = (   0.3750000   0.6250000   0.3750000), wk =   0.0000000
        k(   29) = (  -0.6250000   0.3750000  -0.3750000), wk =   0.0625000
        k(   30) = (  -0.6250000   0.8750000  -0.3750000), wk =   0.0000000
        k(   31) = (  -0.3750000   0.6250000  -0.3750000), wk =   0.0312500
        k(   32) = (  -0.3750000   1.1250000  -0.3750000), wk =   0.0000000
        k(   33) = (  -0.3750000  -0.6250000  -0.3750000), wk =   0.0312500
        k(   34) = (  -0.3750000  -0.1250000  -0.3750000), wk =   0.0000000
        k(   35) = (  -0.3750000   0.1250000  -0.1250000), wk =   0.0625000
        k(   36) = (  -0.3750000   0.6250000  -0.1250000), wk =   0.0000000
        k(   37) = (  -0.1250000   0.3750000  -0.1250000), wk =   0.0312500
        k(   38) = (  -0.1250000   0.8750000  -0.1250000), wk =   0.0000000
        k(   39) = (  -0.1250000  -0.3750000  -0.1250000), wk =   0.0312500
        k(   40) = (  -0.1250000   0.1250000  -0.1250000), wk =   0.0000000
        k(   41) = (  -0.1250000  -0.6250000   0.1250000), wk =   0.0312500
        k(   42) = (  -0.1250000  -0.1250000   0.1250000), wk =   0.0000000
        k(   43) = (   0.6250000  -0.1250000  -0.1250000), wk =   0.0625000
        k(   44) = (   0.6250000   0.3750000  -0.1250000), wk =   0.0000000
        k(   45) = (   0.6250000   0.1250000   0.1250000), wk =   0.0625000
        k(   46) = (   0.6250000   0.6250000   0.1250000), wk =   0.0000000
        k(   47) = (  -0.8750000   0.1250000  -0.6250000), wk =   0.0625000
        k(   48) = (  -0.8750000   0.6250000  -0.6250000), wk =   0.0000000
        k(   49) = (  -0.1250000   0.6250000  -0.8750000), wk =   0.0625000
        k(   50) = (  -0.1250000   1.1250000  -0.8750000), wk =   0.0000000
        k(   51) = (  -0.1250000   0.8750000  -0.6250000), wk =   0.0625000
        k(   52) = (  -0.1250000   1.3750000  -0.6250000), wk =   0.0000000
        k(   53) = (  -0.1250000  -0.8750000  -0.6250000), wk =   0.0625000
        k(   54) = (  -0.1250000  -0.3750000  -0.6250000), wk =   0.0000000
        k(   55) = (   0.8750000  -0.6250000   0.1250000), wk =   0.0625000
        k(   56) = (   0.8750000  -0.1250000   0.1250000), wk =   0.0000000
        k(   57) = (  -0.6250000  -0.1250000  -0.3750000), wk =   0.0625000
        k(   58) = (  -0.6250000   0.3750000  -0.3750000), wk =   0.0000000
        k(   59) = (   0.1250000   0.3750000  -0.6250000), wk =   0.0625000
        k(   60) = (   0.1250000   0.8750000  -0.6250000), wk =   0.0000000
        k(   61) = (   0.1250000   0.6250000  -0.3750000), wk =   0.0625000
        k(   62) = (   0.1250000   1.1250000  -0.3750000), wk =   0.0000000
        k(   63) = (   0.1250000  -0.6250000  -0.3750000), wk =   0.0625000
        k(   64) = (   0.1250000  -0.1250000  -0.3750000), wk =   0.0000000
        k(   65) = (   0.6250000  -0.3750000  -0.1250000), wk =   0.0625000
        k(   66) = (   0.6250000   0.1250000  -0.1250000), wk =   0.0000000
        k(   67) = (  -0.1250000   0.8750000   0.1250000), wk =   0.0312500
        k(   68) = (  -0.1250000   1.3750000   0.1250000), wk =   0.0000000
        k(   69) = (  -0.8750000  -0.1250000  -0.1250000), wk =   0.0625000
        k(   70) = (  -0.8750000   0.3750000  -0.1250000), wk =   0.0000000
        k(   71) = (  -0.8750000   0.1250000   0.1250000), wk =   0.0625000
        k(   72) = (  -0.8750000   0.6250000   0.1250000), wk =   0.0000000
        k(   73) = (  -0.3750000  -0.3750000   0.3750000), wk =   0.0312500
        k(   74) = (  -0.3750000   0.1250000   0.3750000), wk =   0.0000000
        k(   75) = (  -1.1250000   0.3750000  -0.3750000), wk =   0.0625000
        k(   76) = (  -1.1250000   0.8750000  -0.3750000), wk =   0.0000000
        k(   77) = (  -0.3750000   1.1250000  -0.3750000), wk =   0.0312500
        k(   78) = (  -0.3750000   1.6250000  -0.3750000), wk =   0.0000000
        k(   79) = (  -0.3750000  -1.1250000  -0.3750000), wk =   0.0312500
        k(   80) = (  -0.3750000  -0.6250000  -0.3750000), wk =   0.0000000

     Dense  grid:     2891 G-vectors     FFT dimensions: (  20,  20,  20)

     Estimated max dynamical RAM per process >       0.33MB

     Estimated total allocated dynamical RAM >       1.34MB

     Check: negative/imaginary core charge=   -0.000006    0.000000

     The potential is recalculated from file :
     ./_ph0/silicon.10.44.save/charge-density.dat

     Starting wfc are    8 atomic wfcs

     Band Structure Calculation
     Davidson diagonalization with overlap

     ethr =  1.25E-10,  avg # of iterations = 11.7

     total cpu time spent up to now is        2.5 secs

     End of band structure calculation

          k =-0.1250 0.1250 0.1250 (   359 PWs)   bands (ev):

    -5.7419   4.0833   5.3978   5.3978

          k =-0.1250 0.6250 0.1250 (   365 PWs)   bands (ev):

    -4.2285   0.7792   3.1384   3.5735

          k =-0.3750 0.3750-0.1250 (   366 PWs)   bands (ev):

    -4.7468   1.1438   3.4692   4.9240

          k =-0.3750 0.8750-0.1250 (   373 PWs)   bands (ev):

    -2.6464  -1.1368   1.8416   2.8782

          k = 0.3750-0.3750 0.6250 (   369 PWs)   bands (ev):

    -3.6524  -0.8623   3.4733   4.1791

          k = 0.3750 0.1250 0.6250 (   369 PWs)   bands (ev):

    -3.8297  -0.0503   2.5116   3.8419

          k = 0.1250-0.1250 0.3750 (   362 PWs)   bands (ev):

    -5.2293   2.4801   4.4234   4.4697

          k = 0.1250 0.3750 0.3750 (   366 PWs)   bands (ev):

    -4.7468   1.1438   3.4692   4.9240

          k =-0.1250 0.6250 0.1250 (   365 PWs)   bands (ev):

    -4.2285   0.7792   3.1384   3.5735

          k =-0.1250 1.1250 0.1250 (   366 PWs)   bands (ev):

    -2.8005  -1.0459   2.4267   3.1187

          k = 0.6250-0.1250 0.8750 (   373 PWs)   bands (ev):

    -2.6464  -1.1368   1.8416   2.8782

          k = 0.6250 0.3750 0.8750 (   369 PWs)   bands (ev):

    -3.8297  -0.0503   2.5116   3.8419

          k = 0.3750 0.1250 0.6250 (   369 PWs)   bands (ev):

    -3.8297  -0.0503   2.5116   3.8419

          k = 0.3750 0.6250 0.6250 (   369 PWs)   bands (ev):

    -3.6524  -0.8623   3.4733   4.1791

          k =-0.1250-0.8750 0.1250 (   366 PWs)   bands (ev):

    -2.8005  -1.0459   2.4267   3.1187

          k =-0.1250-0.3750 0.1250 (   362 PWs)   bands (ev):

    -5.2293   2.4801   4.4234   4.4697

          k =-0.3750 0.3750 0.3750 (   362 PWs)   bands (ev):

    -4.3300  -0.0942   4.6266   4.6266

          k =-0.3750 0.8750 0.3750 (   369 PWs)   bands (ev):

    -3.1698  -0.8154   1.8859   3.8735

          k = 0.3750-0.3750 1.1250 (   369 PWs)   bands (ev):

    -3.1698  -0.8154   1.8859   3.8735

          k = 0.3750 0.1250 1.1250 (   373 PWs)   bands (ev):

    -2.6464  -1.1368   1.8416   2.8782

          k =-0.1250-0.1250 0.1250 (   359 PWs)   bands (ev):

    -5.7419   4.0833   5.3978   5.3978

          k =-0.1250 0.3750 0.1250 (   362 PWs)   bands (ev):

    -5.2293   2.4801   4.4234   4.4697

          k = 0.1250-0.3750 0.3750 (   366 PWs)   bands (ev):

    -4.7468   1.1438   3.4692   4.9240

          k = 0.1250 0.1250 0.3750 (   362 PWs)   bands (ev):

    -5.2293   2.4801   4.4234   4.4697

          k = 0.3750-0.1250 0.3750 (   366 PWs)   bands (ev):

    -4.7468   1.1438   3.4692   4.9240

          k = 0.3750 0.3750 0.3750 (   362 PWs)   bands (ev):

    -4.3300  -0.0942   4.6266   4.6266

          k = 0.3750 0.1250 0.3750 (   366 PWs)   bands (ev):

    -4.7468   1.1438   3.4692   4.9240

          k = 0.3750 0.6250 0.3750 (   369 PWs)   bands (ev):

    -3.6524  -0.8623   3.4733   4.1791

          k =-0.6250 0.3750-0.3750 (   369 PWs)   bands (ev):

    -3.6524  -0.8623   3.4733   4.1791

          k =-0.6250 0.8750-0.3750 (   369 PWs)   bands (ev):

    -3.8297  -0.0503   2.5116   3.8419

          k =-0.3750 0.6250-0.3750 (   369 PWs)   bands (ev):

    -3.6524  -0.8623   3.4733   4.1791

          k =-0.3750 1.1250-0.3750 (   369 PWs)   bands (ev):

    -3.1698  -0.8154   1.8859   3.8735

          k =-0.3750-0.6250-0.3750 (   369 PWs)   bands (ev):

    -3.6524  -0.8623   3.4733   4.1791

          k =-0.3750-0.1250-0.3750 (   366 PWs)   bands (ev):

    -4.7468   1.1438   3.4692   4.9240

          k =-0.3750 0.1250-0.1250 (   362 PWs)   bands (ev):

    -5.2293   2.4801   4.4234   4.4697

          k =-0.3750 0.6250-0.1250 (   369 PWs)   bands (ev):

    -3.8297  -0.0503   2.5116   3.8419

          k =-0.1250 0.3750-0.1250 (   362 PWs)   bands (ev):

    -5.2293   2.4801   4.4234   4.4697

          k =-0.1250 0.8750-0.1250 (   366 PWs)   bands (ev):

    -2.8005  -1.0459   2.4267   3.1187

          k =-0.1250-0.3750-0.1250 (   362 PWs)   bands (ev):

    -5.2293   2.4801   4.4234   4.4697

          k =-0.1250 0.1250-0.1250 (   359 PWs)   bands (ev):

    -5.7419   4.0833   5.3978   5.3978

          k =-0.1250-0.6250 0.1250 (   365 PWs)   bands (ev):

    -4.2285   0.7792   3.1384   3.5735

          k =-0.1250-0.1250 0.1250 (   359 PWs)   bands (ev):

    -5.7419   4.0833   5.3978   5.3978

          k = 0.6250-0.1250-0.1250 (   365 PWs)   bands (ev):

    -4.2285   0.7792   3.1384   3.5735

          k = 0.6250 0.3750-0.1250 (   369 PWs)   bands (ev):

    -3.8297  -0.0503   2.5116   3.8419

          k = 0.6250 0.1250 0.1250 (   365 PWs)   bands (ev):

    -4.2285   0.7792   3.1384   3.5735

          k = 0.6250 0.6250 0.1250 (   369 PWs)   bands (ev):

    -3.1698  -0.8154   1.8859   3.8735

          k =-0.8750 0.1250-0.6250 (   373 PWs)   bands (ev):

    -2.6464  -1.1368   1.8416   2.8782

          k =-0.8750 0.6250-0.6250 (   366 PWs)   bands (ev):

    -4.7468   1.1438   3.4692   4.9240

          k =-0.1250 0.6250-0.8750 (   373 PWs)   bands (ev):

    -2.6464  -1.1368   1.8416   2.8782

          k =-0.1250 1.1250-0.8750 (   366 PWs)   bands (ev):

    -2.8005  -1.0459   2.4267   3.1187

          k =-0.1250 0.8750-0.6250 (   373 PWs)   bands (ev):

    -2.6464  -1.1368   1.8416   2.8782

          k =-0.1250 1.3750-0.6250 (   369 PWs)   bands (ev):

    -3.1698  -0.8154   1.8859   3.8735

          k =-0.1250-0.8750-0.6250 (   373 PWs)   bands (ev):

    -2.6464  -1.1368   1.8416   2.8782

          k =-0.1250-0.3750-0.6250 (   369 PWs)   bands (ev):

    -3.8297  -0.0503   2.5116   3.8419

          k = 0.8750-0.6250 0.1250 (   373 PWs)   bands (ev):

    -2.6464  -1.1368   1.8416   2.8782

          k = 0.8750-0.1250 0.1250 (   366 PWs)   bands (ev):

    -2.8005  -1.0459   2.4267   3.1187

          k =-0.6250-0.1250-0.3750 (   369 PWs)   bands (ev):

    -3.8297  -0.0503   2.5116   3.8419

          k =-0.6250 0.3750-0.3750 (   369 PWs)   bands (ev):

    -3.6524  -0.8623   3.4733   4.1791

          k = 0.1250 0.3750-0.6250 (   369 PWs)   bands (ev):

    -3.8297  -0.0503   2.5116   3.8419

          k = 0.1250 0.8750-0.6250 (   373 PWs)   bands (ev):

    -2.6464  -1.1368   1.8416   2.8782

          k = 0.1250 0.6250-0.3750 (   369 PWs)   bands (ev):

    -3.8297  -0.0503   2.5116   3.8419

          k = 0.1250 1.1250-0.3750 (   373 PWs)   bands (ev):

    -2.6464  -1.1368   1.8416   2.8782

          k = 0.1250-0.6250-0.3750 (   369 PWs)   bands (ev):

    -3.8297  -0.0503   2.5116   3.8419

          k = 0.1250-0.1250-0.3750 (   362 PWs)   bands (ev):

    -5.2293   2.4801   4.4234   4.4697

          k = 0.6250-0.3750-0.1250 (   369 PWs)   bands (ev):

    -3.8297  -0.0503   2.5116   3.8419

          k = 0.6250 0.1250-0.1250 (   365 PWs)   bands (ev):

    -4.2285   0.7792   3.1384   3.5735

          k =-0.1250 0.8750 0.1250 (   366 PWs)   bands (ev):

    -2.8005  -1.0459   2.4267   3.1187

          k =-0.1250 1.3750 0.1250 (   365 PWs)   bands (ev):

    -4.2285   0.7792   3.1384   3.5735

          k =-0.8750-0.1250-0.1250 (   366 PWs)   bands (ev):

    -2.8005  -1.0459   2.4267   3.1187

          k =-0.8750 0.3750-0.1250 (   373 PWs)   bands (ev):

    -2.6464  -1.1368   1.8416   2.8782

          k =-0.8750 0.1250 0.1250 (   366 PWs)   bands (ev):

    -2.8005  -1.0459   2.4267   3.1187

          k =-0.8750 0.6250 0.1250 (   373 PWs)   bands (ev):

    -2.6464  -1.1368   1.8416   2.8782

          k =-0.3750-0.3750 0.3750 (   362 PWs)   bands (ev):

    -4.3300  -0.0942   4.6266   4.6266

          k =-0.3750 0.1250 0.3750 (   366 PWs)   bands (ev):

    -4.7468   1.1438   3.4692   4.9240

          k =-1.1250 0.3750-0.3750 (   369 PWs)   bands (ev):

    -3.1698  -0.8154   1.8859   3.8735

          k =-1.1250 0.8750-0.3750 (   365 PWs)   bands (ev):

    -4.2285   0.7792   3.1384   3.5735

          k =-0.3750 1.1250-0.3750 (   369 PWs)   bands (ev):

    -3.1698  -0.8154   1.8859   3.8735

          k =-0.3750 1.6250-0.3750 (   362 PWs)   bands (ev):

    -4.3300  -0.0942   4.6266   4.6266

          k =-0.3750-1.1250-0.3750 (   369 PWs)   bands (ev):

    -3.1698  -0.8154   1.8859   3.8735

          k =-0.3750-0.6250-0.3750 (   369 PWs)   bands (ev):

    -3.6524  -0.8623   3.4733   4.1791

     highest occupied level (ev):     5.3978

     Writing output data file silicon.10.44.save

                                                                                

     bravais-lattice index     =            2
     lattice parameter (alat)  =      10.4400  a.u.
     unit-cell volume          =     284.4733 (a.u.)^3
     number of atoms/cell      =            2
     number of atomic types    =            1
     kinetic-energy cut-off    =      18.0000  Ry
     charge density cut-off    =      72.0000  Ry
     convergence threshold     =      1.0E-12
     beta                      =       0.7000
     number of iterations used =            4
     Exchange-correlation      = SLA  PW   PBE  PBE ( 1  4  3  4 0 0)


     celldm(1)=   10.44000  celldm(2)=    0.00000  celldm(3)=    0.00000
     celldm(4)=    0.00000  celldm(5)=    0.00000  celldm(6)=    0.00000

     crystal axes: (cart. coord. in units of alat)
               a(1) = ( -0.5000  0.0000  0.5000 )  
               a(2) = (  0.0000  0.5000  0.5000 )  
               a(3) = ( -0.5000  0.5000  0.0000 )  

     reciprocal axes: (cart. coord. in units 2 pi/alat)
               b(1) = ( -1.0000 -1.0000  1.0000 )  
               b(2) = (  1.0000  1.0000  1.0000 )  
               b(3) = ( -1.0000  1.0000 -1.0000 )  


     Atoms inside the unit cell: 

     Cartesian axes

     site n.  atom      mass           positions (alat units)
        1     Si  28.0860   tau(    1) = (    0.00000    0.00000    0.00000  )
        2     Si  28.0860   tau(    2) = (    0.25000    0.25000    0.25000  )

     Computing dynamical matrix for 
                    q = (   0.0000000   0.5000000   0.0000000 )

      8 Sym.Ops. (no q -> -q+G )


     G cutoff =  198.7805  (    722 G-vectors)     FFT grid: ( 20, 20, 20)
     number of k points=    80

     PseudoPot. # 1 for Si read from file:
     /home/max/quantum_espresso/qe-6.1/pseudo/si_pbe_v1.uspp.F.UPF.txt
     MD5 check sum: a056efeee980c13900f22a371efd63c1
     Pseudo is Ultrasoft + core correction, Zval =  4.0
     Generated by new atomic code, or converted to UPF format
     Using radial grid of  899 points,  6 beta functions with: 
                l(1) =   0
                l(2) =   0
                l(3) =   1
                l(4) =   1
                l(5) =   2
                l(6) =   2
     Q(r) pseudized with  8 coefficients,  rinner =    0.900   0.900   0.900
                                                       0.900   0.900

     Mode symmetry, C_4v (4mm)  point group:


     Atomic displacements:
     There are   4 irreducible representations

     Representation     1      1 modes -A_1  G_1 D_1  To be done

     Representation     2      1 modes -B_2  G_4 D_2'  To be done

     Representation     3      2 modes -E    G_5 D_5  To be done

     Representation     4      2 modes -E    G_5 D_5  To be done



     Alpha used in Ewald sum =   0.7000
     PHONON       :    21.69s CPU        23.09s WALL



     Representation #  1 mode #   1

     Self-consistent Calculation

      iter #   1 total cpu time :    23.3 secs   av.it.:   5.8
      thresh= 1.000E-02 alpha_mix =  0.700 |ddv_scf|^2 =  2.897E-03

      iter #   2 total cpu time :    23.4 secs   av.it.:   7.7
      thresh= 5.382E-03 alpha_mix =  0.700 |ddv_scf|^2 =  3.874E-02

      iter #   3 total cpu time :    23.6 secs   av.it.:   6.7
      thresh= 1.000E-02 alpha_mix =  0.700 |ddv_scf|^2 =  1.495E-07

      iter #   4 total cpu time :    23.8 secs   av.it.:   8.2
      thresh= 3.866E-05 alpha_mix =  0.700 |ddv_scf|^2 =  1.691E-08

      iter #   5 total cpu time :    23.9 secs   av.it.:   7.8
      thresh= 1.300E-05 alpha_mix =  0.700 |ddv_scf|^2 =  6.595E-10

      iter #   6 total cpu time :    24.1 secs   av.it.:   8.0
      thresh= 2.568E-06 alpha_mix =  0.700 |ddv_scf|^2 =  2.626E-12

      iter #   7 total cpu time :    24.3 secs   av.it.:   8.0
      thresh= 1.621E-07 alpha_mix =  0.700 |ddv_scf|^2 =  5.207E-13

     End of self-consistent calculation

     Convergence has been achieved 


     Representation #  2 mode #   2

     Self-consistent Calculation

      iter #   1 total cpu time :    24.5 secs   av.it.:   4.9
      thresh= 1.000E-02 alpha_mix =  0.700 |ddv_scf|^2 =  5.131E-06

      iter #   2 total cpu time :    24.8 secs   av.it.:   8.7
      thresh= 2.265E-04 alpha_mix =  0.700 |ddv_scf|^2 =  1.366E-06

      iter #   3 total cpu time :    25.0 secs   av.it.:   8.5
      thresh= 1.169E-04 alpha_mix =  0.700 |ddv_scf|^2 =  3.295E-08

      iter #   4 total cpu time :    25.2 secs   av.it.:   8.2
      thresh= 1.815E-05 alpha_mix =  0.700 |ddv_scf|^2 =  8.103E-10

      iter #   5 total cpu time :    25.4 secs   av.it.:   8.6
      thresh= 2.847E-06 alpha_mix =  0.700 |ddv_scf|^2 =  7.910E-12

      iter #   6 total cpu time :    25.6 secs   av.it.:   7.9
      thresh= 2.812E-07 alpha_mix =  0.700 |ddv_scf|^2 =  9.980E-14

     End of self-consistent calculation

     Convergence has been achieved 


     Representation #  3 modes #   3  4

     Self-consistent Calculation

      iter #   1 total cpu time :    25.9 secs   av.it.:   5.0
      thresh= 1.000E-02 alpha_mix =  0.700 |ddv_scf|^2 =  9.395E-07

      iter #   2 total cpu time :    26.3 secs   av.it.:   9.8
      thresh= 9.693E-05 alpha_mix =  0.700 |ddv_scf|^2 =  1.191E-07

      iter #   3 total cpu time :    26.9 secs   av.it.:   9.5
      thresh= 3.451E-05 alpha_mix =  0.700 |ddv_scf|^2 =  5.072E-09

      iter #   4 total cpu time :    27.2 secs   av.it.:   8.8
      thresh= 7.122E-06 alpha_mix =  0.700 |ddv_scf|^2 =  9.051E-12

      iter #   5 total cpu time :    27.6 secs   av.it.:   9.1
      thresh= 3.009E-07 alpha_mix =  0.700 |ddv_scf|^2 =  3.091E-13

     End of self-consistent calculation

     Convergence has been achieved 


     Representation #  4 modes #   5  6

     Self-consistent Calculation

      iter #   1 total cpu time :    27.9 secs   av.it.:   5.0
      thresh= 1.000E-02 alpha_mix =  0.700 |ddv_scf|^2 =  9.474E-07

      iter #   2 total cpu time :    28.3 secs   av.it.:   9.8
      thresh= 9.734E-05 alpha_mix =  0.700 |ddv_scf|^2 =  1.203E-07

      iter #   3 total cpu time :    28.9 secs   av.it.:   9.5
      thresh= 3.468E-05 alpha_mix =  0.700 |ddv_scf|^2 =  7.626E-09

      iter #   4 total cpu time :    29.2 secs   av.it.:   8.9
      thresh= 8.733E-06 alpha_mix =  0.700 |ddv_scf|^2 =  1.579E-11

      iter #   5 total cpu time :    29.6 secs   av.it.:   9.2
      thresh= 3.974E-07 alpha_mix =  0.700 |ddv_scf|^2 =  4.674E-14

     End of self-consistent calculation

     Convergence has been achieved 

     Number of q in the star =    6
     List of q in the star:
          1   0.000000000   0.500000000   0.000000000
          2   0.000000000  -0.500000000   0.000000000
          3   0.500000000   0.000000000   0.000000000
          4   0.000000000   0.000000000   0.500000000
          5   0.000000000   0.000000000  -0.500000000
          6  -0.500000000   0.000000000   0.000000000

     Diagonalizing the dynamical matrix

     q = (    0.000000000   0.500000000   0.000000000 ) 

 **************************************************************************
     freq (    1) =       4.387102 [THz] =     146.337988 [cm-1]
     freq (    2) =       4.387102 [THz] =     146.337988 [cm-1]
     freq (    3) =       6.904288 [THz] =     230.302248 [cm-1]
     freq (    4) =      14.050834 [THz] =     468.685384 [cm-1]
     freq (    5) =      14.050834 [THz] =     468.685384 [cm-1]
     freq (    6) =      14.790264 [THz] =     493.350096 [cm-1]
 **************************************************************************

     Mode symmetry, C_4v (4mm)  point group:

     freq (  1 -  2) =        146.3  [cm-1]   --> E    G_5 D_5       
     freq (  3 -  3) =        230.3  [cm-1]   --> A_1  G_1 D_1       
     freq (  4 -  5) =        468.7  [cm-1]   --> E    G_5 D_5       
     freq (  6 -  6) =        493.4  [cm-1]   --> B_2  G_4 D_2'      

     Calculation of q =    0.7500000  -0.2500000   0.7500000

   Info: using nr1, nr2, nr3 values from input

   Info: using nr1, nr2, nr3 values from input

     Parallelization info
     --------------------
     sticks:   dense  smooth     PW     G-vecs:    dense   smooth      PW
     Min          65      65     30                  722      722     216
     Max          67      67     31                  723      723     218
     Sum         265     265    121                 2891     2891     869



     bravais-lattice index     =            2
     lattice parameter (alat)  =      10.4400  a.u.
     unit-cell volume          =     284.4733 (a.u.)^3
     number of atoms/cell      =            2
     number of atomic types    =            1
     number of electrons       =         8.00
     number of Kohn-Sham states=            4
     kinetic-energy cutoff     =      18.0000  Ry
     charge density cutoff     =      72.0000  Ry
     Exchange-correlation      = SLA  PW   PBE  PBE ( 1  4  3  4 0 0)

     celldm(1)=  10.440000  celldm(2)=   0.000000  celldm(3)=   0.000000
     celldm(4)=   0.000000  celldm(5)=   0.000000  celldm(6)=   0.000000

     crystal axes: (cart. coord. in units of alat)
               a(1) = (  -0.500000   0.000000   0.500000 )  
               a(2) = (   0.000000   0.500000   0.500000 )  
               a(3) = (  -0.500000   0.500000   0.000000 )  

     reciprocal axes: (cart. coord. in units 2 pi/alat)
               b(1) = ( -1.000000 -1.000000  1.000000 )  
               b(2) = (  1.000000  1.000000  1.000000 )  
               b(3) = ( -1.000000  1.000000 -1.000000 )  


     PseudoPot. # 1 for Si read from file:
     /home/max/quantum_espresso/qe-6.1/pseudo/si_pbe_v1.uspp.F.UPF.txt
     MD5 check sum: a056efeee980c13900f22a371efd63c1
     Pseudo is Ultrasoft + core correction, Zval =  4.0
     Generated by new atomic code, or converted to UPF format
     Using radial grid of  899 points,  6 beta functions with: 
                l(1) =   0
                l(2) =   0
                l(3) =   1
                l(4) =   1
                l(5) =   2
                l(6) =   2
     Q(r) pseudized with  8 coefficients,  rinner =    0.900   0.900   0.900
                                                       0.900   0.900

     atomic species   valence    mass     pseudopotential
        Si             4.00    28.08600     Si( 1.00)

     48 Sym. Ops., with inversion, found



   Cartesian axes

     site n.     atom                  positions (alat units)
         1           Si  tau(   1) = (   0.0000000   0.0000000   0.0000000  )
         2           Si  tau(   2) = (   0.2500000   0.2500000   0.2500000  )

     number of k points=   288

     Number of k-points >= 100: set verbosity='high' to print them.

     Dense  grid:     2891 G-vectors     FFT dimensions: (  20,  20,  20)

     Estimated max dynamical RAM per process >       0.33MB

     Estimated total allocated dynamical RAM >       1.34MB

     Check: negative/imaginary core charge=   -0.000006    0.000000

     The potential is recalculated from file :
     ./_ph0/silicon.10.44.save/charge-density.dat

     Starting wfc are    8 atomic wfcs

     Band Structure Calculation
     Davidson diagonalization with overlap

     ethr =  1.25E-10,  avg # of iterations = 11.6

     total cpu time spent up to now is        4.5 secs

     End of band structure calculation

     Number of k-points >= 100: set verbosity='high' to print the bands.

     highest occupied level (ev):     5.3978

     Writing output data file silicon.10.44.save

                                                                                

     bravais-lattice index     =            2
     lattice parameter (alat)  =      10.4400  a.u.
     unit-cell volume          =     284.4733 (a.u.)^3
     number of atoms/cell      =            2
     number of atomic types    =            1
     kinetic-energy cut-off    =      18.0000  Ry
     charge density cut-off    =      72.0000  Ry
     convergence threshold     =      1.0E-12
     beta                      =       0.7000
     number of iterations used =            4
     Exchange-correlation      = SLA  PW   PBE  PBE ( 1  4  3  4 0 0)


     celldm(1)=   10.44000  celldm(2)=    0.00000  celldm(3)=    0.00000
     celldm(4)=    0.00000  celldm(5)=    0.00000  celldm(6)=    0.00000

     crystal axes: (cart. coord. in units of alat)
               a(1) = ( -0.5000  0.0000  0.5000 )  
               a(2) = (  0.0000  0.5000  0.5000 )  
               a(3) = ( -0.5000  0.5000  0.0000 )  

     reciprocal axes: (cart. coord. in units 2 pi/alat)
               b(1) = ( -1.0000 -1.0000  1.0000 )  
               b(2) = (  1.0000  1.0000  1.0000 )  
               b(3) = ( -1.0000  1.0000 -1.0000 )  


     Atoms inside the unit cell: 

     Cartesian axes

     site n.  atom      mass           positions (alat units)
        1     Si  28.0860   tau(    1) = (    0.00000    0.00000    0.00000  )
        2     Si  28.0860   tau(    2) = (    0.25000    0.25000    0.25000  )

     Computing dynamical matrix for 
                    q = (   0.7500000  -0.2500000   0.7500000 )

      2 Sym.Ops. (no q -> -q+G )


     G cutoff =  198.7805  (    723 G-vectors)     FFT grid: ( 20, 20, 20)
     number of k points=   288

     PseudoPot. # 1 for Si read from file:
     /home/max/quantum_espresso/qe-6.1/pseudo/si_pbe_v1.uspp.F.UPF.txt
     MD5 check sum: a056efeee980c13900f22a371efd63c1
     Pseudo is Ultrasoft + core correction, Zval =  4.0
     Generated by new atomic code, or converted to UPF format
     Using radial grid of  899 points,  6 beta functions with: 
                l(1) =   0
                l(2) =   0
                l(3) =   1
                l(4) =   1
                l(5) =   2
                l(6) =   2
     Q(r) pseudized with  8 coefficients,  rinner =    0.900   0.900   0.900
                                                       0.900   0.900

     Mode symmetry, C_s (m)     point group:


     Atomic displacements:
     There are   6 irreducible representations

     Representation     1      1 modes -A'  To be done

     Representation     2      1 modes -A'  To be done

     Representation     3      1 modes -A'  To be done

     Representation     4      1 modes -A'  To be done

     Representation     5      1 modes -A''  To be done

     Representation     6      1 modes -A''  To be done



     Alpha used in Ewald sum =   0.7000
     PHONON       :    30.30s CPU        32.36s WALL



     Representation #  1 mode #   1

     Self-consistent Calculation

      iter #   1 total cpu time :    33.0 secs   av.it.:   5.3
      thresh= 1.000E-02 alpha_mix =  0.700 |ddv_scf|^2 =  5.988E-05

      iter #   2 total cpu time :    33.7 secs   av.it.:   8.9
      thresh= 7.738E-04 alpha_mix =  0.700 |ddv_scf|^2 =  1.600E-04

      iter #   3 total cpu time :    34.3 secs   av.it.:   7.6
      thresh= 1.265E-03 alpha_mix =  0.700 |ddv_scf|^2 =  1.127E-06

      iter #   4 total cpu time :    35.1 secs   av.it.:   8.4
      thresh= 1.062E-04 alpha_mix =  0.700 |ddv_scf|^2 =  5.999E-08

      iter #   5 total cpu time :    35.7 secs   av.it.:   8.3
      thresh= 2.449E-05 alpha_mix =  0.700 |ddv_scf|^2 =  7.408E-09

      iter #   6 total cpu time :    36.4 secs   av.it.:   8.5
      thresh= 8.607E-06 alpha_mix =  0.700 |ddv_scf|^2 =  9.989E-11

      iter #   7 total cpu time :    37.2 secs   av.it.:   8.7
      thresh= 9.995E-07 alpha_mix =  0.700 |ddv_scf|^2 =  3.488E-12

      iter #   8 total cpu time :    37.9 secs   av.it.:   8.6
      thresh= 1.868E-07 alpha_mix =  0.700 |ddv_scf|^2 =  2.143E-13

     End of self-consistent calculation

     Convergence has been achieved 


     Representation #  2 mode #   2

     Self-consistent Calculation

      iter #   1 total cpu time :    38.4 secs   av.it.:   5.4
      thresh= 1.000E-02 alpha_mix =  0.700 |ddv_scf|^2 =  1.063E-04

      iter #   2 total cpu time :    39.2 secs   av.it.:   8.7
      thresh= 1.031E-03 alpha_mix =  0.700 |ddv_scf|^2 =  3.069E-04

      iter #   3 total cpu time :    39.8 secs   av.it.:   7.4
      thresh= 1.752E-03 alpha_mix =  0.700 |ddv_scf|^2 =  8.121E-07

      iter #   4 total cpu time :    40.5 secs   av.it.:   8.5
      thresh= 9.011E-05 alpha_mix =  0.700 |ddv_scf|^2 =  5.810E-08

      iter #   5 total cpu time :    41.3 secs   av.it.:   8.2
      thresh= 2.410E-05 alpha_mix =  0.700 |ddv_scf|^2 =  1.100E-08

      iter #   6 total cpu time :    41.9 secs   av.it.:   8.5
      thresh= 1.049E-05 alpha_mix =  0.700 |ddv_scf|^2 =  9.394E-11

      iter #   7 total cpu time :    42.7 secs   av.it.:   8.7
      thresh= 9.692E-07 alpha_mix =  0.700 |ddv_scf|^2 =  3.014E-12

      iter #   8 total cpu time :    43.4 secs   av.it.:   8.6
      thresh= 1.736E-07 alpha_mix =  0.700 |ddv_scf|^2 =  7.607E-13

     End of self-consistent calculation

     Convergence has been achieved 


     Representation #  3 mode #   3

     Self-consistent Calculation

      iter #   1 total cpu time :    43.9 secs   av.it.:   5.3
      thresh= 1.000E-02 alpha_mix =  0.700 |ddv_scf|^2 =  8.327E-05

      iter #   2 total cpu time :    44.7 secs   av.it.:   8.7
      thresh= 9.125E-04 alpha_mix =  0.700 |ddv_scf|^2 =  2.242E-04

      iter #   3 total cpu time :    45.3 secs   av.it.:   7.4
      thresh= 1.497E-03 alpha_mix =  0.700 |ddv_scf|^2 =  1.379E-06

      iter #   4 total cpu time :    46.0 secs   av.it.:   8.2
      thresh= 1.174E-04 alpha_mix =  0.700 |ddv_scf|^2 =  5.932E-08

      iter #   5 total cpu time :    46.8 secs   av.it.:   8.5
      thresh= 2.436E-05 alpha_mix =  0.700 |ddv_scf|^2 =  1.144E-08

      iter #   6 total cpu time :    47.4 secs   av.it.:   8.5
      thresh= 1.070E-05 alpha_mix =  0.700 |ddv_scf|^2 =  5.247E-11

      iter #   7 total cpu time :    48.1 secs   av.it.:   8.7
      thresh= 7.244E-07 alpha_mix =  0.700 |ddv_scf|^2 =  2.061E-12

      iter #   8 total cpu time :    48.9 secs   av.it.:   8.8
      thresh= 1.436E-07 alpha_mix =  0.700 |ddv_scf|^2 =  4.364E-13

     End of self-consistent calculation

     Convergence has been achieved 


     Representation #  4 mode #   4

     Self-consistent Calculation

      iter #   1 total cpu time :    49.5 secs   av.it.:   5.2
      thresh= 1.000E-02 alpha_mix =  0.700 |ddv_scf|^2 =  3.690E-05

      iter #   2 total cpu time :    50.1 secs   av.it.:   8.9
[...]
        k(   59) = (  -0.8750000   0.1250000  -0.1250000), wk =   0.0625000
        k(   60) = (  -1.3750000  -0.8750000  -0.1250000), wk =   0.0000000
        k(   61) = (  -1.1250000   0.3750000  -0.3750000), wk =   0.0625000
        k(   62) = (  -1.6250000  -0.6250000  -0.3750000), wk =   0.0000000
        k(   63) = (  -0.3750000   0.3750000   1.1250000), wk =   0.0625000
        k(   64) = (  -0.8750000  -0.6250000   1.1250000), wk =   0.0000000

     Dense  grid:     2891 G-vectors     FFT dimensions: (  20,  20,  20)

     Estimated max dynamical RAM per process >       0.33MB

     Estimated total allocated dynamical RAM >       1.34MB

     Check: negative/imaginary core charge=   -0.000006    0.000000

     The potential is recalculated from file :
     ./_ph0/silicon.10.44.save/charge-density.dat

     Starting wfc are    8 atomic wfcs

     Band Structure Calculation
     Davidson diagonalization with overlap

     ethr =  1.25E-10,  avg # of iterations = 11.6

     total cpu time spent up to now is        6.6 secs

     End of band structure calculation

          k =-0.1250 0.1250 0.1250 (   359 PWs)   bands (ev):

    -5.7419   4.0833   5.3978   5.3978

          k =-0.6250-0.8750 0.1250 (   373 PWs)   bands (ev):

    -2.6464  -1.1368   1.8416   2.8782

          k =-0.3750 0.3750-0.1250 (   366 PWs)   bands (ev):

    -4.7468   1.1438   3.4692   4.9240

          k =-0.8750-0.6250-0.1250 (   373 PWs)   bands (ev):

    -2.6464  -1.1368   1.8416   2.8782

          k = 0.3750-0.3750 0.6250 (   369 PWs)   bands (ev):

    -3.6524  -0.8623   3.4733   4.1791

          k =-0.1250-1.3750 0.6250 (   369 PWs)   bands (ev):

    -3.1698  -0.8154   1.8859   3.8735

          k = 0.1250-0.1250 0.3750 (   362 PWs)   bands (ev):

    -5.2293   2.4801   4.4234   4.4697

          k =-0.3750-1.1250 0.3750 (   369 PWs)   bands (ev):

    -3.1698  -0.8154   1.8859   3.8735

          k =-0.1250 0.6250 0.1250 (   365 PWs)   bands (ev):

    -4.2285   0.7792   3.1384   3.5735

          k =-0.6250-0.3750 0.1250 (   369 PWs)   bands (ev):

    -3.8297  -0.0503   2.5116   3.8419

          k = 0.6250-0.1250 0.8750 (   373 PWs)   bands (ev):

    -2.6464  -1.1368   1.8416   2.8782

          k = 0.1250-1.1250 0.8750 (   366 PWs)   bands (ev):

    -2.8005  -1.0459   2.4267   3.1187

          k = 0.3750 0.1250 0.6250 (   369 PWs)   bands (ev):

    -3.8297  -0.0503   2.5116   3.8419

          k =-0.1250-0.8750 0.6250 (   373 PWs)   bands (ev):

    -2.6464  -1.1368   1.8416   2.8782

          k =-0.1250-0.8750 0.1250 (   366 PWs)   bands (ev):

    -2.8005  -1.0459   2.4267   3.1187

          k =-0.6250-1.8750 0.1250 (   365 PWs)   bands (ev):

    -4.2285   0.7792   3.1384   3.5735

          k =-0.3750 0.3750 0.3750 (   362 PWs)   bands (ev):

    -4.3300  -0.0942   4.6266   4.6266

          k =-0.8750-0.6250 0.3750 (   369 PWs)   bands (ev):

    -3.8297  -0.0503   2.5116   3.8419

          k = 0.3750-0.3750 1.1250 (   369 PWs)   bands (ev):

    -3.1698  -0.8154   1.8859   3.8735

          k =-0.1250-1.3750 1.1250 (   373 PWs)   bands (ev):

    -2.6464  -1.1368   1.8416   2.8782

          k = 0.1250-0.3750 0.3750 (   366 PWs)   bands (ev):

    -4.7468   1.1438   3.4692   4.9240

          k =-0.3750-1.3750 0.3750 (   369 PWs)   bands (ev):

    -3.6524  -0.8623   3.4733   4.1791

          k = 0.3750-0.3750-0.1250 (   366 PWs)   bands (ev):

    -4.7468   1.1438   3.4692   4.9240

          k =-0.1250-1.3750-0.1250 (   365 PWs)   bands (ev):

    -4.2285   0.7792   3.1384   3.5735

          k =-0.6250 0.3750-0.3750 (   369 PWs)   bands (ev):

    -3.6524  -0.8623   3.4733   4.1791

          k =-1.1250-0.6250-0.3750 (   369 PWs)   bands (ev):

    -3.8297  -0.0503   2.5116   3.8419

          k =-0.3750 0.3750 0.6250 (   369 PWs)   bands (ev):

    -3.6524  -0.8623   3.4733   4.1791

          k =-0.8750-0.6250 0.6250 (   366 PWs)   bands (ev):

    -4.7468   1.1438   3.4692   4.9240

          k =-0.3750 0.1250-0.1250 (   362 PWs)   bands (ev):

    -5.2293   2.4801   4.4234   4.4697

          k =-0.8750-0.8750-0.1250 (   366 PWs)   bands (ev):

    -2.8005  -1.0459   2.4267   3.1187

          k =-0.1250 0.1250 0.3750 (   362 PWs)   bands (ev):

    -5.2293   2.4801   4.4234   4.4697

          k =-0.6250-0.8750 0.3750 (   369 PWs)   bands (ev):

    -3.8297  -0.0503   2.5116   3.8419

          k = 0.1250 0.6250-0.1250 (   365 PWs)   bands (ev):

    -4.2285   0.7792   3.1384   3.5735

          k =-0.3750-0.3750-0.1250 (   366 PWs)   bands (ev):

    -4.7468   1.1438   3.4692   4.9240

          k = 0.6250 0.1250-0.1250 (   365 PWs)   bands (ev):

    -4.2285   0.7792   3.1384   3.5735

          k = 0.1250-0.8750-0.1250 (   366 PWs)   bands (ev):

    -2.8005  -1.0459   2.4267   3.1187

          k =-0.8750 0.1250-0.6250 (   373 PWs)   bands (ev):

    -2.6464  -1.1368   1.8416   2.8782

          k =-1.3750-0.8750-0.6250 (   366 PWs)   bands (ev):

    -4.7468   1.1438   3.4692   4.9240

          k = 0.8750-0.1250 0.6250 (   373 PWs)   bands (ev):

    -2.6464  -1.1368   1.8416   2.8782

          k = 0.3750-1.1250 0.6250 (   369 PWs)   bands (ev):

    -3.8297  -0.0503   2.5116   3.8419

          k =-0.6250 0.1250 0.8750 (   373 PWs)   bands (ev):

    -2.6464  -1.1368   1.8416   2.8782

          k =-1.1250-0.8750 0.8750 (   359 PWs)   bands (ev):

    -5.7419   4.0833   5.3978   5.3978

          k =-0.1250 0.8750 0.6250 (   373 PWs)   bands (ev):

    -2.6464  -1.1368   1.8416   2.8782

          k =-0.6250-0.1250 0.6250 (   369 PWs)   bands (ev):

    -3.1698  -0.8154   1.8859   3.8735

          k = 0.1250 0.8750-0.6250 (   373 PWs)   bands (ev):

    -2.6464  -1.1368   1.8416   2.8782

          k =-0.3750-0.1250-0.6250 (   369 PWs)   bands (ev):

    -3.8297  -0.0503   2.5116   3.8419

          k =-0.6250-0.1250-0.3750 (   369 PWs)   bands (ev):

    -3.8297  -0.0503   2.5116   3.8419

          k =-1.1250-1.1250-0.3750 (   365 PWs)   bands (ev):

    -4.2285   0.7792   3.1384   3.5735

          k = 0.6250 0.1250 0.3750 (   369 PWs)   bands (ev):

    -3.8297  -0.0503   2.5116   3.8419

          k = 0.1250-0.8750 0.3750 (   373 PWs)   bands (ev):

    -2.6464  -1.1368   1.8416   2.8782

          k =-0.3750-0.1250 0.6250 (   369 PWs)   bands (ev):

    -3.8297  -0.0503   2.5116   3.8419

          k =-0.8750-1.1250 0.6250 (   362 PWs)   bands (ev):

    -5.2293   2.4801   4.4234   4.4697

          k = 0.1250 0.6250 0.3750 (   369 PWs)   bands (ev):

    -3.8297  -0.0503   2.5116   3.8419

          k =-0.3750-0.3750 0.3750 (   362 PWs)   bands (ev):

    -4.3300  -0.0942   4.6266   4.6266

          k =-0.1250 0.6250-0.3750 (   369 PWs)   bands (ev):

    -3.8297  -0.0503   2.5116   3.8419

          k =-0.6250-0.3750-0.3750 (   369 PWs)   bands (ev):

    -3.6524  -0.8623   3.4733   4.1791

          k = 0.1250-0.8750-0.1250 (   366 PWs)   bands (ev):

    -2.8005  -1.0459   2.4267   3.1187

          k =-0.3750-1.8750-0.1250 (   362 PWs)   bands (ev):

    -5.2293   2.4801   4.4234   4.4697

          k =-0.8750 0.1250-0.1250 (   366 PWs)   bands (ev):

    -2.8005  -1.0459   2.4267   3.1187

          k =-1.3750-0.8750-0.1250 (   373 PWs)   bands (ev):

    -2.6464  -1.1368   1.8416   2.8782

          k =-1.1250 0.3750-0.3750 (   369 PWs)   bands (ev):

    -3.1698  -0.8154   1.8859   3.8735

          k =-1.6250-0.6250-0.3750 (   369 PWs)   bands (ev):

    -3.6524  -0.8623   3.4733   4.1791

          k =-0.3750 0.3750 1.1250 (   369 PWs)   bands (ev):

    -3.1698  -0.8154   1.8859   3.8735

          k =-0.8750-0.6250 1.1250 (   362 PWs)   bands (ev):

    -5.2293   2.4801   4.4234   4.4697

     highest occupied level (ev):     5.3978

     Writing output data file silicon.10.44.save

                                                                                

     bravais-lattice index     =            2
     lattice parameter (alat)  =      10.4400  a.u.
     unit-cell volume          =     284.4733 (a.u.)^3
     number of atoms/cell      =            2
     number of atomic types    =            1
     kinetic-energy cut-off    =      18.0000  Ry
     charge density cut-off    =      72.0000  Ry
     convergence threshold     =      1.0E-12
     beta                      =       0.7000
     number of iterations used =            4
     Exchange-correlation      = SLA  PW   PBE  PBE ( 1  4  3  4 0 0)


     celldm(1)=   10.44000  celldm(2)=    0.00000  celldm(3)=    0.00000
     celldm(4)=    0.00000  celldm(5)=    0.00000  celldm(6)=    0.00000

     crystal axes: (cart. coord. in units of alat)
               a(1) = ( -0.5000  0.0000  0.5000 )  
               a(2) = (  0.0000  0.5000  0.5000 )  
               a(3) = ( -0.5000  0.5000  0.0000 )  

     reciprocal axes: (cart. coord. in units 2 pi/alat)
               b(1) = ( -1.0000 -1.0000  1.0000 )  
               b(2) = (  1.0000  1.0000  1.0000 )  
               b(3) = ( -1.0000  1.0000 -1.0000 )  


     Atoms inside the unit cell: 

     Cartesian axes

     site n.  atom      mass           positions (alat units)
        1     Si  28.0860   tau(    1) = (    0.00000    0.00000    0.00000  )
        2     Si  28.0860   tau(    2) = (    0.25000    0.25000    0.25000  )

     Computing dynamical matrix for 
                    q = (  -0.5000000  -1.0000000   0.0000000 )

      8 Sym.Ops. (no q -> -q+G )


     G cutoff =  198.7805  (    722 G-vectors)     FFT grid: ( 20, 20, 20)
     number of k points=    64

     PseudoPot. # 1 for Si read from file:
     /home/max/quantum_espresso/qe-6.1/pseudo/si_pbe_v1.uspp.F.UPF.txt
     MD5 check sum: a056efeee980c13900f22a371efd63c1
     Pseudo is Ultrasoft + core correction, Zval =  4.0
     Generated by new atomic code, or converted to UPF format
     Using radial grid of  899 points,  6 beta functions with: 
                l(1) =   0
                l(2) =   0
                l(3) =   1
                l(4) =   1
                l(5) =   2
                l(6) =   2
     Q(r) pseudized with  8 coefficients,  rinner =    0.900   0.900   0.900
                                                       0.900   0.900


     Atomic displacements:
     There are   3 irreducible representations

     Representation     1      2 modes -  To be done

     Representation     2      2 modes -  To be done

     Representation     3      2 modes -  To be done



     Alpha used in Ewald sum =   0.7000
     PHONON       :  1m14.95s CPU     1m20.19s WALL



     Representation #  1 modes #   1  2

     Self-consistent Calculation

      iter #   1 total cpu time :    80.4 secs   av.it.:   5.3
      thresh= 1.000E-02 alpha_mix =  0.700 |ddv_scf|^2 =  6.213E-06

      iter #   2 total cpu time :    80.9 secs   av.it.:   9.9
      thresh= 2.493E-04 alpha_mix =  0.700 |ddv_scf|^2 =  3.335E-06

      iter #   3 total cpu time :    81.3 secs   av.it.:   9.2
      thresh= 1.826E-04 alpha_mix =  0.700 |ddv_scf|^2 =  8.682E-09

      iter #   4 total cpu time :    81.6 secs   av.it.:   9.1
      thresh= 9.318E-06 alpha_mix =  0.700 |ddv_scf|^2 =  2.277E-11

      iter #   5 total cpu time :    81.9 secs   av.it.:   9.1
      thresh= 4.772E-07 alpha_mix =  0.700 |ddv_scf|^2 =  6.676E-13

     End of self-consistent calculation

     Convergence has been achieved 


     Representation #  2 modes #   3  4

     Self-consistent Calculation

      iter #   1 total cpu time :    82.1 secs   av.it.:   5.2
      thresh= 1.000E-02 alpha_mix =  0.700 |ddv_scf|^2 =  9.643E-06

      iter #   2 total cpu time :    82.5 secs   av.it.:   9.9
      thresh= 3.105E-04 alpha_mix =  0.700 |ddv_scf|^2 =  1.328E-05

      iter #   3 total cpu time :    83.0 secs   av.it.:   9.1
      thresh= 3.644E-04 alpha_mix =  0.700 |ddv_scf|^2 =  1.045E-08

      iter #   4 total cpu time :    83.3 secs   av.it.:   8.9
      thresh= 1.022E-05 alpha_mix =  0.700 |ddv_scf|^2 =  1.050E-10

      iter #   5 total cpu time :    83.6 secs   av.it.:   9.5
      thresh= 1.024E-06 alpha_mix =  0.700 |ddv_scf|^2 =  1.951E-12

      iter #   6 total cpu time :    83.9 secs   av.it.:   9.2
      thresh= 1.397E-07 alpha_mix =  0.700 |ddv_scf|^2 =  1.616E-14

     End of self-consistent calculation

     Convergence has been achieved 


     Representation #  3 modes #   5  6

     Self-consistent Calculation

      iter #   1 total cpu time :    84.2 secs   av.it.:   5.1
      thresh= 1.000E-02 alpha_mix =  0.700 |ddv_scf|^2 =  2.595E-06

      iter #   2 total cpu time :    84.5 secs   av.it.:   9.7
      thresh= 1.611E-04 alpha_mix =  0.700 |ddv_scf|^2 =  1.409E-06

      iter #   3 total cpu time :    85.0 secs   av.it.:   9.1
      thresh= 1.187E-04 alpha_mix =  0.700 |ddv_scf|^2 =  8.330E-09

      iter #   4 total cpu time :    85.3 secs   av.it.:   8.8
      thresh= 9.127E-06 alpha_mix =  0.700 |ddv_scf|^2 =  4.606E-11

      iter #   5 total cpu time :    85.6 secs   av.it.:   9.1
      thresh= 6.787E-07 alpha_mix =  0.700 |ddv_scf|^2 =  7.215E-13

     End of self-consistent calculation

     Convergence has been achieved 

     Number of q in the star =    6
     List of q in the star:
          1  -0.500000000  -1.000000000   0.000000000
          2   0.000000000   1.000000000   0.500000000
          3   0.000000000  -1.000000000  -0.500000000
          4   0.500000000   1.000000000   0.000000000
          5  -1.000000000  -0.500000000   0.000000000
          6   0.000000000  -0.500000000  -1.000000000

     Diagonalizing the dynamical matrix

     q = (   -0.500000000  -1.000000000   0.000000000 ) 

 **************************************************************************
     freq (    1) =       7.879641 [THz] =     262.836521 [cm-1]
     freq (    2) =       7.879641 [THz] =     262.836521 [cm-1]
     freq (    3) =      10.940408 [THz] =     364.932739 [cm-1]
     freq (    4) =      10.940408 [THz] =     364.932739 [cm-1]
     freq (    5) =      13.560787 [THz] =     452.339165 [cm-1]
     freq (    6) =      13.560787 [THz] =     452.339165 [cm-1]
 **************************************************************************

     init_run     :      0.53s CPU      0.54s WALL (       7 calls)
     electrons    :      4.90s CPU      5.34s WALL (       7 calls)

     Called by init_run:
     wfcinit      :      0.00s CPU      0.00s WALL (       7 calls)
     potinit      :      0.02s CPU      0.02s WALL (       7 calls)

     Called by electrons:
     c_bands      :      4.90s CPU      5.33s WALL (       7 calls)
     v_of_rho     :      0.01s CPU      0.01s WALL (       8 calls)
     newd         :      0.03s CPU      0.03s WALL (       8 calls)

     Called by c_bands:
     init_us_2    :      0.69s CPU      0.75s WALL (   17588 calls)
     cegterg      :      4.16s CPU      4.54s WALL (     796 calls)

     Called by sum_band:

     Called by *egterg:
     h_psi        :     43.88s CPU     46.86s WALL (  152434 calls)
     s_psi        :      5.90s CPU      6.31s WALL (  309588 calls)
     g_psi        :      0.03s CPU      0.03s WALL (    9268 calls)
     cdiaghg      :      0.49s CPU      0.56s WALL (   10064 calls)

     Called by h_psi:
     h_psi:pot    :     43.69s CPU     46.66s WALL (  152434 calls)
     h_psi:calbec :      4.53s CPU      4.91s WALL (  152434 calls)
     vloc_psi     :     35.99s CPU     38.38s WALL (  152434 calls)
     add_vuspsi   :      2.95s CPU      3.15s WALL (  152434 calls)

     General routines
     calbec       :      9.95s CPU     10.81s WALL (  345960 calls)
     fft          :      0.29s CPU      0.31s WALL (    5239 calls)
     ffts         :      0.14s CPU      0.14s WALL (    2748 calls)
     fftw         :     42.17s CPU     45.08s WALL ( 1379748 calls)
     davcio       :      0.32s CPU      0.35s WALL (   79045 calls)

     Parallel routines
     fft_scatter  :      9.92s CPU     10.98s WALL ( 1387735 calls)

     PHONON       :  1m19.91s CPU     1m25.60s WALL

     INITIALIZATION: 
     phq_setup    :      0.05s CPU      0.05s WALL (       8 calls)
     phq_init     :      1.92s CPU      1.97s WALL (       8 calls)

     phq_init     :      1.92s CPU      1.97s WALL (       8 calls)
     set_drhoc    :      0.30s CPU      0.30s WALL (      24 calls)
     init_vloc    :      0.01s CPU      0.01s WALL (       8 calls)
     init_us_1    :      0.48s CPU      0.48s WALL (       8 calls)
     newd         :      0.03s CPU      0.03s WALL (       8 calls)
     dvanqq       :      0.24s CPU      0.24s WALL (       8 calls)
     drho         :      0.97s CPU      1.01s WALL (       8 calls)

     DYNAMICAL MATRIX:
     dynmat0      :      0.49s CPU      0.49s WALL (       8 calls)
     phqscf       :     69.99s CPU     74.99s WALL (       8 calls)
     dynmatrix    :      0.01s CPU      0.02s WALL (       8 calls)

     phqscf       :     69.99s CPU     74.99s WALL (       8 calls)
     solve_linter :     69.31s CPU     74.27s WALL (      32 calls)
     drhodv       :      0.48s CPU      0.51s WALL (      32 calls)

     dynmat0      :      0.49s CPU      0.49s WALL (       8 calls)
     dynmat_us    :      0.27s CPU      0.27s WALL (       8 calls)
     d2ionq       :      0.01s CPU      0.01s WALL (       8 calls)
     dynmatcc     :      0.21s CPU      0.21s WALL (       8 calls)

     dynmat_us    :      0.27s CPU      0.27s WALL (       8 calls)
     addusdynmat  :      0.00s CPU      0.00s WALL (       8 calls)

     phqscf       :     69.99s CPU     74.99s WALL (       8 calls)
     solve_linter :     69.31s CPU     74.27s WALL (      32 calls)

     solve_linter :     69.31s CPU     74.27s WALL (      32 calls)
     dvqpsi_us    :      1.61s CPU      1.71s WALL (    2508 calls)
     ortho        :      1.04s CPU      1.14s WALL (   15550 calls)
     cgsolve      :     53.94s CPU     57.87s WALL (   15550 calls)
     incdrhoscf   :      4.98s CPU      5.43s WALL (   15550 calls)
     addusddens   :      1.12s CPU      1.14s WALL (     228 calls)
     vpsifft      :      3.75s CPU      4.01s WALL (   12922 calls)
     dv_of_drho   :      0.21s CPU      0.21s WALL (     295 calls)
     mix_pot      :      0.05s CPU      0.06s WALL (     201 calls)
     psymdvscf    :      0.81s CPU      0.84s WALL (     196 calls)
     newdq        :      1.20s CPU      1.25s WALL (     201 calls)
     adddvscf     :      0.47s CPU      0.50s WALL (   13042 calls)
     drhodvus     :      0.00s CPU      0.00s WALL (      32 calls)

     dvqpsi_us    :      1.61s CPU      1.71s WALL (    2508 calls)
     dvqpsi_us_on :      0.82s CPU      0.87s WALL (    2508 calls)

     cgsolve      :     53.94s CPU     57.87s WALL (   15550 calls)
     ch_psi       :     52.14s CPU     55.86s WALL (  141574 calls)

     ch_psi       :     52.14s CPU     55.86s WALL (  141574 calls)
     h_psi        :     43.88s CPU     46.86s WALL (  152434 calls)
     last         :      8.50s CPU      9.29s WALL (  141574 calls)

     h_psi        :     43.88s CPU     46.86s WALL (  152434 calls)
     add_vuspsi   :      2.95s CPU      3.15s WALL (  152434 calls)

     incdrhoscf   :      4.98s CPU      5.43s WALL (   15550 calls)
     addusdbec    :      0.73s CPU      0.80s WALL (   17998 calls)

     drhodvus     :      0.00s CPU      0.00s WALL (      32 calls)

      General routines
     calbec       :      9.95s CPU     10.81s WALL (  345960 calls)
     fft          :      0.29s CPU      0.31s WALL (    5239 calls)
     ffts         :      0.14s CPU      0.14s WALL (    2748 calls)
     fftw         :     42.17s CPU     45.08s WALL ( 1379748 calls)
     davcio       :      0.32s CPU      0.35s WALL (   79045 calls)
     write_rec    :      0.20s CPU      0.22s WALL (     233 calls)


     PHONON       :  1m19.91s CPU     1m25.60s WALL


   This run was terminated on:   1:39:55   9Nov2017            

=------------------------------------------------------------------------------=
   JOB DONE.
=------------------------------------------------------------------------------=
