
     Program PHONON v.6.1 (svn rev. 13369) starts on  9Nov2017 at 12:54:51 

     This program is part of the open-source Quantum ESPRESSO suite
     for quantum simulation of materials; please cite
         "P. Giannozzi et al., J. Phys.:Condens. Matter 21 395502 (2009);
          URL http://www.quantum-espresso.org", 
     in publications or presentations arising from this work. More details at
     http://www.quantum-espresso.org/quote

     Parallel version (MPI), running on     4 processors
     R & G space division:  proc/nbgrp/npool/nimage =       4

     Reading data from directory:
     ./silicon.10.350.save

   Info: using nr1, nr2, nr3 values from input

   Info: using nr1, nr2, nr3 values from input

     IMPORTANT: XC functional enforced from input :
     Exchange-correlation      = SLA  PW   PBE  PBE ( 1  4  3  4 0 0)
     Any further DFT definition will be discarded
     Please, verify this is what you really want


     Parallelization info
     --------------------
     sticks:   dense  smooth     PW     G-vecs:    dense   smooth      PW
     Min          64      64     22                  709      709     140
     Max          67      67     23                  710      710     141
     Sum         265     265     91                 2837     2837     561


     Check: negative/imaginary core charge=   -0.000006    0.000000


     Dynamical matrices for ( 4, 4, 4)  uniform grid of q-points
     (   8q-points):
       N         xq(1)         xq(2)         xq(3) 
       1   0.000000000   0.000000000   0.000000000
       2  -0.250000000   0.250000000  -0.250000000
       3   0.500000000  -0.500000000   0.500000000
       4   0.000000000   0.500000000   0.000000000
       5   0.750000000  -0.250000000   0.750000000
       6   0.500000000   0.000000000   0.500000000
       7   0.000000000  -1.000000000   0.000000000
       8  -0.500000000  -1.000000000   0.000000000

     Calculation of q =    0.0000000   0.0000000   0.0000000

                                                                                

     bravais-lattice index     =            2
     lattice parameter (alat)  =      10.3500  a.u.
     unit-cell volume          =     277.1795 (a.u.)^3
     number of atoms/cell      =            2
     number of atomic types    =            1
     kinetic-energy cut-off    =      18.0000  Ry
     charge density cut-off    =      72.0000  Ry
     convergence threshold     =      1.0E-12
     beta                      =       0.7000
     number of iterations used =            4
     Exchange-correlation      = SLA  PW   PBE  PBE ( 1  4  3  4 0 0)


     celldm(1)=   10.35000  celldm(2)=    0.00000  celldm(3)=    0.00000
     celldm(4)=    0.00000  celldm(5)=    0.00000  celldm(6)=    0.00000

     crystal axes: (cart. coord. in units of alat)
               a(1) = ( -0.5000  0.0000  0.5000 )  
               a(2) = (  0.0000  0.5000  0.5000 )  
               a(3) = ( -0.5000  0.5000  0.0000 )  

     reciprocal axes: (cart. coord. in units 2 pi/alat)
               b(1) = ( -1.0000 -1.0000  1.0000 )  
               b(2) = (  1.0000  1.0000  1.0000 )  
               b(3) = ( -1.0000  1.0000 -1.0000 )  


     Atoms inside the unit cell: 

     Cartesian axes

     site n.  atom      mass           positions (alat units)
        1     Si  28.0860   tau(    1) = (    0.00000    0.00000    0.00000  )
        2     Si  28.0860   tau(    2) = (    0.25000    0.25000    0.25000  )

     Computing dynamical matrix for 
                    q = (   0.0000000   0.0000000   0.0000000 )

     49 Sym.Ops. (with q -> -q+G )


     G cutoff =  195.3680  (    710 G-vectors)     FFT grid: ( 20, 20, 20)
     number of k points=    10

     PseudoPot. # 1 for Si read from file:
     /home/max/quantum_espresso/qe-6.1/pseudo/si_pbe_v1.uspp.F.UPF.txt
     MD5 check sum: a056efeee980c13900f22a371efd63c1
     Pseudo is Ultrasoft + core correction, Zval =  4.0
     Generated by new atomic code, or converted to UPF format
     Using radial grid of  899 points,  6 beta functions with: 
                l(1) =   0
                l(2) =   0
                l(3) =   1
                l(4) =   1
                l(5) =   2
                l(6) =   2
     Q(r) pseudized with  8 coefficients,  rinner =    0.900   0.900   0.900
                                                       0.900   0.900

     Mode symmetry, O_h (m-3m)  point group:


     Electric field:
     Dielectric constant
     Born effective charges in two ways 


     Atomic displacements:
     There are   2 irreducible representations

     Representation     1      3 modes -T_2g G_25' G_5+  To be done

     Representation     2      3 modes -T_1u G_15  G_4-  To be done



     Alpha used in Ewald sum =   0.7000
     PHONON       :     0.41s CPU         0.43s WALL


     Electric Fields Calculation

      iter #   1 total cpu time :     1.1 secs   av.it.:   5.6
      thresh= 1.000E-02 alpha_mix =  0.700 |ddv_scf|^2 =  9.376E-07

      iter #   2 total cpu time :     1.2 secs   av.it.:   9.9
      thresh= 9.683E-05 alpha_mix =  0.700 |ddv_scf|^2 =  5.989E-08

      iter #   3 total cpu time :     1.5 secs   av.it.:   9.8
      thresh= 2.447E-05 alpha_mix =  0.700 |ddv_scf|^2 =  4.716E-09

      iter #   4 total cpu time :     1.6 secs   av.it.:   9.0
      thresh= 6.867E-06 alpha_mix =  0.700 |ddv_scf|^2 =  2.833E-11

      iter #   5 total cpu time :     1.8 secs   av.it.:   9.1
      thresh= 5.323E-07 alpha_mix =  0.700 |ddv_scf|^2 =  1.468E-14

     End of electric fields calculation

          Dielectric constant in cartesian axis 

          (      13.905649907      -0.000000000      -0.000000000 )
          (      -0.000000000      13.905649907       0.000000000 )
          (       0.000000000       0.000000000      13.905649907 )

          Effective charges (d Force / dE) in cartesian axis

           atom      1   Si 
      Ex  (       -0.03545        0.00000        0.00000 )
      Ey  (        0.00000       -0.03545        0.00000 )
      Ez  (       -0.00000       -0.00000       -0.03545 )
           atom      2   Si 
      Ex  (       -0.03545       -0.00000       -0.00000 )
      Ey  (       -0.00000       -0.03545        0.00000 )
      Ez  (       -0.00000        0.00000       -0.03545 )


     Representation #  1 modes #   1  2  3

     Self-consistent Calculation

      iter #   1 total cpu time :     2.3 secs   av.it.:   4.9
      thresh= 1.000E-02 alpha_mix =  0.700 |ddv_scf|^2 =  2.240E-07

      iter #   2 total cpu time :     2.5 secs   av.it.:   9.8
      thresh= 4.732E-05 alpha_mix =  0.700 |ddv_scf|^2 =  1.388E-08

      iter #   3 total cpu time :     2.8 secs   av.it.:   9.2
      thresh= 1.178E-05 alpha_mix =  0.700 |ddv_scf|^2 =  8.612E-10

      iter #   4 total cpu time :     3.0 secs   av.it.:   9.0
      thresh= 2.935E-06 alpha_mix =  0.700 |ddv_scf|^2 =  1.907E-12

      iter #   5 total cpu time :     3.2 secs   av.it.:   9.5
      thresh= 1.381E-07 alpha_mix =  0.700 |ddv_scf|^2 =  1.345E-14

     End of self-consistent calculation

     Convergence has been achieved 


     Representation #  2 modes #   4  5  6

     Self-consistent Calculation

      iter #   1 total cpu time :     3.5 secs   av.it.:   5.0
      thresh= 1.000E-02 alpha_mix =  0.700 |ddv_scf|^2 =  1.856E-07

      iter #   2 total cpu time :     3.7 secs   av.it.:   9.6
      thresh= 4.308E-05 alpha_mix =  0.700 |ddv_scf|^2 =  1.508E-08

      iter #   3 total cpu time :     3.9 secs   av.it.:   9.3
      thresh= 1.228E-05 alpha_mix =  0.700 |ddv_scf|^2 =  9.159E-10

      iter #   4 total cpu time :     4.1 secs   av.it.:   9.5
      thresh= 3.026E-06 alpha_mix =  0.700 |ddv_scf|^2 =  5.345E-12

      iter #   5 total cpu time :     4.3 secs   av.it.:   9.0
      thresh= 2.312E-07 alpha_mix =  0.700 |ddv_scf|^2 =  4.698E-15

     End of self-consistent calculation

     Convergence has been achieved 

     Number of q in the star =    1
     List of q in the star:
          1   0.000000000   0.000000000   0.000000000

          Dielectric constant in cartesian axis 

          (      13.905649907      -0.000000000      -0.000000000 )
          (      -0.000000000      13.905649907       0.000000000 )
          (       0.000000000       0.000000000      13.905649907 )

          Effective charges (d Force / dE) in cartesian axis

           atom      1   Si 
      Ex  (       -0.03545        0.00000        0.00000 )
      Ey  (        0.00000       -0.03545        0.00000 )
      Ez  (       -0.00000       -0.00000       -0.03545 )
           atom      2   Si 
      Ex  (       -0.03545       -0.00000       -0.00000 )
      Ey  (       -0.00000       -0.03545        0.00000 )
      Ez  (       -0.00000        0.00000       -0.03545 )

          Effective charges (d P / du) in cartesian axis 

           atom      1   Si 
      Px  (       -0.07530        0.00000        0.00000 )
      Py  (        0.00000       -0.07530        0.00000 )
      Pz  (        0.00000       -0.00000       -0.07530 )
           atom      2   Si 
      Px  (       -0.07530       -0.00000       -0.00000 )
      Py  (       -0.00000       -0.07530        0.00000 )
      Pz  (       -0.00000        0.00000       -0.07530 )

     Diagonalizing the dynamical matrix

     q = (    0.000000000   0.000000000   0.000000000 ) 

 **************************************************************************
     freq (    1) =       1.889228 [THz] =      63.017879 [cm-1]
     freq (    2) =       1.889228 [THz] =      63.017879 [cm-1]
     freq (    3) =       1.889228 [THz] =      63.017879 [cm-1]
     freq (    4) =      15.317980 [THz] =     510.952810 [cm-1]
     freq (    5) =      15.317980 [THz] =     510.952810 [cm-1]
     freq (    6) =      15.317980 [THz] =     510.952810 [cm-1]
 **************************************************************************

     Mode symmetry, O_h (m-3m)  point group:

     freq (  1 -  3) =         63.0  [cm-1]   --> T_1u G_15  G_4- I  
     freq (  4 -  6) =        511.0  [cm-1]   --> T_2g G_25' G_5+ R  

     Calculation of q =   -0.2500000   0.2500000  -0.2500000

   Info: using nr1, nr2, nr3 values from input

   Info: using nr1, nr2, nr3 values from input

     Parallelization info
     --------------------
     sticks:   dense  smooth     PW     G-vecs:    dense   smooth      PW
     Min          64      64     24                  709      709     161
     Max          67      67     25                  710      710     162
     Sum         265     265     97                 2837     2837     645



     bravais-lattice index     =            2
     lattice parameter (alat)  =      10.3500  a.u.
     unit-cell volume          =     277.1795 (a.u.)^3
     number of atoms/cell      =            2
     number of atomic types    =            1
     number of electrons       =         8.00
     number of Kohn-Sham states=            4
     kinetic-energy cutoff     =      18.0000  Ry
     charge density cutoff     =      72.0000  Ry
     Exchange-correlation      = SLA  PW   PBE  PBE ( 1  4  3  4 0 0)

     celldm(1)=  10.350000  celldm(2)=   0.000000  celldm(3)=   0.000000
     celldm(4)=   0.000000  celldm(5)=   0.000000  celldm(6)=   0.000000

     crystal axes: (cart. coord. in units of alat)
               a(1) = (  -0.500000   0.000000   0.500000 )  
               a(2) = (   0.000000   0.500000   0.500000 )  
               a(3) = (  -0.500000   0.500000   0.000000 )  

     reciprocal axes: (cart. coord. in units 2 pi/alat)
               b(1) = ( -1.000000 -1.000000  1.000000 )  
               b(2) = (  1.000000  1.000000  1.000000 )  
               b(3) = ( -1.000000  1.000000 -1.000000 )  


     PseudoPot. # 1 for Si read from file:
     /home/max/quantum_espresso/qe-6.1/pseudo/si_pbe_v1.uspp.F.UPF.txt
     MD5 check sum: a056efeee980c13900f22a371efd63c1
     Pseudo is Ultrasoft + core correction, Zval =  4.0
     Generated by new atomic code, or converted to UPF format
     Using radial grid of  899 points,  6 beta functions with: 
                l(1) =   0
                l(2) =   0
                l(3) =   1
                l(4) =   1
                l(5) =   2
                l(6) =   2
     Q(r) pseudized with  8 coefficients,  rinner =    0.900   0.900   0.900
                                                       0.900   0.900

     atomic species   valence    mass     pseudopotential
        Si             4.00    28.08600     Si( 1.00)

     48 Sym. Ops., with inversion, found



   Cartesian axes

     site n.     atom                  positions (alat units)
         1           Si  tau(   1) = (   0.0000000   0.0000000   0.0000000  )
         2           Si  tau(   2) = (   0.2500000   0.2500000   0.2500000  )

     number of k points=   120

     Number of k-points >= 100: set verbosity='high' to print them.

     Dense  grid:     2837 G-vectors     FFT dimensions: (  20,  20,  20)

     Estimated max dynamical RAM per process >       0.33MB

     Estimated total allocated dynamical RAM >       1.32MB

     Check: negative/imaginary core charge=   -0.000006    0.000000

     The potential is recalculated from file :
     ./_ph0/silicon.10.350.save/charge-density.dat

     Starting wfc are    8 atomic wfcs

     Band Structure Calculation
     Davidson diagonalization with overlap

     ethr =  1.25E-10,  avg # of iterations = 11.7

     total cpu time spent up to now is        1.0 secs

     End of band structure calculation

     Number of k-points >= 100: set verbosity='high' to print the bands.

     highest occupied level (ev):     5.6526

     Writing output data file silicon.10.350.save

                                                                                

     bravais-lattice index     =            2
     lattice parameter (alat)  =      10.3500  a.u.
     unit-cell volume          =     277.1795 (a.u.)^3
     number of atoms/cell      =            2
     number of atomic types    =            1
     kinetic-energy cut-off    =      18.0000  Ry
     charge density cut-off    =      72.0000  Ry
     convergence threshold     =      1.0E-12
     beta                      =       0.7000
     number of iterations used =            4
     Exchange-correlation      = SLA  PW   PBE  PBE ( 1  4  3  4 0 0)


     celldm(1)=   10.35000  celldm(2)=    0.00000  celldm(3)=    0.00000
     celldm(4)=    0.00000  celldm(5)=    0.00000  celldm(6)=    0.00000

     crystal axes: (cart. coord. in units of alat)
               a(1) = ( -0.5000  0.0000  0.5000 )  
               a(2) = (  0.0000  0.5000  0.5000 )  
               a(3) = ( -0.5000  0.5000  0.0000 )  

     reciprocal axes: (cart. coord. in units 2 pi/alat)
               b(1) = ( -1.0000 -1.0000  1.0000 )  
               b(2) = (  1.0000  1.0000  1.0000 )  
               b(3) = ( -1.0000  1.0000 -1.0000 )  


     Atoms inside the unit cell: 

     Cartesian axes

     site n.  atom      mass           positions (alat units)
        1     Si  28.0860   tau(    1) = (    0.00000    0.00000    0.00000  )
        2     Si  28.0860   tau(    2) = (    0.25000    0.25000    0.25000  )

     Computing dynamical matrix for 
                    q = (  -0.2500000   0.2500000  -0.2500000 )

      6 Sym.Ops. (no q -> -q+G )


     G cutoff =  195.3680  (    710 G-vectors)     FFT grid: ( 20, 20, 20)
     number of k points=   120

     PseudoPot. # 1 for Si read from file:
     /home/max/quantum_espresso/qe-6.1/pseudo/si_pbe_v1.uspp.F.UPF.txt
     MD5 check sum: a056efeee980c13900f22a371efd63c1
     Pseudo is Ultrasoft + core correction, Zval =  4.0
     Generated by new atomic code, or converted to UPF format
     Using radial grid of  899 points,  6 beta functions with: 
                l(1) =   0
                l(2) =   0
                l(3) =   1
                l(4) =   1
                l(5) =   2
                l(6) =   2
     Q(r) pseudized with  8 coefficients,  rinner =    0.900   0.900   0.900
                                                       0.900   0.900

     Mode symmetry, C_3v (3m)   point group:


     Atomic displacements:
     There are   4 irreducible representations

     Representation     1      1 modes -A_1  L_1  To be done

     Representation     2      1 modes -A_1  L_1  To be done

     Representation     3      2 modes -E    L_3  To be done

     Representation     4      2 modes -E    L_3  To be done



     Alpha used in Ewald sum =   0.7000
     PHONON       :     5.42s CPU         5.85s WALL



     Representation #  1 mode #   1

     Self-consistent Calculation

      iter #   1 total cpu time :     6.1 secs   av.it.:   5.5
      thresh= 1.000E-02 alpha_mix =  0.700 |ddv_scf|^2 =  2.460E-03

      iter #   2 total cpu time :     6.4 secs   av.it.:   7.5
      thresh= 4.960E-03 alpha_mix =  0.700 |ddv_scf|^2 =  3.720E-02

      iter #   3 total cpu time :     6.8 secs   av.it.:   6.3
      thresh= 1.000E-02 alpha_mix =  0.700 |ddv_scf|^2 =  1.708E-06

      iter #   4 total cpu time :     7.1 secs   av.it.:   8.2
      thresh= 1.307E-04 alpha_mix =  0.700 |ddv_scf|^2 =  1.155E-07

      iter #   5 total cpu time :     7.4 secs   av.it.:   8.1
      thresh= 3.398E-05 alpha_mix =  0.700 |ddv_scf|^2 =  4.754E-09

      iter #   6 total cpu time :     7.7 secs   av.it.:   8.0
      thresh= 6.895E-06 alpha_mix =  0.700 |ddv_scf|^2 =  4.200E-09

      iter #   7 total cpu time :     8.0 secs   av.it.:   6.2
      thresh= 6.481E-06 alpha_mix =  0.700 |ddv_scf|^2 =  5.032E-10

      iter #   8 total cpu time :     8.2 secs   av.it.:   7.2
      thresh= 2.243E-06 alpha_mix =  0.700 |ddv_scf|^2 =  4.097E-12

      iter #   9 total cpu time :     8.5 secs   av.it.:   7.1
      thresh= 2.024E-07 alpha_mix =  0.700 |ddv_scf|^2 =  1.777E-13

     End of self-consistent calculation

     Convergence has been achieved 


     Representation #  2 mode #   2

     Self-consistent Calculation

      iter #   1 total cpu time :     9.0 secs   av.it.:   5.5
      thresh= 1.000E-02 alpha_mix =  0.700 |ddv_scf|^2 =  2.460E-03

      iter #   2 total cpu time :     9.3 secs   av.it.:   7.5
      thresh= 4.960E-03 alpha_mix =  0.700 |ddv_scf|^2 =  3.720E-02

      iter #   3 total cpu time :     9.5 secs   av.it.:   6.3
      thresh= 1.000E-02 alpha_mix =  0.700 |ddv_scf|^2 =  1.708E-06

      iter #   4 total cpu time :     9.8 secs   av.it.:   8.2
      thresh= 1.307E-04 alpha_mix =  0.700 |ddv_scf|^2 =  1.155E-07

      iter #   5 total cpu time :    10.1 secs   av.it.:   8.1
      thresh= 3.398E-05 alpha_mix =  0.700 |ddv_scf|^2 =  4.754E-09

      iter #   6 total cpu time :    10.5 secs   av.it.:   8.0
      thresh= 6.895E-06 alpha_mix =  0.700 |ddv_scf|^2 =  4.200E-09

      iter #   7 total cpu time :    10.9 secs   av.it.:   6.2
      thresh= 6.481E-06 alpha_mix =  0.700 |ddv_scf|^2 =  5.032E-10

      iter #   8 total cpu time :    11.1 secs   av.it.:   7.2
      thresh= 2.243E-06 alpha_mix =  0.700 |ddv_scf|^2 =  4.097E-12

      iter #   9 total cpu time :    11.4 secs   av.it.:   7.1
      thresh= 2.024E-07 alpha_mix =  0.700 |ddv_scf|^2 =  1.777E-13

     End of self-consistent calculation

     Convergence has been achieved 


     Representation #  3 modes #   3  4

     Self-consistent Calculation

      iter #   1 total cpu time :    11.9 secs   av.it.:   5.0
      thresh= 1.000E-02 alpha_mix =  0.700 |ddv_scf|^2 =  5.722E-07

      iter #   2 total cpu time :    12.7 secs   av.it.:   9.5
      thresh= 7.565E-05 alpha_mix =  0.700 |ddv_scf|^2 =  4.308E-08

      iter #   3 total cpu time :    13.6 secs   av.it.:   9.2
      thresh= 2.075E-05 alpha_mix =  0.700 |ddv_scf|^2 =  3.730E-09

      iter #   4 total cpu time :    14.3 secs   av.it.:   8.9
      thresh= 6.108E-06 alpha_mix =  0.700 |ddv_scf|^2 =  1.120E-11

      iter #   5 total cpu time :    15.1 secs   av.it.:   9.2
      thresh= 3.347E-07 alpha_mix =  0.700 |ddv_scf|^2 =  4.993E-13

     End of self-consistent calculation

     Convergence has been achieved 


     Representation #  4 modes #   5  6

     Self-consistent Calculation

      iter #   1 total cpu time :    15.6 secs   av.it.:   5.0
      thresh= 1.000E-02 alpha_mix =  0.700 |ddv_scf|^2 =  5.721E-07

      iter #   2 total cpu time :    16.3 secs   av.it.:   9.6
      thresh= 7.564E-05 alpha_mix =  0.700 |ddv_scf|^2 =  4.304E-08

      iter #   3 total cpu time :    17.2 secs   av.it.:   9.4
      thresh= 2.075E-05 alpha_mix =  0.700 |ddv_scf|^2 =  3.727E-09

      iter #   4 total cpu time :    17.8 secs   av.it.:   9.1
      thresh= 6.105E-06 alpha_mix =  0.700 |ddv_scf|^2 =  1.121E-11

      iter #   5 total cpu time :    18.5 secs   av.it.:   9.3
      thresh= 3.348E-07 alpha_mix =  0.700 |ddv_scf|^2 =  4.997E-13

     End of self-consistent calculation

     Convergence has been achieved 

     Number of q in the star =    8
     List of q in the star:
          1  -0.250000000   0.250000000  -0.250000000
          2   0.250000000  -0.250000000  -0.250000000
          3   0.250000000  -0.250000000   0.250000000
          4   0.250000000   0.250000000   0.250000000
          5  -0.250000000  -0.250000000  -0.250000000
          6  -0.250000000  -0.250000000   0.250000000
          7  -0.250000000   0.250000000   0.250000000
          8   0.250000000   0.250000000  -0.250000000

     Diagonalizing the dynamical matrix

     q = (   -0.250000000   0.250000000  -0.250000000 ) 

 **************************************************************************
     freq (    1) =       3.398787 [THz] =     113.371317 [cm-1]
     freq (    2) =       3.398787 [THz] =     113.371317 [cm-1]
     freq (    3) =       6.908055 [THz] =     230.427900 [cm-1]
     freq (    4) =      14.397926 [THz] =     480.263117 [cm-1]
     freq (    5) =      14.703324 [THz] =     490.450083 [cm-1]
     freq (    6) =      14.703324 [THz] =     490.450083 [cm-1]
 **************************************************************************

     Mode symmetry, C_3v (3m)   point group:

     freq (  1 -  2) =        113.4  [cm-1]   --> E    L_3           
     freq (  3 -  3) =        230.4  [cm-1]   --> A_1  L_1           
     freq (  4 -  4) =        480.3  [cm-1]   --> A_1  L_1           
     freq (  5 -  6) =        490.5  [cm-1]   --> E    L_3           

     Calculation of q =    0.5000000  -0.5000000   0.5000000

   Info: using nr1, nr2, nr3 values from input

   Info: using nr1, nr2, nr3 values from input

     Parallelization info
     --------------------
     sticks:   dense  smooth     PW     G-vecs:    dense   smooth      PW
     Min          64      64     27                  709      709     186
     Max          67      67     28                  710      710     189
     Sum         265     265    109                 2837     2837     749



     bravais-lattice index     =            2
     lattice parameter (alat)  =      10.3500  a.u.
     unit-cell volume          =     277.1795 (a.u.)^3
     number of atoms/cell      =            2
     number of atomic types    =            1
     number of electrons       =         8.00
     number of Kohn-Sham states=            4
     kinetic-energy cutoff     =      18.0000  Ry
     charge density cutoff     =      72.0000  Ry
     Exchange-correlation      = SLA  PW   PBE  PBE ( 1  4  3  4 0 0)

     celldm(1)=  10.350000  celldm(2)=   0.000000  celldm(3)=   0.000000
     celldm(4)=   0.000000  celldm(5)=   0.000000  celldm(6)=   0.000000

     crystal axes: (cart. coord. in units of alat)
               a(1) = (  -0.500000   0.000000   0.500000 )  
               a(2) = (   0.000000   0.500000   0.500000 )  
               a(3) = (  -0.500000   0.500000   0.000000 )  

     reciprocal axes: (cart. coord. in units 2 pi/alat)
               b(1) = ( -1.000000 -1.000000  1.000000 )  
               b(2) = (  1.000000  1.000000  1.000000 )  
               b(3) = ( -1.000000  1.000000 -1.000000 )  


     PseudoPot. # 1 for Si read from file:
     /home/max/quantum_espresso/qe-6.1/pseudo/si_pbe_v1.uspp.F.UPF.txt
     MD5 check sum: a056efeee980c13900f22a371efd63c1
     Pseudo is Ultrasoft + core correction, Zval =  4.0
     Generated by new atomic code, or converted to UPF format
     Using radial grid of  899 points,  6 beta functions with: 
                l(1) =   0
                l(2) =   0
                l(3) =   1
                l(4) =   1
                l(5) =   2
                l(6) =   2
     Q(r) pseudized with  8 coefficients,  rinner =    0.900   0.900   0.900
                                                       0.900   0.900

     atomic species   valence    mass     pseudopotential
        Si             4.00    28.08600     Si( 1.00)

     48 Sym. Ops., with inversion, found



   Cartesian axes

     site n.     atom                  positions (alat units)
         1           Si  tau(   1) = (   0.0000000   0.0000000   0.0000000  )
         2           Si  tau(   2) = (   0.2500000   0.2500000   0.2500000  )

     number of k points=    60
                       cart. coord. in units 2pi/alat
        k(    1) = (  -0.1250000   0.1250000   0.1250000), wk =   0.0468750
        k(    2) = (   0.3750000  -0.3750000   0.6250000), wk =   0.0000000
        k(    3) = (  -0.3750000   0.3750000  -0.1250000), wk =   0.0468750
        k(    4) = (   0.1250000  -0.1250000   0.3750000), wk =   0.0000000
        k(    5) = (   0.3750000  -0.3750000   0.6250000), wk =   0.0468750
        k(    6) = (   0.8750000  -0.8750000   1.1250000), wk =   0.0000000
        k(    7) = (   0.1250000  -0.1250000   0.3750000), wk =   0.0468750
        k(    8) = (   0.6250000  -0.6250000   0.8750000), wk =   0.0000000
        k(    9) = (  -0.1250000   0.6250000   0.1250000), wk =   0.0937500
        k(   10) = (   0.3750000   0.1250000   0.6250000), wk =   0.0000000
        k(   11) = (   0.6250000  -0.1250000   0.8750000), wk =   0.0937500
        k(   12) = (   1.1250000  -0.6250000   1.3750000), wk =   0.0000000
        k(   13) = (   0.3750000   0.1250000   0.6250000), wk =   0.0937500
        k(   14) = (   0.8750000  -0.3750000   1.1250000), wk =   0.0000000
        k(   15) = (  -0.1250000  -0.8750000   0.1250000), wk =   0.0937500
        k(   16) = (   0.3750000  -1.3750000   0.6250000), wk =   0.0000000
        k(   17) = (  -0.3750000   0.3750000   0.3750000), wk =   0.0468750
        k(   18) = (   0.1250000  -0.1250000   0.8750000), wk =   0.0000000
        k(   19) = (   0.3750000  -0.3750000   1.1250000), wk =   0.0468750
        k(   20) = (   0.8750000  -0.8750000   1.6250000), wk =   0.0000000
        k(   21) = (   0.1250000  -0.1250000   0.1250000), wk =   0.0156250
        k(   22) = (   0.6250000  -0.6250000   0.6250000), wk =   0.0000000
        k(   23) = (  -0.3750000  -0.3750000  -0.1250000), wk =   0.0937500
        k(   24) = (   0.1250000  -0.8750000   0.3750000), wk =   0.0000000
        k(   25) = (  -0.1250000  -0.3750000   0.3750000), wk =   0.0468750
        k(   26) = (   0.3750000  -0.8750000   0.8750000), wk =   0.0000000
        k(   27) = (   0.3750000   0.3750000   0.6250000), wk =   0.0937500
        k(   28) = (   0.8750000  -0.1250000   1.1250000), wk =   0.0000000
        k(   29) = (   0.6250000   0.3750000  -0.3750000), wk =   0.0468750
        k(   30) = (   1.1250000  -0.1250000   0.1250000), wk =   0.0000000
        k(   31) = (   0.1250000   0.1250000   0.3750000), wk =   0.0937500
        k(   32) = (   0.6250000  -0.3750000   0.8750000), wk =   0.0000000
        k(   33) = (   0.3750000   0.1250000  -0.1250000), wk =   0.0468750
        k(   34) = (   0.8750000  -0.3750000   0.3750000), wk =   0.0000000
        k(   35) = (  -0.1250000  -0.6250000  -0.1250000), wk =   0.0468750
        k(   36) = (   0.3750000  -1.1250000   0.3750000), wk =   0.0000000
        k(   37) = (   0.1250000  -0.6250000   0.1250000), wk =   0.0468750
        k(   38) = (   0.6250000  -1.1250000   0.6250000), wk =   0.0000000
        k(   39) = (   0.6250000   0.1250000   0.8750000), wk =   0.0937500
        k(   40) = (   1.1250000  -0.3750000   1.3750000), wk =   0.0000000
        k(   41) = (  -0.8750000   0.1250000   0.6250000), wk =   0.0937500
        k(   42) = (  -0.3750000  -0.3750000   1.1250000), wk =   0.0000000
        k(   43) = (   0.8750000   0.1250000  -0.6250000), wk =   0.0937500
        k(   44) = (   1.3750000  -0.3750000  -0.1250000), wk =   0.0000000
        k(   45) = (   0.3750000  -0.1250000   0.6250000), wk =   0.0937500
        k(   46) = (   0.8750000  -0.6250000   1.1250000), wk =   0.0000000
        k(   47) = (  -0.6250000  -0.1250000   0.3750000), wk =   0.0937500
        k(   48) = (  -0.1250000  -0.6250000   0.8750000), wk =   0.0000000
        k(   49) = (   0.6250000  -0.1250000  -0.3750000), wk =   0.0937500
        k(   50) = (   1.1250000  -0.6250000   0.1250000), wk =   0.0000000
        k(   51) = (  -0.1250000   0.8750000  -0.1250000), wk =   0.0468750
        k(   52) = (   0.3750000   0.3750000   0.3750000), wk =   0.0000000
        k(   53) = (   0.1250000   0.8750000   0.1250000), wk =   0.0468750
        k(   54) = (   0.6250000   0.3750000   0.6250000), wk =   0.0000000
        k(   55) = (   0.3750000  -0.3750000   0.3750000), wk =   0.0156250
        k(   56) = (   0.8750000  -0.8750000   0.8750000), wk =   0.0000000
        k(   57) = (   0.3750000   0.3750000   1.1250000), wk =   0.0937500
        k(   58) = (   0.8750000  -0.1250000   1.6250000), wk =   0.0000000
        k(   59) = (   1.1250000   0.3750000  -0.3750000), wk =   0.0468750
        k(   60) = (   1.6250000  -0.1250000   0.1250000), wk =   0.0000000

     Dense  grid:     2837 G-vectors     FFT dimensions: (  20,  20,  20)

     Estimated max dynamical RAM per process >       0.33MB

     Estimated total allocated dynamical RAM >       1.32MB

     Check: negative/imaginary core charge=   -0.000006    0.000000

     The potential is recalculated from file :
     ./_ph0/silicon.10.350.save/charge-density.dat

     Starting wfc are    8 atomic wfcs

     Band Structure Calculation
     Davidson diagonalization with overlap

     ethr =  1.25E-10,  avg # of iterations = 11.7

     total cpu time spent up to now is        1.8 secs

     End of band structure calculation

          k =-0.1250 0.1250 0.1250 (   344 PWs)   bands (ev):

    -5.6479   4.3434   5.6526   5.6526

          k = 0.3750-0.3750 0.6250 (   361 PWs)   bands (ev):

    -3.4995  -0.7026   3.6962   4.4061

          k =-0.3750 0.3750-0.1250 (   355 PWs)   bands (ev):

    -4.6283   1.3593   3.6798   5.1719

          k = 0.1250-0.1250 0.3750 (   353 PWs)   bands (ev):

    -5.1235   2.7276   4.6509   4.7118

          k = 0.3750-0.3750 0.6250 (   361 PWs)   bands (ev):

    -3.4995  -0.7026   3.6962   4.4061

          k = 0.8750-0.8750 1.1250 (   344 PWs)   bands (ev):

    -5.6479   4.3434   5.6526   5.6526

          k = 0.1250-0.1250 0.3750 (   353 PWs)   bands (ev):

    -5.1235   2.7276   4.6509   4.7118

          k = 0.6250-0.6250 0.8750 (   355 PWs)   bands (ev):

    -4.6283   1.3593   3.6798   5.1719

          k =-0.1250 0.6250 0.1250 (   351 PWs)   bands (ev):

    -4.0987   1.0170   3.3354   3.7816

          k = 0.3750 0.1250 0.6250 (   360 PWs)   bands (ev):

    -3.6873   0.1537   2.6973   4.0559

          k = 0.6250-0.1250 0.8750 (   361 PWs)   bands (ev):

    -2.4717  -0.9368   1.9954   3.0612

          k = 1.1250-0.6250 1.3750 (   355 PWs)   bands (ev):

    -4.6283   1.3593   3.6798   5.1719

          k = 0.3750 0.1250 0.6250 (   360 PWs)   bands (ev):

    -3.6873   0.1537   2.6973   4.0559

          k = 0.8750-0.3750 1.1250 (   351 PWs)   bands (ev):

    -4.0987   1.0170   3.3354   3.7816

          k =-0.1250-0.8750 0.1250 (   360 PWs)   bands (ev):

    -2.6364  -0.8407   2.5981   3.3169

          k = 0.3750-1.3750 0.6250 (   361 PWs)   bands (ev):

    -3.4995  -0.7026   3.6962   4.4061

          k =-0.3750 0.3750 0.3750 (   353 PWs)   bands (ev):

    -4.1996   0.0814   4.8672   4.8672

          k = 0.1250-0.1250 0.8750 (   360 PWs)   bands (ev):

    -2.6364  -0.8407   2.5981   3.3169

          k = 0.3750-0.3750 1.1250 (   363 PWs)   bands (ev):

    -3.0067  -0.6282   2.0502   4.0920

          k = 0.8750-0.8750 1.6250 (   351 PWs)   bands (ev):

    -4.0987   1.0170   3.3354   3.7816

          k = 0.1250-0.1250 0.1250 (   344 PWs)   bands (ev):

    -5.6479   4.3434   5.6526   5.6526

          k = 0.6250-0.6250 0.6250 (   353 PWs)   bands (ev):

    -4.1996   0.0814   4.8672   4.8672

          k =-0.3750-0.3750-0.1250 (   355 PWs)   bands (ev):

    -4.6283   1.3593   3.6798   5.1719

          k = 0.1250-0.8750 0.3750 (   361 PWs)   bands (ev):

    -2.4717  -0.9368   1.9954   3.0612

          k =-0.1250-0.3750 0.3750 (   355 PWs)   bands (ev):

    -4.6283   1.3593   3.6798   5.1719

          k = 0.3750-0.8750 0.8750 (   351 PWs)   bands (ev):

    -4.0987   1.0170   3.3354   3.7816

          k = 0.3750 0.3750 0.6250 (   361 PWs)   bands (ev):

    -3.4995  -0.7026   3.6962   4.4061

          k = 0.8750-0.1250 1.1250 (   360 PWs)   bands (ev):

    -2.6364  -0.8407   2.5981   3.3169

          k = 0.6250 0.3750-0.3750 (   361 PWs)   bands (ev):

    -3.4995  -0.7026   3.6962   4.4061

          k = 1.1250-0.1250 0.1250 (   360 PWs)   bands (ev):

    -2.6364  -0.8407   2.5981   3.3169

          k = 0.1250 0.1250 0.3750 (   353 PWs)   bands (ev):

    -5.1235   2.7276   4.6509   4.7118

          k = 0.6250-0.3750 0.8750 (   360 PWs)   bands (ev):

    -3.6873   0.1537   2.6973   4.0559

          k = 0.3750 0.1250-0.1250 (   353 PWs)   bands (ev):

    -5.1235   2.7276   4.6509   4.7118

          k = 0.8750-0.3750 0.3750 (   363 PWs)   bands (ev):

    -3.0067  -0.6282   2.0502   4.0920

          k =-0.1250-0.6250-0.1250 (   351 PWs)   bands (ev):

    -4.0987   1.0170   3.3354   3.7816

          k = 0.3750-1.1250 0.3750 (   363 PWs)   bands (ev):

    -3.0067  -0.6282   2.0502   4.0920

          k = 0.1250-0.6250 0.1250 (   351 PWs)   bands (ev):

    -4.0987   1.0170   3.3354   3.7816

          k = 0.6250-1.1250 0.6250 (   355 PWs)   bands (ev):

    -4.6283   1.3593   3.6798   5.1719

          k = 0.6250 0.1250 0.8750 (   361 PWs)   bands (ev):

    -2.4717  -0.9368   1.9954   3.0612

          k = 1.1250-0.3750 1.3750 (   360 PWs)   bands (ev):

    -3.6873   0.1537   2.6973   4.0559

          k =-0.8750 0.1250 0.6250 (   361 PWs)   bands (ev):

    -2.4717  -0.9368   1.9954   3.0612

          k =-0.3750-0.3750 1.1250 (   363 PWs)   bands (ev):

    -3.0067  -0.6282   2.0502   4.0920

          k = 0.8750 0.1250-0.6250 (   361 PWs)   bands (ev):

    -2.4717  -0.9368   1.9954   3.0612

          k = 1.3750-0.3750-0.1250 (   360 PWs)   bands (ev):

    -3.6873   0.1537   2.6973   4.0559

          k = 0.3750-0.1250 0.6250 (   360 PWs)   bands (ev):

    -3.6873   0.1537   2.6973   4.0559

          k = 0.8750-0.6250 1.1250 (   353 PWs)   bands (ev):

    -5.1235   2.7276   4.6509   4.7118

          k =-0.6250-0.1250 0.3750 (   360 PWs)   bands (ev):

    -3.6873   0.1537   2.6973   4.0559

          k =-0.1250-0.6250 0.8750 (   361 PWs)   bands (ev):

    -2.4717  -0.9368   1.9954   3.0612

          k = 0.6250-0.1250-0.3750 (   360 PWs)   bands (ev):

    -3.6873   0.1537   2.6973   4.0559

          k = 1.1250-0.6250 0.1250 (   361 PWs)   bands (ev):

    -2.4717  -0.9368   1.9954   3.0612

          k =-0.1250 0.8750-0.1250 (   360 PWs)   bands (ev):

    -2.6364  -0.8407   2.5981   3.3169

          k = 0.3750 0.3750 0.3750 (   353 PWs)   bands (ev):

    -4.1996   0.0814   4.8672   4.8672

          k = 0.1250 0.8750 0.1250 (   360 PWs)   bands (ev):

    -2.6364  -0.8407   2.5981   3.3169

          k = 0.6250 0.3750 0.6250 (   361 PWs)   bands (ev):

    -3.4995  -0.7026   3.6962   4.4061

          k = 0.3750-0.3750 0.3750 (   353 PWs)   bands (ev):

    -4.1996   0.0814   4.8672   4.8672

          k = 0.8750-0.8750 0.8750 (   344 PWs)   bands (ev):

    -5.6479   4.3434   5.6526   5.6526

          k = 0.3750 0.3750 1.1250 (   363 PWs)   bands (ev):

    -3.0067  -0.6282   2.0502   4.0920

          k = 0.8750-0.1250 1.6250 (   361 PWs)   bands (ev):

    -2.4717  -0.9368   1.9954   3.0612

          k = 1.1250 0.3750-0.3750 (   363 PWs)   bands (ev):

    -3.0067  -0.6282   2.0502   4.0920

          k = 1.6250-0.1250 0.1250 (   353 PWs)   bands (ev):

    -5.1235   2.7276   4.6509   4.7118

     highest occupied level (ev):     5.6526

     Writing output data file silicon.10.350.save

                                                                                

     bravais-lattice index     =            2
     lattice parameter (alat)  =      10.3500  a.u.
     unit-cell volume          =     277.1795 (a.u.)^3
     number of atoms/cell      =            2
     number of atomic types    =            1
     kinetic-energy cut-off    =      18.0000  Ry
     charge density cut-off    =      72.0000  Ry
     convergence threshold     =      1.0E-12
     beta                      =       0.7000
     number of iterations used =            4
     Exchange-correlation      = SLA  PW   PBE  PBE ( 1  4  3  4 0 0)


     celldm(1)=   10.35000  celldm(2)=    0.00000  celldm(3)=    0.00000
     celldm(4)=    0.00000  celldm(5)=    0.00000  celldm(6)=    0.00000

     crystal axes: (cart. coord. in units of alat)
               a(1) = ( -0.5000  0.0000  0.5000 )  
               a(2) = (  0.0000  0.5000  0.5000 )  
               a(3) = ( -0.5000  0.5000  0.0000 )  

     reciprocal axes: (cart. coord. in units 2 pi/alat)
               b(1) = ( -1.0000 -1.0000  1.0000 )  
               b(2) = (  1.0000  1.0000  1.0000 )  
               b(3) = ( -1.0000  1.0000 -1.0000 )  


     Atoms inside the unit cell: 

     Cartesian axes

     site n.  atom      mass           positions (alat units)
        1     Si  28.0860   tau(    1) = (    0.00000    0.00000    0.00000  )
        2     Si  28.0860   tau(    2) = (    0.25000    0.25000    0.25000  )

     Computing dynamical matrix for 
                    q = (   0.5000000  -0.5000000   0.5000000 )

     13 Sym.Ops. (with q -> -q+G )


     G cutoff =  195.3680  (    710 G-vectors)     FFT grid: ( 20, 20, 20)
     number of k points=    60

     PseudoPot. # 1 for Si read from file:
     /home/max/quantum_espresso/qe-6.1/pseudo/si_pbe_v1.uspp.F.UPF.txt
     MD5 check sum: a056efeee980c13900f22a371efd63c1
     Pseudo is Ultrasoft + core correction, Zval =  4.0
     Generated by new atomic code, or converted to UPF format
     Using radial grid of  899 points,  6 beta functions with: 
                l(1) =   0
                l(2) =   0
                l(3) =   1
                l(4) =   1
                l(5) =   2
                l(6) =   2
     Q(r) pseudized with  8 coefficients,  rinner =    0.900   0.900   0.900
                                                       0.900   0.900


     Atomic displacements:
     There are   4 irreducible representations

     Representation     1      1 modes -  To be done

     Representation     2      1 modes -  To be done

     Representation     3      2 modes -  To be done

     Representation     4      2 modes -  To be done



     Alpha used in Ewald sum =   0.7000
     PHONON       :    17.61s CPU        19.49s WALL



     Representation #  1 mode #   1

     Self-consistent Calculation

      iter #   1 total cpu time :    19.6 secs   av.it.:   4.8
      thresh= 1.000E-02 alpha_mix =  0.700 |ddv_scf|^2 =  2.480E-05

      iter #   2 total cpu time :    19.8 secs   av.it.:   8.3
      thresh= 4.980E-04 alpha_mix =  0.700 |ddv_scf|^2 =  2.214E-05

      iter #   3 total cpu time :    19.9 secs   av.it.:   7.5
      thresh= 4.705E-04 alpha_mix =  0.700 |ddv_scf|^2 =  4.377E-08

      iter #   4 total cpu time :    20.1 secs   av.it.:   7.4
      thresh= 2.092E-05 alpha_mix =  0.700 |ddv_scf|^2 =  1.336E-10

      iter #   5 total cpu time :    20.2 secs   av.it.:   8.0
      thresh= 1.156E-06 alpha_mix =  0.700 |ddv_scf|^2 =  3.566E-12

      iter #   6 total cpu time :    20.4 secs   av.it.:   7.9
      thresh= 1.888E-07 alpha_mix =  0.700 |ddv_scf|^2 =  4.325E-14

     End of self-consistent calculation

     Convergence has been achieved 


     Representation #  2 mode #   2

     Self-consistent Calculation

      iter #   1 total cpu time :    20.6 secs   av.it.:   5.7
      thresh= 1.000E-02 alpha_mix =  0.700 |ddv_scf|^2 =  3.443E-04

      iter #   2 total cpu time :    20.9 secs   av.it.:   8.3
      thresh= 1.856E-03 alpha_mix =  0.700 |ddv_scf|^2 =  1.062E-03

      iter #   3 total cpu time :    21.0 secs   av.it.:   7.1
      thresh= 3.258E-03 alpha_mix =  0.700 |ddv_scf|^2 =  1.317E-07

      iter #   4 total cpu time :    21.2 secs   av.it.:   8.1
      thresh= 3.629E-05 alpha_mix =  0.700 |ddv_scf|^2 =  8.547E-09

      iter #   5 total cpu time :    21.3 secs   av.it.:   8.5
      thresh= 9.245E-06 alpha_mix =  0.700 |ddv_scf|^2 =  1.352E-10

      iter #   6 total cpu time :    21.5 secs   av.it.:   8.2
      thresh= 1.163E-06 alpha_mix =  0.700 |ddv_scf|^2 =  2.525E-12

      iter #   7 total cpu time :    21.7 secs   av.it.:   7.8
      thresh= 1.589E-07 alpha_mix =  0.700 |ddv_scf|^2 =  4.968E-15

     End of self-consistent calculation

     Convergence has been achieved 


     Representation #  3 modes #   3  4

     Self-consistent Calculation

      iter #   1 total cpu time :    21.9 secs   av.it.:   4.7
      thresh= 1.000E-02 alpha_mix =  0.700 |ddv_scf|^2 =  3.337E-07

      iter #   2 total cpu time :    22.3 secs   av.it.:   9.0
      thresh= 5.776E-05 alpha_mix =  0.700 |ddv_scf|^2 =  2.830E-08

      iter #   3 total cpu time :    22.6 secs   av.it.:   8.3
      thresh= 1.682E-05 alpha_mix =  0.700 |ddv_scf|^2 =  5.022E-10

      iter #   4 total cpu time :    23.3 secs   av.it.:   8.9
      thresh= 2.241E-06 alpha_mix =  0.700 |ddv_scf|^2 =  6.223E-12

      iter #   5 total cpu time :    23.6 secs   av.it.:   8.7
      thresh= 2.495E-07 alpha_mix =  0.700 |ddv_scf|^2 =  3.117E-14

     End of self-consistent calculation

     Convergence has been achieved 


     Representation #  4 modes #   5  6

     Self-consistent Calculation

      iter #   1 total cpu time :    23.9 secs   av.it.:   4.9
      thresh= 1.000E-02 alpha_mix =  0.700 |ddv_scf|^2 =  9.867E-07

      iter #   2 total cpu time :    24.2 secs   av.it.:   9.4
      thresh= 9.933E-05 alpha_mix =  0.700 |ddv_scf|^2 =  7.755E-08

      iter #   3 total cpu time :    24.6 secs   av.it.:   9.3
      thresh= 2.785E-05 alpha_mix =  0.700 |ddv_scf|^2 =  5.038E-09

      iter #   4 total cpu time :    25.3 secs   av.it.:   8.5
      thresh= 7.098E-06 alpha_mix =  0.700 |ddv_scf|^2 =  6.481E-12

      iter #   5 total cpu time :    25.6 secs   av.it.:   8.8
      thresh= 2.546E-07 alpha_mix =  0.700 |ddv_scf|^2 =  2.344E-14

     End of self-consistent calculation

     Convergence has been achieved 

     Number of q in the star =    4
     List of q in the star:
          1   0.500000000  -0.500000000   0.500000000
          2   0.500000000   0.500000000   0.500000000
          3  -0.500000000   0.500000000   0.500000000
          4   0.500000000   0.500000000  -0.500000000

     Diagonalizing the dynamical matrix

     q = (    0.500000000  -0.500000000   0.500000000 ) 

 **************************************************************************
     freq (    1) =       4.798228 [THz] =     160.051667 [cm-1]
     freq (    2) =       4.798228 [THz] =     160.051667 [cm-1]
     freq (    3) =      11.808458 [THz] =     393.887769 [cm-1]
     freq (    4) =      12.095135 [THz] =     403.450271 [cm-1]
     freq (    5) =      14.628188 [THz] =     487.943834 [cm-1]
     freq (    6) =      14.628188 [THz] =     487.943834 [cm-1]
 **************************************************************************

     Calculation of q =    0.0000000   0.5000000   0.0000000

   Info: using nr1, nr2, nr3 values from input

   Info: using nr1, nr2, nr3 values from input

     Parallelization info
     --------------------
     sticks:   dense  smooth     PW     G-vecs:    dense   smooth      PW
     Min          64      64     27                  709      709     175
     Max          67      67     28                  710      710     176
     Sum         265     265    109                 2837     2837     701



     bravais-lattice index     =            2
     lattice parameter (alat)  =      10.3500  a.u.
     unit-cell volume          =     277.1795 (a.u.)^3
     number of atoms/cell      =            2
     number of atomic types    =            1
     number of electrons       =         8.00
     number of Kohn-Sham states=            4
     kinetic-energy cutoff     =      18.0000  Ry
     charge density cutoff     =      72.0000  Ry
     Exchange-correlation      = SLA  PW   PBE  PBE ( 1  4  3  4 0 0)

     celldm(1)=  10.350000  celldm(2)=   0.000000  celldm(3)=   0.000000
     celldm(4)=   0.000000  celldm(5)=   0.000000  celldm(6)=   0.000000

     crystal axes: (cart. coord. in units of alat)
               a(1) = (  -0.500000   0.000000   0.500000 )  
               a(2) = (   0.000000   0.500000   0.500000 )  
               a(3) = (  -0.500000   0.500000   0.000000 )  

     reciprocal axes: (cart. coord. in units 2 pi/alat)
               b(1) = ( -1.000000 -1.000000  1.000000 )  
               b(2) = (  1.000000  1.000000  1.000000 )  
               b(3) = ( -1.000000  1.000000 -1.000000 )  


     PseudoPot. # 1 for Si read from file:
     /home/max/quantum_espresso/qe-6.1/pseudo/si_pbe_v1.uspp.F.UPF.txt
     MD5 check sum: a056efeee980c13900f22a371efd63c1
     Pseudo is Ultrasoft + core correction, Zval =  4.0
     Generated by new atomic code, or converted to UPF format
     Using radial grid of  899 points,  6 beta functions with: 
                l(1) =   0
                l(2) =   0
                l(3) =   1
                l(4) =   1
                l(5) =   2
                l(6) =   2
     Q(r) pseudized with  8 coefficients,  rinner =    0.900   0.900   0.900
                                                       0.900   0.900

     atomic species   valence    mass     pseudopotential
        Si             4.00    28.08600     Si( 1.00)

     48 Sym. Ops., with inversion, found



   Cartesian axes

     site n.     atom                  positions (alat units)
         1           Si  tau(   1) = (   0.0000000   0.0000000   0.0000000  )
         2           Si  tau(   2) = (   0.2500000   0.2500000   0.2500000  )

     number of k points=    80
                       cart. coord. in units 2pi/alat
        k(    1) = (  -0.1250000   0.1250000   0.1250000), wk =   0.0312500
        k(    2) = (  -0.1250000   0.6250000   0.1250000), wk =   0.0000000
        k(    3) = (  -0.3750000   0.3750000  -0.1250000), wk =   0.0625000
        k(    4) = (  -0.3750000   0.8750000  -0.1250000), wk =   0.0000000
        k(    5) = (   0.3750000  -0.3750000   0.6250000), wk =   0.0625000
        k(    6) = (   0.3750000   0.1250000   0.6250000), wk =   0.0000000
        k(    7) = (   0.1250000  -0.1250000   0.3750000), wk =   0.0625000
        k(    8) = (   0.1250000   0.3750000   0.3750000), wk =   0.0000000
        k(    9) = (  -0.1250000   0.6250000   0.1250000), wk =   0.0312500
        k(   10) = (  -0.1250000   1.1250000   0.1250000), wk =   0.0000000
        k(   11) = (   0.6250000  -0.1250000   0.8750000), wk =   0.0625000
        k(   12) = (   0.6250000   0.3750000   0.8750000), wk =   0.0000000
        k(   13) = (   0.3750000   0.1250000   0.6250000), wk =   0.0625000
        k(   14) = (   0.3750000   0.6250000   0.6250000), wk =   0.0000000
        k(   15) = (  -0.1250000  -0.8750000   0.1250000), wk =   0.0312500
        k(   16) = (  -0.1250000  -0.3750000   0.1250000), wk =   0.0000000
        k(   17) = (  -0.3750000   0.3750000   0.3750000), wk =   0.0312500
        k(   18) = (  -0.3750000   0.8750000   0.3750000), wk =   0.0000000
        k(   19) = (   0.3750000  -0.3750000   1.1250000), wk =   0.0625000
        k(   20) = (   0.3750000   0.1250000   1.1250000), wk =   0.0000000
        k(   21) = (  -0.1250000  -0.1250000   0.1250000), wk =   0.0312500
        k(   22) = (  -0.1250000   0.3750000   0.1250000), wk =   0.0000000
        k(   23) = (   0.1250000  -0.3750000   0.3750000), wk =   0.0625000
        k(   24) = (   0.1250000   0.1250000   0.3750000), wk =   0.0000000
        k(   25) = (   0.3750000  -0.1250000   0.3750000), wk =   0.0312500
        k(   26) = (   0.3750000   0.3750000   0.3750000), wk =   0.0000000
        k(   27) = (   0.3750000   0.1250000   0.3750000), wk =   0.0312500
        k(   28) = (   0.3750000   0.6250000   0.3750000), wk =   0.0000000
        k(   29) = (  -0.6250000   0.3750000  -0.3750000), wk =   0.0625000
        k(   30) = (  -0.6250000   0.8750000  -0.3750000), wk =   0.0000000
        k(   31) = (  -0.3750000   0.6250000  -0.3750000), wk =   0.0312500
        k(   32) = (  -0.3750000   1.1250000  -0.3750000), wk =   0.0000000
        k(   33) = (  -0.3750000  -0.6250000  -0.3750000), wk =   0.0312500
        k(   34) = (  -0.3750000  -0.1250000  -0.3750000), wk =   0.0000000
        k(   35) = (  -0.3750000   0.1250000  -0.1250000), wk =   0.0625000
        k(   36) = (  -0.3750000   0.6250000  -0.1250000), wk =   0.0000000
        k(   37) = (  -0.1250000   0.3750000  -0.1250000), wk =   0.0312500
        k(   38) = (  -0.1250000   0.8750000  -0.1250000), wk =   0.0000000
        k(   39) = (  -0.1250000  -0.3750000  -0.1250000), wk =   0.0312500
        k(   40) = (  -0.1250000   0.1250000  -0.1250000), wk =   0.0000000
        k(   41) = (  -0.1250000  -0.6250000   0.1250000), wk =   0.0312500
        k(   42) = (  -0.1250000  -0.1250000   0.1250000), wk =   0.0000000
        k(   43) = (   0.6250000  -0.1250000  -0.1250000), wk =   0.0625000
        k(   44) = (   0.6250000   0.3750000  -0.1250000), wk =   0.0000000
        k(   45) = (   0.6250000   0.1250000   0.1250000), wk =   0.0625000
        k(   46) = (   0.6250000   0.6250000   0.1250000), wk =   0.0000000
        k(   47) = (  -0.8750000   0.1250000  -0.6250000), wk =   0.0625000
        k(   48) = (  -0.8750000   0.6250000  -0.6250000), wk =   0.0000000
        k(   49) = (  -0.1250000   0.6250000  -0.8750000), wk =   0.0625000
        k(   50) = (  -0.1250000   1.1250000  -0.8750000), wk =   0.0000000
        k(   51) = (  -0.1250000   0.8750000  -0.6250000), wk =   0.0625000
        k(   52) = (  -0.1250000   1.3750000  -0.6250000), wk =   0.0000000
        k(   53) = (  -0.1250000  -0.8750000  -0.6250000), wk =   0.0625000
        k(   54) = (  -0.1250000  -0.3750000  -0.6250000), wk =   0.0000000
        k(   55) = (   0.8750000  -0.6250000   0.1250000), wk =   0.0625000
        k(   56) = (   0.8750000  -0.1250000   0.1250000), wk =   0.0000000
        k(   57) = (  -0.6250000  -0.1250000  -0.3750000), wk =   0.0625000
        k(   58) = (  -0.6250000   0.3750000  -0.3750000), wk =   0.0000000
        k(   59) = (   0.1250000   0.3750000  -0.6250000), wk =   0.0625000
        k(   60) = (   0.1250000   0.8750000  -0.6250000), wk =   0.0000000
        k(   61) = (   0.1250000   0.6250000  -0.3750000), wk =   0.0625000
        k(   62) = (   0.1250000   1.1250000  -0.3750000), wk =   0.0000000
        k(   63) = (   0.1250000  -0.6250000  -0.3750000), wk =   0.0625000
        k(   64) = (   0.1250000  -0.1250000  -0.3750000), wk =   0.0000000
        k(   65) = (   0.6250000  -0.3750000  -0.1250000), wk =   0.0625000
        k(   66) = (   0.6250000   0.1250000  -0.1250000), wk =   0.0000000
        k(   67) = (  -0.1250000   0.8750000   0.1250000), wk =   0.0312500
        k(   68) = (  -0.1250000   1.3750000   0.1250000), wk =   0.0000000
        k(   69) = (  -0.8750000  -0.1250000  -0.1250000), wk =   0.0625000
        k(   70) = (  -0.8750000   0.3750000  -0.1250000), wk =   0.0000000
        k(   71) = (  -0.8750000   0.1250000   0.1250000), wk =   0.0625000
        k(   72) = (  -0.8750000   0.6250000   0.1250000), wk =   0.0000000
        k(   73) = (  -0.3750000  -0.3750000   0.3750000), wk =   0.0312500
        k(   74) = (  -0.3750000   0.1250000   0.3750000), wk =   0.0000000
        k(   75) = (  -1.1250000   0.3750000  -0.3750000), wk =   0.0625000
        k(   76) = (  -1.1250000   0.8750000  -0.3750000), wk =   0.0000000
        k(   77) = (  -0.3750000   1.1250000  -0.3750000), wk =   0.0312500
        k(   78) = (  -0.3750000   1.6250000  -0.3750000), wk =   0.0000000
        k(   79) = (  -0.3750000  -1.1250000  -0.3750000), wk =   0.0312500
        k(   80) = (  -0.3750000  -0.6250000  -0.3750000), wk =   0.0000000

     Dense  grid:     2837 G-vectors     FFT dimensions: (  20,  20,  20)

     Estimated max dynamical RAM per process >       0.33MB

     Estimated total allocated dynamical RAM >       1.32MB

     Check: negative/imaginary core charge=   -0.000006    0.000000

     The potential is recalculated from file :
     ./_ph0/silicon.10.350.save/charge-density.dat

     Starting wfc are    8 atomic wfcs

     Band Structure Calculation
     Davidson diagonalization with overlap

     ethr =  1.25E-10,  avg # of iterations = 11.7

     total cpu time spent up to now is        2.5 secs

     End of band structure calculation

          k =-0.1250 0.1250 0.1250 (   344 PWs)   bands (ev):

    -5.6479   4.3434   5.6526   5.6526

          k =-0.1250 0.6250 0.1250 (   351 PWs)   bands (ev):

    -4.0987   1.0170   3.3354   3.7816

          k =-0.3750 0.3750-0.1250 (   355 PWs)   bands (ev):

    -4.6283   1.3593   3.6798   5.1719

          k =-0.3750 0.8750-0.1250 (   361 PWs)   bands (ev):

    -2.4717  -0.9368   1.9954   3.0612

          k = 0.3750-0.3750 0.6250 (   361 PWs)   bands (ev):

    -3.4995  -0.7026   3.6962   4.4061

          k = 0.3750 0.1250 0.6250 (   360 PWs)   bands (ev):

    -3.6873   0.1537   2.6973   4.0559

          k = 0.1250-0.1250 0.3750 (   353 PWs)   bands (ev):

    -5.1235   2.7276   4.6509   4.7118

          k = 0.1250 0.3750 0.3750 (   355 PWs)   bands (ev):

    -4.6283   1.3593   3.6798   5.1719

          k =-0.1250 0.6250 0.1250 (   351 PWs)   bands (ev):

    -4.0987   1.0170   3.3354   3.7816

          k =-0.1250 1.1250 0.1250 (   360 PWs)   bands (ev):

    -2.6364  -0.8407   2.5981   3.3169

          k = 0.6250-0.1250 0.8750 (   361 PWs)   bands (ev):

    -2.4717  -0.9368   1.9954   3.0612

          k = 0.6250 0.3750 0.8750 (   360 PWs)   bands (ev):

    -3.6873   0.1537   2.6973   4.0559

          k = 0.3750 0.1250 0.6250 (   360 PWs)   bands (ev):

    -3.6873   0.1537   2.6973   4.0559

          k = 0.3750 0.6250 0.6250 (   361 PWs)   bands (ev):

    -3.4995  -0.7026   3.6962   4.4061

          k =-0.1250-0.8750 0.1250 (   360 PWs)   bands (ev):

    -2.6364  -0.8407   2.5981   3.3169

          k =-0.1250-0.3750 0.1250 (   353 PWs)   bands (ev):

    -5.1235   2.7276   4.6509   4.7118

          k =-0.3750 0.3750 0.3750 (   353 PWs)   bands (ev):

    -4.1996   0.0814   4.8672   4.8672

          k =-0.3750 0.8750 0.3750 (   363 PWs)   bands (ev):

    -3.0067  -0.6282   2.0502   4.0920

          k = 0.3750-0.3750 1.1250 (   363 PWs)   bands (ev):

    -3.0067  -0.6282   2.0502   4.0920

          k = 0.3750 0.1250 1.1250 (   361 PWs)   bands (ev):

    -2.4717  -0.9368   1.9954   3.0612

          k =-0.1250-0.1250 0.1250 (   344 PWs)   bands (ev):

    -5.6479   4.3434   5.6526   5.6526

          k =-0.1250 0.3750 0.1250 (   353 PWs)   bands (ev):

    -5.1235   2.7276   4.6509   4.7118

          k = 0.1250-0.3750 0.3750 (   355 PWs)   bands (ev):

    -4.6283   1.3593   3.6798   5.1719

          k = 0.1250 0.1250 0.3750 (   353 PWs)   bands (ev):

    -5.1235   2.7276   4.6509   4.7118

          k = 0.3750-0.1250 0.3750 (   355 PWs)   bands (ev):

    -4.6283   1.3593   3.6798   5.1719

          k = 0.3750 0.3750 0.3750 (   353 PWs)   bands (ev):

    -4.1996   0.0814   4.8672   4.8672

          k = 0.3750 0.1250 0.3750 (   355 PWs)   bands (ev):

    -4.6283   1.3593   3.6798   5.1719

          k = 0.3750 0.6250 0.3750 (   361 PWs)   bands (ev):

    -3.4995  -0.7026   3.6962   4.4061

          k =-0.6250 0.3750-0.3750 (   361 PWs)   bands (ev):

    -3.4995  -0.7026   3.6962   4.4061

          k =-0.6250 0.8750-0.3750 (   360 PWs)   bands (ev):

    -3.6873   0.1537   2.6973   4.0559

          k =-0.3750 0.6250-0.3750 (   361 PWs)   bands (ev):

    -3.4995  -0.7026   3.6962   4.4061

          k =-0.3750 1.1250-0.3750 (   363 PWs)   bands (ev):

    -3.0067  -0.6282   2.0502   4.0920

          k =-0.3750-0.6250-0.3750 (   361 PWs)   bands (ev):

    -3.4995  -0.7026   3.6962   4.4061

          k =-0.3750-0.1250-0.3750 (   355 PWs)   bands (ev):

    -4.6283   1.3593   3.6798   5.1719

          k =-0.3750 0.1250-0.1250 (   353 PWs)   bands (ev):

    -5.1235   2.7276   4.6509   4.7118

          k =-0.3750 0.6250-0.1250 (   360 PWs)   bands (ev):

    -3.6873   0.1537   2.6973   4.0559

          k =-0.1250 0.3750-0.1250 (   353 PWs)   bands (ev):

    -5.1235   2.7276   4.6509   4.7118

          k =-0.1250 0.8750-0.1250 (   360 PWs)   bands (ev):

    -2.6364  -0.8407   2.5981   3.3169

          k =-0.1250-0.3750-0.1250 (   353 PWs)   bands (ev):

    -5.1235   2.7276   4.6509   4.7118

          k =-0.1250 0.1250-0.1250 (   344 PWs)   bands (ev):

    -5.6479   4.3434   5.6526   5.6526

          k =-0.1250-0.6250 0.1250 (   351 PWs)   bands (ev):

    -4.0987   1.0170   3.3354   3.7816

          k =-0.1250-0.1250 0.1250 (   344 PWs)   bands (ev):

    -5.6479   4.3434   5.6526   5.6526

          k = 0.6250-0.1250-0.1250 (   351 PWs)   bands (ev):

    -4.0987   1.0170   3.3354   3.7816

          k = 0.6250 0.3750-0.1250 (   360 PWs)   bands (ev):

    -3.6873   0.1537   2.6973   4.0559

          k = 0.6250 0.1250 0.1250 (   351 PWs)   bands (ev):

    -4.0987   1.0170   3.3354   3.7816

          k = 0.6250 0.6250 0.1250 (   363 PWs)   bands (ev):

    -3.0067  -0.6282   2.0502   4.0920

          k =-0.8750 0.1250-0.6250 (   361 PWs)   bands (ev):

    -2.4717  -0.9368   1.9954   3.0612

          k =-0.8750 0.6250-0.6250 (   355 PWs)   bands (ev):

    -4.6283   1.3593   3.6798   5.1719

          k =-0.1250 0.6250-0.8750 (   361 PWs)   bands (ev):

    -2.4717  -0.9368   1.9954   3.0612

          k =-0.1250 1.1250-0.8750 (   360 PWs)   bands (ev):

    -2.6364  -0.8407   2.5981   3.3169

          k =-0.1250 0.8750-0.6250 (   361 PWs)   bands (ev):

    -2.4717  -0.9368   1.9954   3.0612

          k =-0.1250 1.3750-0.6250 (   363 PWs)   bands (ev):

    -3.0067  -0.6282   2.0502   4.0920

          k =-0.1250-0.8750-0.6250 (   361 PWs)   bands (ev):

    -2.4717  -0.9368   1.9954   3.0612

          k =-0.1250-0.3750-0.6250 (   360 PWs)   bands (ev):

    -3.6873   0.1537   2.6973   4.0559

          k = 0.8750-0.6250 0.1250 (   361 PWs)   bands (ev):

    -2.4717  -0.9368   1.9954   3.0612

          k = 0.8750-0.1250 0.1250 (   360 PWs)   bands (ev):

    -2.6364  -0.8407   2.5981   3.3169

          k =-0.6250-0.1250-0.3750 (   360 PWs)   bands (ev):

    -3.6873   0.1537   2.6973   4.0559

          k =-0.6250 0.3750-0.3750 (   361 PWs)   bands (ev):

    -3.4995  -0.7026   3.6962   4.4061

          k = 0.1250 0.3750-0.6250 (   360 PWs)   bands (ev):

    -3.6873   0.1537   2.6973   4.0559

          k = 0.1250 0.8750-0.6250 (   361 PWs)   bands (ev):

    -2.4717  -0.9368   1.9954   3.0612

          k = 0.1250 0.6250-0.3750 (   360 PWs)   bands (ev):

    -3.6873   0.1537   2.6973   4.0559

          k = 0.1250 1.1250-0.3750 (   361 PWs)   bands (ev):

    -2.4717  -0.9368   1.9954   3.0612

          k = 0.1250-0.6250-0.3750 (   360 PWs)   bands (ev):

    -3.6873   0.1537   2.6973   4.0559

          k = 0.1250-0.1250-0.3750 (   353 PWs)   bands (ev):

    -5.1235   2.7276   4.6509   4.7118

          k = 0.6250-0.3750-0.1250 (   360 PWs)   bands (ev):

    -3.6873   0.1537   2.6973   4.0559

          k = 0.6250 0.1250-0.1250 (   351 PWs)   bands (ev):

    -4.0987   1.0170   3.3354   3.7816

          k =-0.1250 0.8750 0.1250 (   360 PWs)   bands (ev):

    -2.6364  -0.8407   2.5981   3.3169

          k =-0.1250 1.3750 0.1250 (   351 PWs)   bands (ev):

    -4.0987   1.0170   3.3354   3.7816

          k =-0.8750-0.1250-0.1250 (   360 PWs)   bands (ev):

    -2.6364  -0.8407   2.5981   3.3169

          k =-0.8750 0.3750-0.1250 (   361 PWs)   bands (ev):

    -2.4717  -0.9368   1.9954   3.0612

          k =-0.8750 0.1250 0.1250 (   360 PWs)   bands (ev):

    -2.6364  -0.8407   2.5981   3.3169

          k =-0.8750 0.6250 0.1250 (   361 PWs)   bands (ev):

    -2.4717  -0.9368   1.9954   3.0612

          k =-0.3750-0.3750 0.3750 (   353 PWs)   bands (ev):

    -4.1996   0.0814   4.8672   4.8672

          k =-0.3750 0.1250 0.3750 (   355 PWs)   bands (ev):

    -4.6283   1.3593   3.6798   5.1719

          k =-1.1250 0.3750-0.3750 (   363 PWs)   bands (ev):

    -3.0067  -0.6282   2.0502   4.0920

          k =-1.1250 0.8750-0.3750 (   351 PWs)   bands (ev):

    -4.0987   1.0170   3.3354   3.7816

          k =-0.3750 1.1250-0.3750 (   363 PWs)   bands (ev):

    -3.0067  -0.6282   2.0502   4.0920

          k =-0.3750 1.6250-0.3750 (   353 PWs)   bands (ev):

    -4.1996   0.0814   4.8672   4.8672

          k =-0.3750-1.1250-0.3750 (   363 PWs)   bands (ev):

    -3.0067  -0.6282   2.0502   4.0920

          k =-0.3750-0.6250-0.3750 (   361 PWs)   bands (ev):

    -3.4995  -0.7026   3.6962   4.4061

     highest occupied level (ev):     5.6526

     Writing output data file silicon.10.350.save

                                                                                

     bravais-lattice index     =            2
     lattice parameter (alat)  =      10.3500  a.u.
     unit-cell volume          =     277.1795 (a.u.)^3
     number of atoms/cell      =            2
     number of atomic types    =            1
     kinetic-energy cut-off    =      18.0000  Ry
     charge density cut-off    =      72.0000  Ry
     convergence threshold     =      1.0E-12
     beta                      =       0.7000
     number of iterations used =            4
     Exchange-correlation      = SLA  PW   PBE  PBE ( 1  4  3  4 0 0)


     celldm(1)=   10.35000  celldm(2)=    0.00000  celldm(3)=    0.00000
     celldm(4)=    0.00000  celldm(5)=    0.00000  celldm(6)=    0.00000

     crystal axes: (cart. coord. in units of alat)
               a(1) = ( -0.5000  0.0000  0.5000 )  
               a(2) = (  0.0000  0.5000  0.5000 )  
               a(3) = ( -0.5000  0.5000  0.0000 )  

     reciprocal axes: (cart. coord. in units 2 pi/alat)
               b(1) = ( -1.0000 -1.0000  1.0000 )  
               b(2) = (  1.0000  1.0000  1.0000 )  
               b(3) = ( -1.0000  1.0000 -1.0000 )  


     Atoms inside the unit cell: 

     Cartesian axes

     site n.  atom      mass           positions (alat units)
        1     Si  28.0860   tau(    1) = (    0.00000    0.00000    0.00000  )
        2     Si  28.0860   tau(    2) = (    0.25000    0.25000    0.25000  )

     Computing dynamical matrix for 
                    q = (   0.0000000   0.5000000   0.0000000 )

      8 Sym.Ops. (no q -> -q+G )


     G cutoff =  195.3680  (    710 G-vectors)     FFT grid: ( 20, 20, 20)
     number of k points=    80

     PseudoPot. # 1 for Si read from file:
     /home/max/quantum_espresso/qe-6.1/pseudo/si_pbe_v1.uspp.F.UPF.txt
     MD5 check sum: a056efeee980c13900f22a371efd63c1
     Pseudo is Ultrasoft + core correction, Zval =  4.0
     Generated by new atomic code, or converted to UPF format
     Using radial grid of  899 points,  6 beta functions with: 
                l(1) =   0
                l(2) =   0
                l(3) =   1
                l(4) =   1
                l(5) =   2
                l(6) =   2
     Q(r) pseudized with  8 coefficients,  rinner =    0.900   0.900   0.900
                                                       0.900   0.900

     Mode symmetry, C_4v (4mm)  point group:


     Atomic displacements:
     There are   4 irreducible representations

     Representation     1      1 modes -A_1  G_1 D_1  To be done

     Representation     2      1 modes -B_2  G_4 D_2'  To be done

     Representation     3      2 modes -E    G_5 D_5  To be done

     Representation     4      2 modes -E    G_5 D_5  To be done



     Alpha used in Ewald sum =   0.7000
     PHONON       :    24.25s CPU        26.81s WALL



     Representation #  1 mode #   1

     Self-consistent Calculation

      iter #   1 total cpu time :    27.0 secs   av.it.:   5.8
      thresh= 1.000E-02 alpha_mix =  0.700 |ddv_scf|^2 =  2.960E-03

      iter #   2 total cpu time :    27.2 secs   av.it.:   7.6
      thresh= 5.441E-03 alpha_mix =  0.700 |ddv_scf|^2 =  3.903E-02

      iter #   3 total cpu time :    27.4 secs   av.it.:   6.7
      thresh= 1.000E-02 alpha_mix =  0.700 |ddv_scf|^2 =  1.487E-07

      iter #   4 total cpu time :    27.6 secs   av.it.:   8.1
      thresh= 3.857E-05 alpha_mix =  0.700 |ddv_scf|^2 =  1.443E-08

      iter #   5 total cpu time :    27.8 secs   av.it.:   7.7
      thresh= 1.201E-05 alpha_mix =  0.700 |ddv_scf|^2 =  7.201E-10

      iter #   6 total cpu time :    28.0 secs   av.it.:   7.8
      thresh= 2.683E-06 alpha_mix =  0.700 |ddv_scf|^2 =  2.798E-12

      iter #   7 total cpu time :    28.2 secs   av.it.:   7.9
      thresh= 1.673E-07 alpha_mix =  0.700 |ddv_scf|^2 =  5.371E-13

     End of self-consistent calculation

     Convergence has been achieved 


     Representation #  2 mode #   2

     Self-consistent Calculation

      iter #   1 total cpu time :    28.4 secs   av.it.:   4.9
      thresh= 1.000E-02 alpha_mix =  0.700 |ddv_scf|^2 =  5.512E-06

      iter #   2 total cpu time :    28.8 secs   av.it.:   8.7
      thresh= 2.348E-04 alpha_mix =  0.700 |ddv_scf|^2 =  1.346E-06

      iter #   3 total cpu time :    29.0 secs   av.it.:   8.5
      thresh= 1.160E-04 alpha_mix =  0.700 |ddv_scf|^2 =  4.312E-08

      iter #   4 total cpu time :    29.2 secs   av.it.:   8.2
      thresh= 2.077E-05 alpha_mix =  0.700 |ddv_scf|^2 =  7.280E-10

      iter #   5 total cpu time :    29.5 secs   av.it.:   8.6
      thresh= 2.698E-06 alpha_mix =  0.700 |ddv_scf|^2 =  6.919E-12

      iter #   6 total cpu time :    29.7 secs   av.it.:   7.9
      thresh= 2.630E-07 alpha_mix =  0.700 |ddv_scf|^2 =  7.477E-14

     End of self-consistent calculation

     Convergence has been achieved 


     Representation #  3 modes #   3  4

     Self-consistent Calculation

      iter #   1 total cpu time :    30.0 secs   av.it.:   5.0
      thresh= 1.000E-02 alpha_mix =  0.700 |ddv_scf|^2 =  1.023E-06

      iter #   2 total cpu time :    30.5 secs   av.it.:   9.7
      thresh= 1.011E-04 alpha_mix =  0.700 |ddv_scf|^2 =  1.269E-07

      iter #   3 total cpu time :    31.1 secs   av.it.:   9.5
      thresh= 3.563E-05 alpha_mix =  0.700 |ddv_scf|^2 =  6.745E-09

      iter #   4 total cpu time :    31.5 secs   av.it.:   8.8
      thresh= 8.213E-06 alpha_mix =  0.700 |ddv_scf|^2 =  9.584E-12

      iter #   5 total cpu time :    32.0 secs   av.it.:   9.2
      thresh= 3.096E-07 alpha_mix =  0.700 |ddv_scf|^2 =  3.006E-13

     End of self-consistent calculation

     Convergence has been achieved 


     Representation #  4 modes #   5  6

     Self-consistent Calculation

      iter #   1 total cpu time :    32.3 secs   av.it.:   5.0
      thresh= 1.000E-02 alpha_mix =  0.700 |ddv_scf|^2 =  9.393E-07

      iter #   2 total cpu time :    32.9 secs   av.it.:   9.7
      thresh= 9.692E-05 alpha_mix =  0.700 |ddv_scf|^2 =  1.189E-07

      iter #   3 total cpu time :    33.4 secs   av.it.:   9.4
      thresh= 3.449E-05 alpha_mix =  0.700 |ddv_scf|^2 =  7.064E-09

      iter #   4 total cpu time :    33.8 secs   av.it.:   8.9
      thresh= 8.404E-06 alpha_mix =  0.700 |ddv_scf|^2 =  1.489E-11

      iter #   5 total cpu time :    34.3 secs   av.it.:   9.2
      thresh= 3.859E-07 alpha_mix =  0.700 |ddv_scf|^2 =  4.438E-14

     End of self-consistent calculation

     Convergence has been achieved 

     Number of q in the star =    6
     List of q in the star:
          1   0.000000000   0.500000000   0.000000000
          2   0.000000000  -0.500000000   0.000000000
          3   0.500000000   0.000000000   0.000000000
          4   0.000000000   0.000000000   0.500000000
          5   0.000000000   0.000000000  -0.500000000
          6  -0.500000000   0.000000000   0.000000000

     Diagonalizing the dynamical matrix

     q = (    0.000000000   0.500000000   0.000000000 ) 

 **************************************************************************
     freq (    1) =       4.300799 [THz] =     143.459201 [cm-1]
     freq (    2) =       4.300799 [THz] =     143.459201 [cm-1]
     freq (    3) =       7.131230 [THz] =     237.872233 [cm-1]
     freq (    4) =      14.001492 [THz] =     467.039501 [cm-1]
     freq (    5) =      14.001492 [THz] =     467.039501 [cm-1]
     freq (    6) =      14.638738 [THz] =     488.295732 [cm-1]
 **************************************************************************

     Mode symmetry, C_4v (4mm)  point group:

     freq (  1 -  2) =        143.5  [cm-1]   --> E    G_5 D_5       
     freq (  3 -  3) =        237.9  [cm-1]   --> A_1  G_1 D_1       
     freq (  4 -  5) =        467.0  [cm-1]   --> E    G_5 D_5       
     freq (  6 -  6) =        488.3  [cm-1]   --> B_2  G_4 D_2'      

     Calculation of q =    0.7500000  -0.2500000   0.7500000

   Info: using nr1, nr2, nr3 values from input

   Info: using nr1, nr2, nr3 values from input

     Parallelization info
     --------------------
     sticks:   dense  smooth     PW     G-vecs:    dense   smooth      PW
     Min          64      64     30                  709      709     216
     Max          67      67     31                  710      710     218
     Sum         265     265    121                 2837     2837     869



     bravais-lattice index     =            2
     lattice parameter (alat)  =      10.3500  a.u.
     unit-cell volume          =     277.1795 (a.u.)^3
     number of atoms/cell      =            2
     number of atomic types    =            1
     number of electrons       =         8.00
     number of Kohn-Sham states=            4
     kinetic-energy cutoff     =      18.0000  Ry
     charge density cutoff     =      72.0000  Ry
     Exchange-correlation      = SLA  PW   PBE  PBE ( 1  4  3  4 0 0)

     celldm(1)=  10.350000  celldm(2)=   0.000000  celldm(3)=   0.000000
     celldm(4)=   0.000000  celldm(5)=   0.000000  celldm(6)=   0.000000

     crystal axes: (cart. coord. in units of alat)
               a(1) = (  -0.500000   0.000000   0.500000 )  
               a(2) = (   0.000000   0.500000   0.500000 )  
               a(3) = (  -0.500000   0.500000   0.000000 )  

     reciprocal axes: (cart. coord. in units 2 pi/alat)
               b(1) = ( -1.000000 -1.000000  1.000000 )  
               b(2) = (  1.000000  1.000000  1.000000 )  
               b(3) = ( -1.000000  1.000000 -1.000000 )  


     PseudoPot. # 1 for Si read from file:
     /home/max/quantum_espresso/qe-6.1/pseudo/si_pbe_v1.uspp.F.UPF.txt
     MD5 check sum: a056efeee980c13900f22a371efd63c1
     Pseudo is Ultrasoft + core correction, Zval =  4.0
     Generated by new atomic code, or converted to UPF format
     Using radial grid of  899 points,  6 beta functions with: 
                l(1) =   0
                l(2) =   0
                l(3) =   1
                l(4) =   1
                l(5) =   2
                l(6) =   2
     Q(r) pseudized with  8 coefficients,  rinner =    0.900   0.900   0.900
                                                       0.900   0.900

     atomic species   valence    mass     pseudopotential
        Si             4.00    28.08600     Si( 1.00)

     48 Sym. Ops., with inversion, found



   Cartesian axes

     site n.     atom                  positions (alat units)
         1           Si  tau(   1) = (   0.0000000   0.0000000   0.0000000  )
         2           Si  tau(   2) = (   0.2500000   0.2500000   0.2500000  )

     number of k points=   288

     Number of k-points >= 100: set verbosity='high' to print them.

     Dense  grid:     2837 G-vectors     FFT dimensions: (  20,  20,  20)

     Estimated max dynamical RAM per process >       0.33MB

     Estimated total allocated dynamical RAM >       1.32MB

     Check: negative/imaginary core charge=   -0.000006    0.000000

     The potential is recalculated from file :
     ./_ph0/silicon.10.350.save/charge-density.dat

     Starting wfc are    8 atomic wfcs

     Band Structure Calculation
     Davidson diagonalization with overlap

     ethr =  1.25E-10,  avg # of iterations = 11.6

     total cpu time spent up to now is        4.9 secs

     End of band structure calculation

     Number of k-points >= 100: set verbosity='high' to print the bands.

     highest occupied level (ev):     5.6526

     Writing output data file silicon.10.350.save

                                                                                

     bravais-lattice index     =            2
     lattice parameter (alat)  =      10.3500  a.u.
     unit-cell volume          =     277.1795 (a.u.)^3
     number of atoms/cell      =            2
     number of atomic types    =            1
     kinetic-energy cut-off    =      18.0000  Ry
     charge density cut-off    =      72.0000  Ry
     convergence threshold     =      1.0E-12
     beta                      =       0.7000
     number of iterations used =            4
     Exchange-correlation      = SLA  PW   PBE  PBE ( 1  4  3  4 0 0)


     celldm(1)=   10.35000  celldm(2)=    0.00000  celldm(3)=    0.00000
     celldm(4)=    0.00000  celldm(5)=    0.00000  celldm(6)=    0.00000

     crystal axes: (cart. coord. in units of alat)
               a(1) = ( -0.5000  0.0000  0.5000 )  
               a(2) = (  0.0000  0.5000  0.5000 )  
               a(3) = ( -0.5000  0.5000  0.0000 )  

     reciprocal axes: (cart. coord. in units 2 pi/alat)
               b(1) = ( -1.0000 -1.0000  1.0000 )  
               b(2) = (  1.0000  1.0000  1.0000 )  
               b(3) = ( -1.0000  1.0000 -1.0000 )  


     Atoms inside the unit cell: 

     Cartesian axes

     site n.  atom      mass           positions (alat units)
        1     Si  28.0860   tau(    1) = (    0.00000    0.00000    0.00000  )
        2     Si  28.0860   tau(    2) = (    0.25000    0.25000    0.25000  )

     Computing dynamical matrix for 
                    q = (   0.7500000  -0.2500000   0.7500000 )

      2 Sym.Ops. (no q -> -q+G )


     G cutoff =  195.3680  (    710 G-vectors)     FFT grid: ( 20, 20, 20)
     number of k points=   288

     PseudoPot. # 1 for Si read from file:
     /home/max/quantum_espresso/qe-6.1/pseudo/si_pbe_v1.uspp.F.UPF.txt
     MD5 check sum: a056efeee980c13900f22a371efd63c1
     Pseudo is Ultrasoft + core correction, Zval =  4.0
     Generated by new atomic code, or converted to UPF format
     Using radial grid of  899 points,  6 beta functions with: 
                l(1) =   0
                l(2) =   0
                l(3) =   1
                l(4) =   1
                l(5) =   2
                l(6) =   2
     Q(r) pseudized with  8 coefficients,  rinner =    0.900   0.900   0.900
                                                       0.900   0.900

     Mode symmetry, C_s (m)     point group:


     Atomic displacements:
     There are   6 irreducible representations

     Representation     1      1 modes -A'  To be done

     Representation     2      1 modes -A'  To be done

     Representation     3      1 modes -A'  To be done

     Representation     4      1 modes -A'  To be done

     Representation     5      1 modes -A''  To be done

     Representation     6      1 modes -A''  To be done



     Alpha used in Ewald sum =   0.7000
     PHONON       :    34.09s CPU        37.47s WALL



     Representation #  1 mode #   1

     Self-consistent Calculation

      iter #   1 total cpu time :    38.1 secs   av.it.:   5.3
      thresh= 1.000E-02 alpha_mix =  0.700 |ddv_scf|^2 =  6.112E-05

      iter #   2 total cpu time :    39.0 secs   av.it.:   8.9
      thresh= 7.818E-04 alpha_mix =  0.700 |ddv_scf|^2 =  1.603E-04

      iter #   3 total cpu time :    39.7 secs   av.it.:   7.5
      thresh= 1.266E-03 alpha_mix =  0.700 |ddv_scf|^2 =  1.147E-06

      iter #   4 total cpu time :    40.5 secs   av.it.:   8.4
      thresh= 1.071E-04 alpha_mix =  0.700 |ddv_scf|^2 =  6.227E-08

      iter #   5 total cpu time :    41.4 secs   av.it.:   8.3
      thresh= 2.495E-05 alpha_mix =  0.700 |ddv_scf|^2 =  7.571E-09

      iter #   6 total cpu time :    42.2 secs   av.it.:   8.5
      thresh= 8.701E-06 alpha_mix =  0.700 |ddv_scf|^2 =  8.458E-11

      iter #   7 total cpu time :    43.1 secs   av.it.:   8.8
      thresh= 9.197E-07 alpha_mix =  0.700 |ddv_scf|^2 =  3.039E-12

      iter #   8 total cpu time :    43.9 secs   av.it.:   8.6
      thresh= 1.743E-07 alpha_mix =  0.700 |ddv_scf|^2 =  1.887E-13

     End of self-consistent calculation

     Convergence has been achieved 


     Representation #  2 mode #   2

     Self-consistent Calculation

      iter #   1 total cpu time :    44.5 secs   av.it.:   5.4
      thresh= 1.000E-02 alpha_mix =  0.700 |ddv_scf|^2 =  1.088E-04

      iter #   2 total cpu time :    45.5 secs   av.it.:   8.7
      thresh= 1.043E-03 alpha_mix =  0.700 |ddv_scf|^2 =  3.104E-04

      iter #   3 total cpu time :    46.1 secs   av.it.:   7.4
      thresh= 1.762E-03 alpha_mix =  0.700 |ddv_scf|^2 =  7.957E-07

      iter #   4 total cpu time :    47.1 secs   av.it.:   8.5
      thresh= 8.920E-05 alpha_mix =  0.700 |ddv_scf|^2 =  6.066E-08

      iter #   5 total cpu time :    47.8 secs   av.it.:   8.2
      thresh= 2.463E-05 alpha_mix =  0.700 |ddv_scf|^2 =  1.081E-08

      iter #   6 total cpu time :    48.8 secs   av.it.:   8.5
      thresh= 1.040E-05 alpha_mix =  0.700 |ddv_scf|^2 =  8.415E-11

      iter #   7 total cpu time :    49.6 secs   av.it.:   8.7
      thresh= 9.173E-07 alpha_mix =  0.700 |ddv_scf|^2 =  2.674E-12

      iter #   8 total cpu time :    50.3 secs   av.it.:   8.7
      thresh= 1.635E-07 alpha_mix =  0.700 |ddv_scf|^2 =  6.607E-13

     End of self-consistent calculation

     Convergence has been achieved 


     Representation #  3 mode #   3

     Self-consistent Calculation

      iter #   1 total cpu time :    51.4 secs   av.it.:   5.3
      thresh= 1.000E-02 alpha_mix =  0.700 |ddv_scf|^2 =  8.533E-05

      iter #   2 total cpu time :    52.1 secs   av.it.:   8.8
      thresh= 9.238E-04 alpha_mix =  0.700 |ddv_scf|^2 =  2.277E-04

      iter #   3 total cpu time :    53.0 secs   av.it.:   7.4
      thresh= 1.509E-03 alpha_mix =  0.700 |ddv_scf|^2 =  1.355E-06

      iter #   4 total cpu time :    53.7 secs   av.it.:   8.2
      thresh= 1.164E-04 alpha_mix =  0.700 |ddv_scf|^2 =  6.229E-08

      iter #   5 total cpu time :    54.5 secs   av.it.:   8.4
      thresh= 2.496E-05 alpha_mix =  0.700 |ddv_scf|^2 =  1.113E-08

      iter #   6 total cpu time :    55.4 secs   av.it.:   8.4
      thresh= 1.055E-05 alpha_mix =  0.700 |ddv_scf|^2 =  4.817E-11

      iter #   7 total cpu time :    56.2 secs   av.it.:   8.7
      thresh= 6.941E-07 alpha_mix =  0.700 |ddv_scf|^2 =  1.748E-12

      iter #   8 total cpu time :    57.1 secs   av.it.:   8.8
      thresh= 1.322E-07 alpha_mix =  0.700 |ddv_scf|^2 =  3.151E-13

     End of self-consistent calculation

     Convergence has been achieved 


     Representation #  4 mode #   4

     Self-consistent Calculation

      iter #   1 total cpu time :    57.7 secs   av.it.:   5.2
      thresh= 1.000E-02 alpha_mix =  0.700 |ddv_scf|^2 =  3.771E-05

      iter #   2 total cpu time :    58.5 secs   av.it.:   8.9
[...]
        k(   59) = (  -0.8750000   0.1250000  -0.1250000), wk =   0.0625000
        k(   60) = (  -1.3750000  -0.8750000  -0.1250000), wk =   0.0000000
        k(   61) = (  -1.1250000   0.3750000  -0.3750000), wk =   0.0625000
        k(   62) = (  -1.6250000  -0.6250000  -0.3750000), wk =   0.0000000
        k(   63) = (  -0.3750000   0.3750000   1.1250000), wk =   0.0625000
        k(   64) = (  -0.8750000  -0.6250000   1.1250000), wk =   0.0000000

     Dense  grid:     2837 G-vectors     FFT dimensions: (  20,  20,  20)

     Estimated max dynamical RAM per process >       0.33MB

     Estimated total allocated dynamical RAM >       1.32MB

     Check: negative/imaginary core charge=   -0.000006    0.000000

     The potential is recalculated from file :
     ./_ph0/silicon.10.350.save/charge-density.dat

     Starting wfc are    8 atomic wfcs

     Band Structure Calculation
     Davidson diagonalization with overlap

     ethr =  1.25E-10,  avg # of iterations = 11.6

     total cpu time spent up to now is        7.5 secs

     End of band structure calculation

          k =-0.1250 0.1250 0.1250 (   344 PWs)   bands (ev):

    -5.6479   4.3434   5.6526   5.6526

          k =-0.6250-0.8750 0.1250 (   361 PWs)   bands (ev):

    -2.4717  -0.9368   1.9954   3.0612

          k =-0.3750 0.3750-0.1250 (   355 PWs)   bands (ev):

    -4.6283   1.3593   3.6798   5.1719

          k =-0.8750-0.6250-0.1250 (   361 PWs)   bands (ev):

    -2.4717  -0.9368   1.9954   3.0612

          k = 0.3750-0.3750 0.6250 (   361 PWs)   bands (ev):

    -3.4995  -0.7026   3.6962   4.4061

          k =-0.1250-1.3750 0.6250 (   363 PWs)   bands (ev):

    -3.0067  -0.6282   2.0502   4.0920

          k = 0.1250-0.1250 0.3750 (   353 PWs)   bands (ev):

    -5.1235   2.7276   4.6509   4.7118

          k =-0.3750-1.1250 0.3750 (   363 PWs)   bands (ev):

    -3.0067  -0.6282   2.0502   4.0920

          k =-0.1250 0.6250 0.1250 (   351 PWs)   bands (ev):

    -4.0987   1.0170   3.3354   3.7816

          k =-0.6250-0.3750 0.1250 (   360 PWs)   bands (ev):

    -3.6873   0.1537   2.6973   4.0559

          k = 0.6250-0.1250 0.8750 (   361 PWs)   bands (ev):

    -2.4717  -0.9368   1.9954   3.0612

          k = 0.1250-1.1250 0.8750 (   360 PWs)   bands (ev):

    -2.6364  -0.8407   2.5981   3.3169

          k = 0.3750 0.1250 0.6250 (   360 PWs)   bands (ev):

    -3.6873   0.1537   2.6973   4.0559

          k =-0.1250-0.8750 0.6250 (   361 PWs)   bands (ev):

    -2.4717  -0.9368   1.9954   3.0612

          k =-0.1250-0.8750 0.1250 (   360 PWs)   bands (ev):

    -2.6364  -0.8407   2.5981   3.3169

          k =-0.6250-1.8750 0.1250 (   351 PWs)   bands (ev):

    -4.0987   1.0170   3.3354   3.7816

          k =-0.3750 0.3750 0.3750 (   353 PWs)   bands (ev):

    -4.1996   0.0814   4.8672   4.8672

          k =-0.8750-0.6250 0.3750 (   360 PWs)   bands (ev):

    -3.6873   0.1537   2.6973   4.0559

          k = 0.3750-0.3750 1.1250 (   363 PWs)   bands (ev):

    -3.0067  -0.6282   2.0502   4.0920

          k =-0.1250-1.3750 1.1250 (   361 PWs)   bands (ev):

    -2.4717  -0.9368   1.9954   3.0612

          k = 0.1250-0.3750 0.3750 (   355 PWs)   bands (ev):

    -4.6283   1.3593   3.6798   5.1719

          k =-0.3750-1.3750 0.3750 (   361 PWs)   bands (ev):

    -3.4995  -0.7026   3.6962   4.4061

          k = 0.3750-0.3750-0.1250 (   355 PWs)   bands (ev):

    -4.6283   1.3593   3.6798   5.1719

          k =-0.1250-1.3750-0.1250 (   351 PWs)   bands (ev):

    -4.0987   1.0170   3.3354   3.7816

          k =-0.6250 0.3750-0.3750 (   361 PWs)   bands (ev):

    -3.4995  -0.7026   3.6962   4.4061

          k =-1.1250-0.6250-0.3750 (   360 PWs)   bands (ev):

    -3.6873   0.1537   2.6973   4.0559

          k =-0.3750 0.3750 0.6250 (   361 PWs)   bands (ev):

    -3.4995  -0.7026   3.6962   4.4061

          k =-0.8750-0.6250 0.6250 (   355 PWs)   bands (ev):

    -4.6283   1.3593   3.6798   5.1719

          k =-0.3750 0.1250-0.1250 (   353 PWs)   bands (ev):

    -5.1235   2.7276   4.6509   4.7118

          k =-0.8750-0.8750-0.1250 (   360 PWs)   bands (ev):

    -2.6364  -0.8407   2.5981   3.3169

          k =-0.1250 0.1250 0.3750 (   353 PWs)   bands (ev):

    -5.1235   2.7276   4.6509   4.7118

          k =-0.6250-0.8750 0.3750 (   360 PWs)   bands (ev):

    -3.6873   0.1537   2.6973   4.0559

          k = 0.1250 0.6250-0.1250 (   351 PWs)   bands (ev):

    -4.0987   1.0170   3.3354   3.7816

          k =-0.3750-0.3750-0.1250 (   355 PWs)   bands (ev):

    -4.6283   1.3593   3.6798   5.1719

          k = 0.6250 0.1250-0.1250 (   351 PWs)   bands (ev):

    -4.0987   1.0170   3.3354   3.7816

          k = 0.1250-0.8750-0.1250 (   360 PWs)   bands (ev):

    -2.6364  -0.8407   2.5981   3.3169

          k =-0.8750 0.1250-0.6250 (   361 PWs)   bands (ev):

    -2.4717  -0.9368   1.9954   3.0612

          k =-1.3750-0.8750-0.6250 (   355 PWs)   bands (ev):

    -4.6283   1.3593   3.6798   5.1719

          k = 0.8750-0.1250 0.6250 (   361 PWs)   bands (ev):

    -2.4717  -0.9368   1.9954   3.0612

          k = 0.3750-1.1250 0.6250 (   360 PWs)   bands (ev):

    -3.6873   0.1537   2.6973   4.0559

          k =-0.6250 0.1250 0.8750 (   361 PWs)   bands (ev):

    -2.4717  -0.9368   1.9954   3.0612

          k =-1.1250-0.8750 0.8750 (   344 PWs)   bands (ev):

    -5.6479   4.3434   5.6526   5.6526

          k =-0.1250 0.8750 0.6250 (   361 PWs)   bands (ev):

    -2.4717  -0.9368   1.9954   3.0612

          k =-0.6250-0.1250 0.6250 (   363 PWs)   bands (ev):

    -3.0067  -0.6282   2.0502   4.0920

          k = 0.1250 0.8750-0.6250 (   361 PWs)   bands (ev):

    -2.4717  -0.9368   1.9954   3.0612

          k =-0.3750-0.1250-0.6250 (   360 PWs)   bands (ev):

    -3.6873   0.1537   2.6973   4.0559

          k =-0.6250-0.1250-0.3750 (   360 PWs)   bands (ev):

    -3.6873   0.1537   2.6973   4.0559

          k =-1.1250-1.1250-0.3750 (   351 PWs)   bands (ev):

    -4.0987   1.0170   3.3354   3.7816

          k = 0.6250 0.1250 0.3750 (   360 PWs)   bands (ev):

    -3.6873   0.1537   2.6973   4.0559

          k = 0.1250-0.8750 0.3750 (   361 PWs)   bands (ev):

    -2.4717  -0.9368   1.9954   3.0612

          k =-0.3750-0.1250 0.6250 (   360 PWs)   bands (ev):

    -3.6873   0.1537   2.6973   4.0559

          k =-0.8750-1.1250 0.6250 (   353 PWs)   bands (ev):

    -5.1235   2.7276   4.6509   4.7118

          k = 0.1250 0.6250 0.3750 (   360 PWs)   bands (ev):

    -3.6873   0.1537   2.6973   4.0559

          k =-0.3750-0.3750 0.3750 (   353 PWs)   bands (ev):

    -4.1996   0.0814   4.8672   4.8672

          k =-0.1250 0.6250-0.3750 (   360 PWs)   bands (ev):

    -3.6873   0.1537   2.6973   4.0559

          k =-0.6250-0.3750-0.3750 (   361 PWs)   bands (ev):

    -3.4995  -0.7026   3.6962   4.4061

          k = 0.1250-0.8750-0.1250 (   360 PWs)   bands (ev):

    -2.6364  -0.8407   2.5981   3.3169

          k =-0.3750-1.8750-0.1250 (   353 PWs)   bands (ev):

    -5.1235   2.7276   4.6509   4.7118

          k =-0.8750 0.1250-0.1250 (   360 PWs)   bands (ev):

    -2.6364  -0.8407   2.5981   3.3169

          k =-1.3750-0.8750-0.1250 (   361 PWs)   bands (ev):

    -2.4717  -0.9368   1.9954   3.0612

          k =-1.1250 0.3750-0.3750 (   363 PWs)   bands (ev):

    -3.0067  -0.6282   2.0502   4.0920

          k =-1.6250-0.6250-0.3750 (   361 PWs)   bands (ev):

    -3.4995  -0.7026   3.6962   4.4061

          k =-0.3750 0.3750 1.1250 (   363 PWs)   bands (ev):

    -3.0067  -0.6282   2.0502   4.0920

          k =-0.8750-0.6250 1.1250 (   353 PWs)   bands (ev):

    -5.1235   2.7276   4.6509   4.7118

     highest occupied level (ev):     5.6526

     Writing output data file silicon.10.350.save

                                                                                

     bravais-lattice index     =            2
     lattice parameter (alat)  =      10.3500  a.u.
     unit-cell volume          =     277.1795 (a.u.)^3
     number of atoms/cell      =            2
     number of atomic types    =            1
     kinetic-energy cut-off    =      18.0000  Ry
     charge density cut-off    =      72.0000  Ry
     convergence threshold     =      1.0E-12
     beta                      =       0.7000
     number of iterations used =            4
     Exchange-correlation      = SLA  PW   PBE  PBE ( 1  4  3  4 0 0)


     celldm(1)=   10.35000  celldm(2)=    0.00000  celldm(3)=    0.00000
     celldm(4)=    0.00000  celldm(5)=    0.00000  celldm(6)=    0.00000

     crystal axes: (cart. coord. in units of alat)
               a(1) = ( -0.5000  0.0000  0.5000 )  
               a(2) = (  0.0000  0.5000  0.5000 )  
               a(3) = ( -0.5000  0.5000  0.0000 )  

     reciprocal axes: (cart. coord. in units 2 pi/alat)
               b(1) = ( -1.0000 -1.0000  1.0000 )  
               b(2) = (  1.0000  1.0000  1.0000 )  
               b(3) = ( -1.0000  1.0000 -1.0000 )  


     Atoms inside the unit cell: 

     Cartesian axes

     site n.  atom      mass           positions (alat units)
        1     Si  28.0860   tau(    1) = (    0.00000    0.00000    0.00000  )
        2     Si  28.0860   tau(    2) = (    0.25000    0.25000    0.25000  )

     Computing dynamical matrix for 
                    q = (  -0.5000000  -1.0000000   0.0000000 )

      8 Sym.Ops. (no q -> -q+G )


     G cutoff =  195.3680  (    710 G-vectors)     FFT grid: ( 20, 20, 20)
     number of k points=    64

     PseudoPot. # 1 for Si read from file:
     /home/max/quantum_espresso/qe-6.1/pseudo/si_pbe_v1.uspp.F.UPF.txt
     MD5 check sum: a056efeee980c13900f22a371efd63c1
     Pseudo is Ultrasoft + core correction, Zval =  4.0
     Generated by new atomic code, or converted to UPF format
     Using radial grid of  899 points,  6 beta functions with: 
                l(1) =   0
                l(2) =   0
                l(3) =   1
                l(4) =   1
                l(5) =   2
                l(6) =   2
     Q(r) pseudized with  8 coefficients,  rinner =    0.900   0.900   0.900
                                                       0.900   0.900


     Atomic displacements:
     There are   3 irreducible representations

     Representation     1      2 modes -  To be done

     Representation     2      2 modes -  To be done

     Representation     3      2 modes -  To be done



     Alpha used in Ewald sum =   0.7000
     PHONON       :  1m25.22s CPU     1m35.17s WALL



     Representation #  1 modes #   1  2

     Self-consistent Calculation

      iter #   1 total cpu time :    95.6 secs   av.it.:   5.3
      thresh= 1.000E-02 alpha_mix =  0.700 |ddv_scf|^2 =  6.352E-06

      iter #   2 total cpu time :    96.0 secs   av.it.:   9.9
      thresh= 2.520E-04 alpha_mix =  0.700 |ddv_scf|^2 =  3.425E-06

      iter #   3 total cpu time :    96.3 secs   av.it.:   9.2
      thresh= 1.851E-04 alpha_mix =  0.700 |ddv_scf|^2 =  9.105E-09

      iter #   4 total cpu time :    96.9 secs   av.it.:   9.0
      thresh= 9.542E-06 alpha_mix =  0.700 |ddv_scf|^2 =  1.962E-11

      iter #   5 total cpu time :    97.2 secs   av.it.:   9.2
      thresh= 4.430E-07 alpha_mix =  0.700 |ddv_scf|^2 =  5.749E-13

     End of self-consistent calculation

     Convergence has been achieved 


     Representation #  2 modes #   3  4

     Self-consistent Calculation

      iter #   1 total cpu time :    97.5 secs   av.it.:   5.2
      thresh= 1.000E-02 alpha_mix =  0.700 |ddv_scf|^2 =  9.796E-06

      iter #   2 total cpu time :    97.9 secs   av.it.:   9.9
      thresh= 3.130E-04 alpha_mix =  0.700 |ddv_scf|^2 =  1.310E-05

      iter #   3 total cpu time :    98.3 secs   av.it.:   9.1
      thresh= 3.619E-04 alpha_mix =  0.700 |ddv_scf|^2 =  1.061E-08

      iter #   4 total cpu time :    98.9 secs   av.it.:   8.8
      thresh= 1.030E-05 alpha_mix =  0.700 |ddv_scf|^2 =  8.590E-11

      iter #   5 total cpu time :    99.4 secs   av.it.:   9.4
      thresh= 9.268E-07 alpha_mix =  0.700 |ddv_scf|^2 =  1.821E-12

      iter #   6 total cpu time :    99.8 secs   av.it.:   9.1
      thresh= 1.349E-07 alpha_mix =  0.700 |ddv_scf|^2 =  1.496E-14

     End of self-consistent calculation

     Convergence has been achieved 


     Representation #  3 modes #   5  6

     Self-consistent Calculation

      iter #   1 total cpu time :   100.1 secs   av.it.:   5.1
      thresh= 1.000E-02 alpha_mix =  0.700 |ddv_scf|^2 =  2.663E-06

      iter #   2 total cpu time :   100.5 secs   av.it.:   9.7
      thresh= 1.632E-04 alpha_mix =  0.700 |ddv_scf|^2 =  1.447E-06

      iter #   3 total cpu time :   101.2 secs   av.it.:   9.0
      thresh= 1.203E-04 alpha_mix =  0.700 |ddv_scf|^2 =  8.815E-09

      iter #   4 total cpu time :   101.6 secs   av.it.:   8.7
      thresh= 9.389E-06 alpha_mix =  0.700 |ddv_scf|^2 =  4.400E-11

      iter #   5 total cpu time :   101.9 secs   av.it.:   9.1
      thresh= 6.634E-07 alpha_mix =  0.700 |ddv_scf|^2 =  6.906E-13

     End of self-consistent calculation

     Convergence has been achieved 

     Number of q in the star =    6
     List of q in the star:
          1  -0.500000000  -1.000000000   0.000000000
          2   0.000000000   1.000000000   0.500000000
          3   0.000000000  -1.000000000  -0.500000000
          4   0.500000000   1.000000000   0.000000000
          5  -1.000000000  -0.500000000   0.000000000
          6   0.000000000  -0.500000000  -1.000000000

     Diagonalizing the dynamical matrix

     q = (   -0.500000000  -1.000000000   0.000000000 ) 

 **************************************************************************
     freq (    1) =       7.347902 [THz] =     245.099634 [cm-1]
     freq (    2) =       7.347902 [THz] =     245.099634 [cm-1]
     freq (    3) =      10.929833 [THz] =     364.579991 [cm-1]
     freq (    4) =      10.929833 [THz] =     364.579991 [cm-1]
     freq (    5) =      13.832534 [THz] =     461.403657 [cm-1]
     freq (    6) =      13.832534 [THz] =     461.403657 [cm-1]
 **************************************************************************

     init_run     :      0.57s CPU      0.63s WALL (       7 calls)
     electrons    :      5.35s CPU      6.06s WALL (       7 calls)

     Called by init_run:
     wfcinit      :      0.00s CPU      0.00s WALL (       7 calls)
     potinit      :      0.02s CPU      0.02s WALL (       7 calls)

     Called by electrons:
     c_bands      :      5.35s CPU      6.04s WALL (       7 calls)
     v_of_rho     :      0.01s CPU      0.01s WALL (       8 calls)
     newd         :      0.03s CPU      0.03s WALL (       8 calls)

     Called by c_bands:
     init_us_2    :      0.70s CPU      0.78s WALL (   17588 calls)
     cegterg      :      4.52s CPU      5.08s WALL (     796 calls)

     Called by sum_band:

     Called by *egterg:
     h_psi        :     49.94s CPU     55.93s WALL (  152158 calls)
     s_psi        :      5.89s CPU      6.52s WALL (  309036 calls)
     g_psi        :      0.03s CPU      0.03s WALL (    9268 calls)
     cdiaghg      :      0.50s CPU      0.58s WALL (   10064 calls)

     Called by h_psi:
     h_psi:pot    :     49.75s CPU     55.72s WALL (  152158 calls)
     h_psi:calbec :      5.47s CPU      6.19s WALL (  152158 calls)
     vloc_psi     :     41.09s CPU     45.99s WALL (  152158 calls)
     add_vuspsi   :      2.95s CPU      3.28s WALL (  152158 calls)

     General routines
     calbec       :     11.78s CPU     13.27s WALL (  345408 calls)
     fft          :      0.68s CPU      0.73s WALL (    5239 calls)
     ffts         :      0.16s CPU      0.17s WALL (    2748 calls)
     fftw         :     48.08s CPU     53.87s WALL ( 1377702 calls)
     davcio       :      0.31s CPU      0.36s WALL (   79045 calls)

     Parallel routines
     fft_scatter  :     15.57s CPU     17.75s WALL ( 1385689 calls)

     PHONON       :  1m31.11s CPU     1m41.93s WALL

     INITIALIZATION: 
     phq_setup    :      0.06s CPU      0.06s WALL (       8 calls)
     phq_init     :      2.54s CPU      2.78s WALL (       8 calls)

     phq_init     :      2.54s CPU      2.78s WALL (       8 calls)
     set_drhoc    :      0.29s CPU      0.30s WALL (      24 calls)
     init_vloc    :      0.01s CPU      0.01s WALL (       8 calls)
     init_us_1    :      0.52s CPU      0.55s WALL (       8 calls)
     newd         :      0.03s CPU      0.03s WALL (       8 calls)
     dvanqq       :      0.29s CPU      0.31s WALL (       8 calls)
     drho         :      1.36s CPU      1.46s WALL (       8 calls)

     DYNAMICAL MATRIX:
     dynmat0      :      0.63s CPU      0.74s WALL (       8 calls)
     phqscf       :     79.86s CPU     89.44s WALL (       8 calls)
     dynmatrix    :      0.01s CPU      0.02s WALL (       8 calls)

     phqscf       :     79.86s CPU     89.44s WALL (       8 calls)
     solve_linter :     79.09s CPU     88.61s WALL (      32 calls)
     drhodv       :      0.56s CPU      0.60s WALL (      32 calls)

     dynmat0      :      0.63s CPU      0.74s WALL (       8 calls)
     dynmat_us    :      0.35s CPU      0.43s WALL (       8 calls)
     d2ionq       :      0.01s CPU      0.01s WALL (       8 calls)
     dynmatcc     :      0.25s CPU      0.27s WALL (       8 calls)

     dynmat_us    :      0.35s CPU      0.43s WALL (       8 calls)
     addusdynmat  :      0.00s CPU      0.00s WALL (       8 calls)

     phqscf       :     79.86s CPU     89.44s WALL (       8 calls)
     solve_linter :     79.09s CPU     88.61s WALL (      32 calls)

     solve_linter :     79.09s CPU     88.61s WALL (      32 calls)
     dvqpsi_us    :      1.77s CPU      1.96s WALL (    2508 calls)
     ortho        :      1.30s CPU      1.46s WALL (   15550 calls)
     cgsolve      :     62.39s CPU     70.00s WALL (   15550 calls)
     incdrhoscf   :      5.41s CPU      6.05s WALL (   15550 calls)
     addusddens   :      1.28s CPU      1.34s WALL (     228 calls)
     vpsifft      :      3.98s CPU      4.51s WALL (   12922 calls)
     dv_of_drho   :      0.25s CPU      0.26s WALL (     295 calls)
     mix_pot      :      0.06s CPU      0.07s WALL (     201 calls)
     psymdvscf    :      0.81s CPU      0.85s WALL (     196 calls)
     newdq        :      1.33s CPU      1.45s WALL (     201 calls)
     adddvscf     :      0.47s CPU      0.53s WALL (   13042 calls)
     drhodvus     :      0.00s CPU      0.00s WALL (      32 calls)

     dvqpsi_us    :      1.77s CPU      1.96s WALL (    2508 calls)
     dvqpsi_us_on :      0.84s CPU      0.92s WALL (    2508 calls)

     cgsolve      :     62.39s CPU     70.00s WALL (   15550 calls)
     ch_psi       :     59.52s CPU     66.65s WALL (  141298 calls)

     ch_psi       :     59.52s CPU     66.65s WALL (  141298 calls)
     h_psi        :     49.94s CPU     55.93s WALL (  152158 calls)
     last         :     10.16s CPU     11.46s WALL (  141298 calls)

     h_psi        :     49.94s CPU     55.93s WALL (  152158 calls)
     add_vuspsi   :      2.95s CPU      3.28s WALL (  152158 calls)

     incdrhoscf   :      5.41s CPU      6.05s WALL (   15550 calls)
     addusdbec    :      0.82s CPU      0.91s WALL (   17998 calls)

     drhodvus     :      0.00s CPU      0.00s WALL (      32 calls)

      General routines
     calbec       :     11.78s CPU     13.27s WALL (  345408 calls)
     fft          :      0.68s CPU      0.73s WALL (    5239 calls)
     ffts         :      0.16s CPU      0.17s WALL (    2748 calls)
     fftw         :     48.08s CPU     53.87s WALL ( 1377702 calls)
     davcio       :      0.31s CPU      0.36s WALL (   79045 calls)
     write_rec    :      0.22s CPU      0.25s WALL (     233 calls)


     PHONON       :  1m31.11s CPU     1m41.93s WALL


   This run was terminated on:  12:56:33   9Nov2017            

=------------------------------------------------------------------------------=
   JOB DONE.
=------------------------------------------------------------------------------=
