
     Program PHONON v.6.1 (svn rev. 13369) starts on  9Nov2017 at 17:23: 6 

     This program is part of the open-source Quantum ESPRESSO suite
     for quantum simulation of materials; please cite
         "P. Giannozzi et al., J. Phys.:Condens. Matter 21 395502 (2009);
          URL http://www.quantum-espresso.org", 
     in publications or presentations arising from this work. More details at
     http://www.quantum-espresso.org/quote

     Parallel version (MPI), running on     4 processors
     R & G space division:  proc/nbgrp/npool/nimage =       4

     Reading data from directory:
     ./silicon.10.395.save

   Info: using nr1, nr2, nr3 values from input

   Info: using nr1, nr2, nr3 values from input

     IMPORTANT: XC functional enforced from input :
     Exchange-correlation      = SLA  PW   PBE  PBE ( 1  4  3  4 0 0)
     Any further DFT definition will be discarded
     Please, verify this is what you really want


     Parallelization info
     --------------------
     sticks:   dense  smooth     PW     G-vecs:    dense   smooth      PW
     Min          66      66     22                  722      722     152
     Max          67      67     23                  724      724     153
     Sum         265     265     91                 2891     2891     609


     Check: negative/imaginary core charge=   -0.000006    0.000000


     Dynamical matrices for ( 4, 4, 4)  uniform grid of q-points
     (   8q-points):
       N         xq(1)         xq(2)         xq(3) 
       1   0.000000000   0.000000000   0.000000000
       2  -0.250000000   0.250000000  -0.250000000
       3   0.500000000  -0.500000000   0.500000000
       4   0.000000000   0.500000000   0.000000000
       5   0.750000000  -0.250000000   0.750000000
       6   0.500000000   0.000000000   0.500000000
       7   0.000000000  -1.000000000   0.000000000
       8  -0.500000000  -1.000000000   0.000000000

     Calculation of q =    0.0000000   0.0000000   0.0000000

                                                                                

     bravais-lattice index     =            2
     lattice parameter (alat)  =      10.3950  a.u.
     unit-cell volume          =     280.8106 (a.u.)^3
     number of atoms/cell      =            2
     number of atomic types    =            1
     kinetic-energy cut-off    =      18.0000  Ry
     charge density cut-off    =      72.0000  Ry
     convergence threshold     =      1.0E-12
     beta                      =       0.7000
     number of iterations used =            4
     Exchange-correlation      = SLA  PW   PBE  PBE ( 1  4  3  4 0 0)


     celldm(1)=   10.39500  celldm(2)=    0.00000  celldm(3)=    0.00000
     celldm(4)=    0.00000  celldm(5)=    0.00000  celldm(6)=    0.00000

     crystal axes: (cart. coord. in units of alat)
               a(1) = ( -0.5000  0.0000  0.5000 )  
               a(2) = (  0.0000  0.5000  0.5000 )  
               a(3) = ( -0.5000  0.5000  0.0000 )  

     reciprocal axes: (cart. coord. in units 2 pi/alat)
               b(1) = ( -1.0000 -1.0000  1.0000 )  
               b(2) = (  1.0000  1.0000  1.0000 )  
               b(3) = ( -1.0000  1.0000 -1.0000 )  


     Atoms inside the unit cell: 

     Cartesian axes

     site n.  atom      mass           positions (alat units)
        1     Si  28.0860   tau(    1) = (    0.00000    0.00000    0.00000  )
        2     Si  28.0860   tau(    2) = (    0.25000    0.25000    0.25000  )

     Computing dynamical matrix for 
                    q = (   0.0000000   0.0000000   0.0000000 )

     49 Sym.Ops. (with q -> -q+G )


     G cutoff =  197.0706  (    722 G-vectors)     FFT grid: ( 20, 20, 20)
     number of k points=    10

     PseudoPot. # 1 for Si read from file:
     /home/max/quantum_espresso/qe-6.1/pseudo/si_pbe_v1.uspp.F.UPF.txt
     MD5 check sum: a056efeee980c13900f22a371efd63c1
     Pseudo is Ultrasoft + core correction, Zval =  4.0
     Generated by new atomic code, or converted to UPF format
     Using radial grid of  899 points,  6 beta functions with: 
                l(1) =   0
                l(2) =   0
                l(3) =   1
                l(4) =   1
                l(5) =   2
                l(6) =   2
     Q(r) pseudized with  8 coefficients,  rinner =    0.900   0.900   0.900
                                                       0.900   0.900

     Mode symmetry, O_h (m-3m)  point group:


     Electric field:
     Dielectric constant
     Born effective charges in two ways 


     Atomic displacements:
     There are   2 irreducible representations

     Representation     1      3 modes -T_2g G_25' G_5+  To be done

     Representation     2      3 modes -T_1u G_15  G_4-  To be done



     Alpha used in Ewald sum =   0.7000
     PHONON       :     0.39s CPU         0.41s WALL


     Electric Fields Calculation

      iter #   1 total cpu time :     0.8 secs   av.it.:   5.6
      thresh= 1.000E-02 alpha_mix =  0.700 |ddv_scf|^2 =  9.549E-07

      iter #   2 total cpu time :     1.0 secs   av.it.:   9.9
      thresh= 9.772E-05 alpha_mix =  0.700 |ddv_scf|^2 =  6.219E-08

      iter #   3 total cpu time :     1.1 secs   av.it.:   9.8
      thresh= 2.494E-05 alpha_mix =  0.700 |ddv_scf|^2 =  4.938E-09

      iter #   4 total cpu time :     1.3 secs   av.it.:   9.0
      thresh= 7.027E-06 alpha_mix =  0.700 |ddv_scf|^2 =  2.991E-11

      iter #   5 total cpu time :     1.5 secs   av.it.:   9.1
      thresh= 5.469E-07 alpha_mix =  0.700 |ddv_scf|^2 =  1.543E-14

     End of electric fields calculation

          Dielectric constant in cartesian axis 

          (      14.008492568       0.000000000       0.000000000 )
          (      -0.000000000      14.008492568      -0.000000000 )
          (       0.000000000       0.000000000      14.008492568 )

          Effective charges (d Force / dE) in cartesian axis

           atom      1   Si 
      Ex  (       -0.03370        0.00000        0.00000 )
      Ey  (        0.00000       -0.03370        0.00000 )
      Ez  (       -0.00000       -0.00000       -0.03370 )
           atom      2   Si 
      Ex  (       -0.03370       -0.00000       -0.00000 )
      Ey  (        0.00000       -0.03370       -0.00000 )
      Ez  (       -0.00000        0.00000       -0.03370 )


     Representation #  1 modes #   1  2  3

     Self-consistent Calculation

      iter #   1 total cpu time :     2.0 secs   av.it.:   4.9
      thresh= 1.000E-02 alpha_mix =  0.700 |ddv_scf|^2 =  1.850E-07

      iter #   2 total cpu time :     2.2 secs   av.it.:  10.0
      thresh= 4.301E-05 alpha_mix =  0.700 |ddv_scf|^2 =  1.021E-08

      iter #   3 total cpu time :     2.4 secs   av.it.:   9.5
      thresh= 1.010E-05 alpha_mix =  0.700 |ddv_scf|^2 =  7.060E-10

      iter #   4 total cpu time :     2.6 secs   av.it.:   9.1
      thresh= 2.657E-06 alpha_mix =  0.700 |ddv_scf|^2 =  1.816E-12

      iter #   5 total cpu time :     2.8 secs   av.it.:   9.4
      thresh= 1.348E-07 alpha_mix =  0.700 |ddv_scf|^2 =  1.534E-14

     End of self-consistent calculation

     Convergence has been achieved 


     Representation #  2 modes #   4  5  6

     Self-consistent Calculation

      iter #   1 total cpu time :     3.0 secs   av.it.:   5.0
      thresh= 1.000E-02 alpha_mix =  0.700 |ddv_scf|^2 =  1.920E-07

      iter #   2 total cpu time :     3.2 secs   av.it.:   9.6
      thresh= 4.382E-05 alpha_mix =  0.700 |ddv_scf|^2 =  1.583E-08

      iter #   3 total cpu time :     3.3 secs   av.it.:   9.2
      thresh= 1.258E-05 alpha_mix =  0.700 |ddv_scf|^2 =  9.510E-10

      iter #   4 total cpu time :     3.5 secs   av.it.:   9.5
      thresh= 3.084E-06 alpha_mix =  0.700 |ddv_scf|^2 =  5.535E-12

      iter #   5 total cpu time :     3.7 secs   av.it.:   9.1
      thresh= 2.353E-07 alpha_mix =  0.700 |ddv_scf|^2 =  5.062E-15

     End of self-consistent calculation

     Convergence has been achieved 

     Number of q in the star =    1
     List of q in the star:
          1   0.000000000   0.000000000   0.000000000

          Dielectric constant in cartesian axis 

          (      14.008492568       0.000000000       0.000000000 )
          (      -0.000000000      14.008492568      -0.000000000 )
          (       0.000000000       0.000000000      14.008492568 )

          Effective charges (d Force / dE) in cartesian axis

           atom      1   Si 
      Ex  (       -0.03370        0.00000        0.00000 )
      Ey  (        0.00000       -0.03370        0.00000 )
      Ez  (       -0.00000       -0.00000       -0.03370 )
           atom      2   Si 
      Ex  (       -0.03370       -0.00000       -0.00000 )
      Ey  (        0.00000       -0.03370       -0.00000 )
      Ez  (       -0.00000        0.00000       -0.03370 )

          Effective charges (d P / du) in cartesian axis 

           atom      1   Si 
      Px  (       -0.07580       -0.00000       -0.00000 )
      Py  (       -0.00000       -0.07580        0.00000 )
      Pz  (       -0.00000       -0.00000       -0.07580 )
           atom      2   Si 
      Px  (       -0.07580       -0.00000       -0.00000 )
      Py  (       -0.00000       -0.07580        0.00000 )
      Pz  (       -0.00000        0.00000       -0.07580 )

     Diagonalizing the dynamical matrix

     q = (    0.000000000   0.000000000   0.000000000 ) 

 **************************************************************************
     freq (    1) =       1.791407 [THz] =      59.754909 [cm-1]
     freq (    2) =       1.791407 [THz] =      59.754909 [cm-1]
     freq (    3) =       1.791407 [THz] =      59.754909 [cm-1]
     freq (    4) =      15.588603 [THz] =     519.979837 [cm-1]
     freq (    5) =      15.588603 [THz] =     519.979837 [cm-1]
     freq (    6) =      15.588603 [THz] =     519.979837 [cm-1]
 **************************************************************************

     Mode symmetry, O_h (m-3m)  point group:

     freq (  1 -  3) =         59.8  [cm-1]   --> T_1u G_15  G_4- I  
     freq (  4 -  6) =        520.0  [cm-1]   --> T_2g G_25' G_5+ R  

     Calculation of q =   -0.2500000   0.2500000  -0.2500000

   Info: using nr1, nr2, nr3 values from input

   Info: using nr1, nr2, nr3 values from input

     Parallelization info
     --------------------
     sticks:   dense  smooth     PW     G-vecs:    dense   smooth      PW
     Min          66      66     24                  722      722     161
     Max          67      67     25                  724      724     162
     Sum         265     265     97                 2891     2891     645



     bravais-lattice index     =            2
     lattice parameter (alat)  =      10.3950  a.u.
     unit-cell volume          =     280.8106 (a.u.)^3
     number of atoms/cell      =            2
     number of atomic types    =            1
     number of electrons       =         8.00
     number of Kohn-Sham states=            4
     kinetic-energy cutoff     =      18.0000  Ry
     charge density cutoff     =      72.0000  Ry
     Exchange-correlation      = SLA  PW   PBE  PBE ( 1  4  3  4 0 0)

     celldm(1)=  10.395000  celldm(2)=   0.000000  celldm(3)=   0.000000
     celldm(4)=   0.000000  celldm(5)=   0.000000  celldm(6)=   0.000000

     crystal axes: (cart. coord. in units of alat)
               a(1) = (  -0.500000   0.000000   0.500000 )  
               a(2) = (   0.000000   0.500000   0.500000 )  
               a(3) = (  -0.500000   0.500000   0.000000 )  

     reciprocal axes: (cart. coord. in units 2 pi/alat)
               b(1) = ( -1.000000 -1.000000  1.000000 )  
               b(2) = (  1.000000  1.000000  1.000000 )  
               b(3) = ( -1.000000  1.000000 -1.000000 )  


     PseudoPot. # 1 for Si read from file:
     /home/max/quantum_espresso/qe-6.1/pseudo/si_pbe_v1.uspp.F.UPF.txt
     MD5 check sum: a056efeee980c13900f22a371efd63c1
     Pseudo is Ultrasoft + core correction, Zval =  4.0
     Generated by new atomic code, or converted to UPF format
     Using radial grid of  899 points,  6 beta functions with: 
                l(1) =   0
                l(2) =   0
                l(3) =   1
                l(4) =   1
                l(5) =   2
                l(6) =   2
     Q(r) pseudized with  8 coefficients,  rinner =    0.900   0.900   0.900
                                                       0.900   0.900

     atomic species   valence    mass     pseudopotential
        Si             4.00    28.08600     Si( 1.00)

     48 Sym. Ops., with inversion, found



   Cartesian axes

     site n.     atom                  positions (alat units)
         1           Si  tau(   1) = (   0.0000000   0.0000000   0.0000000  )
         2           Si  tau(   2) = (   0.2500000   0.2500000   0.2500000  )

     number of k points=   120

     Number of k-points >= 100: set verbosity='high' to print them.

     Dense  grid:     2891 G-vectors     FFT dimensions: (  20,  20,  20)

     Estimated max dynamical RAM per process >       0.33MB

     Estimated total allocated dynamical RAM >       1.33MB

     Check: negative/imaginary core charge=   -0.000006    0.000000

     The potential is recalculated from file :
     ./_ph0/silicon.10.395.save/charge-density.dat

     Starting wfc are    8 atomic wfcs

     Band Structure Calculation
     Davidson diagonalization with overlap

     ethr =  1.25E-10,  avg # of iterations = 11.7

     total cpu time spent up to now is        0.8 secs

     End of band structure calculation

     Number of k-points >= 100: set verbosity='high' to print the bands.

     highest occupied level (ev):     5.5242

     Writing output data file silicon.10.395.save

                                                                                

     bravais-lattice index     =            2
     lattice parameter (alat)  =      10.3950  a.u.
     unit-cell volume          =     280.8106 (a.u.)^3
     number of atoms/cell      =            2
     number of atomic types    =            1
     kinetic-energy cut-off    =      18.0000  Ry
     charge density cut-off    =      72.0000  Ry
     convergence threshold     =      1.0E-12
     beta                      =       0.7000
     number of iterations used =            4
     Exchange-correlation      = SLA  PW   PBE  PBE ( 1  4  3  4 0 0)


     celldm(1)=   10.39500  celldm(2)=    0.00000  celldm(3)=    0.00000
     celldm(4)=    0.00000  celldm(5)=    0.00000  celldm(6)=    0.00000

     crystal axes: (cart. coord. in units of alat)
               a(1) = ( -0.5000  0.0000  0.5000 )  
               a(2) = (  0.0000  0.5000  0.5000 )  
               a(3) = ( -0.5000  0.5000  0.0000 )  

     reciprocal axes: (cart. coord. in units 2 pi/alat)
               b(1) = ( -1.0000 -1.0000  1.0000 )  
               b(2) = (  1.0000  1.0000  1.0000 )  
               b(3) = ( -1.0000  1.0000 -1.0000 )  


     Atoms inside the unit cell: 

     Cartesian axes

     site n.  atom      mass           positions (alat units)
        1     Si  28.0860   tau(    1) = (    0.00000    0.00000    0.00000  )
        2     Si  28.0860   tau(    2) = (    0.25000    0.25000    0.25000  )

     Computing dynamical matrix for 
                    q = (  -0.2500000   0.2500000  -0.2500000 )

      6 Sym.Ops. (no q -> -q+G )


     G cutoff =  197.0706  (    722 G-vectors)     FFT grid: ( 20, 20, 20)
     number of k points=   120

     PseudoPot. # 1 for Si read from file:
     /home/max/quantum_espresso/qe-6.1/pseudo/si_pbe_v1.uspp.F.UPF.txt
     MD5 check sum: a056efeee980c13900f22a371efd63c1
     Pseudo is Ultrasoft + core correction, Zval =  4.0
     Generated by new atomic code, or converted to UPF format
     Using radial grid of  899 points,  6 beta functions with: 
                l(1) =   0
                l(2) =   0
                l(3) =   1
                l(4) =   1
                l(5) =   2
                l(6) =   2
     Q(r) pseudized with  8 coefficients,  rinner =    0.900   0.900   0.900
                                                       0.900   0.900

     Mode symmetry, C_3v (3m)   point group:


     Atomic displacements:
     There are   4 irreducible representations

     Representation     1      1 modes -A_1  L_1  To be done

     Representation     2      1 modes -A_1  L_1  To be done

     Representation     3      2 modes -E    L_3  To be done

     Representation     4      2 modes -E    L_3  To be done



     Alpha used in Ewald sum =   0.7000
     PHONON       :     4.85s CPU         5.11s WALL



     Representation #  1 mode #   1

     Self-consistent Calculation

      iter #   1 total cpu time :     5.3 secs   av.it.:   5.5
      thresh= 1.000E-02 alpha_mix =  0.700 |ddv_scf|^2 =  2.429E-03

      iter #   2 total cpu time :     5.6 secs   av.it.:   7.5
      thresh= 4.929E-03 alpha_mix =  0.700 |ddv_scf|^2 =  3.692E-02

      iter #   3 total cpu time :     6.0 secs   av.it.:   6.3
      thresh= 1.000E-02 alpha_mix =  0.700 |ddv_scf|^2 =  1.716E-06

      iter #   4 total cpu time :     6.2 secs   av.it.:   8.2
      thresh= 1.310E-04 alpha_mix =  0.700 |ddv_scf|^2 =  1.140E-07

      iter #   5 total cpu time :     6.5 secs   av.it.:   8.1
      thresh= 3.377E-05 alpha_mix =  0.700 |ddv_scf|^2 =  4.412E-09

      iter #   6 total cpu time :     6.7 secs   av.it.:   8.1
      thresh= 6.642E-06 alpha_mix =  0.700 |ddv_scf|^2 =  3.263E-09

      iter #   7 total cpu time :     6.9 secs   av.it.:   6.3
      thresh= 5.713E-06 alpha_mix =  0.700 |ddv_scf|^2 =  7.329E-10

      iter #   8 total cpu time :     7.2 secs   av.it.:   7.1
      thresh= 2.707E-06 alpha_mix =  0.700 |ddv_scf|^2 =  4.073E-12

      iter #   9 total cpu time :     7.4 secs   av.it.:   7.2
      thresh= 2.018E-07 alpha_mix =  0.700 |ddv_scf|^2 =  2.177E-13

     End of self-consistent calculation

     Convergence has been achieved 


     Representation #  2 mode #   2

     Self-consistent Calculation

      iter #   1 total cpu time :     7.7 secs   av.it.:   5.5
      thresh= 1.000E-02 alpha_mix =  0.700 |ddv_scf|^2 =  2.429E-03

      iter #   2 total cpu time :     8.0 secs   av.it.:   7.5
      thresh= 4.929E-03 alpha_mix =  0.700 |ddv_scf|^2 =  3.692E-02

      iter #   3 total cpu time :     8.3 secs   av.it.:   6.3
      thresh= 1.000E-02 alpha_mix =  0.700 |ddv_scf|^2 =  1.716E-06

      iter #   4 total cpu time :     8.5 secs   av.it.:   8.2
      thresh= 1.310E-04 alpha_mix =  0.700 |ddv_scf|^2 =  1.140E-07

      iter #   5 total cpu time :     8.8 secs   av.it.:   8.1
      thresh= 3.377E-05 alpha_mix =  0.700 |ddv_scf|^2 =  4.412E-09

      iter #   6 total cpu time :     9.0 secs   av.it.:   8.1
      thresh= 6.642E-06 alpha_mix =  0.700 |ddv_scf|^2 =  3.263E-09

      iter #   7 total cpu time :     9.3 secs   av.it.:   6.3
      thresh= 5.713E-06 alpha_mix =  0.700 |ddv_scf|^2 =  7.329E-10

      iter #   8 total cpu time :     9.5 secs   av.it.:   7.1
      thresh= 2.707E-06 alpha_mix =  0.700 |ddv_scf|^2 =  4.073E-12

      iter #   9 total cpu time :     9.8 secs   av.it.:   7.2
      thresh= 2.018E-07 alpha_mix =  0.700 |ddv_scf|^2 =  2.177E-13

     End of self-consistent calculation

     Convergence has been achieved 


     Representation #  3 modes #   3  4

     Self-consistent Calculation

      iter #   1 total cpu time :    10.3 secs   av.it.:   5.0
      thresh= 1.000E-02 alpha_mix =  0.700 |ddv_scf|^2 =  5.348E-07

      iter #   2 total cpu time :    10.9 secs   av.it.:   9.6
      thresh= 7.313E-05 alpha_mix =  0.700 |ddv_scf|^2 =  4.006E-08

      iter #   3 total cpu time :    11.5 secs   av.it.:   9.3
      thresh= 2.002E-05 alpha_mix =  0.700 |ddv_scf|^2 =  3.444E-09

      iter #   4 total cpu time :    12.2 secs   av.it.:   9.0
      thresh= 5.868E-06 alpha_mix =  0.700 |ddv_scf|^2 =  1.138E-11

      iter #   5 total cpu time :    12.7 secs   av.it.:   9.2
      thresh= 3.374E-07 alpha_mix =  0.700 |ddv_scf|^2 =  5.090E-13

     End of self-consistent calculation

     Convergence has been achieved 


     Representation #  4 modes #   5  6

     Self-consistent Calculation

      iter #   1 total cpu time :    13.1 secs   av.it.:   5.0
      thresh= 1.000E-02 alpha_mix =  0.700 |ddv_scf|^2 =  5.346E-07

      iter #   2 total cpu time :    13.8 secs   av.it.:   9.7
      thresh= 7.312E-05 alpha_mix =  0.700 |ddv_scf|^2 =  4.000E-08

      iter #   3 total cpu time :    14.5 secs   av.it.:   9.4
      thresh= 2.000E-05 alpha_mix =  0.700 |ddv_scf|^2 =  3.439E-09

      iter #   4 total cpu time :    15.0 secs   av.it.:   9.1
      thresh= 5.865E-06 alpha_mix =  0.700 |ddv_scf|^2 =  1.138E-11

      iter #   5 total cpu time :    15.6 secs   av.it.:   9.3
      thresh= 3.374E-07 alpha_mix =  0.700 |ddv_scf|^2 =  5.090E-13

     End of self-consistent calculation

     Convergence has been achieved 

     Number of q in the star =    8
     List of q in the star:
          1  -0.250000000   0.250000000  -0.250000000
          2   0.250000000  -0.250000000  -0.250000000
          3   0.250000000  -0.250000000   0.250000000
          4   0.250000000   0.250000000   0.250000000
          5  -0.250000000  -0.250000000  -0.250000000
          6  -0.250000000  -0.250000000   0.250000000
          7  -0.250000000   0.250000000   0.250000000
          8   0.250000000   0.250000000  -0.250000000

     Diagonalizing the dynamical matrix

     q = (   -0.250000000   0.250000000  -0.250000000 ) 

 **************************************************************************
     freq (    1) =       3.410828 [THz] =     113.772992 [cm-1]
     freq (    2) =       3.410828 [THz] =     113.772992 [cm-1]
     freq (    3) =       6.815978 [THz] =     227.356561 [cm-1]
     freq (    4) =      14.684282 [THz] =     489.814931 [cm-1]
     freq (    5) =      14.967085 [THz] =     499.248212 [cm-1]
     freq (    6) =      14.967085 [THz] =     499.248212 [cm-1]
 **************************************************************************

     Mode symmetry, C_3v (3m)   point group:

     freq (  1 -  2) =        113.8  [cm-1]   --> E    L_3           
     freq (  3 -  3) =        227.4  [cm-1]   --> A_1  L_1           
     freq (  4 -  4) =        489.8  [cm-1]   --> A_1  L_1           
     freq (  5 -  6) =        499.2  [cm-1]   --> E    L_3           

     Calculation of q =    0.5000000  -0.5000000   0.5000000

   Info: using nr1, nr2, nr3 values from input

   Info: using nr1, nr2, nr3 values from input

     Parallelization info
     --------------------
     sticks:   dense  smooth     PW     G-vecs:    dense   smooth      PW
     Min          66      66     27                  722      722     186
     Max          67      67     28                  724      724     189
     Sum         265     265    109                 2891     2891     749



     bravais-lattice index     =            2
     lattice parameter (alat)  =      10.3950  a.u.
     unit-cell volume          =     280.8106 (a.u.)^3
     number of atoms/cell      =            2
     number of atomic types    =            1
     number of electrons       =         8.00
     number of Kohn-Sham states=            4
     kinetic-energy cutoff     =      18.0000  Ry
     charge density cutoff     =      72.0000  Ry
     Exchange-correlation      = SLA  PW   PBE  PBE ( 1  4  3  4 0 0)

     celldm(1)=  10.395000  celldm(2)=   0.000000  celldm(3)=   0.000000
     celldm(4)=   0.000000  celldm(5)=   0.000000  celldm(6)=   0.000000

     crystal axes: (cart. coord. in units of alat)
               a(1) = (  -0.500000   0.000000   0.500000 )  
               a(2) = (   0.000000   0.500000   0.500000 )  
               a(3) = (  -0.500000   0.500000   0.000000 )  

     reciprocal axes: (cart. coord. in units 2 pi/alat)
               b(1) = ( -1.000000 -1.000000  1.000000 )  
               b(2) = (  1.000000  1.000000  1.000000 )  
               b(3) = ( -1.000000  1.000000 -1.000000 )  


     PseudoPot. # 1 for Si read from file:
     /home/max/quantum_espresso/qe-6.1/pseudo/si_pbe_v1.uspp.F.UPF.txt
     MD5 check sum: a056efeee980c13900f22a371efd63c1
     Pseudo is Ultrasoft + core correction, Zval =  4.0
     Generated by new atomic code, or converted to UPF format
     Using radial grid of  899 points,  6 beta functions with: 
                l(1) =   0
                l(2) =   0
                l(3) =   1
                l(4) =   1
                l(5) =   2
                l(6) =   2
     Q(r) pseudized with  8 coefficients,  rinner =    0.900   0.900   0.900
                                                       0.900   0.900

     atomic species   valence    mass     pseudopotential
        Si             4.00    28.08600     Si( 1.00)

     48 Sym. Ops., with inversion, found



   Cartesian axes

     site n.     atom                  positions (alat units)
         1           Si  tau(   1) = (   0.0000000   0.0000000   0.0000000  )
         2           Si  tau(   2) = (   0.2500000   0.2500000   0.2500000  )

     number of k points=    60
                       cart. coord. in units 2pi/alat
        k(    1) = (  -0.1250000   0.1250000   0.1250000), wk =   0.0468750
        k(    2) = (   0.3750000  -0.3750000   0.6250000), wk =   0.0000000
        k(    3) = (  -0.3750000   0.3750000  -0.1250000), wk =   0.0468750
        k(    4) = (   0.1250000  -0.1250000   0.3750000), wk =   0.0000000
        k(    5) = (   0.3750000  -0.3750000   0.6250000), wk =   0.0468750
        k(    6) = (   0.8750000  -0.8750000   1.1250000), wk =   0.0000000
        k(    7) = (   0.1250000  -0.1250000   0.3750000), wk =   0.0468750
        k(    8) = (   0.6250000  -0.6250000   0.8750000), wk =   0.0000000
        k(    9) = (  -0.1250000   0.6250000   0.1250000), wk =   0.0937500
        k(   10) = (   0.3750000   0.1250000   0.6250000), wk =   0.0000000
        k(   11) = (   0.6250000  -0.1250000   0.8750000), wk =   0.0937500
        k(   12) = (   1.1250000  -0.6250000   1.3750000), wk =   0.0000000
        k(   13) = (   0.3750000   0.1250000   0.6250000), wk =   0.0937500
        k(   14) = (   0.8750000  -0.3750000   1.1250000), wk =   0.0000000
        k(   15) = (  -0.1250000  -0.8750000   0.1250000), wk =   0.0937500
        k(   16) = (   0.3750000  -1.3750000   0.6250000), wk =   0.0000000
        k(   17) = (  -0.3750000   0.3750000   0.3750000), wk =   0.0468750
        k(   18) = (   0.1250000  -0.1250000   0.8750000), wk =   0.0000000
        k(   19) = (   0.3750000  -0.3750000   1.1250000), wk =   0.0468750
        k(   20) = (   0.8750000  -0.8750000   1.6250000), wk =   0.0000000
        k(   21) = (   0.1250000  -0.1250000   0.1250000), wk =   0.0156250
        k(   22) = (   0.6250000  -0.6250000   0.6250000), wk =   0.0000000
        k(   23) = (  -0.3750000  -0.3750000  -0.1250000), wk =   0.0937500
        k(   24) = (   0.1250000  -0.8750000   0.3750000), wk =   0.0000000
        k(   25) = (  -0.1250000  -0.3750000   0.3750000), wk =   0.0468750
        k(   26) = (   0.3750000  -0.8750000   0.8750000), wk =   0.0000000
        k(   27) = (   0.3750000   0.3750000   0.6250000), wk =   0.0937500
        k(   28) = (   0.8750000  -0.1250000   1.1250000), wk =   0.0000000
        k(   29) = (   0.6250000   0.3750000  -0.3750000), wk =   0.0468750
        k(   30) = (   1.1250000  -0.1250000   0.1250000), wk =   0.0000000
        k(   31) = (   0.1250000   0.1250000   0.3750000), wk =   0.0937500
        k(   32) = (   0.6250000  -0.3750000   0.8750000), wk =   0.0000000
        k(   33) = (   0.3750000   0.1250000  -0.1250000), wk =   0.0468750
        k(   34) = (   0.8750000  -0.3750000   0.3750000), wk =   0.0000000
        k(   35) = (  -0.1250000  -0.6250000  -0.1250000), wk =   0.0468750
        k(   36) = (   0.3750000  -1.1250000   0.3750000), wk =   0.0000000
        k(   37) = (   0.1250000  -0.6250000   0.1250000), wk =   0.0468750
        k(   38) = (   0.6250000  -1.1250000   0.6250000), wk =   0.0000000
        k(   39) = (   0.6250000   0.1250000   0.8750000), wk =   0.0937500
        k(   40) = (   1.1250000  -0.3750000   1.3750000), wk =   0.0000000
        k(   41) = (  -0.8750000   0.1250000   0.6250000), wk =   0.0937500
        k(   42) = (  -0.3750000  -0.3750000   1.1250000), wk =   0.0000000
        k(   43) = (   0.8750000   0.1250000  -0.6250000), wk =   0.0937500
        k(   44) = (   1.3750000  -0.3750000  -0.1250000), wk =   0.0000000
        k(   45) = (   0.3750000  -0.1250000   0.6250000), wk =   0.0937500
        k(   46) = (   0.8750000  -0.6250000   1.1250000), wk =   0.0000000
        k(   47) = (  -0.6250000  -0.1250000   0.3750000), wk =   0.0937500
        k(   48) = (  -0.1250000  -0.6250000   0.8750000), wk =   0.0000000
        k(   49) = (   0.6250000  -0.1250000  -0.3750000), wk =   0.0937500
        k(   50) = (   1.1250000  -0.6250000   0.1250000), wk =   0.0000000
        k(   51) = (  -0.1250000   0.8750000  -0.1250000), wk =   0.0468750
        k(   52) = (   0.3750000   0.3750000   0.3750000), wk =   0.0000000
        k(   53) = (   0.1250000   0.8750000   0.1250000), wk =   0.0468750
        k(   54) = (   0.6250000   0.3750000   0.6250000), wk =   0.0000000
        k(   55) = (   0.3750000  -0.3750000   0.3750000), wk =   0.0156250
        k(   56) = (   0.8750000  -0.8750000   0.8750000), wk =   0.0000000
        k(   57) = (   0.3750000   0.3750000   1.1250000), wk =   0.0937500
        k(   58) = (   0.8750000  -0.1250000   1.6250000), wk =   0.0000000
        k(   59) = (   1.1250000   0.3750000  -0.3750000), wk =   0.0468750
        k(   60) = (   1.6250000  -0.1250000   0.1250000), wk =   0.0000000

     Dense  grid:     2891 G-vectors     FFT dimensions: (  20,  20,  20)

     Estimated max dynamical RAM per process >       0.33MB

     Estimated total allocated dynamical RAM >       1.33MB

     Check: negative/imaginary core charge=   -0.000006    0.000000

     The potential is recalculated from file :
     ./_ph0/silicon.10.395.save/charge-density.dat

     Starting wfc are    8 atomic wfcs

     Band Structure Calculation
     Davidson diagonalization with overlap

     ethr =  1.25E-10,  avg # of iterations = 11.7

     total cpu time spent up to now is        1.5 secs

     End of band structure calculation

          k =-0.1250 0.1250 0.1250 (   347 PWs)   bands (ev):

    -5.6952   4.2140   5.5242   5.5242

          k = 0.3750-0.3750 0.6250 (   364 PWs)   bands (ev):

    -3.5764  -0.7827   3.5840   4.2917

          k =-0.3750 0.3750-0.1250 (   356 PWs)   bands (ev):

    -4.6875   1.2512   3.5738   5.0471

          k = 0.1250-0.1250 0.3750 (   358 PWs)   bands (ev):

    -5.1769   2.6033   4.5362   4.5896

          k = 0.3750-0.3750 0.6250 (   364 PWs)   bands (ev):

    -3.5764  -0.7827   3.5840   4.2917

          k = 0.8750-0.8750 1.1250 (   347 PWs)   bands (ev):

    -5.6952   4.2140   5.5242   5.5242

          k = 0.1250-0.1250 0.3750 (   358 PWs)   bands (ev):

    -5.1769   2.6033   4.5362   4.5896

          k = 0.6250-0.6250 0.8750 (   356 PWs)   bands (ev):

    -4.6875   1.2512   3.5738   5.0471

          k =-0.1250 0.6250 0.1250 (   357 PWs)   bands (ev):

    -4.1639   0.8972   3.2360   3.6766

          k = 0.3750 0.1250 0.6250 (   362 PWs)   bands (ev):

    -3.7586   0.0513   2.6037   3.9481

          k = 0.6250-0.1250 0.8750 (   368 PWs)   bands (ev):

    -2.5600  -1.0373   1.9180   2.9691

          k = 1.1250-0.6250 1.3750 (   356 PWs)   bands (ev):

    -4.6875   1.2512   3.5738   5.0471

          k = 0.3750 0.1250 0.6250 (   362 PWs)   bands (ev):

    -3.7586   0.0513   2.6037   3.9481

          k = 0.8750-0.3750 1.1250 (   357 PWs)   bands (ev):

    -4.1639   0.8972   3.2360   3.6766

          k =-0.1250-0.8750 0.1250 (   362 PWs)   bands (ev):

    -2.7189  -0.9440   2.5118   3.2170

          k = 0.3750-1.3750 0.6250 (   364 PWs)   bands (ev):

    -3.5764  -0.7827   3.5840   4.2917

          k =-0.3750 0.3750 0.3750 (   359 PWs)   bands (ev):

    -4.2652  -0.0068   4.7457   4.7457

          k = 0.1250-0.1250 0.8750 (   362 PWs)   bands (ev):

    -2.7189  -0.9440   2.5118   3.2170

          k = 0.3750-0.3750 1.1250 (   365 PWs)   bands (ev):

    -3.0889  -0.7222   1.9675   3.9821

          k = 0.8750-0.8750 1.6250 (   357 PWs)   bands (ev):

    -4.1639   0.8972   3.2360   3.6766

          k = 0.1250-0.1250 0.1250 (   347 PWs)   bands (ev):

    -5.6952   4.2140   5.5242   5.5242

          k = 0.6250-0.6250 0.6250 (   359 PWs)   bands (ev):

    -4.2652  -0.0068   4.7457   4.7457

          k =-0.3750-0.3750-0.1250 (   356 PWs)   bands (ev):

    -4.6875   1.2512   3.5738   5.0471

          k = 0.1250-0.8750 0.3750 (   368 PWs)   bands (ev):

    -2.5600  -1.0373   1.9180   2.9691

          k =-0.1250-0.3750 0.3750 (   356 PWs)   bands (ev):

    -4.6875   1.2512   3.5738   5.0471

          k = 0.3750-0.8750 0.8750 (   357 PWs)   bands (ev):

    -4.1639   0.8972   3.2360   3.6766

          k = 0.3750 0.3750 0.6250 (   364 PWs)   bands (ev):

    -3.5764  -0.7827   3.5840   4.2917

          k = 0.8750-0.1250 1.1250 (   362 PWs)   bands (ev):

    -2.7189  -0.9440   2.5118   3.2170

          k = 0.6250 0.3750-0.3750 (   364 PWs)   bands (ev):

    -3.5764  -0.7827   3.5840   4.2917

          k = 1.1250-0.1250 0.1250 (   362 PWs)   bands (ev):

    -2.7189  -0.9440   2.5118   3.2170

          k = 0.1250 0.1250 0.3750 (   358 PWs)   bands (ev):

    -5.1769   2.6033   4.5362   4.5896

          k = 0.6250-0.3750 0.8750 (   362 PWs)   bands (ev):

    -3.7586   0.0513   2.6037   3.9481

          k = 0.3750 0.1250-0.1250 (   358 PWs)   bands (ev):

    -5.1769   2.6033   4.5362   4.5896

          k = 0.8750-0.3750 0.3750 (   365 PWs)   bands (ev):

    -3.0889  -0.7222   1.9675   3.9821

          k =-0.1250-0.6250-0.1250 (   357 PWs)   bands (ev):

    -4.1639   0.8972   3.2360   3.6766

          k = 0.3750-1.1250 0.3750 (   365 PWs)   bands (ev):

    -3.0889  -0.7222   1.9675   3.9821

          k = 0.1250-0.6250 0.1250 (   357 PWs)   bands (ev):

    -4.1639   0.8972   3.2360   3.6766

          k = 0.6250-1.1250 0.6250 (   356 PWs)   bands (ev):

    -4.6875   1.2512   3.5738   5.0471

          k = 0.6250 0.1250 0.8750 (   368 PWs)   bands (ev):

    -2.5600  -1.0373   1.9180   2.9691

          k = 1.1250-0.3750 1.3750 (   362 PWs)   bands (ev):

    -3.7586   0.0513   2.6037   3.9481

          k =-0.8750 0.1250 0.6250 (   368 PWs)   bands (ev):

    -2.5600  -1.0373   1.9180   2.9691

          k =-0.3750-0.3750 1.1250 (   365 PWs)   bands (ev):

    -3.0889  -0.7222   1.9675   3.9821

          k = 0.8750 0.1250-0.6250 (   368 PWs)   bands (ev):

    -2.5600  -1.0373   1.9180   2.9691

          k = 1.3750-0.3750-0.1250 (   362 PWs)   bands (ev):

    -3.7586   0.0513   2.6037   3.9481

          k = 0.3750-0.1250 0.6250 (   362 PWs)   bands (ev):

    -3.7586   0.0513   2.6037   3.9481

          k = 0.8750-0.6250 1.1250 (   358 PWs)   bands (ev):

    -5.1769   2.6033   4.5362   4.5896

          k =-0.6250-0.1250 0.3750 (   362 PWs)   bands (ev):

    -3.7586   0.0513   2.6037   3.9481

          k =-0.1250-0.6250 0.8750 (   368 PWs)   bands (ev):

    -2.5600  -1.0373   1.9180   2.9691

          k = 0.6250-0.1250-0.3750 (   362 PWs)   bands (ev):

    -3.7586   0.0513   2.6037   3.9481

          k = 1.1250-0.6250 0.1250 (   368 PWs)   bands (ev):

    -2.5600  -1.0373   1.9180   2.9691

          k =-0.1250 0.8750-0.1250 (   362 PWs)   bands (ev):

    -2.7189  -0.9440   2.5118   3.2170

          k = 0.3750 0.3750 0.3750 (   359 PWs)   bands (ev):

    -4.2652  -0.0068   4.7457   4.7457

          k = 0.1250 0.8750 0.1250 (   362 PWs)   bands (ev):

    -2.7189  -0.9440   2.5118   3.2170

          k = 0.6250 0.3750 0.6250 (   364 PWs)   bands (ev):

    -3.5764  -0.7827   3.5840   4.2917

          k = 0.3750-0.3750 0.3750 (   359 PWs)   bands (ev):

    -4.2652  -0.0068   4.7457   4.7457

          k = 0.8750-0.8750 0.8750 (   347 PWs)   bands (ev):

    -5.6952   4.2140   5.5242   5.5242

          k = 0.3750 0.3750 1.1250 (   365 PWs)   bands (ev):

    -3.0889  -0.7222   1.9675   3.9821

          k = 0.8750-0.1250 1.6250 (   368 PWs)   bands (ev):

    -2.5600  -1.0373   1.9180   2.9691

          k = 1.1250 0.3750-0.3750 (   365 PWs)   bands (ev):

    -3.0889  -0.7222   1.9675   3.9821

          k = 1.6250-0.1250 0.1250 (   358 PWs)   bands (ev):

    -5.1769   2.6033   4.5362   4.5896

     highest occupied level (ev):     5.5242

     Writing output data file silicon.10.395.save

                                                                                

     bravais-lattice index     =            2
     lattice parameter (alat)  =      10.3950  a.u.
     unit-cell volume          =     280.8106 (a.u.)^3
     number of atoms/cell      =            2
     number of atomic types    =            1
     kinetic-energy cut-off    =      18.0000  Ry
     charge density cut-off    =      72.0000  Ry
     convergence threshold     =      1.0E-12
     beta                      =       0.7000
     number of iterations used =            4
     Exchange-correlation      = SLA  PW   PBE  PBE ( 1  4  3  4 0 0)


     celldm(1)=   10.39500  celldm(2)=    0.00000  celldm(3)=    0.00000
     celldm(4)=    0.00000  celldm(5)=    0.00000  celldm(6)=    0.00000

     crystal axes: (cart. coord. in units of alat)
               a(1) = ( -0.5000  0.0000  0.5000 )  
               a(2) = (  0.0000  0.5000  0.5000 )  
               a(3) = ( -0.5000  0.5000  0.0000 )  

     reciprocal axes: (cart. coord. in units 2 pi/alat)
               b(1) = ( -1.0000 -1.0000  1.0000 )  
               b(2) = (  1.0000  1.0000  1.0000 )  
               b(3) = ( -1.0000  1.0000 -1.0000 )  


     Atoms inside the unit cell: 

     Cartesian axes

     site n.  atom      mass           positions (alat units)
        1     Si  28.0860   tau(    1) = (    0.00000    0.00000    0.00000  )
        2     Si  28.0860   tau(    2) = (    0.25000    0.25000    0.25000  )

     Computing dynamical matrix for 
                    q = (   0.5000000  -0.5000000   0.5000000 )

     13 Sym.Ops. (with q -> -q+G )


     G cutoff =  197.0706  (    722 G-vectors)     FFT grid: ( 20, 20, 20)
     number of k points=    60

     PseudoPot. # 1 for Si read from file:
     /home/max/quantum_espresso/qe-6.1/pseudo/si_pbe_v1.uspp.F.UPF.txt
     MD5 check sum: a056efeee980c13900f22a371efd63c1
     Pseudo is Ultrasoft + core correction, Zval =  4.0
     Generated by new atomic code, or converted to UPF format
     Using radial grid of  899 points,  6 beta functions with: 
                l(1) =   0
                l(2) =   0
                l(3) =   1
                l(4) =   1
                l(5) =   2
                l(6) =   2
     Q(r) pseudized with  8 coefficients,  rinner =    0.900   0.900   0.900
                                                       0.900   0.900


     Atomic displacements:
     There are   4 irreducible representations

     Representation     1      1 modes -  To be done

     Representation     2      1 modes -  To be done

     Representation     3      2 modes -  To be done

     Representation     4      2 modes -  To be done



     Alpha used in Ewald sum =   0.7000
     PHONON       :    15.42s CPU        16.48s WALL



     Representation #  1 mode #   1

     Self-consistent Calculation

      iter #   1 total cpu time :    16.6 secs   av.it.:   4.8
      thresh= 1.000E-02 alpha_mix =  0.700 |ddv_scf|^2 =  2.435E-05

      iter #   2 total cpu time :    16.7 secs   av.it.:   8.4
      thresh= 4.934E-04 alpha_mix =  0.700 |ddv_scf|^2 =  2.221E-05

      iter #   3 total cpu time :    16.9 secs   av.it.:   7.5
      thresh= 4.712E-04 alpha_mix =  0.700 |ddv_scf|^2 =  3.797E-08

      iter #   4 total cpu time :    17.0 secs   av.it.:   7.6
      thresh= 1.949E-05 alpha_mix =  0.700 |ddv_scf|^2 =  1.421E-10

      iter #   5 total cpu time :    17.1 secs   av.it.:   7.9
      thresh= 1.192E-06 alpha_mix =  0.700 |ddv_scf|^2 =  4.561E-12

      iter #   6 total cpu time :    17.3 secs   av.it.:   7.7
      thresh= 2.136E-07 alpha_mix =  0.700 |ddv_scf|^2 =  9.647E-14

     End of self-consistent calculation

     Convergence has been achieved 


     Representation #  2 mode #   2

     Self-consistent Calculation

      iter #   1 total cpu time :    17.4 secs   av.it.:   5.6
      thresh= 1.000E-02 alpha_mix =  0.700 |ddv_scf|^2 =  3.407E-04

      iter #   2 total cpu time :    17.6 secs   av.it.:   8.3
      thresh= 1.846E-03 alpha_mix =  0.700 |ddv_scf|^2 =  1.052E-03

      iter #   3 total cpu time :    17.7 secs   av.it.:   7.1
      thresh= 3.243E-03 alpha_mix =  0.700 |ddv_scf|^2 =  1.449E-07

      iter #   4 total cpu time :    18.0 secs   av.it.:   8.2
      thresh= 3.806E-05 alpha_mix =  0.700 |ddv_scf|^2 =  9.619E-09

      iter #   5 total cpu time :    18.2 secs   av.it.:   8.4
      thresh= 9.808E-06 alpha_mix =  0.700 |ddv_scf|^2 =  1.835E-10

      iter #   6 total cpu time :    18.3 secs   av.it.:   8.1
      thresh= 1.355E-06 alpha_mix =  0.700 |ddv_scf|^2 =  5.762E-12

      iter #   7 total cpu time :    18.4 secs   av.it.:   7.2
      thresh= 2.400E-07 alpha_mix =  0.700 |ddv_scf|^2 =  8.453E-15

     End of self-consistent calculation

     Convergence has been achieved 


     Representation #  3 modes #   3  4

     Self-consistent Calculation

      iter #   1 total cpu time :    18.7 secs   av.it.:   4.7
      thresh= 1.000E-02 alpha_mix =  0.700 |ddv_scf|^2 =  3.405E-07

      iter #   2 total cpu time :    19.0 secs   av.it.:   9.0
      thresh= 5.835E-05 alpha_mix =  0.700 |ddv_scf|^2 =  2.932E-08

      iter #   3 total cpu time :    19.2 secs   av.it.:   8.3
      thresh= 1.712E-05 alpha_mix =  0.700 |ddv_scf|^2 =  5.108E-10

      iter #   4 total cpu time :    19.5 secs   av.it.:   8.9
      thresh= 2.260E-06 alpha_mix =  0.700 |ddv_scf|^2 =  6.429E-12

      iter #   5 total cpu time :    20.0 secs   av.it.:   8.7
      thresh= 2.536E-07 alpha_mix =  0.700 |ddv_scf|^2 =  3.574E-14

     End of self-consistent calculation

     Convergence has been achieved 


     Representation #  4 modes #   5  6

     Self-consistent Calculation

      iter #   1 total cpu time :    20.2 secs   av.it.:   4.9
      thresh= 1.000E-02 alpha_mix =  0.700 |ddv_scf|^2 =  9.410E-07

      iter #   2 total cpu time :    20.5 secs   av.it.:   9.5
      thresh= 9.700E-05 alpha_mix =  0.700 |ddv_scf|^2 =  7.478E-08

      iter #   3 total cpu time :    20.8 secs   av.it.:   9.3
      thresh= 2.735E-05 alpha_mix =  0.700 |ddv_scf|^2 =  4.453E-09

      iter #   4 total cpu time :    21.1 secs   av.it.:   8.5
      thresh= 6.673E-06 alpha_mix =  0.700 |ddv_scf|^2 =  6.487E-12

      iter #   5 total cpu time :    21.4 secs   av.it.:   8.8
      thresh= 2.547E-07 alpha_mix =  0.700 |ddv_scf|^2 =  2.536E-14

     End of self-consistent calculation

     Convergence has been achieved 

     Number of q in the star =    4
     List of q in the star:
          1   0.500000000  -0.500000000   0.500000000
          2   0.500000000   0.500000000   0.500000000
          3  -0.500000000   0.500000000   0.500000000
          4   0.500000000   0.500000000  -0.500000000

     Diagonalizing the dynamical matrix

     q = (    0.500000000  -0.500000000   0.500000000 ) 

 **************************************************************************
     freq (    1) =       5.088875 [THz] =     169.746587 [cm-1]
     freq (    2) =       5.088875 [THz] =     169.746587 [cm-1]
     freq (    3) =      11.897950 [THz] =     396.872909 [cm-1]
     freq (    4) =      12.177724 [THz] =     406.205134 [cm-1]
     freq (    5) =      14.735335 [THz] =     491.517857 [cm-1]
     freq (    6) =      14.735335 [THz] =     491.517857 [cm-1]
 **************************************************************************

     Calculation of q =    0.0000000   0.5000000   0.0000000

   Info: using nr1, nr2, nr3 values from input

   Info: using nr1, nr2, nr3 values from input

     Parallelization info
     --------------------
     sticks:   dense  smooth     PW     G-vecs:    dense   smooth      PW
     Min          66      66     27                  722      722     181
     Max          67      67     28                  724      724     182
     Sum         265     265    109                 2891     2891     725



     bravais-lattice index     =            2
     lattice parameter (alat)  =      10.3950  a.u.
     unit-cell volume          =     280.8106 (a.u.)^3
     number of atoms/cell      =            2
     number of atomic types    =            1
     number of electrons       =         8.00
     number of Kohn-Sham states=            4
     kinetic-energy cutoff     =      18.0000  Ry
     charge density cutoff     =      72.0000  Ry
     Exchange-correlation      = SLA  PW   PBE  PBE ( 1  4  3  4 0 0)

     celldm(1)=  10.395000  celldm(2)=   0.000000  celldm(3)=   0.000000
     celldm(4)=   0.000000  celldm(5)=   0.000000  celldm(6)=   0.000000

     crystal axes: (cart. coord. in units of alat)
               a(1) = (  -0.500000   0.000000   0.500000 )  
               a(2) = (   0.000000   0.500000   0.500000 )  
               a(3) = (  -0.500000   0.500000   0.000000 )  

     reciprocal axes: (cart. coord. in units 2 pi/alat)
               b(1) = ( -1.000000 -1.000000  1.000000 )  
               b(2) = (  1.000000  1.000000  1.000000 )  
               b(3) = ( -1.000000  1.000000 -1.000000 )  


     PseudoPot. # 1 for Si read from file:
     /home/max/quantum_espresso/qe-6.1/pseudo/si_pbe_v1.uspp.F.UPF.txt
     MD5 check sum: a056efeee980c13900f22a371efd63c1
     Pseudo is Ultrasoft + core correction, Zval =  4.0
     Generated by new atomic code, or converted to UPF format
     Using radial grid of  899 points,  6 beta functions with: 
                l(1) =   0
                l(2) =   0
                l(3) =   1
                l(4) =   1
                l(5) =   2
                l(6) =   2
     Q(r) pseudized with  8 coefficients,  rinner =    0.900   0.900   0.900
                                                       0.900   0.900

     atomic species   valence    mass     pseudopotential
        Si             4.00    28.08600     Si( 1.00)

     48 Sym. Ops., with inversion, found



   Cartesian axes

     site n.     atom                  positions (alat units)
         1           Si  tau(   1) = (   0.0000000   0.0000000   0.0000000  )
         2           Si  tau(   2) = (   0.2500000   0.2500000   0.2500000  )

     number of k points=    80
                       cart. coord. in units 2pi/alat
        k(    1) = (  -0.1250000   0.1250000   0.1250000), wk =   0.0312500
        k(    2) = (  -0.1250000   0.6250000   0.1250000), wk =   0.0000000
        k(    3) = (  -0.3750000   0.3750000  -0.1250000), wk =   0.0625000
        k(    4) = (  -0.3750000   0.8750000  -0.1250000), wk =   0.0000000
        k(    5) = (   0.3750000  -0.3750000   0.6250000), wk =   0.0625000
        k(    6) = (   0.3750000   0.1250000   0.6250000), wk =   0.0000000
        k(    7) = (   0.1250000  -0.1250000   0.3750000), wk =   0.0625000
        k(    8) = (   0.1250000   0.3750000   0.3750000), wk =   0.0000000
        k(    9) = (  -0.1250000   0.6250000   0.1250000), wk =   0.0312500
        k(   10) = (  -0.1250000   1.1250000   0.1250000), wk =   0.0000000
        k(   11) = (   0.6250000  -0.1250000   0.8750000), wk =   0.0625000
        k(   12) = (   0.6250000   0.3750000   0.8750000), wk =   0.0000000
        k(   13) = (   0.3750000   0.1250000   0.6250000), wk =   0.0625000
        k(   14) = (   0.3750000   0.6250000   0.6250000), wk =   0.0000000
        k(   15) = (  -0.1250000  -0.8750000   0.1250000), wk =   0.0312500
        k(   16) = (  -0.1250000  -0.3750000   0.1250000), wk =   0.0000000
        k(   17) = (  -0.3750000   0.3750000   0.3750000), wk =   0.0312500
        k(   18) = (  -0.3750000   0.8750000   0.3750000), wk =   0.0000000
        k(   19) = (   0.3750000  -0.3750000   1.1250000), wk =   0.0625000
        k(   20) = (   0.3750000   0.1250000   1.1250000), wk =   0.0000000
        k(   21) = (  -0.1250000  -0.1250000   0.1250000), wk =   0.0312500
        k(   22) = (  -0.1250000   0.3750000   0.1250000), wk =   0.0000000
        k(   23) = (   0.1250000  -0.3750000   0.3750000), wk =   0.0625000
        k(   24) = (   0.1250000   0.1250000   0.3750000), wk =   0.0000000
        k(   25) = (   0.3750000  -0.1250000   0.3750000), wk =   0.0312500
        k(   26) = (   0.3750000   0.3750000   0.3750000), wk =   0.0000000
        k(   27) = (   0.3750000   0.1250000   0.3750000), wk =   0.0312500
        k(   28) = (   0.3750000   0.6250000   0.3750000), wk =   0.0000000
        k(   29) = (  -0.6250000   0.3750000  -0.3750000), wk =   0.0625000
        k(   30) = (  -0.6250000   0.8750000  -0.3750000), wk =   0.0000000
        k(   31) = (  -0.3750000   0.6250000  -0.3750000), wk =   0.0312500
        k(   32) = (  -0.3750000   1.1250000  -0.3750000), wk =   0.0000000
        k(   33) = (  -0.3750000  -0.6250000  -0.3750000), wk =   0.0312500
        k(   34) = (  -0.3750000  -0.1250000  -0.3750000), wk =   0.0000000
        k(   35) = (  -0.3750000   0.1250000  -0.1250000), wk =   0.0625000
        k(   36) = (  -0.3750000   0.6250000  -0.1250000), wk =   0.0000000
        k(   37) = (  -0.1250000   0.3750000  -0.1250000), wk =   0.0312500
        k(   38) = (  -0.1250000   0.8750000  -0.1250000), wk =   0.0000000
        k(   39) = (  -0.1250000  -0.3750000  -0.1250000), wk =   0.0312500
        k(   40) = (  -0.1250000   0.1250000  -0.1250000), wk =   0.0000000
        k(   41) = (  -0.1250000  -0.6250000   0.1250000), wk =   0.0312500
        k(   42) = (  -0.1250000  -0.1250000   0.1250000), wk =   0.0000000
        k(   43) = (   0.6250000  -0.1250000  -0.1250000), wk =   0.0625000
        k(   44) = (   0.6250000   0.3750000  -0.1250000), wk =   0.0000000
        k(   45) = (   0.6250000   0.1250000   0.1250000), wk =   0.0625000
        k(   46) = (   0.6250000   0.6250000   0.1250000), wk =   0.0000000
        k(   47) = (  -0.8750000   0.1250000  -0.6250000), wk =   0.0625000
        k(   48) = (  -0.8750000   0.6250000  -0.6250000), wk =   0.0000000
        k(   49) = (  -0.1250000   0.6250000  -0.8750000), wk =   0.0625000
        k(   50) = (  -0.1250000   1.1250000  -0.8750000), wk =   0.0000000
        k(   51) = (  -0.1250000   0.8750000  -0.6250000), wk =   0.0625000
        k(   52) = (  -0.1250000   1.3750000  -0.6250000), wk =   0.0000000
        k(   53) = (  -0.1250000  -0.8750000  -0.6250000), wk =   0.0625000
        k(   54) = (  -0.1250000  -0.3750000  -0.6250000), wk =   0.0000000
        k(   55) = (   0.8750000  -0.6250000   0.1250000), wk =   0.0625000
        k(   56) = (   0.8750000  -0.1250000   0.1250000), wk =   0.0000000
        k(   57) = (  -0.6250000  -0.1250000  -0.3750000), wk =   0.0625000
        k(   58) = (  -0.6250000   0.3750000  -0.3750000), wk =   0.0000000
        k(   59) = (   0.1250000   0.3750000  -0.6250000), wk =   0.0625000
        k(   60) = (   0.1250000   0.8750000  -0.6250000), wk =   0.0000000
        k(   61) = (   0.1250000   0.6250000  -0.3750000), wk =   0.0625000
        k(   62) = (   0.1250000   1.1250000  -0.3750000), wk =   0.0000000
        k(   63) = (   0.1250000  -0.6250000  -0.3750000), wk =   0.0625000
        k(   64) = (   0.1250000  -0.1250000  -0.3750000), wk =   0.0000000
        k(   65) = (   0.6250000  -0.3750000  -0.1250000), wk =   0.0625000
        k(   66) = (   0.6250000   0.1250000  -0.1250000), wk =   0.0000000
        k(   67) = (  -0.1250000   0.8750000   0.1250000), wk =   0.0312500
        k(   68) = (  -0.1250000   1.3750000   0.1250000), wk =   0.0000000
        k(   69) = (  -0.8750000  -0.1250000  -0.1250000), wk =   0.0625000
        k(   70) = (  -0.8750000   0.3750000  -0.1250000), wk =   0.0000000
        k(   71) = (  -0.8750000   0.1250000   0.1250000), wk =   0.0625000
        k(   72) = (  -0.8750000   0.6250000   0.1250000), wk =   0.0000000
        k(   73) = (  -0.3750000  -0.3750000   0.3750000), wk =   0.0312500
        k(   74) = (  -0.3750000   0.1250000   0.3750000), wk =   0.0000000
        k(   75) = (  -1.1250000   0.3750000  -0.3750000), wk =   0.0625000
        k(   76) = (  -1.1250000   0.8750000  -0.3750000), wk =   0.0000000
        k(   77) = (  -0.3750000   1.1250000  -0.3750000), wk =   0.0312500
        k(   78) = (  -0.3750000   1.6250000  -0.3750000), wk =   0.0000000
        k(   79) = (  -0.3750000  -1.1250000  -0.3750000), wk =   0.0312500
        k(   80) = (  -0.3750000  -0.6250000  -0.3750000), wk =   0.0000000

     Dense  grid:     2891 G-vectors     FFT dimensions: (  20,  20,  20)

     Estimated max dynamical RAM per process >       0.33MB

     Estimated total allocated dynamical RAM >       1.33MB

     Check: negative/imaginary core charge=   -0.000006    0.000000

     The potential is recalculated from file :
     ./_ph0/silicon.10.395.save/charge-density.dat

     Starting wfc are    8 atomic wfcs

     Band Structure Calculation
     Davidson diagonalization with overlap

     ethr =  1.25E-10,  avg # of iterations = 11.7

     total cpu time spent up to now is        2.2 secs

     End of band structure calculation

          k =-0.1250 0.1250 0.1250 (   347 PWs)   bands (ev):

    -5.6952   4.2140   5.5242   5.5242

          k =-0.1250 0.6250 0.1250 (   357 PWs)   bands (ev):

    -4.1639   0.8972   3.2360   3.6766

          k =-0.3750 0.3750-0.1250 (   356 PWs)   bands (ev):

    -4.6875   1.2512   3.5738   5.0471

          k =-0.3750 0.8750-0.1250 (   368 PWs)   bands (ev):

    -2.5600  -1.0373   1.9180   2.9691

          k = 0.3750-0.3750 0.6250 (   364 PWs)   bands (ev):

    -3.5764  -0.7827   3.5840   4.2917

          k = 0.3750 0.1250 0.6250 (   362 PWs)   bands (ev):

    -3.7586   0.0513   2.6037   3.9481

          k = 0.1250-0.1250 0.3750 (   358 PWs)   bands (ev):

    -5.1769   2.6033   4.5362   4.5896

          k = 0.1250 0.3750 0.3750 (   356 PWs)   bands (ev):

    -4.6875   1.2512   3.5738   5.0471

          k =-0.1250 0.6250 0.1250 (   357 PWs)   bands (ev):

    -4.1639   0.8972   3.2360   3.6766

          k =-0.1250 1.1250 0.1250 (   362 PWs)   bands (ev):

    -2.7189  -0.9440   2.5118   3.2170

          k = 0.6250-0.1250 0.8750 (   368 PWs)   bands (ev):

    -2.5600  -1.0373   1.9180   2.9691

          k = 0.6250 0.3750 0.8750 (   362 PWs)   bands (ev):

    -3.7586   0.0513   2.6037   3.9481

          k = 0.3750 0.1250 0.6250 (   362 PWs)   bands (ev):

    -3.7586   0.0513   2.6037   3.9481

          k = 0.3750 0.6250 0.6250 (   364 PWs)   bands (ev):

    -3.5764  -0.7827   3.5840   4.2917

          k =-0.1250-0.8750 0.1250 (   362 PWs)   bands (ev):

    -2.7189  -0.9440   2.5118   3.2170

          k =-0.1250-0.3750 0.1250 (   358 PWs)   bands (ev):

    -5.1769   2.6033   4.5362   4.5896

          k =-0.3750 0.3750 0.3750 (   359 PWs)   bands (ev):

    -4.2652  -0.0068   4.7457   4.7457

          k =-0.3750 0.8750 0.3750 (   365 PWs)   bands (ev):

    -3.0889  -0.7222   1.9675   3.9821

          k = 0.3750-0.3750 1.1250 (   365 PWs)   bands (ev):

    -3.0889  -0.7222   1.9675   3.9821

          k = 0.3750 0.1250 1.1250 (   368 PWs)   bands (ev):

    -2.5600  -1.0373   1.9180   2.9691

          k =-0.1250-0.1250 0.1250 (   347 PWs)   bands (ev):

    -5.6952   4.2140   5.5242   5.5242

          k =-0.1250 0.3750 0.1250 (   358 PWs)   bands (ev):

    -5.1769   2.6033   4.5362   4.5896

          k = 0.1250-0.3750 0.3750 (   356 PWs)   bands (ev):

    -4.6875   1.2512   3.5738   5.0471

          k = 0.1250 0.1250 0.3750 (   358 PWs)   bands (ev):

    -5.1769   2.6033   4.5362   4.5896

          k = 0.3750-0.1250 0.3750 (   356 PWs)   bands (ev):

    -4.6875   1.2512   3.5738   5.0471

          k = 0.3750 0.3750 0.3750 (   359 PWs)   bands (ev):

    -4.2652  -0.0068   4.7457   4.7457

          k = 0.3750 0.1250 0.3750 (   356 PWs)   bands (ev):

    -4.6875   1.2512   3.5738   5.0471

          k = 0.3750 0.6250 0.3750 (   364 PWs)   bands (ev):

    -3.5764  -0.7827   3.5840   4.2917

          k =-0.6250 0.3750-0.3750 (   364 PWs)   bands (ev):

    -3.5764  -0.7827   3.5840   4.2917

          k =-0.6250 0.8750-0.3750 (   362 PWs)   bands (ev):

    -3.7586   0.0513   2.6037   3.9481

          k =-0.3750 0.6250-0.3750 (   364 PWs)   bands (ev):

    -3.5764  -0.7827   3.5840   4.2917

          k =-0.3750 1.1250-0.3750 (   365 PWs)   bands (ev):

    -3.0889  -0.7222   1.9675   3.9821

          k =-0.3750-0.6250-0.3750 (   364 PWs)   bands (ev):

    -3.5764  -0.7827   3.5840   4.2917

          k =-0.3750-0.1250-0.3750 (   356 PWs)   bands (ev):

    -4.6875   1.2512   3.5738   5.0471

          k =-0.3750 0.1250-0.1250 (   358 PWs)   bands (ev):

    -5.1769   2.6033   4.5362   4.5896

          k =-0.3750 0.6250-0.1250 (   362 PWs)   bands (ev):

    -3.7586   0.0513   2.6037   3.9481

          k =-0.1250 0.3750-0.1250 (   358 PWs)   bands (ev):

    -5.1769   2.6033   4.5362   4.5896

          k =-0.1250 0.8750-0.1250 (   362 PWs)   bands (ev):

    -2.7189  -0.9440   2.5118   3.2170

          k =-0.1250-0.3750-0.1250 (   358 PWs)   bands (ev):

    -5.1769   2.6033   4.5362   4.5896

          k =-0.1250 0.1250-0.1250 (   347 PWs)   bands (ev):

    -5.6952   4.2140   5.5242   5.5242

          k =-0.1250-0.6250 0.1250 (   357 PWs)   bands (ev):

    -4.1639   0.8972   3.2360   3.6766

          k =-0.1250-0.1250 0.1250 (   347 PWs)   bands (ev):

    -5.6952   4.2140   5.5242   5.5242

          k = 0.6250-0.1250-0.1250 (   357 PWs)   bands (ev):

    -4.1639   0.8972   3.2360   3.6766

          k = 0.6250 0.3750-0.1250 (   362 PWs)   bands (ev):

    -3.7586   0.0513   2.6037   3.9481

          k = 0.6250 0.1250 0.1250 (   357 PWs)   bands (ev):

    -4.1639   0.8972   3.2360   3.6766

          k = 0.6250 0.6250 0.1250 (   365 PWs)   bands (ev):

    -3.0889  -0.7222   1.9675   3.9821

          k =-0.8750 0.1250-0.6250 (   368 PWs)   bands (ev):

    -2.5600  -1.0373   1.9180   2.9691

          k =-0.8750 0.6250-0.6250 (   356 PWs)   bands (ev):

    -4.6875   1.2512   3.5738   5.0471

          k =-0.1250 0.6250-0.8750 (   368 PWs)   bands (ev):

    -2.5600  -1.0373   1.9180   2.9691

          k =-0.1250 1.1250-0.8750 (   362 PWs)   bands (ev):

    -2.7189  -0.9440   2.5118   3.2170

          k =-0.1250 0.8750-0.6250 (   368 PWs)   bands (ev):

    -2.5600  -1.0373   1.9180   2.9691

          k =-0.1250 1.3750-0.6250 (   365 PWs)   bands (ev):

    -3.0889  -0.7222   1.9675   3.9821

          k =-0.1250-0.8750-0.6250 (   368 PWs)   bands (ev):

    -2.5600  -1.0373   1.9180   2.9691

          k =-0.1250-0.3750-0.6250 (   362 PWs)   bands (ev):

    -3.7586   0.0513   2.6037   3.9481

          k = 0.8750-0.6250 0.1250 (   368 PWs)   bands (ev):

    -2.5600  -1.0373   1.9180   2.9691

          k = 0.8750-0.1250 0.1250 (   362 PWs)   bands (ev):

    -2.7189  -0.9440   2.5118   3.2170

          k =-0.6250-0.1250-0.3750 (   362 PWs)   bands (ev):

    -3.7586   0.0513   2.6037   3.9481

          k =-0.6250 0.3750-0.3750 (   364 PWs)   bands (ev):

    -3.5764  -0.7827   3.5840   4.2917

          k = 0.1250 0.3750-0.6250 (   362 PWs)   bands (ev):

    -3.7586   0.0513   2.6037   3.9481

          k = 0.1250 0.8750-0.6250 (   368 PWs)   bands (ev):

    -2.5600  -1.0373   1.9180   2.9691

          k = 0.1250 0.6250-0.3750 (   362 PWs)   bands (ev):

    -3.7586   0.0513   2.6037   3.9481

          k = 0.1250 1.1250-0.3750 (   368 PWs)   bands (ev):

    -2.5600  -1.0373   1.9180   2.9691

          k = 0.1250-0.6250-0.3750 (   362 PWs)   bands (ev):

    -3.7586   0.0513   2.6037   3.9481

          k = 0.1250-0.1250-0.3750 (   358 PWs)   bands (ev):

    -5.1769   2.6033   4.5362   4.5896

          k = 0.6250-0.3750-0.1250 (   362 PWs)   bands (ev):

    -3.7586   0.0513   2.6037   3.9481

          k = 0.6250 0.1250-0.1250 (   357 PWs)   bands (ev):

    -4.1639   0.8972   3.2360   3.6766

          k =-0.1250 0.8750 0.1250 (   362 PWs)   bands (ev):

    -2.7189  -0.9440   2.5118   3.2170

          k =-0.1250 1.3750 0.1250 (   357 PWs)   bands (ev):

    -4.1639   0.8972   3.2360   3.6766

          k =-0.8750-0.1250-0.1250 (   362 PWs)   bands (ev):

    -2.7189  -0.9440   2.5118   3.2170

          k =-0.8750 0.3750-0.1250 (   368 PWs)   bands (ev):

    -2.5600  -1.0373   1.9180   2.9691

          k =-0.8750 0.1250 0.1250 (   362 PWs)   bands (ev):

    -2.7189  -0.9440   2.5118   3.2170

          k =-0.8750 0.6250 0.1250 (   368 PWs)   bands (ev):

    -2.5600  -1.0373   1.9180   2.9691

          k =-0.3750-0.3750 0.3750 (   359 PWs)   bands (ev):

    -4.2652  -0.0068   4.7457   4.7457

          k =-0.3750 0.1250 0.3750 (   356 PWs)   bands (ev):

    -4.6875   1.2512   3.5738   5.0471

          k =-1.1250 0.3750-0.3750 (   365 PWs)   bands (ev):

    -3.0889  -0.7222   1.9675   3.9821

          k =-1.1250 0.8750-0.3750 (   357 PWs)   bands (ev):

    -4.1639   0.8972   3.2360   3.6766

          k =-0.3750 1.1250-0.3750 (   365 PWs)   bands (ev):

    -3.0889  -0.7222   1.9675   3.9821

          k =-0.3750 1.6250-0.3750 (   359 PWs)   bands (ev):

    -4.2652  -0.0068   4.7457   4.7457

          k =-0.3750-1.1250-0.3750 (   365 PWs)   bands (ev):

    -3.0889  -0.7222   1.9675   3.9821

          k =-0.3750-0.6250-0.3750 (   364 PWs)   bands (ev):

    -3.5764  -0.7827   3.5840   4.2917

     highest occupied level (ev):     5.5242

     Writing output data file silicon.10.395.save

                                                                                

     bravais-lattice index     =            2
     lattice parameter (alat)  =      10.3950  a.u.
     unit-cell volume          =     280.8106 (a.u.)^3
     number of atoms/cell      =            2
     number of atomic types    =            1
     kinetic-energy cut-off    =      18.0000  Ry
     charge density cut-off    =      72.0000  Ry
     convergence threshold     =      1.0E-12
     beta                      =       0.7000
     number of iterations used =            4
     Exchange-correlation      = SLA  PW   PBE  PBE ( 1  4  3  4 0 0)


     celldm(1)=   10.39500  celldm(2)=    0.00000  celldm(3)=    0.00000
     celldm(4)=    0.00000  celldm(5)=    0.00000  celldm(6)=    0.00000

     crystal axes: (cart. coord. in units of alat)
               a(1) = ( -0.5000  0.0000  0.5000 )  
               a(2) = (  0.0000  0.5000  0.5000 )  
               a(3) = ( -0.5000  0.5000  0.0000 )  

     reciprocal axes: (cart. coord. in units 2 pi/alat)
               b(1) = ( -1.0000 -1.0000  1.0000 )  
               b(2) = (  1.0000  1.0000  1.0000 )  
               b(3) = ( -1.0000  1.0000 -1.0000 )  


     Atoms inside the unit cell: 

     Cartesian axes

     site n.  atom      mass           positions (alat units)
        1     Si  28.0860   tau(    1) = (    0.00000    0.00000    0.00000  )
        2     Si  28.0860   tau(    2) = (    0.25000    0.25000    0.25000  )

     Computing dynamical matrix for 
                    q = (   0.0000000   0.5000000   0.0000000 )

      8 Sym.Ops. (no q -> -q+G )


     G cutoff =  197.0706  (    722 G-vectors)     FFT grid: ( 20, 20, 20)
     number of k points=    80

     PseudoPot. # 1 for Si read from file:
     /home/max/quantum_espresso/qe-6.1/pseudo/si_pbe_v1.uspp.F.UPF.txt
     MD5 check sum: a056efeee980c13900f22a371efd63c1
     Pseudo is Ultrasoft + core correction, Zval =  4.0
     Generated by new atomic code, or converted to UPF format
     Using radial grid of  899 points,  6 beta functions with: 
                l(1) =   0
                l(2) =   0
                l(3) =   1
                l(4) =   1
                l(5) =   2
                l(6) =   2
     Q(r) pseudized with  8 coefficients,  rinner =    0.900   0.900   0.900
                                                       0.900   0.900

     Mode symmetry, C_4v (4mm)  point group:


     Atomic displacements:
     There are   4 irreducible representations

     Representation     1      1 modes -A_1  G_1 D_1  To be done

     Representation     2      1 modes -B_2  G_4 D_2'  To be done

     Representation     3      2 modes -E    G_5 D_5  To be done

     Representation     4      2 modes -E    G_5 D_5  To be done



     Alpha used in Ewald sum =   0.7000
     PHONON       :    21.08s CPU        22.44s WALL



     Representation #  1 mode #   1

     Self-consistent Calculation

      iter #   1 total cpu time :    22.6 secs   av.it.:   5.8
      thresh= 1.000E-02 alpha_mix =  0.700 |ddv_scf|^2 =  2.926E-03

      iter #   2 total cpu time :    22.8 secs   av.it.:   7.7
      thresh= 5.409E-03 alpha_mix =  0.700 |ddv_scf|^2 =  3.883E-02

      iter #   3 total cpu time :    22.9 secs   av.it.:   6.8
      thresh= 1.000E-02 alpha_mix =  0.700 |ddv_scf|^2 =  1.524E-07

      iter #   4 total cpu time :    23.1 secs   av.it.:   8.2
      thresh= 3.904E-05 alpha_mix =  0.700 |ddv_scf|^2 =  1.558E-08

      iter #   5 total cpu time :    23.3 secs   av.it.:   7.8
      thresh= 1.248E-05 alpha_mix =  0.700 |ddv_scf|^2 =  7.024E-10

      iter #   6 total cpu time :    23.5 secs   av.it.:   7.9
      thresh= 2.650E-06 alpha_mix =  0.700 |ddv_scf|^2 =  2.734E-12

      iter #   7 total cpu time :    23.6 secs   av.it.:   7.9
      thresh= 1.653E-07 alpha_mix =  0.700 |ddv_scf|^2 =  4.396E-13

     End of self-consistent calculation

     Convergence has been achieved 


     Representation #  2 mode #   2

     Self-consistent Calculation

      iter #   1 total cpu time :    24.0 secs   av.it.:   4.9
      thresh= 1.000E-02 alpha_mix =  0.700 |ddv_scf|^2 =  5.136E-06

      iter #   2 total cpu time :    24.1 secs   av.it.:   8.7
      thresh= 2.266E-04 alpha_mix =  0.700 |ddv_scf|^2 =  1.340E-06

      iter #   3 total cpu time :    24.3 secs   av.it.:   8.6
      thresh= 1.158E-04 alpha_mix =  0.700 |ddv_scf|^2 =  3.137E-08

      iter #   4 total cpu time :    24.5 secs   av.it.:   8.2
      thresh= 1.771E-05 alpha_mix =  0.700 |ddv_scf|^2 =  7.586E-10

      iter #   5 total cpu time :    24.7 secs   av.it.:   8.6
      thresh= 2.754E-06 alpha_mix =  0.700 |ddv_scf|^2 =  8.910E-12

      iter #   6 total cpu time :    24.9 secs   av.it.:   7.8
      thresh= 2.985E-07 alpha_mix =  0.700 |ddv_scf|^2 =  1.439E-13

     End of self-consistent calculation

     Convergence has been achieved 


     Representation #  3 modes #   3  4

     Self-consistent Calculation

      iter #   1 total cpu time :    25.2 secs   av.it.:   5.0
      thresh= 1.000E-02 alpha_mix =  0.700 |ddv_scf|^2 =  9.392E-07

      iter #   2 total cpu time :    25.6 secs   av.it.:   9.8
      thresh= 9.691E-05 alpha_mix =  0.700 |ddv_scf|^2 =  1.192E-07

      iter #   3 total cpu time :    26.1 secs   av.it.:   9.5
      thresh= 3.453E-05 alpha_mix =  0.700 |ddv_scf|^2 =  4.914E-09

      iter #   4 total cpu time :    26.5 secs   av.it.:   8.9
      thresh= 7.010E-06 alpha_mix =  0.700 |ddv_scf|^2 =  8.799E-12

      iter #   5 total cpu time :    26.9 secs   av.it.:   9.1
      thresh= 2.966E-07 alpha_mix =  0.700 |ddv_scf|^2 =  3.008E-13

     End of self-consistent calculation

     Convergence has been achieved 


     Representation #  4 modes #   5  6

     Self-consistent Calculation

      iter #   1 total cpu time :    27.2 secs   av.it.:   5.0
      thresh= 1.000E-02 alpha_mix =  0.700 |ddv_scf|^2 =  9.420E-07

      iter #   2 total cpu time :    27.6 secs   av.it.:   9.8
      thresh= 9.705E-05 alpha_mix =  0.700 |ddv_scf|^2 =  1.195E-07

      iter #   3 total cpu time :    28.2 secs   av.it.:   9.5
      thresh= 3.457E-05 alpha_mix =  0.700 |ddv_scf|^2 =  7.320E-09

      iter #   4 total cpu time :    28.5 secs   av.it.:   8.9
      thresh= 8.556E-06 alpha_mix =  0.700 |ddv_scf|^2 =  1.543E-11

      iter #   5 total cpu time :    28.9 secs   av.it.:   9.2
      thresh= 3.928E-07 alpha_mix =  0.700 |ddv_scf|^2 =  4.572E-14

     End of self-consistent calculation

     Convergence has been achieved 

     Number of q in the star =    6
     List of q in the star:
          1   0.000000000   0.500000000   0.000000000
          2   0.000000000  -0.500000000   0.000000000
          3   0.500000000   0.000000000   0.000000000
          4   0.000000000   0.000000000   0.500000000
          5   0.000000000   0.000000000  -0.500000000
          6  -0.500000000   0.000000000   0.000000000

     Diagonalizing the dynamical matrix

     q = (    0.000000000   0.500000000   0.000000000 ) 

 **************************************************************************
     freq (    1) =       4.409590 [THz] =     147.088092 [cm-1]
     freq (    2) =       4.409590 [THz] =     147.088092 [cm-1]
     freq (    3) =       6.994468 [THz] =     233.310323 [cm-1]
     freq (    4) =      14.243726 [THz] =     475.119566 [cm-1]
     freq (    5) =      14.243726 [THz] =     475.119566 [cm-1]
     freq (    6) =      14.942161 [THz] =     498.416826 [cm-1]
 **************************************************************************

     Mode symmetry, C_4v (4mm)  point group:

     freq (  1 -  2) =        147.1  [cm-1]   --> E    G_5 D_5       
     freq (  3 -  3) =        233.3  [cm-1]   --> A_1  G_1 D_1       
     freq (  4 -  5) =        475.1  [cm-1]   --> E    G_5 D_5       
     freq (  6 -  6) =        498.4  [cm-1]   --> B_2  G_4 D_2'      

     Calculation of q =    0.7500000  -0.2500000   0.7500000

   Info: using nr1, nr2, nr3 values from input

   Info: using nr1, nr2, nr3 values from input

     Parallelization info
     --------------------
     sticks:   dense  smooth     PW     G-vecs:    dense   smooth      PW
     Min          65      65     30                  722      722     216
     Max          67      67     31                  723      723     218
     Sum         265     265    121                 2891     2891     869



     bravais-lattice index     =            2
     lattice parameter (alat)  =      10.3950  a.u.
     unit-cell volume          =     280.8106 (a.u.)^3
     number of atoms/cell      =            2
     number of atomic types    =            1
     number of electrons       =         8.00
     number of Kohn-Sham states=            4
     kinetic-energy cutoff     =      18.0000  Ry
     charge density cutoff     =      72.0000  Ry
     Exchange-correlation      = SLA  PW   PBE  PBE ( 1  4  3  4 0 0)

     celldm(1)=  10.395000  celldm(2)=   0.000000  celldm(3)=   0.000000
     celldm(4)=   0.000000  celldm(5)=   0.000000  celldm(6)=   0.000000

     crystal axes: (cart. coord. in units of alat)
               a(1) = (  -0.500000   0.000000   0.500000 )  
               a(2) = (   0.000000   0.500000   0.500000 )  
               a(3) = (  -0.500000   0.500000   0.000000 )  

     reciprocal axes: (cart. coord. in units 2 pi/alat)
               b(1) = ( -1.000000 -1.000000  1.000000 )  
               b(2) = (  1.000000  1.000000  1.000000 )  
               b(3) = ( -1.000000  1.000000 -1.000000 )  


     PseudoPot. # 1 for Si read from file:
     /home/max/quantum_espresso/qe-6.1/pseudo/si_pbe_v1.uspp.F.UPF.txt
     MD5 check sum: a056efeee980c13900f22a371efd63c1
     Pseudo is Ultrasoft + core correction, Zval =  4.0
     Generated by new atomic code, or converted to UPF format
     Using radial grid of  899 points,  6 beta functions with: 
                l(1) =   0
                l(2) =   0
                l(3) =   1
                l(4) =   1
                l(5) =   2
                l(6) =   2
     Q(r) pseudized with  8 coefficients,  rinner =    0.900   0.900   0.900
                                                       0.900   0.900

     atomic species   valence    mass     pseudopotential
        Si             4.00    28.08600     Si( 1.00)

     48 Sym. Ops., with inversion, found



   Cartesian axes

     site n.     atom                  positions (alat units)
         1           Si  tau(   1) = (   0.0000000   0.0000000   0.0000000  )
         2           Si  tau(   2) = (   0.2500000   0.2500000   0.2500000  )

     number of k points=   288

     Number of k-points >= 100: set verbosity='high' to print them.

     Dense  grid:     2891 G-vectors     FFT dimensions: (  20,  20,  20)

     Estimated max dynamical RAM per process >       0.33MB

     Estimated total allocated dynamical RAM >       1.33MB

     Check: negative/imaginary core charge=   -0.000006    0.000000

     The potential is recalculated from file :
     ./_ph0/silicon.10.395.save/charge-density.dat

     Starting wfc are    8 atomic wfcs

     Band Structure Calculation
     Davidson diagonalization with overlap

     ethr =  1.25E-10,  avg # of iterations = 11.6

     total cpu time spent up to now is        4.3 secs

     End of band structure calculation

     Number of k-points >= 100: set verbosity='high' to print the bands.

     highest occupied level (ev):     5.5242

     Writing output data file silicon.10.395.save

                                                                                

     bravais-lattice index     =            2
     lattice parameter (alat)  =      10.3950  a.u.
     unit-cell volume          =     280.8106 (a.u.)^3
     number of atoms/cell      =            2
     number of atomic types    =            1
     kinetic-energy cut-off    =      18.0000  Ry
     charge density cut-off    =      72.0000  Ry
     convergence threshold     =      1.0E-12
     beta                      =       0.7000
     number of iterations used =            4
     Exchange-correlation      = SLA  PW   PBE  PBE ( 1  4  3  4 0 0)


     celldm(1)=   10.39500  celldm(2)=    0.00000  celldm(3)=    0.00000
     celldm(4)=    0.00000  celldm(5)=    0.00000  celldm(6)=    0.00000

     crystal axes: (cart. coord. in units of alat)
               a(1) = ( -0.5000  0.0000  0.5000 )  
               a(2) = (  0.0000  0.5000  0.5000 )  
               a(3) = ( -0.5000  0.5000  0.0000 )  

     reciprocal axes: (cart. coord. in units 2 pi/alat)
               b(1) = ( -1.0000 -1.0000  1.0000 )  
               b(2) = (  1.0000  1.0000  1.0000 )  
               b(3) = ( -1.0000  1.0000 -1.0000 )  


     Atoms inside the unit cell: 

     Cartesian axes

     site n.  atom      mass           positions (alat units)
        1     Si  28.0860   tau(    1) = (    0.00000    0.00000    0.00000  )
        2     Si  28.0860   tau(    2) = (    0.25000    0.25000    0.25000  )

     Computing dynamical matrix for 
                    q = (   0.7500000  -0.2500000   0.7500000 )

      2 Sym.Ops. (no q -> -q+G )


     G cutoff =  197.0706  (    723 G-vectors)     FFT grid: ( 20, 20, 20)
     number of k points=   288

     PseudoPot. # 1 for Si read from file:
     /home/max/quantum_espresso/qe-6.1/pseudo/si_pbe_v1.uspp.F.UPF.txt
     MD5 check sum: a056efeee980c13900f22a371efd63c1
     Pseudo is Ultrasoft + core correction, Zval =  4.0
     Generated by new atomic code, or converted to UPF format
     Using radial grid of  899 points,  6 beta functions with: 
                l(1) =   0
                l(2) =   0
                l(3) =   1
                l(4) =   1
                l(5) =   2
                l(6) =   2
     Q(r) pseudized with  8 coefficients,  rinner =    0.900   0.900   0.900
                                                       0.900   0.900

     Mode symmetry, C_s (m)     point group:


     Atomic displacements:
     There are   6 irreducible representations

     Representation     1      1 modes -A'  To be done

     Representation     2      1 modes -A'  To be done

     Representation     3      1 modes -A'  To be done

     Representation     4      1 modes -A'  To be done

     Representation     5      1 modes -A''  To be done

     Representation     6      1 modes -A''  To be done



     Alpha used in Ewald sum =   0.7000
     PHONON       :    29.84s CPU        31.63s WALL



     Representation #  1 mode #   1

     Self-consistent Calculation

      iter #   1 total cpu time :    32.3 secs   av.it.:   5.3
      thresh= 1.000E-02 alpha_mix =  0.700 |ddv_scf|^2 =  6.041E-05

      iter #   2 total cpu time :    33.0 secs   av.it.:   8.9
      thresh= 7.772E-04 alpha_mix =  0.700 |ddv_scf|^2 =  1.601E-04

      iter #   3 total cpu time :    33.5 secs   av.it.:   7.6
      thresh= 1.265E-03 alpha_mix =  0.700 |ddv_scf|^2 =  1.128E-06

      iter #   4 total cpu time :    34.3 secs   av.it.:   8.4
      thresh= 1.062E-04 alpha_mix =  0.700 |ddv_scf|^2 =  5.799E-08

      iter #   5 total cpu time :    35.0 secs   av.it.:   8.3
      thresh= 2.408E-05 alpha_mix =  0.700 |ddv_scf|^2 =  7.370E-09

      iter #   6 total cpu time :    35.6 secs   av.it.:   8.5
      thresh= 8.585E-06 alpha_mix =  0.700 |ddv_scf|^2 =  1.017E-10

      iter #   7 total cpu time :    36.4 secs   av.it.:   8.7
      thresh= 1.009E-06 alpha_mix =  0.700 |ddv_scf|^2 =  3.363E-12

      iter #   8 total cpu time :    37.1 secs   av.it.:   8.6
      thresh= 1.834E-07 alpha_mix =  0.700 |ddv_scf|^2 =  2.444E-13

     End of self-consistent calculation

     Convergence has been achieved 


     Representation #  2 mode #   2

     Self-consistent Calculation

      iter #   1 total cpu time :    37.6 secs   av.it.:   5.4
      thresh= 1.000E-02 alpha_mix =  0.700 |ddv_scf|^2 =  1.078E-04

      iter #   2 total cpu time :    38.4 secs   av.it.:   8.7
      thresh= 1.038E-03 alpha_mix =  0.700 |ddv_scf|^2 =  3.085E-04

      iter #   3 total cpu time :    39.0 secs   av.it.:   7.4
      thresh= 1.756E-03 alpha_mix =  0.700 |ddv_scf|^2 =  8.084E-07

      iter #   4 total cpu time :    39.6 secs   av.it.:   8.5
      thresh= 8.991E-05 alpha_mix =  0.700 |ddv_scf|^2 =  5.588E-08

      iter #   5 total cpu time :    40.4 secs   av.it.:   8.2
      thresh= 2.364E-05 alpha_mix =  0.700 |ddv_scf|^2 =  1.056E-08

      iter #   6 total cpu time :    41.0 secs   av.it.:   8.5
      thresh= 1.028E-05 alpha_mix =  0.700 |ddv_scf|^2 =  9.923E-11

      iter #   7 total cpu time :    41.7 secs   av.it.:   8.7
      thresh= 9.962E-07 alpha_mix =  0.700 |ddv_scf|^2 =  3.217E-12

      iter #   8 total cpu time :    42.5 secs   av.it.:   8.6
      thresh= 1.794E-07 alpha_mix =  0.700 |ddv_scf|^2 =  6.955E-13

     End of self-consistent calculation

     Convergence has been achieved 


     Representation #  3 mode #   3

     Self-consistent Calculation

      iter #   1 total cpu time :    43.0 secs   av.it.:   5.3
      thresh= 1.000E-02 alpha_mix =  0.700 |ddv_scf|^2 =  8.458E-05

      iter #   2 total cpu time :    43.7 secs   av.it.:   8.8
      thresh= 9.197E-04 alpha_mix =  0.700 |ddv_scf|^2 =  2.258E-04

      iter #   3 total cpu time :    44.5 secs   av.it.:   7.4
      thresh= 1.503E-03 alpha_mix =  0.700 |ddv_scf|^2 =  1.377E-06

      iter #   4 total cpu time :    45.1 secs   av.it.:   8.2
      thresh= 1.173E-04 alpha_mix =  0.700 |ddv_scf|^2 =  5.853E-08

      iter #   5 total cpu time :    45.7 secs   av.it.:   8.4
      thresh= 2.419E-05 alpha_mix =  0.700 |ddv_scf|^2 =  1.095E-08

      iter #   6 total cpu time :    46.5 secs   av.it.:   8.5
      thresh= 1.047E-05 alpha_mix =  0.700 |ddv_scf|^2 =  5.421E-11

      iter #   7 total cpu time :    47.2 secs   av.it.:   8.7
      thresh= 7.363E-07 alpha_mix =  0.700 |ddv_scf|^2 =  2.299E-12

      iter #   8 total cpu time :    48.0 secs   av.it.:   8.7
      thresh= 1.516E-07 alpha_mix =  0.700 |ddv_scf|^2 =  4.743E-13

     End of self-consistent calculation

     Convergence has been achieved 


     Representation #  4 mode #   4

     Self-consistent Calculation

      iter #   1 total cpu time :    48.6 secs   av.it.:   5.2
      thresh= 1.000E-02 alpha_mix =  0.700 |ddv_scf|^2 =  3.725E-05

      iter #   2 total cpu time :    49.2 secs   av.it.:   8.9
[...]
        k(   61) = (  -1.1250000   0.3750000  -0.3750000), wk =   0.0625000
        k(   62) = (  -1.6250000  -0.6250000  -0.3750000), wk =   0.0000000
        k(   63) = (  -0.3750000   0.3750000   1.1250000), wk =   0.0625000
        k(   64) = (  -0.8750000  -0.6250000   1.1250000), wk =   0.0000000

     Dense  grid:     2891 G-vectors     FFT dimensions: (  20,  20,  20)

     Estimated max dynamical RAM per process >       0.33MB

     Estimated total allocated dynamical RAM >       1.33MB

     Check: negative/imaginary core charge=   -0.000006    0.000000

     The potential is recalculated from file :
     ./_ph0/silicon.10.395.save/charge-density.dat

     Starting wfc are    8 atomic wfcs

     Band Structure Calculation
     Davidson diagonalization with overlap

     ethr =  1.25E-10,  avg # of iterations = 11.6

     total cpu time spent up to now is        6.4 secs

     End of band structure calculation

          k =-0.1250 0.1250 0.1250 (   347 PWs)   bands (ev):

    -5.6952   4.2140   5.5242   5.5242

          k =-0.6250-0.8750 0.1250 (   368 PWs)   bands (ev):

    -2.5600  -1.0373   1.9180   2.9691

          k =-0.3750 0.3750-0.1250 (   356 PWs)   bands (ev):

    -4.6875   1.2512   3.5738   5.0471

          k =-0.8750-0.6250-0.1250 (   368 PWs)   bands (ev):

    -2.5600  -1.0373   1.9180   2.9691

          k = 0.3750-0.3750 0.6250 (   364 PWs)   bands (ev):

    -3.5764  -0.7827   3.5840   4.2917

          k =-0.1250-1.3750 0.6250 (   365 PWs)   bands (ev):

    -3.0889  -0.7222   1.9675   3.9821

          k = 0.1250-0.1250 0.3750 (   358 PWs)   bands (ev):

    -5.1769   2.6033   4.5362   4.5896

          k =-0.3750-1.1250 0.3750 (   365 PWs)   bands (ev):

    -3.0889  -0.7222   1.9675   3.9821

          k =-0.1250 0.6250 0.1250 (   357 PWs)   bands (ev):

    -4.1639   0.8972   3.2360   3.6766

          k =-0.6250-0.3750 0.1250 (   362 PWs)   bands (ev):

    -3.7586   0.0513   2.6037   3.9481

          k = 0.6250-0.1250 0.8750 (   368 PWs)   bands (ev):

    -2.5600  -1.0373   1.9180   2.9691

          k = 0.1250-1.1250 0.8750 (   362 PWs)   bands (ev):

    -2.7189  -0.9440   2.5118   3.2170

          k = 0.3750 0.1250 0.6250 (   362 PWs)   bands (ev):

    -3.7586   0.0513   2.6037   3.9481

          k =-0.1250-0.8750 0.6250 (   368 PWs)   bands (ev):

    -2.5600  -1.0373   1.9180   2.9691

          k =-0.1250-0.8750 0.1250 (   362 PWs)   bands (ev):

    -2.7189  -0.9440   2.5118   3.2170

          k =-0.6250-1.8750 0.1250 (   357 PWs)   bands (ev):

    -4.1639   0.8972   3.2360   3.6766

          k =-0.3750 0.3750 0.3750 (   359 PWs)   bands (ev):

    -4.2652  -0.0068   4.7457   4.7457

          k =-0.8750-0.6250 0.3750 (   362 PWs)   bands (ev):

    -3.7586   0.0513   2.6037   3.9481

          k = 0.3750-0.3750 1.1250 (   365 PWs)   bands (ev):

    -3.0889  -0.7222   1.9675   3.9821

          k =-0.1250-1.3750 1.1250 (   368 PWs)   bands (ev):

    -2.5600  -1.0373   1.9180   2.9691

          k = 0.1250-0.3750 0.3750 (   356 PWs)   bands (ev):

    -4.6875   1.2512   3.5738   5.0471

          k =-0.3750-1.3750 0.3750 (   364 PWs)   bands (ev):

    -3.5764  -0.7827   3.5840   4.2917

          k = 0.3750-0.3750-0.1250 (   356 PWs)   bands (ev):

    -4.6875   1.2512   3.5738   5.0471

          k =-0.1250-1.3750-0.1250 (   357 PWs)   bands (ev):

    -4.1639   0.8972   3.2360   3.6766

          k =-0.6250 0.3750-0.3750 (   364 PWs)   bands (ev):

    -3.5764  -0.7827   3.5840   4.2917

          k =-1.1250-0.6250-0.3750 (   362 PWs)   bands (ev):

    -3.7586   0.0513   2.6037   3.9481

          k =-0.3750 0.3750 0.6250 (   364 PWs)   bands (ev):

    -3.5764  -0.7827   3.5840   4.2917

          k =-0.8750-0.6250 0.6250 (   356 PWs)   bands (ev):

    -4.6875   1.2512   3.5738   5.0471

          k =-0.3750 0.1250-0.1250 (   358 PWs)   bands (ev):

    -5.1769   2.6033   4.5362   4.5896

          k =-0.8750-0.8750-0.1250 (   362 PWs)   bands (ev):

    -2.7189  -0.9440   2.5118   3.2170

          k =-0.1250 0.1250 0.3750 (   358 PWs)   bands (ev):

    -5.1769   2.6033   4.5362   4.5896

          k =-0.6250-0.8750 0.3750 (   362 PWs)   bands (ev):

    -3.7586   0.0513   2.6037   3.9481

          k = 0.1250 0.6250-0.1250 (   357 PWs)   bands (ev):

    -4.1639   0.8972   3.2360   3.6766

          k =-0.3750-0.3750-0.1250 (   356 PWs)   bands (ev):

    -4.6875   1.2512   3.5738   5.0471

          k = 0.6250 0.1250-0.1250 (   357 PWs)   bands (ev):

    -4.1639   0.8972   3.2360   3.6766

          k = 0.1250-0.8750-0.1250 (   362 PWs)   bands (ev):

    -2.7189  -0.9440   2.5118   3.2170

          k =-0.8750 0.1250-0.6250 (   368 PWs)   bands (ev):

    -2.5600  -1.0373   1.9180   2.9691

          k =-1.3750-0.8750-0.6250 (   356 PWs)   bands (ev):

    -4.6875   1.2512   3.5738   5.0471

          k = 0.8750-0.1250 0.6250 (   368 PWs)   bands (ev):

    -2.5600  -1.0373   1.9180   2.9691

          k = 0.3750-1.1250 0.6250 (   362 PWs)   bands (ev):

    -3.7586   0.0513   2.6037   3.9481

          k =-0.6250 0.1250 0.8750 (   368 PWs)   bands (ev):

    -2.5600  -1.0373   1.9180   2.9691

          k =-1.1250-0.8750 0.8750 (   347 PWs)   bands (ev):

    -5.6952   4.2140   5.5242   5.5242

          k =-0.1250 0.8750 0.6250 (   368 PWs)   bands (ev):

    -2.5600  -1.0373   1.9180   2.9691

          k =-0.6250-0.1250 0.6250 (   365 PWs)   bands (ev):

    -3.0889  -0.7222   1.9675   3.9821

          k = 0.1250 0.8750-0.6250 (   368 PWs)   bands (ev):

    -2.5600  -1.0373   1.9180   2.9691

          k =-0.3750-0.1250-0.6250 (   362 PWs)   bands (ev):

    -3.7586   0.0513   2.6037   3.9481

          k =-0.6250-0.1250-0.3750 (   362 PWs)   bands (ev):

    -3.7586   0.0513   2.6037   3.9481

          k =-1.1250-1.1250-0.3750 (   357 PWs)   bands (ev):

    -4.1639   0.8972   3.2360   3.6766

          k = 0.6250 0.1250 0.3750 (   362 PWs)   bands (ev):

    -3.7586   0.0513   2.6037   3.9481

          k = 0.1250-0.8750 0.3750 (   368 PWs)   bands (ev):

    -2.5600  -1.0373   1.9180   2.9691

          k =-0.3750-0.1250 0.6250 (   362 PWs)   bands (ev):

    -3.7586   0.0513   2.6037   3.9481

          k =-0.8750-1.1250 0.6250 (   358 PWs)   bands (ev):

    -5.1769   2.6033   4.5362   4.5896

          k = 0.1250 0.6250 0.3750 (   362 PWs)   bands (ev):

    -3.7586   0.0513   2.6037   3.9481

          k =-0.3750-0.3750 0.3750 (   359 PWs)   bands (ev):

    -4.2652  -0.0068   4.7457   4.7457

          k =-0.1250 0.6250-0.3750 (   362 PWs)   bands (ev):

    -3.7586   0.0513   2.6037   3.9481

          k =-0.6250-0.3750-0.3750 (   364 PWs)   bands (ev):

    -3.5764  -0.7827   3.5840   4.2917

          k = 0.1250-0.8750-0.1250 (   362 PWs)   bands (ev):

    -2.7189  -0.9440   2.5118   3.2170

          k =-0.3750-1.8750-0.1250 (   358 PWs)   bands (ev):

    -5.1769   2.6033   4.5362   4.5896

          k =-0.8750 0.1250-0.1250 (   362 PWs)   bands (ev):

    -2.7189  -0.9440   2.5118   3.2170

          k =-1.3750-0.8750-0.1250 (   368 PWs)   bands (ev):

    -2.5600  -1.0373   1.9180   2.9691

          k =-1.1250 0.3750-0.3750 (   365 PWs)   bands (ev):

    -3.0889  -0.7222   1.9675   3.9821

          k =-1.6250-0.6250-0.3750 (   364 PWs)   bands (ev):

    -3.5764  -0.7827   3.5840   4.2917

          k =-0.3750 0.3750 1.1250 (   365 PWs)   bands (ev):

    -3.0889  -0.7222   1.9675   3.9821

          k =-0.8750-0.6250 1.1250 (   358 PWs)   bands (ev):

    -5.1769   2.6033   4.5362   4.5896

     highest occupied level (ev):     5.5242

     Writing output data file silicon.10.395.save

                                                                                

     bravais-lattice index     =            2
     lattice parameter (alat)  =      10.3950  a.u.
     unit-cell volume          =     280.8106 (a.u.)^3
     number of atoms/cell      =            2
     number of atomic types    =            1
     kinetic-energy cut-off    =      18.0000  Ry
     charge density cut-off    =      72.0000  Ry
     convergence threshold     =      1.0E-12
     beta                      =       0.7000
     number of iterations used =            4
     Exchange-correlation      = SLA  PW   PBE  PBE ( 1  4  3  4 0 0)


     celldm(1)=   10.39500  celldm(2)=    0.00000  celldm(3)=    0.00000
     celldm(4)=    0.00000  celldm(5)=    0.00000  celldm(6)=    0.00000

     crystal axes: (cart. coord. in units of alat)
               a(1) = ( -0.5000  0.0000  0.5000 )  
               a(2) = (  0.0000  0.5000  0.5000 )  
               a(3) = ( -0.5000  0.5000  0.0000 )  

     reciprocal axes: (cart. coord. in units 2 pi/alat)
               b(1) = ( -1.0000 -1.0000  1.0000 )  
               b(2) = (  1.0000  1.0000  1.0000 )  
               b(3) = ( -1.0000  1.0000 -1.0000 )  


     Atoms inside the unit cell: 

     Cartesian axes

     site n.  atom      mass           positions (alat units)
        1     Si  28.0860   tau(    1) = (    0.00000    0.00000    0.00000  )
        2     Si  28.0860   tau(    2) = (    0.25000    0.25000    0.25000  )

     Computing dynamical matrix for 
                    q = (  -0.5000000  -1.0000000   0.0000000 )

      8 Sym.Ops. (no q -> -q+G )


     G cutoff =  197.0706  (    722 G-vectors)     FFT grid: ( 20, 20, 20)
     number of k points=    64

     PseudoPot. # 1 for Si read from file:
     /home/max/quantum_espresso/qe-6.1/pseudo/si_pbe_v1.uspp.F.UPF.txt
     MD5 check sum: a056efeee980c13900f22a371efd63c1
     Pseudo is Ultrasoft + core correction, Zval =  4.0
     Generated by new atomic code, or converted to UPF format
     Using radial grid of  899 points,  6 beta functions with: 
                l(1) =   0
                l(2) =   0
                l(3) =   1
                l(4) =   1
                l(5) =   2
                l(6) =   2
     Q(r) pseudized with  8 coefficients,  rinner =    0.900   0.900   0.900
                                                       0.900   0.900


     Atomic displacements:
     There are   3 irreducible representations

     Representation     1      2 modes -  To be done

     Representation     2      2 modes -  To be done

     Representation     3      2 modes -  To be done



     Alpha used in Ewald sum =   0.7000
     PHONON       :  1m14.04s CPU     1m19.04s WALL



     Representation #  1 modes #   1  2

     Self-consistent Calculation

      iter #   1 total cpu time :    79.3 secs   av.it.:   5.3
      thresh= 1.000E-02 alpha_mix =  0.700 |ddv_scf|^2 =  6.334E-06

      iter #   2 total cpu time :    79.6 secs   av.it.:   9.8
      thresh= 2.517E-04 alpha_mix =  0.700 |ddv_scf|^2 =  3.396E-06

      iter #   3 total cpu time :    80.1 secs   av.it.:   9.3
      thresh= 1.843E-04 alpha_mix =  0.700 |ddv_scf|^2 =  8.568E-09

      iter #   4 total cpu time :    80.4 secs   av.it.:   9.1
      thresh= 9.256E-06 alpha_mix =  0.700 |ddv_scf|^2 =  3.223E-11

      iter #   5 total cpu time :    80.7 secs   av.it.:   8.9
      thresh= 5.677E-07 alpha_mix =  0.700 |ddv_scf|^2 =  1.115E-12

      iter #   6 total cpu time :    81.0 secs   av.it.:   8.9
      thresh= 1.056E-07 alpha_mix =  0.700 |ddv_scf|^2 =  9.529E-15

     End of self-consistent calculation

     Convergence has been achieved 


     Representation #  2 modes #   3  4

     Self-consistent Calculation

      iter #   1 total cpu time :    81.3 secs   av.it.:   5.2
      thresh= 1.000E-02 alpha_mix =  0.700 |ddv_scf|^2 =  9.710E-06

      iter #   2 total cpu time :    81.6 secs   av.it.:   9.9
      thresh= 3.116E-04 alpha_mix =  0.700 |ddv_scf|^2 =  1.318E-05

      iter #   3 total cpu time :    82.1 secs   av.it.:   9.1
      thresh= 3.631E-04 alpha_mix =  0.700 |ddv_scf|^2 =  1.016E-08

      iter #   4 total cpu time :    82.4 secs   av.it.:   8.9
      thresh= 1.008E-05 alpha_mix =  0.700 |ddv_scf|^2 =  9.557E-11

      iter #   5 total cpu time :    82.7 secs   av.it.:   9.4
      thresh= 9.776E-07 alpha_mix =  0.700 |ddv_scf|^2 =  1.848E-12

      iter #   6 total cpu time :    83.0 secs   av.it.:   9.1
      thresh= 1.359E-07 alpha_mix =  0.700 |ddv_scf|^2 =  1.663E-14

     End of self-consistent calculation

     Convergence has been achieved 


     Representation #  3 modes #   5  6

     Self-consistent Calculation

      iter #   1 total cpu time :    83.3 secs   av.it.:   5.1
      thresh= 1.000E-02 alpha_mix =  0.700 |ddv_scf|^2 =  2.630E-06

      iter #   2 total cpu time :    83.6 secs   av.it.:   9.7
      thresh= 1.622E-04 alpha_mix =  0.700 |ddv_scf|^2 =  1.434E-06

      iter #   3 total cpu time :    84.1 secs   av.it.:   9.0
      thresh= 1.197E-04 alpha_mix =  0.700 |ddv_scf|^2 =  8.124E-09

      iter #   4 total cpu time :    84.4 secs   av.it.:   8.7
      thresh= 9.013E-06 alpha_mix =  0.700 |ddv_scf|^2 =  4.787E-11

      iter #   5 total cpu time :    84.7 secs   av.it.:   9.1
      thresh= 6.919E-07 alpha_mix =  0.700 |ddv_scf|^2 =  7.595E-13

     End of self-consistent calculation

     Convergence has been achieved 

     Number of q in the star =    6
     List of q in the star:
          1  -0.500000000  -1.000000000   0.000000000
          2   0.000000000   1.000000000   0.500000000
          3   0.000000000  -1.000000000  -0.500000000
          4   0.500000000   1.000000000   0.000000000
          5  -1.000000000  -0.500000000   0.000000000
          6   0.000000000  -0.500000000  -1.000000000

     Diagonalizing the dynamical matrix

     q = (   -0.500000000  -1.000000000   0.000000000 ) 

 **************************************************************************
     freq (    1) =       7.788006 [THz] =     259.779925 [cm-1]
     freq (    2) =       7.788006 [THz] =     259.779925 [cm-1]
     freq (    3) =      11.038725 [THz] =     368.212217 [cm-1]
     freq (    4) =      11.038725 [THz] =     368.212217 [cm-1]
     freq (    5) =      13.757200 [THz] =     458.890787 [cm-1]
     freq (    6) =      13.757200 [THz] =     458.890787 [cm-1]
 **************************************************************************

     init_run     :      0.52s CPU      0.54s WALL (       7 calls)
     electrons    :      4.79s CPU      5.06s WALL (       7 calls)

     Called by init_run:
     wfcinit      :      0.00s CPU      0.00s WALL (       7 calls)
     potinit      :      0.02s CPU      0.02s WALL (       7 calls)

     Called by electrons:
     c_bands      :      4.78s CPU      5.05s WALL (       7 calls)
     v_of_rho     :      0.01s CPU      0.01s WALL (       8 calls)
     newd         :      0.03s CPU      0.03s WALL (       8 calls)

     Called by c_bands:
     init_us_2    :      0.68s CPU      0.73s WALL (   17620 calls)
     cegterg      :      4.01s CPU      4.24s WALL (     796 calls)

     Called by sum_band:

     Called by *egterg:
     h_psi        :     43.49s CPU     46.63s WALL (  152745 calls)
     s_psi        :      5.81s CPU      6.24s WALL (  310274 calls)
     g_psi        :      0.03s CPU      0.03s WALL (    9268 calls)
     cdiaghg      :      0.47s CPU      0.49s WALL (   10064 calls)

     Called by h_psi:
     h_psi:pot    :     43.31s CPU     46.42s WALL (  152745 calls)
     h_psi:calbec :      4.39s CPU      4.74s WALL (  152745 calls)
     vloc_psi     :     35.80s CPU     38.39s WALL (  152745 calls)
     add_vuspsi   :      2.90s CPU      3.07s WALL (  152745 calls)

     General routines
     calbec       :      9.91s CPU     10.68s WALL (  346710 calls)
     fft          :      0.30s CPU      0.32s WALL (    5267 calls)
     ffts         :      0.14s CPU      0.16s WALL (    2748 calls)
     fftw         :     41.54s CPU     44.50s WALL ( 1383838 calls)
     davcio       :      0.33s CPU      0.35s WALL (   79315 calls)

     Parallel routines
     fft_scatter  :      9.55s CPU     10.52s WALL ( 1391853 calls)

     PHONON       :  1m19.15s CPU     1m24.69s WALL

     INITIALIZATION: 
     phq_setup    :      0.05s CPU      0.05s WALL (       8 calls)
     phq_init     :      1.95s CPU      1.98s WALL (       8 calls)

     phq_init     :      1.95s CPU      1.98s WALL (       8 calls)
     set_drhoc    :      0.29s CPU      0.30s WALL (      24 calls)
     init_vloc    :      0.01s CPU      0.01s WALL (       8 calls)
     init_us_1    :      0.47s CPU      0.48s WALL (       8 calls)
     newd         :      0.03s CPU      0.03s WALL (       8 calls)
     dvanqq       :      0.24s CPU      0.24s WALL (       8 calls)
     drho         :      0.99s CPU      1.01s WALL (       8 calls)

     DYNAMICAL MATRIX:
     dynmat0      :      0.48s CPU      0.49s WALL (       8 calls)
     phqscf       :     69.41s CPU     74.51s WALL (       8 calls)
     dynmatrix    :      0.01s CPU      0.01s WALL (       8 calls)

     phqscf       :     69.41s CPU     74.51s WALL (       8 calls)
     solve_linter :     68.44s CPU     73.51s WALL (      32 calls)
     drhodv       :      0.61s CPU      0.62s WALL (      32 calls)

     dynmat0      :      0.48s CPU      0.49s WALL (       8 calls)
     dynmat_us    :      0.26s CPU      0.27s WALL (       8 calls)
     d2ionq       :      0.01s CPU      0.01s WALL (       8 calls)
     dynmatcc     :      0.21s CPU      0.21s WALL (       8 calls)

     dynmat_us    :      0.26s CPU      0.27s WALL (       8 calls)
     addusdynmat  :      0.00s CPU      0.00s WALL (       8 calls)

     phqscf       :     69.41s CPU     74.51s WALL (       8 calls)
     solve_linter :     68.44s CPU     73.51s WALL (      32 calls)

     solve_linter :     68.44s CPU     73.51s WALL (      32 calls)
     dvqpsi_us    :      1.64s CPU      1.75s WALL (    2508 calls)
     ortho        :      1.04s CPU      1.13s WALL (   15614 calls)
     cgsolve      :     53.56s CPU     57.63s WALL (   15614 calls)
     incdrhoscf   :      4.71s CPU      5.05s WALL (   15614 calls)
     addusddens   :      1.12s CPU      1.15s WALL (     229 calls)
     vpsifft      :      3.48s CPU      3.70s WALL (   12986 calls)
     dv_of_drho   :      0.20s CPU      0.21s WALL (     297 calls)
     mix_pot      :      0.05s CPU      0.06s WALL (     202 calls)
     psymdvscf    :      0.80s CPU      0.81s WALL (     197 calls)
     newdq        :      1.20s CPU      1.26s WALL (     202 calls)
     adddvscf     :      0.46s CPU      0.49s WALL (   13106 calls)
     drhodvus     :      0.00s CPU      0.00s WALL (      32 calls)

     dvqpsi_us    :      1.64s CPU      1.75s WALL (    2508 calls)
     dvqpsi_us_on :      0.81s CPU      0.86s WALL (    2508 calls)

     cgsolve      :     53.56s CPU     57.63s WALL (   15614 calls)
     ch_psi       :     51.74s CPU     55.59s WALL (  141885 calls)

     ch_psi       :     51.74s CPU     55.59s WALL (  141885 calls)
     h_psi        :     43.49s CPU     46.63s WALL (  152745 calls)
     last         :      8.49s CPU      9.23s WALL (  141885 calls)

     h_psi        :     43.49s CPU     46.63s WALL (  152745 calls)
     add_vuspsi   :      2.90s CPU      3.07s WALL (  152745 calls)

     incdrhoscf   :      4.71s CPU      5.05s WALL (   15614 calls)
     addusdbec    :      0.70s CPU      0.75s WALL (   18062 calls)

     drhodvus     :      0.00s CPU      0.00s WALL (      32 calls)

      General routines
     calbec       :      9.91s CPU     10.68s WALL (  346710 calls)
     fft          :      0.30s CPU      0.32s WALL (    5267 calls)
     ffts         :      0.14s CPU      0.16s WALL (    2748 calls)
     fftw         :     41.54s CPU     44.50s WALL ( 1383838 calls)
     davcio       :      0.33s CPU      0.35s WALL (   79315 calls)
     write_rec    :      0.21s CPU      0.22s WALL (     234 calls)


     PHONON       :  1m19.15s CPU     1m24.70s WALL


   This run was terminated on:  17:24:31   9Nov2017            

=------------------------------------------------------------------------------=
   JOB DONE.
=------------------------------------------------------------------------------=
