
     Program PHONON v.6.1 (svn rev. 13369) starts on 10Nov2017 at 15:34:33 

     This program is part of the open-source Quantum ESPRESSO suite
     for quantum simulation of materials; please cite
         "P. Giannozzi et al., J. Phys.:Condens. Matter 21 395502 (2009);
          URL http://www.quantum-espresso.org", 
     in publications or presentations arising from this work. More details at
     http://www.quantum-espresso.org/quote

     Parallel version (MPI), running on     4 processors
     R & G space division:  proc/nbgrp/npool/nimage =       4

     Reading data from directory:
     ./silicon.10.378.save

   Info: using nr1, nr2, nr3 values from input

   Info: using nr1, nr2, nr3 values from input

     IMPORTANT: XC functional enforced from input :
     Exchange-correlation      = SLA  PW   PBE  PBE ( 1  4  3  4 0 0)
     Any further DFT definition will be discarded
     Please, verify this is what you really want


     Parallelization info
     --------------------
     sticks:   dense  smooth     PW     G-vecs:    dense   smooth      PW
     Min         222     109     37                 4369     1545     284
     Max         223     110     38                 4370     1546     285
     Sum         889     439    151                17477     6183    1139



     Dynamical matrices for ( 4, 4, 4)  uniform grid of q-points
     (   8q-points):
       N         xq(1)         xq(2)         xq(3) 
       1   0.000000000   0.000000000   0.000000000
       2  -0.250000000   0.250000000  -0.250000000
       3   0.500000000  -0.500000000   0.500000000
       4   0.000000000   0.500000000   0.000000000
       5   0.750000000  -0.250000000   0.750000000
       6   0.500000000   0.000000000   0.500000000
       7   0.000000000  -1.000000000   0.000000000
       8  -0.500000000  -1.000000000   0.000000000

     Calculation of q =    0.0000000   0.0000000   0.0000000

                                                                                

     bravais-lattice index     =            2
     lattice parameter (alat)  =      10.3780  a.u.
     unit-cell volume          =     279.4351 (a.u.)^3
     number of atoms/cell      =            2
     number of atomic types    =            1
     kinetic-energy cut-off    =      30.0000  Ry
     charge density cut-off    =     240.0000  Ry
     convergence threshold     =      1.0E-12
     beta                      =       0.7000
     number of iterations used =            4
     Exchange-correlation      = SLA  PW   PBE  PBE ( 1  4  3  4 0 0)


     celldm(1)=   10.37800  celldm(2)=    0.00000  celldm(3)=    0.00000
     celldm(4)=    0.00000  celldm(5)=    0.00000  celldm(6)=    0.00000

     crystal axes: (cart. coord. in units of alat)
               a(1) = ( -0.5000  0.0000  0.5000 )  
               a(2) = (  0.0000  0.5000  0.5000 )  
               a(3) = ( -0.5000  0.5000  0.0000 )  

     reciprocal axes: (cart. coord. in units 2 pi/alat)
               b(1) = ( -1.0000 -1.0000  1.0000 )  
               b(2) = (  1.0000  1.0000  1.0000 )  
               b(3) = ( -1.0000  1.0000 -1.0000 )  


     Atoms inside the unit cell: 

     Cartesian axes

     site n.  atom      mass           positions (alat units)
        1     Si  28.0860   tau(    1) = (    0.00000    0.00000    0.00000  )
        2     Si  28.0860   tau(    2) = (    0.25000    0.25000    0.25000  )

     Computing dynamical matrix for 
                    q = (   0.0000000   0.0000000   0.0000000 )

     49 Sym.Ops. (with q -> -q+G )


     G cutoff =  654.7550  (   4369 G-vectors)     FFT grid: ( 40, 40, 40)
     G cutoff =  327.3775  (   1546 G-vectors)  smooth grid: ( 25, 25, 25)
     number of k points=    10

     PseudoPot. # 1 for Si read from file:
     /home/s1333534/quantum_espresso/qe-6.1/pseudo/si_pbe_v1.uspp.F.UPF.txt
     MD5 check sum: a056efeee980c13900f22a371efd63c1
     Pseudo is Ultrasoft + core correction, Zval =  4.0
     Generated by new atomic code, or converted to UPF format
     Using radial grid of  899 points,  6 beta functions with: 
                l(1) =   0
                l(2) =   0
                l(3) =   1
                l(4) =   1
                l(5) =   2
                l(6) =   2
     Q(r) pseudized with  8 coefficients,  rinner =    0.900   0.900   0.900
                                                       0.900   0.900

     Mode symmetry, O_h (m-3m)  point group:


     Electric field:
     Dielectric constant
     Born effective charges in two ways 


     Atomic displacements:
     There are   2 irreducible representations

     Representation     1      3 modes -T_2g G_25' G_5+  To be done

     Representation     2      3 modes -T_1u G_15  G_4-  To be done



     Alpha used in Ewald sum =   2.5000
     PHONON       :     0.97s CPU         1.26s WALL


     Electric Fields Calculation

      iter #   1 total cpu time :     2.5 secs   av.it.:   5.7
      thresh= 1.000E-02 alpha_mix =  0.700 |ddv_scf|^2 =  9.651E-08

      iter #   2 total cpu time :     3.3 secs   av.it.:  11.9
      thresh= 3.107E-05 alpha_mix =  0.700 |ddv_scf|^2 =  5.796E-09

      iter #   3 total cpu time :     4.1 secs   av.it.:  11.7
      thresh= 7.613E-06 alpha_mix =  0.700 |ddv_scf|^2 =  3.937E-10

      iter #   4 total cpu time :     4.9 secs   av.it.:  10.6
      thresh= 1.984E-06 alpha_mix =  0.700 |ddv_scf|^2 =  2.670E-12

      iter #   5 total cpu time :     5.6 secs   av.it.:  11.2
      thresh= 1.634E-07 alpha_mix =  0.700 |ddv_scf|^2 =  2.682E-15

     End of electric fields calculation

          Dielectric constant in cartesian axis 

          (      14.061854892      -0.000000000      -0.000000000 )
          (      -0.000000000      14.061854892       0.000000000 )
          (       0.000000000       0.000000000      14.061854892 )

          Effective charges (d Force / dE) in cartesian axis

           atom      1   Si 
      Ex  (       -0.03767       -0.00000        0.00000 )
      Ey  (       -0.00000       -0.03767        0.00000 )
      Ez  (        0.00000       -0.00000       -0.03767 )
           atom      2   Si 
      Ex  (       -0.03767       -0.00000       -0.00000 )
      Ey  (       -0.00000       -0.03767       -0.00000 )
      Ez  (       -0.00000        0.00000       -0.03767 )


     Representation #  1 modes #   1  2  3

     Self-consistent Calculation

      iter #   1 total cpu time :     7.0 secs   av.it.:   5.1
      thresh= 1.000E-02 alpha_mix =  0.700 |ddv_scf|^2 =  1.711E-08

      iter #   2 total cpu time :     7.9 secs   av.it.:  11.9
      thresh= 1.308E-05 alpha_mix =  0.700 |ddv_scf|^2 =  6.982E-10

      iter #   3 total cpu time :     8.7 secs   av.it.:  11.3
      thresh= 2.642E-06 alpha_mix =  0.700 |ddv_scf|^2 =  4.747E-11

      iter #   4 total cpu time :     9.4 secs   av.it.:  10.4
      thresh= 6.890E-07 alpha_mix =  0.700 |ddv_scf|^2 =  1.185E-13

     End of self-consistent calculation

     Convergence has been achieved 


     Representation #  2 modes #   4  5  6

     Self-consistent Calculation

      iter #   1 total cpu time :    10.4 secs   av.it.:   5.2
      thresh= 1.000E-02 alpha_mix =  0.700 |ddv_scf|^2 =  1.347E-08

      iter #   2 total cpu time :    11.3 secs   av.it.:  11.8
      thresh= 1.161E-05 alpha_mix =  0.700 |ddv_scf|^2 =  7.903E-10

      iter #   3 total cpu time :    12.3 secs   av.it.:  11.4
      thresh= 2.811E-06 alpha_mix =  0.700 |ddv_scf|^2 =  4.918E-11

      iter #   4 total cpu time :    13.0 secs   av.it.:  11.5
      thresh= 7.013E-07 alpha_mix =  0.700 |ddv_scf|^2 =  1.939E-13

     End of self-consistent calculation

     Convergence has been achieved 

     Number of q in the star =    1
     List of q in the star:
          1   0.000000000   0.000000000   0.000000000

          Dielectric constant in cartesian axis 

          (      14.061854892      -0.000000000      -0.000000000 )
          (      -0.000000000      14.061854892       0.000000000 )
          (       0.000000000       0.000000000      14.061854892 )

          Effective charges (d Force / dE) in cartesian axis

           atom      1   Si 
      Ex  (       -0.03767       -0.00000        0.00000 )
      Ey  (       -0.00000       -0.03767        0.00000 )
      Ez  (        0.00000       -0.00000       -0.03767 )
           atom      2   Si 
      Ex  (       -0.03767       -0.00000       -0.00000 )
      Ey  (       -0.00000       -0.03767       -0.00000 )
      Ez  (       -0.00000        0.00000       -0.03767 )

          Effective charges (d P / du) in cartesian axis 

           atom      1   Si 
      Px  (       -0.07306       -0.00000        0.00000 )
      Py  (       -0.00000       -0.07306        0.00000 )
      Pz  (        0.00000        0.00000       -0.07306 )
           atom      2   Si 
      Px  (       -0.07306        0.00000       -0.00000 )
      Py  (        0.00000       -0.07306       -0.00000 )
      Pz  (        0.00000       -0.00000       -0.07306 )

     Diagonalizing the dynamical matrix

     q = (    0.000000000   0.000000000   0.000000000 ) 

 **************************************************************************
     freq (    1) =      -0.475157 [THz] =     -15.849544 [cm-1]
     freq (    2) =      -0.475157 [THz] =     -15.849544 [cm-1]
     freq (    3) =      -0.475157 [THz] =     -15.849544 [cm-1]
     freq (    4) =      14.877822 [THz] =     496.270713 [cm-1]
     freq (    5) =      14.877822 [THz] =     496.270713 [cm-1]
     freq (    6) =      14.877822 [THz] =     496.270713 [cm-1]
 **************************************************************************

     Mode symmetry, O_h (m-3m)  point group:

     freq (  1 -  3) =        -15.8  [cm-1]   --> T_1u G_15  G_4- I  
     freq (  4 -  6) =        496.3  [cm-1]   --> T_2g G_25' G_5+ R  

     Calculation of q =   -0.2500000   0.2500000  -0.2500000

   Info: using nr1, nr2, nr3 values from input

   Info: using nr1, nr2, nr3 values from input

     Parallelization info
     --------------------
     sticks:   dense  smooth     PW     G-vecs:    dense   smooth      PW
     Min         222     109     37                 4369     1545     309
     Max         223     110     38                 4370     1546     312
     Sum         889     439    151                17477     6183    1243



     bravais-lattice index     =            2
     lattice parameter (alat)  =      10.3780  a.u.
     unit-cell volume          =     279.4351 (a.u.)^3
     number of atoms/cell      =            2
     number of atomic types    =            1
     number of electrons       =         8.00
     number of Kohn-Sham states=            4
     kinetic-energy cutoff     =      30.0000  Ry
     charge density cutoff     =     240.0000  Ry
     Exchange-correlation      = SLA  PW   PBE  PBE ( 1  4  3  4 0 0)

     celldm(1)=  10.378000  celldm(2)=   0.000000  celldm(3)=   0.000000
     celldm(4)=   0.000000  celldm(5)=   0.000000  celldm(6)=   0.000000

     crystal axes: (cart. coord. in units of alat)
               a(1) = (  -0.500000   0.000000   0.500000 )  
               a(2) = (   0.000000   0.500000   0.500000 )  
               a(3) = (  -0.500000   0.500000   0.000000 )  

     reciprocal axes: (cart. coord. in units 2 pi/alat)
               b(1) = ( -1.000000 -1.000000  1.000000 )  
               b(2) = (  1.000000  1.000000  1.000000 )  
               b(3) = ( -1.000000  1.000000 -1.000000 )  


     PseudoPot. # 1 for Si read from file:
     /home/s1333534/quantum_espresso/qe-6.1/pseudo/si_pbe_v1.uspp.F.UPF.txt
     MD5 check sum: a056efeee980c13900f22a371efd63c1
     Pseudo is Ultrasoft + core correction, Zval =  4.0
     Generated by new atomic code, or converted to UPF format
     Using radial grid of  899 points,  6 beta functions with: 
                l(1) =   0
                l(2) =   0
                l(3) =   1
                l(4) =   1
                l(5) =   2
                l(6) =   2
     Q(r) pseudized with  8 coefficients,  rinner =    0.900   0.900   0.900
                                                       0.900   0.900

     atomic species   valence    mass     pseudopotential
        Si             4.00    28.08600     Si( 1.00)

     48 Sym. Ops., with inversion, found



   Cartesian axes

     site n.     atom                  positions (alat units)
         1           Si  tau(   1) = (   0.0000000   0.0000000   0.0000000  )
         2           Si  tau(   2) = (   0.2500000   0.2500000   0.2500000  )

     number of k points=   120

     Number of k-points >= 100: set verbosity='high' to print them.

     Dense  grid:    17477 G-vectors     FFT dimensions: (  40,  40,  40)

     Smooth grid:     6183 G-vectors     FFT dimensions: (  25,  25,  25)

     Estimated max dynamical RAM per process >       1.79MB

     Estimated total allocated dynamical RAM >       7.17MB

     The potential is recalculated from file :
     ./_ph0/silicon.10.378.save/charge-density.dat

     Starting wfc are    8 atomic wfcs

     Band Structure Calculation
     Davidson diagonalization with overlap

     ethr =  1.25E-10,  avg # of iterations = 12.2

     total cpu time spent up to now is        1.4 secs

     End of band structure calculation

     Number of k-points >= 100: set verbosity='high' to print the bands.

     highest occupied level (ev):     5.5688

     Writing output data file silicon.10.378.save

                                                                                

     bravais-lattice index     =            2
     lattice parameter (alat)  =      10.3780  a.u.
     unit-cell volume          =     279.4351 (a.u.)^3
     number of atoms/cell      =            2
     number of atomic types    =            1
     kinetic-energy cut-off    =      30.0000  Ry
     charge density cut-off    =     240.0000  Ry
     convergence threshold     =      1.0E-12
     beta                      =       0.7000
     number of iterations used =            4
     Exchange-correlation      = SLA  PW   PBE  PBE ( 1  4  3  4 0 0)


     celldm(1)=   10.37800  celldm(2)=    0.00000  celldm(3)=    0.00000
     celldm(4)=    0.00000  celldm(5)=    0.00000  celldm(6)=    0.00000

     crystal axes: (cart. coord. in units of alat)
               a(1) = ( -0.5000  0.0000  0.5000 )  
               a(2) = (  0.0000  0.5000  0.5000 )  
               a(3) = ( -0.5000  0.5000  0.0000 )  

     reciprocal axes: (cart. coord. in units 2 pi/alat)
               b(1) = ( -1.0000 -1.0000  1.0000 )  
               b(2) = (  1.0000  1.0000  1.0000 )  
               b(3) = ( -1.0000  1.0000 -1.0000 )  


     Atoms inside the unit cell: 

     Cartesian axes

     site n.  atom      mass           positions (alat units)
        1     Si  28.0860   tau(    1) = (    0.00000    0.00000    0.00000  )
        2     Si  28.0860   tau(    2) = (    0.25000    0.25000    0.25000  )

     Computing dynamical matrix for 
                    q = (  -0.2500000   0.2500000  -0.2500000 )

      6 Sym.Ops. (no q -> -q+G )


     G cutoff =  654.7550  (   4369 G-vectors)     FFT grid: ( 40, 40, 40)
     G cutoff =  327.3775  (   1546 G-vectors)  smooth grid: ( 25, 25, 25)
     number of k points=   120

     PseudoPot. # 1 for Si read from file:
     /home/s1333534/quantum_espresso/qe-6.1/pseudo/si_pbe_v1.uspp.F.UPF.txt
     MD5 check sum: a056efeee980c13900f22a371efd63c1
     Pseudo is Ultrasoft + core correction, Zval =  4.0
     Generated by new atomic code, or converted to UPF format
     Using radial grid of  899 points,  6 beta functions with: 
                l(1) =   0
                l(2) =   0
                l(3) =   1
                l(4) =   1
                l(5) =   2
                l(6) =   2
     Q(r) pseudized with  8 coefficients,  rinner =    0.900   0.900   0.900
                                                       0.900   0.900

     Mode symmetry, C_3v (3m)   point group:


     Atomic displacements:
     There are   4 irreducible representations

     Representation     1      1 modes -A_1  L_1  To be done

     Representation     2      1 modes -A_1  L_1  To be done

     Representation     3      2 modes -E    L_3  To be done

     Representation     4      2 modes -E    L_3  To be done



     Alpha used in Ewald sum =   2.5000
     PHONON       :    12.07s CPU        16.55s WALL



     Representation #  1 mode #   1

     Self-consistent Calculation

      iter #   1 total cpu time :    17.0 secs   av.it.:   5.9
      thresh= 1.000E-02 alpha_mix =  0.700 |ddv_scf|^2 =  3.069E-04

      iter #   2 total cpu time :    17.7 secs   av.it.:   9.2
      thresh= 1.752E-03 alpha_mix =  0.700 |ddv_scf|^2 =  4.701E-03

      iter #   3 total cpu time :    18.2 secs   av.it.:   7.1
      thresh= 6.857E-03 alpha_mix =  0.700 |ddv_scf|^2 =  1.949E-07

      iter #   4 total cpu time :    18.9 secs   av.it.:   9.8
      thresh= 4.415E-05 alpha_mix =  0.700 |ddv_scf|^2 =  1.315E-08

      iter #   5 total cpu time :    19.6 secs   av.it.:   9.8
      thresh= 1.147E-05 alpha_mix =  0.700 |ddv_scf|^2 =  2.259E-10

      iter #   6 total cpu time :    20.2 secs   av.it.:   9.9
      thresh= 1.503E-06 alpha_mix =  0.700 |ddv_scf|^2 =  3.925E-10

      iter #   7 total cpu time :    20.8 secs   av.it.:   8.0
      thresh= 1.981E-06 alpha_mix =  0.700 |ddv_scf|^2 =  5.654E-11

      iter #   8 total cpu time :    21.4 secs   av.it.:   9.2
      thresh= 7.519E-07 alpha_mix =  0.700 |ddv_scf|^2 =  4.074E-13

     End of self-consistent calculation

     Convergence has been achieved 


     Representation #  2 mode #   2

     Self-consistent Calculation

      iter #   1 total cpu time :    22.0 secs   av.it.:   5.9
      thresh= 1.000E-02 alpha_mix =  0.700 |ddv_scf|^2 =  3.069E-04

      iter #   2 total cpu time :    22.6 secs   av.it.:   9.2
      thresh= 1.752E-03 alpha_mix =  0.700 |ddv_scf|^2 =  4.701E-03

      iter #   3 total cpu time :    23.1 secs   av.it.:   7.1
      thresh= 6.857E-03 alpha_mix =  0.700 |ddv_scf|^2 =  1.949E-07

      iter #   4 total cpu time :    23.8 secs   av.it.:   9.8
      thresh= 4.415E-05 alpha_mix =  0.700 |ddv_scf|^2 =  1.315E-08

      iter #   5 total cpu time :    24.4 secs   av.it.:   9.8
      thresh= 1.147E-05 alpha_mix =  0.700 |ddv_scf|^2 =  2.259E-10

      iter #   6 total cpu time :    25.0 secs   av.it.:   9.9
      thresh= 1.503E-06 alpha_mix =  0.700 |ddv_scf|^2 =  3.925E-10

      iter #   7 total cpu time :    25.6 secs   av.it.:   8.0
      thresh= 1.981E-06 alpha_mix =  0.700 |ddv_scf|^2 =  5.654E-11

      iter #   8 total cpu time :    26.2 secs   av.it.:   9.2
      thresh= 7.519E-07 alpha_mix =  0.700 |ddv_scf|^2 =  4.074E-13

     End of self-consistent calculation

     Convergence has been achieved 


     Representation #  3 modes #   3  4

     Self-consistent Calculation

      iter #   1 total cpu time :    27.2 secs   av.it.:   5.2
      thresh= 1.000E-02 alpha_mix =  0.700 |ddv_scf|^2 =  4.803E-08

      iter #   2 total cpu time :    28.5 secs   av.it.:  11.6
      thresh= 2.192E-05 alpha_mix =  0.700 |ddv_scf|^2 =  3.088E-09

      iter #   3 total cpu time :    29.8 secs   av.it.:  11.2
      thresh= 5.557E-06 alpha_mix =  0.700 |ddv_scf|^2 =  1.628E-10

      iter #   4 total cpu time :    31.0 secs   av.it.:  11.1
      thresh= 1.276E-06 alpha_mix =  0.700 |ddv_scf|^2 =  6.337E-13

     End of self-consistent calculation

     Convergence has been achieved 


     Representation #  4 modes #   5  6

     Self-consistent Calculation

      iter #   1 total cpu time :    32.0 secs   av.it.:   5.2
      thresh= 1.000E-02 alpha_mix =  0.700 |ddv_scf|^2 =  4.804E-08

      iter #   2 total cpu time :    33.4 secs   av.it.:  11.7
      thresh= 2.192E-05 alpha_mix =  0.700 |ddv_scf|^2 =  3.087E-09

      iter #   3 total cpu time :    34.8 secs   av.it.:  11.4
      thresh= 5.556E-06 alpha_mix =  0.700 |ddv_scf|^2 =  1.628E-10

      iter #   4 total cpu time :    36.0 secs   av.it.:  11.2
      thresh= 1.276E-06 alpha_mix =  0.700 |ddv_scf|^2 =  6.372E-13

     End of self-consistent calculation

     Convergence has been achieved 

     Number of q in the star =    8
     List of q in the star:
          1  -0.250000000   0.250000000  -0.250000000
          2   0.250000000  -0.250000000  -0.250000000
          3   0.250000000  -0.250000000   0.250000000
          4   0.250000000   0.250000000   0.250000000
          5  -0.250000000  -0.250000000  -0.250000000
          6  -0.250000000  -0.250000000   0.250000000
          7  -0.250000000   0.250000000   0.250000000
          8   0.250000000   0.250000000  -0.250000000

     Diagonalizing the dynamical matrix

     q = (   -0.250000000   0.250000000  -0.250000000 ) 

 **************************************************************************
     freq (    1) =       2.808762 [THz] =      93.690227 [cm-1]
     freq (    2) =       2.808762 [THz] =      93.690227 [cm-1]
     freq (    3) =       6.640578 [THz] =     221.505838 [cm-1]
     freq (    4) =      14.034999 [THz] =     468.157171 [cm-1]
     freq (    5) =      14.283480 [THz] =     476.445602 [cm-1]
     freq (    6) =      14.283480 [THz] =     476.445602 [cm-1]
 **************************************************************************

     Mode symmetry, C_3v (3m)   point group:

     freq (  1 -  2) =         93.7  [cm-1]   --> E    L_3           
     freq (  3 -  3) =        221.5  [cm-1]   --> A_1  L_1           
     freq (  4 -  4) =        468.2  [cm-1]   --> A_1  L_1           
     freq (  5 -  6) =        476.4  [cm-1]   --> E    L_3           

     Calculation of q =    0.5000000  -0.5000000   0.5000000

   Info: using nr1, nr2, nr3 values from input

   Info: using nr1, nr2, nr3 values from input

     Parallelization info
     --------------------
     sticks:   dense  smooth     PW     G-vecs:    dense   smooth      PW
     Min         222     109     40                 4369     1545     351
     Max         223     110     41                 4370     1546     354
     Sum         889     439    163                17477     6183    1411



     bravais-lattice index     =            2
     lattice parameter (alat)  =      10.3780  a.u.
     unit-cell volume          =     279.4351 (a.u.)^3
     number of atoms/cell      =            2
     number of atomic types    =            1
     number of electrons       =         8.00
     number of Kohn-Sham states=            4
     kinetic-energy cutoff     =      30.0000  Ry
     charge density cutoff     =     240.0000  Ry
     Exchange-correlation      = SLA  PW   PBE  PBE ( 1  4  3  4 0 0)

     celldm(1)=  10.378000  celldm(2)=   0.000000  celldm(3)=   0.000000
     celldm(4)=   0.000000  celldm(5)=   0.000000  celldm(6)=   0.000000

     crystal axes: (cart. coord. in units of alat)
               a(1) = (  -0.500000   0.000000   0.500000 )  
               a(2) = (   0.000000   0.500000   0.500000 )  
               a(3) = (  -0.500000   0.500000   0.000000 )  

     reciprocal axes: (cart. coord. in units 2 pi/alat)
               b(1) = ( -1.000000 -1.000000  1.000000 )  
               b(2) = (  1.000000  1.000000  1.000000 )  
               b(3) = ( -1.000000  1.000000 -1.000000 )  


     PseudoPot. # 1 for Si read from file:
     /home/s1333534/quantum_espresso/qe-6.1/pseudo/si_pbe_v1.uspp.F.UPF.txt
     MD5 check sum: a056efeee980c13900f22a371efd63c1
     Pseudo is Ultrasoft + core correction, Zval =  4.0
     Generated by new atomic code, or converted to UPF format
     Using radial grid of  899 points,  6 beta functions with: 
                l(1) =   0
                l(2) =   0
                l(3) =   1
                l(4) =   1
                l(5) =   2
                l(6) =   2
     Q(r) pseudized with  8 coefficients,  rinner =    0.900   0.900   0.900
                                                       0.900   0.900

     atomic species   valence    mass     pseudopotential
        Si             4.00    28.08600     Si( 1.00)

     48 Sym. Ops., with inversion, found



   Cartesian axes

     site n.     atom                  positions (alat units)
         1           Si  tau(   1) = (   0.0000000   0.0000000   0.0000000  )
         2           Si  tau(   2) = (   0.2500000   0.2500000   0.2500000  )

     number of k points=    60
                       cart. coord. in units 2pi/alat
        k(    1) = (  -0.1250000   0.1250000   0.1250000), wk =   0.0468750
        k(    2) = (   0.3750000  -0.3750000   0.6250000), wk =   0.0000000
        k(    3) = (  -0.3750000   0.3750000  -0.1250000), wk =   0.0468750
        k(    4) = (   0.1250000  -0.1250000   0.3750000), wk =   0.0000000
        k(    5) = (   0.3750000  -0.3750000   0.6250000), wk =   0.0468750
        k(    6) = (   0.8750000  -0.8750000   1.1250000), wk =   0.0000000
        k(    7) = (   0.1250000  -0.1250000   0.3750000), wk =   0.0468750
        k(    8) = (   0.6250000  -0.6250000   0.8750000), wk =   0.0000000
        k(    9) = (  -0.1250000   0.6250000   0.1250000), wk =   0.0937500
        k(   10) = (   0.3750000   0.1250000   0.6250000), wk =   0.0000000
        k(   11) = (   0.6250000  -0.1250000   0.8750000), wk =   0.0937500
        k(   12) = (   1.1250000  -0.6250000   1.3750000), wk =   0.0000000
        k(   13) = (   0.3750000   0.1250000   0.6250000), wk =   0.0937500
        k(   14) = (   0.8750000  -0.3750000   1.1250000), wk =   0.0000000
        k(   15) = (  -0.1250000  -0.8750000   0.1250000), wk =   0.0937500
        k(   16) = (   0.3750000  -1.3750000   0.6250000), wk =   0.0000000
        k(   17) = (  -0.3750000   0.3750000   0.3750000), wk =   0.0468750
        k(   18) = (   0.1250000  -0.1250000   0.8750000), wk =   0.0000000
        k(   19) = (   0.3750000  -0.3750000   1.1250000), wk =   0.0468750
        k(   20) = (   0.8750000  -0.8750000   1.6250000), wk =   0.0000000
        k(   21) = (   0.1250000  -0.1250000   0.1250000), wk =   0.0156250
        k(   22) = (   0.6250000  -0.6250000   0.6250000), wk =   0.0000000
        k(   23) = (  -0.3750000  -0.3750000  -0.1250000), wk =   0.0937500
        k(   24) = (   0.1250000  -0.8750000   0.3750000), wk =   0.0000000
        k(   25) = (  -0.1250000  -0.3750000   0.3750000), wk =   0.0468750
        k(   26) = (   0.3750000  -0.8750000   0.8750000), wk =   0.0000000
        k(   27) = (   0.3750000   0.3750000   0.6250000), wk =   0.0937500
        k(   28) = (   0.8750000  -0.1250000   1.1250000), wk =   0.0000000
        k(   29) = (   0.6250000   0.3750000  -0.3750000), wk =   0.0468750
        k(   30) = (   1.1250000  -0.1250000   0.1250000), wk =   0.0000000
        k(   31) = (   0.1250000   0.1250000   0.3750000), wk =   0.0937500
        k(   32) = (   0.6250000  -0.3750000   0.8750000), wk =   0.0000000
        k(   33) = (   0.3750000   0.1250000  -0.1250000), wk =   0.0468750
        k(   34) = (   0.8750000  -0.3750000   0.3750000), wk =   0.0000000
        k(   35) = (  -0.1250000  -0.6250000  -0.1250000), wk =   0.0468750
        k(   36) = (   0.3750000  -1.1250000   0.3750000), wk =   0.0000000
        k(   37) = (   0.1250000  -0.6250000   0.1250000), wk =   0.0468750
        k(   38) = (   0.6250000  -1.1250000   0.6250000), wk =   0.0000000
        k(   39) = (   0.6250000   0.1250000   0.8750000), wk =   0.0937500
        k(   40) = (   1.1250000  -0.3750000   1.3750000), wk =   0.0000000
        k(   41) = (  -0.8750000   0.1250000   0.6250000), wk =   0.0937500
        k(   42) = (  -0.3750000  -0.3750000   1.1250000), wk =   0.0000000
        k(   43) = (   0.8750000   0.1250000  -0.6250000), wk =   0.0937500
        k(   44) = (   1.3750000  -0.3750000  -0.1250000), wk =   0.0000000
        k(   45) = (   0.3750000  -0.1250000   0.6250000), wk =   0.0937500
        k(   46) = (   0.8750000  -0.6250000   1.1250000), wk =   0.0000000
        k(   47) = (  -0.6250000  -0.1250000   0.3750000), wk =   0.0937500
        k(   48) = (  -0.1250000  -0.6250000   0.8750000), wk =   0.0000000
        k(   49) = (   0.6250000  -0.1250000  -0.3750000), wk =   0.0937500
        k(   50) = (   1.1250000  -0.6250000   0.1250000), wk =   0.0000000
        k(   51) = (  -0.1250000   0.8750000  -0.1250000), wk =   0.0468750
        k(   52) = (   0.3750000   0.3750000   0.3750000), wk =   0.0000000
        k(   53) = (   0.1250000   0.8750000   0.1250000), wk =   0.0468750
        k(   54) = (   0.6250000   0.3750000   0.6250000), wk =   0.0000000
        k(   55) = (   0.3750000  -0.3750000   0.3750000), wk =   0.0156250
        k(   56) = (   0.8750000  -0.8750000   0.8750000), wk =   0.0000000
        k(   57) = (   0.3750000   0.3750000   1.1250000), wk =   0.0937500
        k(   58) = (   0.8750000  -0.1250000   1.6250000), wk =   0.0000000
        k(   59) = (   1.1250000   0.3750000  -0.3750000), wk =   0.0468750
        k(   60) = (   1.6250000  -0.1250000   0.1250000), wk =   0.0000000

     Dense  grid:    17477 G-vectors     FFT dimensions: (  40,  40,  40)

     Smooth grid:     6183 G-vectors     FFT dimensions: (  25,  25,  25)

     Estimated max dynamical RAM per process >       1.79MB

     Estimated total allocated dynamical RAM >       7.17MB

     The potential is recalculated from file :
     ./_ph0/silicon.10.378.save/charge-density.dat

     Starting wfc are    8 atomic wfcs

     Band Structure Calculation
     Davidson diagonalization with overlap

     ethr =  1.25E-10,  avg # of iterations = 12.2

     total cpu time spent up to now is        2.4 secs

     End of band structure calculation

          k =-0.1250 0.1250 0.1250 (   785 PWs)   bands (ev):

    -5.6847   4.2588   5.5688   5.5688

          k = 0.3750-0.3750 0.6250 (   776 PWs)   bands (ev):

    -3.5491  -0.7608   3.6202   4.3315

          k =-0.3750 0.3750-0.1250 (   785 PWs)   bands (ev):

    -4.6707   1.2885   3.6056   5.0922

          k = 0.1250-0.1250 0.3750 (   785 PWs)   bands (ev):

    -5.1631   2.6488   4.5748   4.6313

          k = 0.3750-0.3750 0.6250 (   776 PWs)   bands (ev):

    -3.5491  -0.7608   3.6202   4.3315

          k = 0.8750-0.8750 1.1250 (   785 PWs)   bands (ev):

    -5.6847   4.2588   5.5688   5.5688

          k = 0.1250-0.1250 0.3750 (   785 PWs)   bands (ev):

    -5.1631   2.6488   4.5748   4.6313

          k = 0.6250-0.6250 0.8750 (   785 PWs)   bands (ev):

    -4.6707   1.2885   3.6056   5.0922

          k =-0.1250 0.6250 0.1250 (   777 PWs)   bands (ev):

    -4.1441   0.9431   3.2643   3.7110

          k = 0.3750 0.1250 0.6250 (   780 PWs)   bands (ev):

    -3.7351   0.0874   2.6281   3.9827

          k = 0.6250-0.1250 0.8750 (   764 PWs)   bands (ev):

    -2.5276  -0.9992   1.9323   2.9938

          k = 1.1250-0.6250 1.3750 (   785 PWs)   bands (ev):

    -4.6707   1.2885   3.6056   5.0922

          k = 0.3750 0.1250 0.6250 (   780 PWs)   bands (ev):

    -3.7351   0.0874   2.6281   3.9827

          k = 0.8750-0.3750 1.1250 (   777 PWs)   bands (ev):

    -4.1441   0.9431   3.2643   3.7110

          k =-0.1250-0.8750 0.1250 (   772 PWs)   bands (ev):

    -2.6901  -0.9047   2.5330   3.2492

          k = 0.3750-1.3750 0.6250 (   776 PWs)   bands (ev):

    -3.5491  -0.7608   3.6202   4.3315

          k =-0.3750 0.3750 0.3750 (   775 PWs)   bands (ev):

    -4.2444   0.0187   4.7891   4.7891

          k = 0.1250-0.1250 0.8750 (   772 PWs)   bands (ev):

    -2.6901  -0.9047   2.5330   3.2492

          k = 0.3750-0.3750 1.1250 (   775 PWs)   bands (ev):

    -3.0590  -0.6900   1.9850   4.0192

          k = 0.8750-0.8750 1.6250 (   777 PWs)   bands (ev):

    -4.1441   0.9431   3.2643   3.7110

          k = 0.1250-0.1250 0.1250 (   785 PWs)   bands (ev):

    -5.6847   4.2588   5.5688   5.5688

          k = 0.6250-0.6250 0.6250 (   775 PWs)   bands (ev):

    -4.2444   0.0187   4.7891   4.7891

          k =-0.3750-0.3750-0.1250 (   785 PWs)   bands (ev):

    -4.6707   1.2885   3.6056   5.0922

          k = 0.1250-0.8750 0.3750 (   764 PWs)   bands (ev):

    -2.5276  -0.9992   1.9323   2.9938

          k =-0.1250-0.3750 0.3750 (   785 PWs)   bands (ev):

    -4.6707   1.2885   3.6056   5.0922

          k = 0.3750-0.8750 0.8750 (   777 PWs)   bands (ev):

    -4.1441   0.9431   3.2643   3.7110

          k = 0.3750 0.3750 0.6250 (   776 PWs)   bands (ev):

    -3.5491  -0.7608   3.6202   4.3315

          k = 0.8750-0.1250 1.1250 (   772 PWs)   bands (ev):

    -2.6901  -0.9047   2.5330   3.2492

          k = 0.6250 0.3750-0.3750 (   776 PWs)   bands (ev):

    -3.5491  -0.7608   3.6202   4.3315

          k = 1.1250-0.1250 0.1250 (   772 PWs)   bands (ev):

    -2.6901  -0.9047   2.5330   3.2492

          k = 0.1250 0.1250 0.3750 (   785 PWs)   bands (ev):

    -5.1631   2.6488   4.5748   4.6313

          k = 0.6250-0.3750 0.8750 (   780 PWs)   bands (ev):

    -3.7351   0.0874   2.6281   3.9827

          k = 0.3750 0.1250-0.1250 (   785 PWs)   bands (ev):

    -5.1631   2.6488   4.5748   4.6313

          k = 0.8750-0.3750 0.3750 (   775 PWs)   bands (ev):

    -3.0590  -0.6900   1.9850   4.0192

          k =-0.1250-0.6250-0.1250 (   777 PWs)   bands (ev):

    -4.1441   0.9431   3.2643   3.7110

          k = 0.3750-1.1250 0.3750 (   775 PWs)   bands (ev):

    -3.0590  -0.6900   1.9850   4.0192

          k = 0.1250-0.6250 0.1250 (   777 PWs)   bands (ev):

    -4.1441   0.9431   3.2643   3.7110

          k = 0.6250-1.1250 0.6250 (   785 PWs)   bands (ev):

    -4.6707   1.2885   3.6056   5.0922

          k = 0.6250 0.1250 0.8750 (   764 PWs)   bands (ev):

    -2.5276  -0.9992   1.9323   2.9938

          k = 1.1250-0.3750 1.3750 (   780 PWs)   bands (ev):

    -3.7351   0.0874   2.6281   3.9827

          k =-0.8750 0.1250 0.6250 (   764 PWs)   bands (ev):

    -2.5276  -0.9992   1.9323   2.9938

          k =-0.3750-0.3750 1.1250 (   775 PWs)   bands (ev):

    -3.0590  -0.6900   1.9850   4.0192

          k = 0.8750 0.1250-0.6250 (   764 PWs)   bands (ev):

    -2.5276  -0.9992   1.9323   2.9938

          k = 1.3750-0.3750-0.1250 (   780 PWs)   bands (ev):

    -3.7351   0.0874   2.6281   3.9827

          k = 0.3750-0.1250 0.6250 (   780 PWs)   bands (ev):

    -3.7351   0.0874   2.6281   3.9827

          k = 0.8750-0.6250 1.1250 (   785 PWs)   bands (ev):

    -5.1631   2.6488   4.5748   4.6313

          k =-0.6250-0.1250 0.3750 (   780 PWs)   bands (ev):

    -3.7351   0.0874   2.6281   3.9827

          k =-0.1250-0.6250 0.8750 (   764 PWs)   bands (ev):

    -2.5276  -0.9992   1.9323   2.9938

          k = 0.6250-0.1250-0.3750 (   780 PWs)   bands (ev):

    -3.7351   0.0874   2.6281   3.9827

          k = 1.1250-0.6250 0.1250 (   764 PWs)   bands (ev):

    -2.5276  -0.9992   1.9323   2.9938

          k =-0.1250 0.8750-0.1250 (   772 PWs)   bands (ev):

    -2.6901  -0.9047   2.5330   3.2492

          k = 0.3750 0.3750 0.3750 (   775 PWs)   bands (ev):

    -4.2444   0.0187   4.7891   4.7891

          k = 0.1250 0.8750 0.1250 (   772 PWs)   bands (ev):

    -2.6901  -0.9047   2.5330   3.2492

          k = 0.6250 0.3750 0.6250 (   776 PWs)   bands (ev):

    -3.5491  -0.7608   3.6202   4.3315

          k = 0.3750-0.3750 0.3750 (   775 PWs)   bands (ev):

    -4.2444   0.0187   4.7891   4.7891

          k = 0.8750-0.8750 0.8750 (   785 PWs)   bands (ev):

    -5.6847   4.2588   5.5688   5.5688

          k = 0.3750 0.3750 1.1250 (   775 PWs)   bands (ev):

    -3.0590  -0.6900   1.9850   4.0192

          k = 0.8750-0.1250 1.6250 (   764 PWs)   bands (ev):

    -2.5276  -0.9992   1.9323   2.9938

          k = 1.1250 0.3750-0.3750 (   775 PWs)   bands (ev):

    -3.0590  -0.6900   1.9850   4.0192

          k = 1.6250-0.1250 0.1250 (   785 PWs)   bands (ev):

    -5.1631   2.6488   4.5748   4.6313

     highest occupied level (ev):     5.5688

     Writing output data file silicon.10.378.save

                                                                                

     bravais-lattice index     =            2
     lattice parameter (alat)  =      10.3780  a.u.
     unit-cell volume          =     279.4351 (a.u.)^3
     number of atoms/cell      =            2
     number of atomic types    =            1
     kinetic-energy cut-off    =      30.0000  Ry
     charge density cut-off    =     240.0000  Ry
     convergence threshold     =      1.0E-12
     beta                      =       0.7000
     number of iterations used =            4
     Exchange-correlation      = SLA  PW   PBE  PBE ( 1  4  3  4 0 0)


     celldm(1)=   10.37800  celldm(2)=    0.00000  celldm(3)=    0.00000
     celldm(4)=    0.00000  celldm(5)=    0.00000  celldm(6)=    0.00000

     crystal axes: (cart. coord. in units of alat)
               a(1) = ( -0.5000  0.0000  0.5000 )  
               a(2) = (  0.0000  0.5000  0.5000 )  
               a(3) = ( -0.5000  0.5000  0.0000 )  

     reciprocal axes: (cart. coord. in units 2 pi/alat)
               b(1) = ( -1.0000 -1.0000  1.0000 )  
               b(2) = (  1.0000  1.0000  1.0000 )  
               b(3) = ( -1.0000  1.0000 -1.0000 )  


     Atoms inside the unit cell: 

     Cartesian axes

     site n.  atom      mass           positions (alat units)
        1     Si  28.0860   tau(    1) = (    0.00000    0.00000    0.00000  )
        2     Si  28.0860   tau(    2) = (    0.25000    0.25000    0.25000  )

     Computing dynamical matrix for 
                    q = (   0.5000000  -0.5000000   0.5000000 )

     13 Sym.Ops. (with q -> -q+G )


     G cutoff =  654.7550  (   4369 G-vectors)     FFT grid: ( 40, 40, 40)
     G cutoff =  327.3775  (   1546 G-vectors)  smooth grid: ( 25, 25, 25)
     number of k points=    60

     PseudoPot. # 1 for Si read from file:
     /home/s1333534/quantum_espresso/qe-6.1/pseudo/si_pbe_v1.uspp.F.UPF.txt
     MD5 check sum: a056efeee980c13900f22a371efd63c1
     Pseudo is Ultrasoft + core correction, Zval =  4.0
     Generated by new atomic code, or converted to UPF format
     Using radial grid of  899 points,  6 beta functions with: 
                l(1) =   0
                l(2) =   0
                l(3) =   1
                l(4) =   1
                l(5) =   2
                l(6) =   2
     Q(r) pseudized with  8 coefficients,  rinner =    0.900   0.900   0.900
                                                       0.900   0.900


     Atomic displacements:
     There are   4 irreducible representations

     Representation     1      1 modes -  To be done

     Representation     2      1 modes -  To be done

     Representation     3      2 modes -  To be done

     Representation     4      2 modes -  To be done



     Alpha used in Ewald sum =   2.5000
     PHONON       :    29.66s CPU        38.54s WALL



     Representation #  1 mode #   1

     Self-consistent Calculation

      iter #   1 total cpu time :    38.9 secs   av.it.:   5.0
      thresh= 1.000E-02 alpha_mix =  0.700 |ddv_scf|^2 =  3.010E-06

      iter #   2 total cpu time :    39.3 secs   av.it.:  10.1
      thresh= 1.735E-04 alpha_mix =  0.700 |ddv_scf|^2 =  2.796E-06

      iter #   3 total cpu time :    39.8 secs   av.it.:   9.4
      thresh= 1.672E-04 alpha_mix =  0.700 |ddv_scf|^2 =  1.645E-09

      iter #   4 total cpu time :    40.3 secs   av.it.:   9.6
      thresh= 4.056E-06 alpha_mix =  0.700 |ddv_scf|^2 =  1.561E-11

      iter #   5 total cpu time :    40.7 secs   av.it.:   9.5
      thresh= 3.951E-07 alpha_mix =  0.700 |ddv_scf|^2 =  2.282E-13

     End of self-consistent calculation

     Convergence has been achieved 


     Representation #  2 mode #   2

     Self-consistent Calculation

      iter #   1 total cpu time :    41.2 secs   av.it.:   6.0
      thresh= 1.000E-02 alpha_mix =  0.700 |ddv_scf|^2 =  4.276E-05

      iter #   2 total cpu time :    41.7 secs   av.it.:  10.0
      thresh= 6.539E-04 alpha_mix =  0.700 |ddv_scf|^2 =  1.335E-04

      iter #   3 total cpu time :    42.2 secs   av.it.:   8.9
      thresh= 1.156E-03 alpha_mix =  0.700 |ddv_scf|^2 =  1.040E-08

      iter #   4 total cpu time :    42.7 secs   av.it.:  10.1
      thresh= 1.020E-05 alpha_mix =  0.700 |ddv_scf|^2 =  5.256E-10

      iter #   5 total cpu time :    43.1 secs   av.it.:  10.4
      thresh= 2.293E-06 alpha_mix =  0.700 |ddv_scf|^2 =  1.535E-11

      iter #   6 total cpu time :    43.5 secs   av.it.:   9.9
      thresh= 3.917E-07 alpha_mix =  0.700 |ddv_scf|^2 =  1.131E-13

     End of self-consistent calculation

     Convergence has been achieved 


     Representation #  3 modes #   3  4

     Self-consistent Calculation

      iter #   1 total cpu time :    44.2 secs   av.it.:   5.1
      thresh= 1.000E-02 alpha_mix =  0.700 |ddv_scf|^2 =  1.947E-08

      iter #   2 total cpu time :    45.1 secs   av.it.:  11.1
      thresh= 1.395E-05 alpha_mix =  0.700 |ddv_scf|^2 =  1.143E-09

      iter #   3 total cpu time :    45.9 secs   av.it.:  10.9
      thresh= 3.380E-06 alpha_mix =  0.700 |ddv_scf|^2 =  3.892E-11

      iter #   4 total cpu time :    46.6 secs   av.it.:  10.8
      thresh= 6.239E-07 alpha_mix =  0.700 |ddv_scf|^2 =  3.184E-13

     End of self-consistent calculation

     Convergence has been achieved 


     Representation #  4 modes #   5  6

     Self-consistent Calculation

      iter #   1 total cpu time :    47.4 secs   av.it.:   5.2
      thresh= 1.000E-02 alpha_mix =  0.700 |ddv_scf|^2 =  1.001E-07

      iter #   2 total cpu time :    48.2 secs   av.it.:  11.3
      thresh= 3.163E-05 alpha_mix =  0.700 |ddv_scf|^2 =  8.051E-09

      iter #   3 total cpu time :    49.0 secs   av.it.:  11.2
      thresh= 8.973E-06 alpha_mix =  0.700 |ddv_scf|^2 =  2.106E-10

      iter #   4 total cpu time :    49.8 secs   av.it.:  10.1
      thresh= 1.451E-06 alpha_mix =  0.700 |ddv_scf|^2 =  3.905E-13

     End of self-consistent calculation

     Convergence has been achieved 

     Number of q in the star =    4
     List of q in the star:
          1   0.500000000  -0.500000000   0.500000000
          2   0.500000000   0.500000000   0.500000000
          3  -0.500000000   0.500000000   0.500000000
          4   0.500000000   0.500000000  -0.500000000

     Diagonalizing the dynamical matrix

     q = (    0.500000000  -0.500000000   0.500000000 ) 

 **************************************************************************
     freq (    1) =       3.365782 [THz] =     112.270407 [cm-1]
     freq (    2) =       3.365782 [THz] =     112.270407 [cm-1]
     freq (    3) =      11.044395 [THz] =     368.401357 [cm-1]
     freq (    4) =      11.716644 [THz] =     390.825180 [cm-1]
     freq (    5) =      14.055953 [THz] =     468.856125 [cm-1]
     freq (    6) =      14.055953 [THz] =     468.856125 [cm-1]
 **************************************************************************

     Calculation of q =    0.0000000   0.5000000   0.0000000

   Info: using nr1, nr2, nr3 values from input

   Info: using nr1, nr2, nr3 values from input

     Parallelization info
     --------------------
     sticks:   dense  smooth     PW     G-vecs:    dense   smooth      PW
     Min         222     109     40                 4369     1545     322
     Max         223     110     42                 4370     1547     323
     Sum         889     439    163                17477     6183    1291



     bravais-lattice index     =            2
     lattice parameter (alat)  =      10.3780  a.u.
     unit-cell volume          =     279.4351 (a.u.)^3
     number of atoms/cell      =            2
     number of atomic types    =            1
     number of electrons       =         8.00
     number of Kohn-Sham states=            4
     kinetic-energy cutoff     =      30.0000  Ry
     charge density cutoff     =     240.0000  Ry
     Exchange-correlation      = SLA  PW   PBE  PBE ( 1  4  3  4 0 0)

     celldm(1)=  10.378000  celldm(2)=   0.000000  celldm(3)=   0.000000
     celldm(4)=   0.000000  celldm(5)=   0.000000  celldm(6)=   0.000000

     crystal axes: (cart. coord. in units of alat)
               a(1) = (  -0.500000   0.000000   0.500000 )  
               a(2) = (   0.000000   0.500000   0.500000 )  
               a(3) = (  -0.500000   0.500000   0.000000 )  

     reciprocal axes: (cart. coord. in units 2 pi/alat)
               b(1) = ( -1.000000 -1.000000  1.000000 )  
               b(2) = (  1.000000  1.000000  1.000000 )  
               b(3) = ( -1.000000  1.000000 -1.000000 )  


     PseudoPot. # 1 for Si read from file:
     /home/s1333534/quantum_espresso/qe-6.1/pseudo/si_pbe_v1.uspp.F.UPF.txt
     MD5 check sum: a056efeee980c13900f22a371efd63c1
     Pseudo is Ultrasoft + core correction, Zval =  4.0
     Generated by new atomic code, or converted to UPF format
     Using radial grid of  899 points,  6 beta functions with: 
                l(1) =   0
                l(2) =   0
                l(3) =   1
                l(4) =   1
                l(5) =   2
                l(6) =   2
     Q(r) pseudized with  8 coefficients,  rinner =    0.900   0.900   0.900
                                                       0.900   0.900

     atomic species   valence    mass     pseudopotential
        Si             4.00    28.08600     Si( 1.00)

     48 Sym. Ops., with inversion, found



   Cartesian axes

     site n.     atom                  positions (alat units)
         1           Si  tau(   1) = (   0.0000000   0.0000000   0.0000000  )
         2           Si  tau(   2) = (   0.2500000   0.2500000   0.2500000  )

     number of k points=    80
                       cart. coord. in units 2pi/alat
        k(    1) = (  -0.1250000   0.1250000   0.1250000), wk =   0.0312500
        k(    2) = (  -0.1250000   0.6250000   0.1250000), wk =   0.0000000
        k(    3) = (  -0.3750000   0.3750000  -0.1250000), wk =   0.0625000
        k(    4) = (  -0.3750000   0.8750000  -0.1250000), wk =   0.0000000
        k(    5) = (   0.3750000  -0.3750000   0.6250000), wk =   0.0625000
        k(    6) = (   0.3750000   0.1250000   0.6250000), wk =   0.0000000
        k(    7) = (   0.1250000  -0.1250000   0.3750000), wk =   0.0625000
        k(    8) = (   0.1250000   0.3750000   0.3750000), wk =   0.0000000
        k(    9) = (  -0.1250000   0.6250000   0.1250000), wk =   0.0312500
        k(   10) = (  -0.1250000   1.1250000   0.1250000), wk =   0.0000000
        k(   11) = (   0.6250000  -0.1250000   0.8750000), wk =   0.0625000
        k(   12) = (   0.6250000   0.3750000   0.8750000), wk =   0.0000000
        k(   13) = (   0.3750000   0.1250000   0.6250000), wk =   0.0625000
        k(   14) = (   0.3750000   0.6250000   0.6250000), wk =   0.0000000
        k(   15) = (  -0.1250000  -0.8750000   0.1250000), wk =   0.0312500
        k(   16) = (  -0.1250000  -0.3750000   0.1250000), wk =   0.0000000
        k(   17) = (  -0.3750000   0.3750000   0.3750000), wk =   0.0312500
        k(   18) = (  -0.3750000   0.8750000   0.3750000), wk =   0.0000000
        k(   19) = (   0.3750000  -0.3750000   1.1250000), wk =   0.0625000
        k(   20) = (   0.3750000   0.1250000   1.1250000), wk =   0.0000000
        k(   21) = (  -0.1250000  -0.1250000   0.1250000), wk =   0.0312500
        k(   22) = (  -0.1250000   0.3750000   0.1250000), wk =   0.0000000
        k(   23) = (   0.1250000  -0.3750000   0.3750000), wk =   0.0625000
        k(   24) = (   0.1250000   0.1250000   0.3750000), wk =   0.0000000
        k(   25) = (   0.3750000  -0.1250000   0.3750000), wk =   0.0312500
        k(   26) = (   0.3750000   0.3750000   0.3750000), wk =   0.0000000
        k(   27) = (   0.3750000   0.1250000   0.3750000), wk =   0.0312500
        k(   28) = (   0.3750000   0.6250000   0.3750000), wk =   0.0000000
        k(   29) = (  -0.6250000   0.3750000  -0.3750000), wk =   0.0625000
        k(   30) = (  -0.6250000   0.8750000  -0.3750000), wk =   0.0000000
        k(   31) = (  -0.3750000   0.6250000  -0.3750000), wk =   0.0312500
        k(   32) = (  -0.3750000   1.1250000  -0.3750000), wk =   0.0000000
        k(   33) = (  -0.3750000  -0.6250000  -0.3750000), wk =   0.0312500
        k(   34) = (  -0.3750000  -0.1250000  -0.3750000), wk =   0.0000000
        k(   35) = (  -0.3750000   0.1250000  -0.1250000), wk =   0.0625000
        k(   36) = (  -0.3750000   0.6250000  -0.1250000), wk =   0.0000000
        k(   37) = (  -0.1250000   0.3750000  -0.1250000), wk =   0.0312500
        k(   38) = (  -0.1250000   0.8750000  -0.1250000), wk =   0.0000000
        k(   39) = (  -0.1250000  -0.3750000  -0.1250000), wk =   0.0312500
        k(   40) = (  -0.1250000   0.1250000  -0.1250000), wk =   0.0000000
        k(   41) = (  -0.1250000  -0.6250000   0.1250000), wk =   0.0312500
        k(   42) = (  -0.1250000  -0.1250000   0.1250000), wk =   0.0000000
        k(   43) = (   0.6250000  -0.1250000  -0.1250000), wk =   0.0625000
        k(   44) = (   0.6250000   0.3750000  -0.1250000), wk =   0.0000000
        k(   45) = (   0.6250000   0.1250000   0.1250000), wk =   0.0625000
        k(   46) = (   0.6250000   0.6250000   0.1250000), wk =   0.0000000
        k(   47) = (  -0.8750000   0.1250000  -0.6250000), wk =   0.0625000
        k(   48) = (  -0.8750000   0.6250000  -0.6250000), wk =   0.0000000
        k(   49) = (  -0.1250000   0.6250000  -0.8750000), wk =   0.0625000
        k(   50) = (  -0.1250000   1.1250000  -0.8750000), wk =   0.0000000
        k(   51) = (  -0.1250000   0.8750000  -0.6250000), wk =   0.0625000
        k(   52) = (  -0.1250000   1.3750000  -0.6250000), wk =   0.0000000
        k(   53) = (  -0.1250000  -0.8750000  -0.6250000), wk =   0.0625000
        k(   54) = (  -0.1250000  -0.3750000  -0.6250000), wk =   0.0000000
        k(   55) = (   0.8750000  -0.6250000   0.1250000), wk =   0.0625000
        k(   56) = (   0.8750000  -0.1250000   0.1250000), wk =   0.0000000
        k(   57) = (  -0.6250000  -0.1250000  -0.3750000), wk =   0.0625000
        k(   58) = (  -0.6250000   0.3750000  -0.3750000), wk =   0.0000000
        k(   59) = (   0.1250000   0.3750000  -0.6250000), wk =   0.0625000
        k(   60) = (   0.1250000   0.8750000  -0.6250000), wk =   0.0000000
        k(   61) = (   0.1250000   0.6250000  -0.3750000), wk =   0.0625000
        k(   62) = (   0.1250000   1.1250000  -0.3750000), wk =   0.0000000
        k(   63) = (   0.1250000  -0.6250000  -0.3750000), wk =   0.0625000
        k(   64) = (   0.1250000  -0.1250000  -0.3750000), wk =   0.0000000
        k(   65) = (   0.6250000  -0.3750000  -0.1250000), wk =   0.0625000
        k(   66) = (   0.6250000   0.1250000  -0.1250000), wk =   0.0000000
        k(   67) = (  -0.1250000   0.8750000   0.1250000), wk =   0.0312500
        k(   68) = (  -0.1250000   1.3750000   0.1250000), wk =   0.0000000
        k(   69) = (  -0.8750000  -0.1250000  -0.1250000), wk =   0.0625000
        k(   70) = (  -0.8750000   0.3750000  -0.1250000), wk =   0.0000000
        k(   71) = (  -0.8750000   0.1250000   0.1250000), wk =   0.0625000
        k(   72) = (  -0.8750000   0.6250000   0.1250000), wk =   0.0000000
        k(   73) = (  -0.3750000  -0.3750000   0.3750000), wk =   0.0312500
        k(   74) = (  -0.3750000   0.1250000   0.3750000), wk =   0.0000000
        k(   75) = (  -1.1250000   0.3750000  -0.3750000), wk =   0.0625000
        k(   76) = (  -1.1250000   0.8750000  -0.3750000), wk =   0.0000000
        k(   77) = (  -0.3750000   1.1250000  -0.3750000), wk =   0.0312500
        k(   78) = (  -0.3750000   1.6250000  -0.3750000), wk =   0.0000000
        k(   79) = (  -0.3750000  -1.1250000  -0.3750000), wk =   0.0312500
        k(   80) = (  -0.3750000  -0.6250000  -0.3750000), wk =   0.0000000

     Dense  grid:    17477 G-vectors     FFT dimensions: (  40,  40,  40)

     Smooth grid:     6183 G-vectors     FFT dimensions: (  25,  25,  25)

     Estimated max dynamical RAM per process >       1.79MB

     Estimated total allocated dynamical RAM >       7.17MB

     The potential is recalculated from file :
     ./_ph0/silicon.10.378.save/charge-density.dat

     Starting wfc are    8 atomic wfcs

     Band Structure Calculation
     Davidson diagonalization with overlap

     ethr =  1.25E-10,  avg # of iterations = 12.2

     total cpu time spent up to now is        3.6 secs

     End of band structure calculation

          k =-0.1250 0.1250 0.1250 (   785 PWs)   bands (ev):

    -5.6847   4.2588   5.5688   5.5688

          k =-0.1250 0.6250 0.1250 (   777 PWs)   bands (ev):

    -4.1441   0.9431   3.2643   3.7110

          k =-0.3750 0.3750-0.1250 (   785 PWs)   bands (ev):

    -4.6707   1.2885   3.6056   5.0922

          k =-0.3750 0.8750-0.1250 (   764 PWs)   bands (ev):

    -2.5276  -0.9992   1.9323   2.9938

          k = 0.3750-0.3750 0.6250 (   776 PWs)   bands (ev):

    -3.5491  -0.7608   3.6202   4.3315

          k = 0.3750 0.1250 0.6250 (   780 PWs)   bands (ev):

    -3.7351   0.0874   2.6281   3.9827

          k = 0.1250-0.1250 0.3750 (   785 PWs)   bands (ev):

    -5.1631   2.6488   4.5748   4.6313

          k = 0.1250 0.3750 0.3750 (   785 PWs)   bands (ev):

    -4.6707   1.2885   3.6056   5.0922

          k =-0.1250 0.6250 0.1250 (   777 PWs)   bands (ev):

    -4.1441   0.9431   3.2643   3.7110

          k =-0.1250 1.1250 0.1250 (   772 PWs)   bands (ev):

    -2.6901  -0.9047   2.5330   3.2492

          k = 0.6250-0.1250 0.8750 (   764 PWs)   bands (ev):

    -2.5276  -0.9992   1.9323   2.9938

          k = 0.6250 0.3750 0.8750 (   780 PWs)   bands (ev):

    -3.7351   0.0874   2.6281   3.9827

          k = 0.3750 0.1250 0.6250 (   780 PWs)   bands (ev):

    -3.7351   0.0874   2.6281   3.9827

          k = 0.3750 0.6250 0.6250 (   776 PWs)   bands (ev):

    -3.5491  -0.7608   3.6202   4.3315

          k =-0.1250-0.8750 0.1250 (   772 PWs)   bands (ev):

    -2.6901  -0.9047   2.5330   3.2492

          k =-0.1250-0.3750 0.1250 (   785 PWs)   bands (ev):

    -5.1631   2.6488   4.5748   4.6313

          k =-0.3750 0.3750 0.3750 (   775 PWs)   bands (ev):

    -4.2444   0.0187   4.7891   4.7891

          k =-0.3750 0.8750 0.3750 (   775 PWs)   bands (ev):

    -3.0590  -0.6900   1.9850   4.0192

          k = 0.3750-0.3750 1.1250 (   775 PWs)   bands (ev):

    -3.0590  -0.6900   1.9850   4.0192

          k = 0.3750 0.1250 1.1250 (   764 PWs)   bands (ev):

    -2.5276  -0.9992   1.9323   2.9938

          k =-0.1250-0.1250 0.1250 (   785 PWs)   bands (ev):

    -5.6847   4.2588   5.5688   5.5688

          k =-0.1250 0.3750 0.1250 (   785 PWs)   bands (ev):

    -5.1631   2.6488   4.5748   4.6313

          k = 0.1250-0.3750 0.3750 (   785 PWs)   bands (ev):

    -4.6707   1.2885   3.6056   5.0922

          k = 0.1250 0.1250 0.3750 (   785 PWs)   bands (ev):

    -5.1631   2.6488   4.5748   4.6313

          k = 0.3750-0.1250 0.3750 (   785 PWs)   bands (ev):

    -4.6707   1.2885   3.6056   5.0922

          k = 0.3750 0.3750 0.3750 (   775 PWs)   bands (ev):

    -4.2444   0.0187   4.7891   4.7891

          k = 0.3750 0.1250 0.3750 (   785 PWs)   bands (ev):

    -4.6707   1.2885   3.6056   5.0922

          k = 0.3750 0.6250 0.3750 (   776 PWs)   bands (ev):

    -3.5491  -0.7608   3.6202   4.3315

          k =-0.6250 0.3750-0.3750 (   776 PWs)   bands (ev):

    -3.5491  -0.7608   3.6202   4.3315

          k =-0.6250 0.8750-0.3750 (   780 PWs)   bands (ev):

    -3.7351   0.0874   2.6281   3.9827

          k =-0.3750 0.6250-0.3750 (   776 PWs)   bands (ev):

    -3.5491  -0.7608   3.6202   4.3315

          k =-0.3750 1.1250-0.3750 (   775 PWs)   bands (ev):

    -3.0590  -0.6900   1.9850   4.0192

          k =-0.3750-0.6250-0.3750 (   776 PWs)   bands (ev):

    -3.5491  -0.7608   3.6202   4.3315

          k =-0.3750-0.1250-0.3750 (   785 PWs)   bands (ev):

    -4.6707   1.2885   3.6056   5.0922

          k =-0.3750 0.1250-0.1250 (   785 PWs)   bands (ev):

    -5.1631   2.6488   4.5748   4.6313

          k =-0.3750 0.6250-0.1250 (   780 PWs)   bands (ev):

    -3.7351   0.0874   2.6281   3.9827

          k =-0.1250 0.3750-0.1250 (   785 PWs)   bands (ev):

    -5.1631   2.6488   4.5748   4.6313

          k =-0.1250 0.8750-0.1250 (   772 PWs)   bands (ev):

    -2.6901  -0.9047   2.5330   3.2492

          k =-0.1250-0.3750-0.1250 (   785 PWs)   bands (ev):

    -5.1631   2.6488   4.5748   4.6313

          k =-0.1250 0.1250-0.1250 (   785 PWs)   bands (ev):

    -5.6847   4.2588   5.5688   5.5688

          k =-0.1250-0.6250 0.1250 (   777 PWs)   bands (ev):

    -4.1441   0.9431   3.2643   3.7110

          k =-0.1250-0.1250 0.1250 (   785 PWs)   bands (ev):

    -5.6847   4.2588   5.5688   5.5688

          k = 0.6250-0.1250-0.1250 (   777 PWs)   bands (ev):

    -4.1441   0.9431   3.2643   3.7110

          k = 0.6250 0.3750-0.1250 (   780 PWs)   bands (ev):

    -3.7351   0.0874   2.6281   3.9827

          k = 0.6250 0.1250 0.1250 (   777 PWs)   bands (ev):

    -4.1441   0.9431   3.2643   3.7110

          k = 0.6250 0.6250 0.1250 (   775 PWs)   bands (ev):

    -3.0590  -0.6900   1.9850   4.0192

          k =-0.8750 0.1250-0.6250 (   764 PWs)   bands (ev):

    -2.5276  -0.9992   1.9323   2.9938

          k =-0.8750 0.6250-0.6250 (   785 PWs)   bands (ev):

    -4.6707   1.2885   3.6056   5.0922

          k =-0.1250 0.6250-0.8750 (   764 PWs)   bands (ev):

    -2.5276  -0.9992   1.9323   2.9938

          k =-0.1250 1.1250-0.8750 (   772 PWs)   bands (ev):

    -2.6901  -0.9047   2.5330   3.2492

          k =-0.1250 0.8750-0.6250 (   764 PWs)   bands (ev):

    -2.5276  -0.9992   1.9323   2.9938

          k =-0.1250 1.3750-0.6250 (   775 PWs)   bands (ev):

    -3.0590  -0.6900   1.9850   4.0192

          k =-0.1250-0.8750-0.6250 (   764 PWs)   bands (ev):

    -2.5276  -0.9992   1.9323   2.9938

          k =-0.1250-0.3750-0.6250 (   780 PWs)   bands (ev):

    -3.7351   0.0874   2.6281   3.9827

          k = 0.8750-0.6250 0.1250 (   764 PWs)   bands (ev):

    -2.5276  -0.9992   1.9323   2.9938

          k = 0.8750-0.1250 0.1250 (   772 PWs)   bands (ev):

    -2.6901  -0.9047   2.5330   3.2492

          k =-0.6250-0.1250-0.3750 (   780 PWs)   bands (ev):

    -3.7351   0.0874   2.6281   3.9827

          k =-0.6250 0.3750-0.3750 (   776 PWs)   bands (ev):

    -3.5491  -0.7608   3.6202   4.3315

          k = 0.1250 0.3750-0.6250 (   780 PWs)   bands (ev):

    -3.7351   0.0874   2.6281   3.9827

          k = 0.1250 0.8750-0.6250 (   764 PWs)   bands (ev):

    -2.5276  -0.9992   1.9323   2.9938

          k = 0.1250 0.6250-0.3750 (   780 PWs)   bands (ev):

    -3.7351   0.0874   2.6281   3.9827

          k = 0.1250 1.1250-0.3750 (   764 PWs)   bands (ev):

    -2.5276  -0.9992   1.9323   2.9938

          k = 0.1250-0.6250-0.3750 (   780 PWs)   bands (ev):

    -3.7351   0.0874   2.6281   3.9827

          k = 0.1250-0.1250-0.3750 (   785 PWs)   bands (ev):

    -5.1631   2.6488   4.5748   4.6313

          k = 0.6250-0.3750-0.1250 (   780 PWs)   bands (ev):

    -3.7351   0.0874   2.6281   3.9827

          k = 0.6250 0.1250-0.1250 (   777 PWs)   bands (ev):

    -4.1441   0.9431   3.2643   3.7110

          k =-0.1250 0.8750 0.1250 (   772 PWs)   bands (ev):

    -2.6901  -0.9047   2.5330   3.2492

          k =-0.1250 1.3750 0.1250 (   777 PWs)   bands (ev):

    -4.1441   0.9431   3.2643   3.7110

          k =-0.8750-0.1250-0.1250 (   772 PWs)   bands (ev):

    -2.6901  -0.9047   2.5330   3.2492

          k =-0.8750 0.3750-0.1250 (   764 PWs)   bands (ev):

    -2.5276  -0.9992   1.9323   2.9938

          k =-0.8750 0.1250 0.1250 (   772 PWs)   bands (ev):

    -2.6901  -0.9047   2.5330   3.2492

          k =-0.8750 0.6250 0.1250 (   764 PWs)   bands (ev):

    -2.5276  -0.9992   1.9323   2.9938

          k =-0.3750-0.3750 0.3750 (   775 PWs)   bands (ev):

    -4.2444   0.0187   4.7891   4.7891

          k =-0.3750 0.1250 0.3750 (   785 PWs)   bands (ev):

    -4.6707   1.2885   3.6056   5.0922

          k =-1.1250 0.3750-0.3750 (   775 PWs)   bands (ev):

    -3.0590  -0.6900   1.9850   4.0192

          k =-1.1250 0.8750-0.3750 (   777 PWs)   bands (ev):

    -4.1441   0.9431   3.2643   3.7110

          k =-0.3750 1.1250-0.3750 (   775 PWs)   bands (ev):

    -3.0590  -0.6900   1.9850   4.0192

          k =-0.3750 1.6250-0.3750 (   775 PWs)   bands (ev):

    -4.2444   0.0187   4.7891   4.7891

          k =-0.3750-1.1250-0.3750 (   775 PWs)   bands (ev):

    -3.0590  -0.6900   1.9850   4.0192

          k =-0.3750-0.6250-0.3750 (   776 PWs)   bands (ev):

    -3.5491  -0.7608   3.6202   4.3315

     highest occupied level (ev):     5.5688

     Writing output data file silicon.10.378.save

                                                                                

     bravais-lattice index     =            2
     lattice parameter (alat)  =      10.3780  a.u.
     unit-cell volume          =     279.4351 (a.u.)^3
     number of atoms/cell      =            2
     number of atomic types    =            1
     kinetic-energy cut-off    =      30.0000  Ry
     charge density cut-off    =     240.0000  Ry
     convergence threshold     =      1.0E-12
     beta                      =       0.7000
     number of iterations used =            4
     Exchange-correlation      = SLA  PW   PBE  PBE ( 1  4  3  4 0 0)


     celldm(1)=   10.37800  celldm(2)=    0.00000  celldm(3)=    0.00000
     celldm(4)=    0.00000  celldm(5)=    0.00000  celldm(6)=    0.00000

     crystal axes: (cart. coord. in units of alat)
               a(1) = ( -0.5000  0.0000  0.5000 )  
               a(2) = (  0.0000  0.5000  0.5000 )  
               a(3) = ( -0.5000  0.5000  0.0000 )  

     reciprocal axes: (cart. coord. in units 2 pi/alat)
               b(1) = ( -1.0000 -1.0000  1.0000 )  
               b(2) = (  1.0000  1.0000  1.0000 )  
               b(3) = ( -1.0000  1.0000 -1.0000 )  


     Atoms inside the unit cell: 

     Cartesian axes

     site n.  atom      mass           positions (alat units)
        1     Si  28.0860   tau(    1) = (    0.00000    0.00000    0.00000  )
        2     Si  28.0860   tau(    2) = (    0.25000    0.25000    0.25000  )

     Computing dynamical matrix for 
                    q = (   0.0000000   0.5000000   0.0000000 )

      8 Sym.Ops. (no q -> -q+G )


     G cutoff =  654.7550  (   4369 G-vectors)     FFT grid: ( 40, 40, 40)
     G cutoff =  327.3775  (   1545 G-vectors)  smooth grid: ( 25, 25, 25)
     number of k points=    80

     PseudoPot. # 1 for Si read from file:
     /home/s1333534/quantum_espresso/qe-6.1/pseudo/si_pbe_v1.uspp.F.UPF.txt
     MD5 check sum: a056efeee980c13900f22a371efd63c1
     Pseudo is Ultrasoft + core correction, Zval =  4.0
     Generated by new atomic code, or converted to UPF format
     Using radial grid of  899 points,  6 beta functions with: 
                l(1) =   0
                l(2) =   0
                l(3) =   1
                l(4) =   1
                l(5) =   2
                l(6) =   2
     Q(r) pseudized with  8 coefficients,  rinner =    0.900   0.900   0.900
                                                       0.900   0.900

     Mode symmetry, C_4v (4mm)  point group:


     Atomic displacements:
     There are   4 irreducible representations

     Representation     1      1 modes -A_1  G_1 D_1  To be done

     Representation     2      1 modes -B_2  G_4 D_2'  To be done

     Representation     3      2 modes -E    G_5 D_5  To be done

     Representation     4      2 modes -E    G_5 D_5  To be done



     Alpha used in Ewald sum =   2.5000
     PHONON       :    39.92s CPU        52.33s WALL



     Representation #  1 mode #   1

     Self-consistent Calculation

      iter #   1 total cpu time :    52.8 secs   av.it.:   6.2
      thresh= 1.000E-02 alpha_mix =  0.700 |ddv_scf|^2 =  3.695E-04

      iter #   2 total cpu time :    53.3 secs   av.it.:   9.5
      thresh= 1.922E-03 alpha_mix =  0.700 |ddv_scf|^2 =  4.937E-03

      iter #   3 total cpu time :    53.7 secs   av.it.:   7.5
      thresh= 7.026E-03 alpha_mix =  0.700 |ddv_scf|^2 =  7.123E-09

      iter #   4 total cpu time :    54.2 secs   av.it.:  10.3
      thresh= 8.440E-06 alpha_mix =  0.700 |ddv_scf|^2 =  7.758E-10

      iter #   5 total cpu time :    54.7 secs   av.it.:   9.8
      thresh= 2.785E-06 alpha_mix =  0.700 |ddv_scf|^2 =  7.928E-11

      iter #   6 total cpu time :    55.1 secs   av.it.:   9.6
      thresh= 8.904E-07 alpha_mix =  0.700 |ddv_scf|^2 =  1.956E-13

     End of self-consistent calculation

     Convergence has been achieved 


     Representation #  2 mode #   2

     Self-consistent Calculation

      iter #   1 total cpu time :    55.6 secs   av.it.:   5.1
      thresh= 1.000E-02 alpha_mix =  0.700 |ddv_scf|^2 =  5.880E-07

      iter #   2 total cpu time :    56.2 secs   av.it.:  10.6
      thresh= 7.668E-05 alpha_mix =  0.700 |ddv_scf|^2 =  1.648E-07

      iter #   3 total cpu time :    56.7 secs   av.it.:  10.2
      thresh= 4.060E-05 alpha_mix =  0.700 |ddv_scf|^2 =  1.695E-09

      iter #   4 total cpu time :    57.2 secs   av.it.:  10.3
      thresh= 4.117E-06 alpha_mix =  0.700 |ddv_scf|^2 =  6.850E-11

      iter #   5 total cpu time :    57.6 secs   av.it.:  10.5
      thresh= 8.276E-07 alpha_mix =  0.700 |ddv_scf|^2 =  3.908E-13

     End of self-consistent calculation

     Convergence has been achieved 


     Representation #  3 modes #   3  4

     Self-consistent Calculation

      iter #   1 total cpu time :    58.4 secs   av.it.:   5.2
      thresh= 1.000E-02 alpha_mix =  0.700 |ddv_scf|^2 =  1.040E-07

      iter #   2 total cpu time :    59.4 secs   av.it.:  11.7
      thresh= 3.225E-05 alpha_mix =  0.700 |ddv_scf|^2 =  1.436E-08

      iter #   3 total cpu time :    60.4 secs   av.it.:  11.3
      thresh= 1.198E-05 alpha_mix =  0.700 |ddv_scf|^2 =  2.417E-10

      iter #   4 total cpu time :    61.3 secs   av.it.:  10.8
      thresh= 1.555E-06 alpha_mix =  0.700 |ddv_scf|^2 =  5.776E-13

     End of self-consistent calculation

     Convergence has been achieved 


     Representation #  4 modes #   5  6

     Self-consistent Calculation

      iter #   1 total cpu time :    62.2 secs   av.it.:   5.3
      thresh= 1.000E-02 alpha_mix =  0.700 |ddv_scf|^2 =  9.530E-08

      iter #   2 total cpu time :    63.2 secs   av.it.:  11.6
      thresh= 3.087E-05 alpha_mix =  0.700 |ddv_scf|^2 =  1.282E-08

      iter #   3 total cpu time :    64.2 secs   av.it.:  11.4
      thresh= 1.132E-05 alpha_mix =  0.700 |ddv_scf|^2 =  2.467E-10

      iter #   4 total cpu time :    65.1 secs   av.it.:  11.1
      thresh= 1.571E-06 alpha_mix =  0.700 |ddv_scf|^2 =  6.167E-13

     End of self-consistent calculation

     Convergence has been achieved 

     Number of q in the star =    6
     List of q in the star:
          1   0.000000000   0.500000000   0.000000000
          2   0.000000000  -0.500000000   0.000000000
          3   0.500000000   0.000000000   0.000000000
          4   0.000000000   0.000000000   0.500000000
          5   0.000000000   0.000000000  -0.500000000
          6  -0.500000000   0.000000000   0.000000000

     Diagonalizing the dynamical matrix

     q = (    0.000000000   0.500000000   0.000000000 ) 

 **************************************************************************
     freq (    1) =       3.794864 [THz] =     126.583050 [cm-1]
     freq (    2) =       3.794864 [THz] =     126.583050 [cm-1]
     freq (    3) =       6.961102 [THz] =     232.197363 [cm-1]
     freq (    4) =      13.595380 [THz] =     453.493065 [cm-1]
     freq (    5) =      13.595380 [THz] =     453.493065 [cm-1]
     freq (    6) =      14.274068 [THz] =     476.131669 [cm-1]
 **************************************************************************

     Mode symmetry, C_4v (4mm)  point group:

     freq (  1 -  2) =        126.6  [cm-1]   --> E    G_5 D_5       
     freq (  3 -  3) =        232.2  [cm-1]   --> A_1  G_1 D_1       
     freq (  4 -  5) =        453.5  [cm-1]   --> E    G_5 D_5       
     freq (  6 -  6) =        476.1  [cm-1]   --> B_2  G_4 D_2'      

     Calculation of q =    0.7500000  -0.2500000   0.7500000

   Info: using nr1, nr2, nr3 values from input

   Info: using nr1, nr2, nr3 values from input

     Parallelization info
     --------------------
     sticks:   dense  smooth     PW     G-vecs:    dense   smooth      PW
     Min         222     109     42                 4369     1545     367
     Max         223     110     43                 4370     1547     368
     Sum         889     439    169                17477     6183    1471



     bravais-lattice index     =            2
     lattice parameter (alat)  =      10.3780  a.u.
     unit-cell volume          =     279.4351 (a.u.)^3
     number of atoms/cell      =            2
     number of atomic types    =            1
     number of electrons       =         8.00
     number of Kohn-Sham states=            4
     kinetic-energy cutoff     =      30.0000  Ry
     charge density cutoff     =     240.0000  Ry
     Exchange-correlation      = SLA  PW   PBE  PBE ( 1  4  3  4 0 0)

     celldm(1)=  10.378000  celldm(2)=   0.000000  celldm(3)=   0.000000
     celldm(4)=   0.000000  celldm(5)=   0.000000  celldm(6)=   0.000000

     crystal axes: (cart. coord. in units of alat)
               a(1) = (  -0.500000   0.000000   0.500000 )  
               a(2) = (   0.000000   0.500000   0.500000 )  
               a(3) = (  -0.500000   0.500000   0.000000 )  

     reciprocal axes: (cart. coord. in units 2 pi/alat)
               b(1) = ( -1.000000 -1.000000  1.000000 )  
               b(2) = (  1.000000  1.000000  1.000000 )  
               b(3) = ( -1.000000  1.000000 -1.000000 )  


     PseudoPot. # 1 for Si read from file:
     /home/s1333534/quantum_espresso/qe-6.1/pseudo/si_pbe_v1.uspp.F.UPF.txt
     MD5 check sum: a056efeee980c13900f22a371efd63c1
     Pseudo is Ultrasoft + core correction, Zval =  4.0
     Generated by new atomic code, or converted to UPF format
     Using radial grid of  899 points,  6 beta functions with: 
                l(1) =   0
                l(2) =   0
                l(3) =   1
                l(4) =   1
                l(5) =   2
                l(6) =   2
     Q(r) pseudized with  8 coefficients,  rinner =    0.900   0.900   0.900
                                                       0.900   0.900

     atomic species   valence    mass     pseudopotential
        Si             4.00    28.08600     Si( 1.00)

     48 Sym. Ops., with inversion, found



   Cartesian axes

     site n.     atom                  positions (alat units)
         1           Si  tau(   1) = (   0.0000000   0.0000000   0.0000000  )
         2           Si  tau(   2) = (   0.2500000   0.2500000   0.2500000  )

     number of k points=   288

     Number of k-points >= 100: set verbosity='high' to print them.

     Dense  grid:    17477 G-vectors     FFT dimensions: (  40,  40,  40)

     Smooth grid:     6183 G-vectors     FFT dimensions: (  25,  25,  25)

     Estimated max dynamical RAM per process >       1.79MB

     Estimated total allocated dynamical RAM >       7.17MB

     The potential is recalculated from file :
     ./_ph0/silicon.10.378.save/charge-density.dat

     Starting wfc are    8 atomic wfcs

     Band Structure Calculation
     Davidson diagonalization with overlap

     ethr =  1.25E-10,  avg # of iterations = 12.1

     total cpu time spent up to now is        6.9 secs

     End of band structure calculation

     Number of k-points >= 100: set verbosity='high' to print the bands.

     highest occupied level (ev):     5.5688

     Writing output data file silicon.10.378.save

                                                                                

     bravais-lattice index     =            2
     lattice parameter (alat)  =      10.3780  a.u.
     unit-cell volume          =     279.4351 (a.u.)^3
     number of atoms/cell      =            2
     number of atomic types    =            1
     kinetic-energy cut-off    =      30.0000  Ry
     charge density cut-off    =     240.0000  Ry
     convergence threshold     =      1.0E-12
     beta                      =       0.7000
     number of iterations used =            4
     Exchange-correlation      = SLA  PW   PBE  PBE ( 1  4  3  4 0 0)


     celldm(1)=   10.37800  celldm(2)=    0.00000  celldm(3)=    0.00000
     celldm(4)=    0.00000  celldm(5)=    0.00000  celldm(6)=    0.00000

     crystal axes: (cart. coord. in units of alat)
               a(1) = ( -0.5000  0.0000  0.5000 )  
               a(2) = (  0.0000  0.5000  0.5000 )  
               a(3) = ( -0.5000  0.5000  0.0000 )  

     reciprocal axes: (cart. coord. in units 2 pi/alat)
               b(1) = ( -1.0000 -1.0000  1.0000 )  
               b(2) = (  1.0000  1.0000  1.0000 )  
               b(3) = ( -1.0000  1.0000 -1.0000 )  


     Atoms inside the unit cell: 

     Cartesian axes

     site n.  atom      mass           positions (alat units)
        1     Si  28.0860   tau(    1) = (    0.00000    0.00000    0.00000  )
        2     Si  28.0860   tau(    2) = (    0.25000    0.25000    0.25000  )

     Computing dynamical matrix for 
                    q = (   0.7500000  -0.2500000   0.7500000 )

      2 Sym.Ops. (no q -> -q+G )


     G cutoff =  654.7550  (   4369 G-vectors)     FFT grid: ( 40, 40, 40)
     G cutoff =  327.3775  (   1547 G-vectors)  smooth grid: ( 25, 25, 25)
     number of k points=   288

     PseudoPot. # 1 for Si read from file:
     /home/s1333534/quantum_espresso/qe-6.1/pseudo/si_pbe_v1.uspp.F.UPF.txt
     MD5 check sum: a056efeee980c13900f22a371efd63c1
     Pseudo is Ultrasoft + core correction, Zval =  4.0
     Generated by new atomic code, or converted to UPF format
     Using radial grid of  899 points,  6 beta functions with: 
                l(1) =   0
                l(2) =   0
                l(3) =   1
                l(4) =   1
                l(5) =   2
                l(6) =   2
     Q(r) pseudized with  8 coefficients,  rinner =    0.900   0.900   0.900
                                                       0.900   0.900

     Mode symmetry, C_s (m)     point group:


     Atomic displacements:
     There are   6 irreducible representations

     Representation     1      1 modes -A'  To be done

     Representation     2      1 modes -A'  To be done

     Representation     3      1 modes -A'  To be done

     Representation     4      1 modes -A'  To be done

     Representation     5      1 modes -A''  To be done

     Representation     6      1 modes -A''  To be done



     Alpha used in Ewald sum =   2.5000
     PHONON       :  0m54.63s CPU     1m10.48s WALL



     Representation #  1 mode #   1

     Self-consistent Calculation

      iter #   1 total cpu time :    71.4 secs   av.it.:   5.6
      thresh= 1.000E-02 alpha_mix =  0.700 |ddv_scf|^2 =  7.546E-06

      iter #   2 total cpu time :    72.9 secs   av.it.:  10.7
      thresh= 2.747E-04 alpha_mix =  0.700 |ddv_scf|^2 =  2.032E-05

      iter #   3 total cpu time :    74.1 secs   av.it.:   9.4
      thresh= 4.508E-04 alpha_mix =  0.700 |ddv_scf|^2 =  1.358E-07

      iter #   4 total cpu time :    75.8 secs   av.it.:  10.1
      thresh= 3.686E-05 alpha_mix =  0.700 |ddv_scf|^2 =  2.758E-09

      iter #   5 total cpu time :    77.2 secs   av.it.:  10.7
      thresh= 5.252E-06 alpha_mix =  0.700 |ddv_scf|^2 =  4.655E-10

      iter #   6 total cpu time :    78.6 secs   av.it.:  10.6
      thresh= 2.157E-06 alpha_mix =  0.700 |ddv_scf|^2 =  7.582E-12

      iter #   7 total cpu time :    80.0 secs   av.it.:  10.7
      thresh= 2.754E-07 alpha_mix =  0.700 |ddv_scf|^2 =  2.940E-13

     End of self-consistent calculation

     Convergence has been achieved 


     Representation #  2 mode #   2

     Self-consistent Calculation

      iter #   1 total cpu time :    81.1 secs   av.it.:   5.8
      thresh= 1.000E-02 alpha_mix =  0.700 |ddv_scf|^2 =  1.348E-05

      iter #   2 total cpu time :    82.4 secs   av.it.:  10.6
      thresh= 3.671E-04 alpha_mix =  0.700 |ddv_scf|^2 =  3.930E-05

      iter #   3 total cpu time :    83.7 secs   av.it.:   9.2
      thresh= 6.269E-04 alpha_mix =  0.700 |ddv_scf|^2 =  9.334E-08

      iter #   4 total cpu time :    85.0 secs   av.it.:  10.4
      thresh= 3.055E-05 alpha_mix =  0.700 |ddv_scf|^2 =  3.122E-09

      iter #   5 total cpu time :    86.6 secs   av.it.:  10.6
      thresh= 5.587E-06 alpha_mix =  0.700 |ddv_scf|^2 =  6.346E-10

      iter #   6 total cpu time :    88.0 secs   av.it.:  10.5
      thresh= 2.519E-06 alpha_mix =  0.700 |ddv_scf|^2 =  6.698E-12

      iter #   7 total cpu time :    89.3 secs   av.it.:  10.7
      thresh= 2.588E-07 alpha_mix =  0.700 |ddv_scf|^2 =  2.438E-13

     End of self-consistent calculation

     Convergence has been achieved 


     Representation #  3 mode #   3

     Self-consistent Calculation

      iter #   1 total cpu time :    90.4 secs   av.it.:   5.7
      thresh= 1.000E-02 alpha_mix =  0.700 |ddv_scf|^2 =  1.055E-05

      iter #   2 total cpu time :    91.8 secs   av.it.:  10.7
      thresh= 3.249E-04 alpha_mix =  0.700 |ddv_scf|^2 =  2.886E-05

      iter #   3 total cpu time :    93.1 secs   av.it.:   9.2
      thresh= 5.372E-04 alpha_mix =  0.700 |ddv_scf|^2 =  1.624E-07

      iter #   4 total cpu time :    94.4 secs   av.it.:  10.1
      thresh= 4.030E-05 alpha_mix =  0.700 |ddv_scf|^2 =  3.179E-09

      iter #   5 total cpu time :    95.8 secs   av.it.:  10.7
      thresh= 5.638E-06 alpha_mix =  0.700 |ddv_scf|^2 =  6.243E-10

      iter #   6 total cpu time :    97.3 secs   av.it.:  10.5
      thresh= 2.499E-06 alpha_mix =  0.700 |ddv_scf|^2 =  4.652E-12

      iter #   7 total cpu time :    98.6 secs   av.it.:  10.7
      thresh= 2.157E-07 alpha_mix =  0.700 |ddv_scf|^2 =  1.383E-13

     End of self-consistent calculation

     Convergence has been achieved 


     Representation #  4 mode #   4

     Self-consistent Calculation

      iter #   1 total cpu time :    99.7 secs   av.it.:   5.5
      thresh= 1.000E-02 alpha_mix =  0.700 |ddv_scf|^2 =  4.617E-06

      iter #   2 total cpu time :   101.1 secs   av.it.:  10.8
      thresh= 2.149E-04 alpha_mix =  0.700 |ddv_scf|^2 =  9.869E-06

      iter #   3 total cpu time :   102.4 secs   av.it.:   9.7
      thresh= 3.142E-04 alpha_mix =  0.700 |ddv_scf|^2 =  2.134E-07

      iter #   4 total cpu time :   103.7 secs   av.it.:  10.0
      thresh= 4.620E-05 alpha_mix =  0.700 |ddv_scf|^2 =  2.726E-09

      iter #   5 total cpu time :   105.3 secs   av.it.:  10.7
      thresh= 5.221E-06 alpha_mix =  0.700 |ddv_scf|^2 =  5.094E-10

      iter #   6 total cpu time :   106.6 secs   av.it.:  10.5
      thresh= 2.257E-06 alpha_mix =  0.700 |ddv_scf|^2 =  3.172E-12

      iter #   7 total cpu time :   108.0 secs   av.it.:  10.8
      thresh= 1.781E-07 alpha_mix =  0.700 |ddv_scf|^2 =  1.510E-13

     End of self-consistent calculation

     Convergence has been achieved 


     Representation #  5 mode #   5

     Self-consistent Calculation

      iter #   1 total cpu time :   109.0 secs   av.it.:   5.2
      thresh= 1.000E-02 alpha_mix =  0.700 |ddv_scf|^2 =  4.803E-07

      iter #   2 total cpu time :   110.4 secs   av.it.:  10.4
      thresh= 6.931E-05 alpha_mix =  0.700 |ddv_scf|^2 =  7.849E-08

      iter #   3 total cpu time :   111.8 secs   av.it.:  10.2
      thresh= 2.802E-05 alpha_mix =  0.700 |ddv_scf|^2 =  1.045E-09

      iter #   4 total cpu time :   113.0 secs   av.it.:   9.8
      thresh= 3.233E-06 alpha_mix =  0.700 |ddv_scf|^2 =  2.481E-12

      iter #   5 total cpu time :   114.3 secs   av.it.:  10.3
      thresh= 1.575E-07 alpha_mix =  0.700 |ddv_scf|^2 =  7.070E-14

     End of self-consistent calculation

     Convergence has been achieved 


     Representation #  6 mode #   6

     Self-consistent Calculation

      iter #   1 total cpu time :   115.4 secs   av.it.:   5.2
      thresh= 1.000E-02 alpha_mix =  0.700 |ddv_scf|^2 =  4.803E-07

      iter #   2 total cpu time :   116.8 secs   av.it.:  10.4
[...]
        k(   59) = (  -0.8750000   0.1250000  -0.1250000), wk =   0.0625000
        k(   60) = (  -1.3750000  -0.8750000  -0.1250000), wk =   0.0000000
        k(   61) = (  -1.1250000   0.3750000  -0.3750000), wk =   0.0625000
        k(   62) = (  -1.6250000  -0.6250000  -0.3750000), wk =   0.0000000
        k(   63) = (  -0.3750000   0.3750000   1.1250000), wk =   0.0625000
        k(   64) = (  -0.8750000  -0.6250000   1.1250000), wk =   0.0000000

     Dense  grid:    17477 G-vectors     FFT dimensions: (  40,  40,  40)

     Smooth grid:     6183 G-vectors     FFT dimensions: (  25,  25,  25)

     Estimated max dynamical RAM per process >       1.79MB

     Estimated total allocated dynamical RAM >       7.17MB

     The potential is recalculated from file :
     ./_ph0/silicon.10.378.save/charge-density.dat

     Starting wfc are    8 atomic wfcs

     Band Structure Calculation
     Davidson diagonalization with overlap

     ethr =  1.25E-10,  avg # of iterations = 12.1

     total cpu time spent up to now is       10.9 secs

     End of band structure calculation

          k =-0.1250 0.1250 0.1250 (   785 PWs)   bands (ev):

    -5.6847   4.2588   5.5688   5.5688

          k =-0.6250-0.8750 0.1250 (   764 PWs)   bands (ev):

    -2.5276  -0.9992   1.9323   2.9938

          k =-0.3750 0.3750-0.1250 (   785 PWs)   bands (ev):

    -4.6707   1.2885   3.6056   5.0922

          k =-0.8750-0.6250-0.1250 (   764 PWs)   bands (ev):

    -2.5276  -0.9992   1.9323   2.9938

          k = 0.3750-0.3750 0.6250 (   776 PWs)   bands (ev):

    -3.5491  -0.7608   3.6202   4.3315

          k =-0.1250-1.3750 0.6250 (   775 PWs)   bands (ev):

    -3.0590  -0.6900   1.9850   4.0192

          k = 0.1250-0.1250 0.3750 (   785 PWs)   bands (ev):

    -5.1631   2.6488   4.5748   4.6313

          k =-0.3750-1.1250 0.3750 (   775 PWs)   bands (ev):

    -3.0590  -0.6900   1.9850   4.0192

          k =-0.1250 0.6250 0.1250 (   777 PWs)   bands (ev):

    -4.1441   0.9431   3.2643   3.7110

          k =-0.6250-0.3750 0.1250 (   780 PWs)   bands (ev):

    -3.7351   0.0874   2.6281   3.9827

          k = 0.6250-0.1250 0.8750 (   764 PWs)   bands (ev):

    -2.5276  -0.9992   1.9323   2.9938

          k = 0.1250-1.1250 0.8750 (   772 PWs)   bands (ev):

    -2.6901  -0.9047   2.5330   3.2492

          k = 0.3750 0.1250 0.6250 (   780 PWs)   bands (ev):

    -3.7351   0.0874   2.6281   3.9827

          k =-0.1250-0.8750 0.6250 (   764 PWs)   bands (ev):

    -2.5276  -0.9992   1.9323   2.9938

          k =-0.1250-0.8750 0.1250 (   772 PWs)   bands (ev):

    -2.6901  -0.9047   2.5330   3.2492

          k =-0.6250-1.8750 0.1250 (   777 PWs)   bands (ev):

    -4.1441   0.9431   3.2643   3.7110

          k =-0.3750 0.3750 0.3750 (   775 PWs)   bands (ev):

    -4.2444   0.0187   4.7891   4.7891

          k =-0.8750-0.6250 0.3750 (   780 PWs)   bands (ev):

    -3.7351   0.0874   2.6281   3.9827

          k = 0.3750-0.3750 1.1250 (   775 PWs)   bands (ev):

    -3.0590  -0.6900   1.9850   4.0192

          k =-0.1250-1.3750 1.1250 (   764 PWs)   bands (ev):

    -2.5276  -0.9992   1.9323   2.9938

          k = 0.1250-0.3750 0.3750 (   785 PWs)   bands (ev):

    -4.6707   1.2885   3.6056   5.0922

          k =-0.3750-1.3750 0.3750 (   776 PWs)   bands (ev):

    -3.5491  -0.7608   3.6202   4.3315

          k = 0.3750-0.3750-0.1250 (   785 PWs)   bands (ev):

    -4.6707   1.2885   3.6056   5.0922

          k =-0.1250-1.3750-0.1250 (   777 PWs)   bands (ev):

    -4.1441   0.9431   3.2643   3.7110

          k =-0.6250 0.3750-0.3750 (   776 PWs)   bands (ev):

    -3.5491  -0.7608   3.6202   4.3315

          k =-1.1250-0.6250-0.3750 (   780 PWs)   bands (ev):

    -3.7351   0.0874   2.6281   3.9827

          k =-0.3750 0.3750 0.6250 (   776 PWs)   bands (ev):

    -3.5491  -0.7608   3.6202   4.3315

          k =-0.8750-0.6250 0.6250 (   785 PWs)   bands (ev):

    -4.6707   1.2885   3.6056   5.0922

          k =-0.3750 0.1250-0.1250 (   785 PWs)   bands (ev):

    -5.1631   2.6488   4.5748   4.6313

          k =-0.8750-0.8750-0.1250 (   772 PWs)   bands (ev):

    -2.6901  -0.9047   2.5330   3.2492

          k =-0.1250 0.1250 0.3750 (   785 PWs)   bands (ev):

    -5.1631   2.6488   4.5748   4.6313

          k =-0.6250-0.8750 0.3750 (   780 PWs)   bands (ev):

    -3.7351   0.0874   2.6281   3.9827

          k = 0.1250 0.6250-0.1250 (   777 PWs)   bands (ev):

    -4.1441   0.9431   3.2643   3.7110

          k =-0.3750-0.3750-0.1250 (   785 PWs)   bands (ev):

    -4.6707   1.2885   3.6056   5.0922

          k = 0.6250 0.1250-0.1250 (   777 PWs)   bands (ev):

    -4.1441   0.9431   3.2643   3.7110

          k = 0.1250-0.8750-0.1250 (   772 PWs)   bands (ev):

    -2.6901  -0.9047   2.5330   3.2492

          k =-0.8750 0.1250-0.6250 (   764 PWs)   bands (ev):

    -2.5276  -0.9992   1.9323   2.9938

          k =-1.3750-0.8750-0.6250 (   785 PWs)   bands (ev):

    -4.6707   1.2885   3.6056   5.0922

          k = 0.8750-0.1250 0.6250 (   764 PWs)   bands (ev):

    -2.5276  -0.9992   1.9323   2.9938

          k = 0.3750-1.1250 0.6250 (   780 PWs)   bands (ev):

    -3.7351   0.0874   2.6281   3.9827

          k =-0.6250 0.1250 0.8750 (   764 PWs)   bands (ev):

    -2.5276  -0.9992   1.9323   2.9938

          k =-1.1250-0.8750 0.8750 (   785 PWs)   bands (ev):

    -5.6847   4.2588   5.5688   5.5688

          k =-0.1250 0.8750 0.6250 (   764 PWs)   bands (ev):

    -2.5276  -0.9992   1.9323   2.9938

          k =-0.6250-0.1250 0.6250 (   775 PWs)   bands (ev):

    -3.0590  -0.6900   1.9850   4.0192

          k = 0.1250 0.8750-0.6250 (   764 PWs)   bands (ev):

    -2.5276  -0.9992   1.9323   2.9938

          k =-0.3750-0.1250-0.6250 (   780 PWs)   bands (ev):

    -3.7351   0.0874   2.6281   3.9827

          k =-0.6250-0.1250-0.3750 (   780 PWs)   bands (ev):

    -3.7351   0.0874   2.6281   3.9827

          k =-1.1250-1.1250-0.3750 (   777 PWs)   bands (ev):

    -4.1441   0.9431   3.2643   3.7110

          k = 0.6250 0.1250 0.3750 (   780 PWs)   bands (ev):

    -3.7351   0.0874   2.6281   3.9827

          k = 0.1250-0.8750 0.3750 (   764 PWs)   bands (ev):

    -2.5276  -0.9992   1.9323   2.9938

          k =-0.3750-0.1250 0.6250 (   780 PWs)   bands (ev):

    -3.7351   0.0874   2.6281   3.9827

          k =-0.8750-1.1250 0.6250 (   785 PWs)   bands (ev):

    -5.1631   2.6488   4.5748   4.6313

          k = 0.1250 0.6250 0.3750 (   780 PWs)   bands (ev):

    -3.7351   0.0874   2.6281   3.9827

          k =-0.3750-0.3750 0.3750 (   775 PWs)   bands (ev):

    -4.2444   0.0187   4.7891   4.7891

          k =-0.1250 0.6250-0.3750 (   780 PWs)   bands (ev):

    -3.7351   0.0874   2.6281   3.9827

          k =-0.6250-0.3750-0.3750 (   776 PWs)   bands (ev):

    -3.5491  -0.7608   3.6202   4.3315

          k = 0.1250-0.8750-0.1250 (   772 PWs)   bands (ev):

    -2.6901  -0.9047   2.5330   3.2492

          k =-0.3750-1.8750-0.1250 (   785 PWs)   bands (ev):

    -5.1631   2.6488   4.5748   4.6313

          k =-0.8750 0.1250-0.1250 (   772 PWs)   bands (ev):

    -2.6901  -0.9047   2.5330   3.2492

          k =-1.3750-0.8750-0.1250 (   764 PWs)   bands (ev):

    -2.5276  -0.9992   1.9323   2.9938

          k =-1.1250 0.3750-0.3750 (   775 PWs)   bands (ev):

    -3.0590  -0.6900   1.9850   4.0192

          k =-1.6250-0.6250-0.3750 (   776 PWs)   bands (ev):

    -3.5491  -0.7608   3.6202   4.3315

          k =-0.3750 0.3750 1.1250 (   775 PWs)   bands (ev):

    -3.0590  -0.6900   1.9850   4.0192

          k =-0.8750-0.6250 1.1250 (   785 PWs)   bands (ev):

    -5.1631   2.6488   4.5748   4.6313

     highest occupied level (ev):     5.5688

     Writing output data file silicon.10.378.save

                                                                                

     bravais-lattice index     =            2
     lattice parameter (alat)  =      10.3780  a.u.
     unit-cell volume          =     279.4351 (a.u.)^3
     number of atoms/cell      =            2
     number of atomic types    =            1
     kinetic-energy cut-off    =      30.0000  Ry
     charge density cut-off    =     240.0000  Ry
     convergence threshold     =      1.0E-12
     beta                      =       0.7000
     number of iterations used =            4
     Exchange-correlation      = SLA  PW   PBE  PBE ( 1  4  3  4 0 0)


     celldm(1)=   10.37800  celldm(2)=    0.00000  celldm(3)=    0.00000
     celldm(4)=    0.00000  celldm(5)=    0.00000  celldm(6)=    0.00000

     crystal axes: (cart. coord. in units of alat)
               a(1) = ( -0.5000  0.0000  0.5000 )  
               a(2) = (  0.0000  0.5000  0.5000 )  
               a(3) = ( -0.5000  0.5000  0.0000 )  

     reciprocal axes: (cart. coord. in units 2 pi/alat)
               b(1) = ( -1.0000 -1.0000  1.0000 )  
               b(2) = (  1.0000  1.0000  1.0000 )  
               b(3) = ( -1.0000  1.0000 -1.0000 )  


     Atoms inside the unit cell: 

     Cartesian axes

     site n.  atom      mass           positions (alat units)
        1     Si  28.0860   tau(    1) = (    0.00000    0.00000    0.00000  )
        2     Si  28.0860   tau(    2) = (    0.25000    0.25000    0.25000  )

     Computing dynamical matrix for 
                    q = (  -0.5000000  -1.0000000   0.0000000 )

      8 Sym.Ops. (no q -> -q+G )


     G cutoff =  654.7550  (   4369 G-vectors)     FFT grid: ( 40, 40, 40)
     G cutoff =  327.3775  (   1546 G-vectors)  smooth grid: ( 25, 25, 25)
     number of k points=    64

     PseudoPot. # 1 for Si read from file:
     /home/s1333534/quantum_espresso/qe-6.1/pseudo/si_pbe_v1.uspp.F.UPF.txt
     MD5 check sum: a056efeee980c13900f22a371efd63c1
     Pseudo is Ultrasoft + core correction, Zval =  4.0
     Generated by new atomic code, or converted to UPF format
     Using radial grid of  899 points,  6 beta functions with: 
                l(1) =   0
                l(2) =   0
                l(3) =   1
                l(4) =   1
                l(5) =   2
                l(6) =   2
     Q(r) pseudized with  8 coefficients,  rinner =    0.900   0.900   0.900
                                                       0.900   0.900


     Atomic displacements:
     There are   3 irreducible representations

     Representation     1      2 modes -  To be done

     Representation     2      2 modes -  To be done

     Representation     3      2 modes -  To be done



     Alpha used in Ewald sum =   2.5000
     PHONON       :  2m 8.28s CPU     2m41.37s WALL



     Representation #  1 modes #   1  2

     Self-consistent Calculation

      iter #   1 total cpu time :   162.2 secs   av.it.:   5.7
      thresh= 1.000E-02 alpha_mix =  0.700 |ddv_scf|^2 =  7.780E-07

      iter #   2 total cpu time :   163.1 secs   av.it.:  11.8
      thresh= 8.820E-05 alpha_mix =  0.700 |ddv_scf|^2 =  4.393E-07

      iter #   3 total cpu time :   163.9 secs   av.it.:  11.3
      thresh= 6.628E-05 alpha_mix =  0.700 |ddv_scf|^2 =  4.268E-10

      iter #   4 total cpu time :   164.8 secs   av.it.:  11.1
      thresh= 2.066E-06 alpha_mix =  0.700 |ddv_scf|^2 =  1.929E-12

      iter #   5 total cpu time :   165.5 secs   av.it.:  11.3
      thresh= 1.389E-07 alpha_mix =  0.700 |ddv_scf|^2 =  5.074E-14

     End of self-consistent calculation

     Convergence has been achieved 


     Representation #  2 modes #   3  4

     Self-consistent Calculation

      iter #   1 total cpu time :   166.3 secs   av.it.:   5.6
      thresh= 1.000E-02 alpha_mix =  0.700 |ddv_scf|^2 =  1.213E-06

      iter #   2 total cpu time :   167.2 secs   av.it.:  11.8
      thresh= 1.102E-04 alpha_mix =  0.700 |ddv_scf|^2 =  1.668E-06

      iter #   3 total cpu time :   168.0 secs   av.it.:  11.0
      thresh= 1.292E-04 alpha_mix =  0.700 |ddv_scf|^2 =  5.120E-10

      iter #   4 total cpu time :   168.9 secs   av.it.:  11.1
      thresh= 2.263E-06 alpha_mix =  0.700 |ddv_scf|^2 =  8.620E-12

      iter #   5 total cpu time :   169.7 secs   av.it.:  11.3
      thresh= 2.936E-07 alpha_mix =  0.700 |ddv_scf|^2 =  1.362E-13

     End of self-consistent calculation

     Convergence has been achieved 


     Representation #  3 modes #   5  6

     Self-consistent Calculation

      iter #   1 total cpu time :   170.4 secs   av.it.:   5.3
      thresh= 1.000E-02 alpha_mix =  0.700 |ddv_scf|^2 =  3.163E-07

      iter #   2 total cpu time :   171.2 secs   av.it.:  11.9
      thresh= 5.624E-05 alpha_mix =  0.700 |ddv_scf|^2 =  1.844E-07

      iter #   3 total cpu time :   172.1 secs   av.it.:  11.2
      thresh= 4.294E-05 alpha_mix =  0.700 |ddv_scf|^2 =  3.688E-10

      iter #   4 total cpu time :   172.9 secs   av.it.:  11.1
      thresh= 1.920E-06 alpha_mix =  0.700 |ddv_scf|^2 =  4.449E-12

      iter #   5 total cpu time :   173.7 secs   av.it.:  11.2
      thresh= 2.109E-07 alpha_mix =  0.700 |ddv_scf|^2 =  6.044E-14

     End of self-consistent calculation

     Convergence has been achieved 

     Number of q in the star =    6
     List of q in the star:
          1  -0.500000000  -1.000000000   0.000000000
          2   0.000000000   1.000000000   0.500000000
          3   0.000000000  -1.000000000  -0.500000000
          4   0.500000000   1.000000000   0.000000000
          5  -1.000000000  -0.500000000   0.000000000
          6   0.000000000  -0.500000000  -1.000000000

     Diagonalizing the dynamical matrix

     q = (   -0.500000000  -1.000000000   0.000000000 ) 

 **************************************************************************
     freq (    1) =       6.051693 [THz] =     201.862743 [cm-1]
     freq (    2) =       6.051693 [THz] =     201.862743 [cm-1]
     freq (    3) =      10.168824 [THz] =     339.195458 [cm-1]
     freq (    4) =      10.168824 [THz] =     339.195458 [cm-1]
     freq (    5) =      13.297442 [THz] =     443.554923 [cm-1]
     freq (    6) =      13.297442 [THz] =     443.554923 [cm-1]
 **************************************************************************

     init_run     :      1.28s CPU      1.33s WALL (       7 calls)
     electrons    :      7.37s CPU      7.96s WALL (       7 calls)

     Called by init_run:
     wfcinit      :      0.00s CPU      0.03s WALL (       7 calls)
     potinit      :      0.10s CPU      0.12s WALL (       7 calls)

     Called by electrons:
     c_bands      :      7.36s CPU      7.95s WALL (       7 calls)
     v_of_rho     :      0.09s CPU      0.09s WALL (       8 calls)
     newd         :      0.12s CPU      0.12s WALL (       8 calls)

     Called by c_bands:
     init_us_2    :      1.65s CPU      1.59s WALL (   15896 calls)
     cegterg      :      6.14s CPU      6.63s WALL (     796 calls)

     Called by sum_band:

     Called by *egterg:
     h_psi        :     70.97s CPU     75.97s WALL (  154827 calls)
     s_psi        :      5.95s CPU      7.00s WALL (  311912 calls)
     g_psi        :      0.05s CPU      0.07s WALL (    9666 calls)
     cdiaghg      :      0.56s CPU      0.55s WALL (   10462 calls)

     Called by h_psi:
     h_psi:pot    :     70.53s CPU     75.46s WALL (  154827 calls)
     h_psi:calbec :      3.47s CPU      4.05s WALL (  154827 calls)
     vloc_psi     :     62.45s CPU     67.26s WALL (  154827 calls)
     add_vuspsi   :      4.25s CPU      3.67s WALL (  154827 calls)

     General routines
     calbec       :      7.99s CPU      8.52s WALL (  346220 calls)
     fft          :      1.83s CPU      1.92s WALL (    5233 calls)
     ffts         :      0.21s CPU      0.22s WALL (    3316 calls)
     fftw         :     64.42s CPU     68.09s WALL ( 1385078 calls)
     interpolate  :      0.28s CPU      0.30s WALL (     568 calls)
     davcio       :      0.35s CPU      1.09s WALL (   69130 calls)

     Parallel routines
     fft_scatter  :     15.67s CPU     19.95s WALL ( 1393627 calls)

     PHONON       :  2m17.92s CPU     2m54.04s WALL

     INITIALIZATION: 
     phq_setup    :      0.30s CPU      0.50s WALL (       8 calls)
     phq_init     :      6.79s CPU      7.16s WALL (       8 calls)

     phq_init     :      6.79s CPU      7.16s WALL (       8 calls)
     set_drhoc    :      1.85s CPU      1.86s WALL (      24 calls)
     init_vloc    :      0.03s CPU      0.03s WALL (       8 calls)
     init_us_1    :      0.98s CPU      0.98s WALL (       8 calls)
     newd         :      0.12s CPU      0.12s WALL (       8 calls)
     dvanqq       :      1.17s CPU      1.18s WALL (       8 calls)
     drho         :      2.63s CPU      2.74s WALL (       8 calls)

     DYNAMICAL MATRIX:
     dynmat0      :      1.74s CPU      1.88s WALL (       8 calls)
     phqscf       :    116.68s CPU    147.14s WALL (       8 calls)
     dynmatrix    :      0.01s CPU      0.20s WALL (       8 calls)

     phqscf       :    116.68s CPU    147.14s WALL (       8 calls)
     solve_linter :    115.79s CPU    144.56s WALL (      32 calls)
     drhodv       :      0.61s CPU      0.63s WALL (      32 calls)

     dynmat0      :      1.74s CPU      1.88s WALL (       8 calls)
     dynmat_us    :      0.39s CPU      0.39s WALL (       8 calls)
     d2ionq       :      0.04s CPU      0.04s WALL (       8 calls)
     dynmatcc     :      1.31s CPU      1.32s WALL (       8 calls)

     dynmat_us    :      0.39s CPU      0.39s WALL (       8 calls)
     addusdynmat  :      0.00s CPU      0.00s WALL (       8 calls)

     phqscf       :    116.68s CPU    147.14s WALL (       8 calls)
     solve_linter :    115.79s CPU    144.56s WALL (      32 calls)

     solve_linter :    115.79s CPU    144.56s WALL (      32 calls)
     dvqpsi_us    :      2.13s CPU      2.27s WALL (    2508 calls)
     ortho        :      0.93s CPU      1.08s WALL (   13486 calls)
     cgsolve      :     78.62s CPU     85.32s WALL (   13486 calls)
     incdrhoscf   :      6.31s CPU      6.87s WALL (   13486 calls)
     addusddens   :      7.14s CPU      7.23s WALL (     200 calls)
     vpsifft      :      4.53s CPU      4.92s WALL (   10858 calls)
     dv_of_drho   :      1.71s CPU      1.77s WALL (     254 calls)
     mix_pot      :      0.36s CPU     11.28s WALL (     173 calls)
     psymdvscf    :      5.77s CPU      5.85s WALL (     168 calls)
     newdq        :      7.81s CPU      7.83s WALL (     173 calls)
     adddvscf     :      0.46s CPU      0.44s WALL (   10978 calls)
     drhodvus     :      0.02s CPU      0.02s WALL (      32 calls)

     dvqpsi_us    :      2.13s CPU      2.27s WALL (    2508 calls)
     dvqpsi_us_on :      0.91s CPU      0.94s WALL (    2508 calls)

     cgsolve      :     78.62s CPU     85.32s WALL (   13486 calls)
     ch_psi       :     77.54s CPU     83.51s WALL (  143569 calls)

     ch_psi       :     77.54s CPU     83.51s WALL (  143569 calls)
     h_psi        :     70.97s CPU     75.97s WALL (  154827 calls)
     last         :      9.17s CPU      9.31s WALL (  143569 calls)

     h_psi        :     70.97s CPU     75.97s WALL (  154827 calls)
     add_vuspsi   :      4.25s CPU      3.67s WALL (  154827 calls)

     incdrhoscf   :      6.31s CPU      6.87s WALL (   13486 calls)
     addusdbec    :      0.47s CPU      0.52s WALL (   15934 calls)

     drhodvus     :      0.02s CPU      0.02s WALL (      32 calls)

      General routines
     calbec       :      7.99s CPU      8.52s WALL (  346220 calls)
     fft          :      1.83s CPU      1.92s WALL (    5233 calls)
     ffts         :      0.21s CPU      0.22s WALL (    3316 calls)
     fftw         :     64.42s CPU     68.09s WALL ( 1385078 calls)
     davcio       :      0.35s CPU      1.09s WALL (   69130 calls)
     write_rec    :      0.23s CPU     11.74s WALL (     205 calls)


     PHONON       :  2m17.92s CPU     2m54.04s WALL


   This run was terminated on:  15:37:27  10Nov2017            

=------------------------------------------------------------------------------=
   JOB DONE.
=------------------------------------------------------------------------------=
