
     Program PHONON v.6.1 (svn rev. 13369) starts on 10Nov2017 at 15:35: 3 

     This program is part of the open-source Quantum ESPRESSO suite
     for quantum simulation of materials; please cite
         "P. Giannozzi et al., J. Phys.:Condens. Matter 21 395502 (2009);
          URL http://www.quantum-espresso.org", 
     in publications or presentations arising from this work. More details at
     http://www.quantum-espresso.org/quote

     Parallel version (MPI), running on     4 processors
     R & G space division:  proc/nbgrp/npool/nimage =       4

     Reading data from directory:
     ./silicon.10.284.save

   Info: using nr1, nr2, nr3 values from input

   Info: using nr1, nr2, nr3 values from input

     IMPORTANT: XC functional enforced from input :
     Exchange-correlation      = SLA  PW   PBE  PBE ( 1  4  3  4 0 0)
     Any further DFT definition will be discarded
     Please, verify this is what you really want


     Parallelization info
     --------------------
     sticks:   dense  smooth     PW     G-vecs:    dense   smooth      PW
     Min         214     108     37                 4221     1495     284
     Max         215     109     38                 4224     1498     285
     Sum         859     433    151                16889     5985    1139



     Dynamical matrices for ( 4, 4, 4)  uniform grid of q-points
     (   8q-points):
       N         xq(1)         xq(2)         xq(3) 
       1   0.000000000   0.000000000   0.000000000
       2  -0.250000000   0.250000000  -0.250000000
       3   0.500000000  -0.500000000   0.500000000
       4   0.000000000   0.500000000   0.000000000
       5   0.750000000  -0.250000000   0.750000000
       6   0.500000000   0.000000000   0.500000000
       7   0.000000000  -1.000000000   0.000000000
       8  -0.500000000  -1.000000000   0.000000000

     Calculation of q =    0.0000000   0.0000000   0.0000000

                                                                                

     bravais-lattice index     =            2
     lattice parameter (alat)  =      10.2840  a.u.
     unit-cell volume          =     271.9106 (a.u.)^3
     number of atoms/cell      =            2
     number of atomic types    =            1
     kinetic-energy cut-off    =      30.0000  Ry
     charge density cut-off    =     240.0000  Ry
     convergence threshold     =      1.0E-12
     beta                      =       0.7000
     number of iterations used =            4
     Exchange-correlation      = SLA  PW   PBE  PBE ( 1  4  3  4 0 0)


     celldm(1)=   10.28400  celldm(2)=    0.00000  celldm(3)=    0.00000
     celldm(4)=    0.00000  celldm(5)=    0.00000  celldm(6)=    0.00000

     crystal axes: (cart. coord. in units of alat)
               a(1) = ( -0.5000  0.0000  0.5000 )  
               a(2) = (  0.0000  0.5000  0.5000 )  
               a(3) = ( -0.5000  0.5000  0.0000 )  

     reciprocal axes: (cart. coord. in units 2 pi/alat)
               b(1) = ( -1.0000 -1.0000  1.0000 )  
               b(2) = (  1.0000  1.0000  1.0000 )  
               b(3) = ( -1.0000  1.0000 -1.0000 )  


     Atoms inside the unit cell: 

     Cartesian axes

     site n.  atom      mass           positions (alat units)
        1     Si  28.0860   tau(    1) = (    0.00000    0.00000    0.00000  )
        2     Si  28.0860   tau(    2) = (    0.25000    0.25000    0.25000  )

     Computing dynamical matrix for 
                    q = (   0.0000000   0.0000000   0.0000000 )

     49 Sym.Ops. (with q -> -q+G )


     G cutoff =  642.9477  (   4224 G-vectors)     FFT grid: ( 36, 36, 36)
     G cutoff =  321.4738  (   1497 G-vectors)  smooth grid: ( 25, 25, 25)
     number of k points=    10

     PseudoPot. # 1 for Si read from file:
     /home/s1333534/quantum_espresso/qe-6.1/pseudo/si_pbe_v1.uspp.F.UPF.txt
     MD5 check sum: a056efeee980c13900f22a371efd63c1
     Pseudo is Ultrasoft + core correction, Zval =  4.0
     Generated by new atomic code, or converted to UPF format
     Using radial grid of  899 points,  6 beta functions with: 
                l(1) =   0
                l(2) =   0
                l(3) =   1
                l(4) =   1
                l(5) =   2
                l(6) =   2
     Q(r) pseudized with  8 coefficients,  rinner =    0.900   0.900   0.900
                                                       0.900   0.900

     Mode symmetry, O_h (m-3m)  point group:


     Electric field:
     Dielectric constant
     Born effective charges in two ways 


     Atomic displacements:
     There are   2 irreducible representations

     Representation     1      3 modes -T_2g G_25' G_5+  To be done

     Representation     2      3 modes -T_1u G_15  G_4-  To be done



     Alpha used in Ewald sum =   2.5000
     PHONON       :     0.93s CPU         1.30s WALL


     Electric Fields Calculation

      iter #   1 total cpu time :     2.3 secs   av.it.:   5.7
      thresh= 1.000E-02 alpha_mix =  0.700 |ddv_scf|^2 =  1.338E-07

      iter #   2 total cpu time :     2.9 secs   av.it.:  11.7
      thresh= 3.658E-05 alpha_mix =  0.700 |ddv_scf|^2 =  7.729E-09

      iter #   3 total cpu time :     3.6 secs   av.it.:  11.5
      thresh= 8.791E-06 alpha_mix =  0.700 |ddv_scf|^2 =  5.070E-10

      iter #   4 total cpu time :     4.2 secs   av.it.:  10.2
      thresh= 2.252E-06 alpha_mix =  0.700 |ddv_scf|^2 =  3.241E-12

      iter #   5 total cpu time :     4.8 secs   av.it.:  11.1
      thresh= 1.800E-07 alpha_mix =  0.700 |ddv_scf|^2 =  3.218E-15

     End of electric fields calculation

          Dielectric constant in cartesian axis 

          (      13.872969435      -0.000000000      -0.000000000 )
          (      -0.000000000      13.872969435       0.000000000 )
          (      -0.000000000       0.000000000      13.872969435 )

          Effective charges (d Force / dE) in cartesian axis

           atom      1   Si 
      Ex  (       -0.03941       -0.00000        0.00000 )
      Ey  (       -0.00000       -0.03941        0.00000 )
      Ez  (       -0.00000        0.00000       -0.03941 )
           atom      2   Si 
      Ex  (       -0.03941       -0.00000        0.00000 )
      Ey  (       -0.00000       -0.03941        0.00000 )
      Ez  (        0.00000        0.00000       -0.03941 )


     Representation #  1 modes #   1  2  3

     Self-consistent Calculation

      iter #   1 total cpu time :     6.1 secs   av.it.:   5.1
      thresh= 1.000E-02 alpha_mix =  0.700 |ddv_scf|^2 =  2.356E-08

      iter #   2 total cpu time :     6.8 secs   av.it.:  11.6
      thresh= 1.535E-05 alpha_mix =  0.700 |ddv_scf|^2 =  9.671E-10

      iter #   3 total cpu time :     7.6 secs   av.it.:  11.1
      thresh= 3.110E-06 alpha_mix =  0.700 |ddv_scf|^2 =  6.580E-11

      iter #   4 total cpu time :     8.1 secs   av.it.:  10.1
      thresh= 8.112E-07 alpha_mix =  0.700 |ddv_scf|^2 =  1.598E-13

     End of self-consistent calculation

     Convergence has been achieved 


     Representation #  2 modes #   4  5  6

     Self-consistent Calculation

      iter #   1 total cpu time :     8.9 secs   av.it.:   5.2
      thresh= 1.000E-02 alpha_mix =  0.700 |ddv_scf|^2 =  1.861E-08

      iter #   2 total cpu time :     9.6 secs   av.it.:  11.6
      thresh= 1.364E-05 alpha_mix =  0.700 |ddv_scf|^2 =  1.098E-09

      iter #   3 total cpu time :    10.4 secs   av.it.:  11.1
      thresh= 3.314E-06 alpha_mix =  0.700 |ddv_scf|^2 =  6.791E-11

      iter #   4 total cpu time :    11.0 secs   av.it.:  11.3
      thresh= 8.241E-07 alpha_mix =  0.700 |ddv_scf|^2 =  2.622E-13

     End of self-consistent calculation

     Convergence has been achieved 

     Number of q in the star =    1
     List of q in the star:
          1   0.000000000   0.000000000   0.000000000

          Dielectric constant in cartesian axis 

          (      13.872969435      -0.000000000      -0.000000000 )
          (      -0.000000000      13.872969435       0.000000000 )
          (      -0.000000000       0.000000000      13.872969435 )

          Effective charges (d Force / dE) in cartesian axis

           atom      1   Si 
      Ex  (       -0.03941       -0.00000        0.00000 )
      Ey  (       -0.00000       -0.03941        0.00000 )
      Ez  (       -0.00000        0.00000       -0.03941 )
           atom      2   Si 
      Ex  (       -0.03941       -0.00000        0.00000 )
      Ey  (       -0.00000       -0.03941        0.00000 )
      Ez  (        0.00000        0.00000       -0.03941 )

          Effective charges (d P / du) in cartesian axis 

           atom      1   Si 
      Px  (       -0.07191        0.00000        0.00000 )
      Py  (        0.00000       -0.07191       -0.00000 )
      Pz  (        0.00000       -0.00000       -0.07191 )
           atom      2   Si 
      Px  (       -0.07191       -0.00000       -0.00000 )
      Py  (       -0.00000       -0.07191       -0.00000 )
      Pz  (        0.00000        0.00000       -0.07191 )

     Diagonalizing the dynamical matrix

     q = (    0.000000000   0.000000000   0.000000000 ) 

 **************************************************************************
     freq (    1) =      -0.470521 [THz] =     -15.694903 [cm-1]
     freq (    2) =      -0.470521 [THz] =     -15.694903 [cm-1]
     freq (    3) =      -0.470521 [THz] =     -15.694903 [cm-1]
     freq (    4) =      15.282907 [THz] =     509.782920 [cm-1]
     freq (    5) =      15.282907 [THz] =     509.782920 [cm-1]
     freq (    6) =      15.282907 [THz] =     509.782920 [cm-1]
 **************************************************************************

     Mode symmetry, O_h (m-3m)  point group:

     freq (  1 -  3) =        -15.7  [cm-1]   --> T_1u G_15  G_4- I  
     freq (  4 -  6) =        509.8  [cm-1]   --> T_2g G_25' G_5+ R  

     Calculation of q =   -0.2500000   0.2500000  -0.2500000

   Info: using nr1, nr2, nr3 values from input

   Info: using nr1, nr2, nr3 values from input

     Parallelization info
     --------------------
     sticks:   dense  smooth     PW     G-vecs:    dense   smooth      PW
     Min         214     108     37                 4221     1495     309
     Max         215     109     38                 4224     1498     312
     Sum         859     433    151                16889     5985    1243



     bravais-lattice index     =            2
     lattice parameter (alat)  =      10.2840  a.u.
     unit-cell volume          =     271.9106 (a.u.)^3
     number of atoms/cell      =            2
     number of atomic types    =            1
     number of electrons       =         8.00
     number of Kohn-Sham states=            4
     kinetic-energy cutoff     =      30.0000  Ry
     charge density cutoff     =     240.0000  Ry
     Exchange-correlation      = SLA  PW   PBE  PBE ( 1  4  3  4 0 0)

     celldm(1)=  10.284000  celldm(2)=   0.000000  celldm(3)=   0.000000
     celldm(4)=   0.000000  celldm(5)=   0.000000  celldm(6)=   0.000000

     crystal axes: (cart. coord. in units of alat)
               a(1) = (  -0.500000   0.000000   0.500000 )  
               a(2) = (   0.000000   0.500000   0.500000 )  
               a(3) = (  -0.500000   0.500000   0.000000 )  

     reciprocal axes: (cart. coord. in units 2 pi/alat)
               b(1) = ( -1.000000 -1.000000  1.000000 )  
               b(2) = (  1.000000  1.000000  1.000000 )  
               b(3) = ( -1.000000  1.000000 -1.000000 )  


     PseudoPot. # 1 for Si read from file:
     /home/s1333534/quantum_espresso/qe-6.1/pseudo/si_pbe_v1.uspp.F.UPF.txt
     MD5 check sum: a056efeee980c13900f22a371efd63c1
     Pseudo is Ultrasoft + core correction, Zval =  4.0
     Generated by new atomic code, or converted to UPF format
     Using radial grid of  899 points,  6 beta functions with: 
                l(1) =   0
                l(2) =   0
                l(3) =   1
                l(4) =   1
                l(5) =   2
                l(6) =   2
     Q(r) pseudized with  8 coefficients,  rinner =    0.900   0.900   0.900
                                                       0.900   0.900

     atomic species   valence    mass     pseudopotential
        Si             4.00    28.08600     Si( 1.00)

     48 Sym. Ops., with inversion, found



   Cartesian axes

     site n.     atom                  positions (alat units)
         1           Si  tau(   1) = (   0.0000000   0.0000000   0.0000000  )
         2           Si  tau(   2) = (   0.2500000   0.2500000   0.2500000  )

     number of k points=   120

     Number of k-points >= 100: set verbosity='high' to print them.

     Dense  grid:    16889 G-vectors     FFT dimensions: (  36,  36,  36)

     Smooth grid:     5985 G-vectors     FFT dimensions: (  25,  25,  25)

     Estimated max dynamical RAM per process >       1.50MB

     Estimated total allocated dynamical RAM >       6.02MB

     The potential is recalculated from file :
     ./_ph0/silicon.10.284.save/charge-density.dat

     Starting wfc are    8 atomic wfcs

     Band Structure Calculation
     Davidson diagonalization with overlap

     ethr =  1.25E-10,  avg # of iterations = 12.2

     total cpu time spent up to now is        1.4 secs

     End of band structure calculation

     Number of k-points >= 100: set verbosity='high' to print the bands.

     highest occupied level (ev):     5.8408

     Writing output data file silicon.10.284.save

                                                                                

     bravais-lattice index     =            2
     lattice parameter (alat)  =      10.2840  a.u.
     unit-cell volume          =     271.9106 (a.u.)^3
     number of atoms/cell      =            2
     number of atomic types    =            1
     kinetic-energy cut-off    =      30.0000  Ry
     charge density cut-off    =     240.0000  Ry
     convergence threshold     =      1.0E-12
     beta                      =       0.7000
     number of iterations used =            4
     Exchange-correlation      = SLA  PW   PBE  PBE ( 1  4  3  4 0 0)


     celldm(1)=   10.28400  celldm(2)=    0.00000  celldm(3)=    0.00000
     celldm(4)=    0.00000  celldm(5)=    0.00000  celldm(6)=    0.00000

     crystal axes: (cart. coord. in units of alat)
               a(1) = ( -0.5000  0.0000  0.5000 )  
               a(2) = (  0.0000  0.5000  0.5000 )  
               a(3) = ( -0.5000  0.5000  0.0000 )  

     reciprocal axes: (cart. coord. in units 2 pi/alat)
               b(1) = ( -1.0000 -1.0000  1.0000 )  
               b(2) = (  1.0000  1.0000  1.0000 )  
               b(3) = ( -1.0000  1.0000 -1.0000 )  


     Atoms inside the unit cell: 

     Cartesian axes

     site n.  atom      mass           positions (alat units)
        1     Si  28.0860   tau(    1) = (    0.00000    0.00000    0.00000  )
        2     Si  28.0860   tau(    2) = (    0.25000    0.25000    0.25000  )

     Computing dynamical matrix for 
                    q = (  -0.2500000   0.2500000  -0.2500000 )

      6 Sym.Ops. (no q -> -q+G )


     G cutoff =  642.9477  (   4224 G-vectors)     FFT grid: ( 36, 36, 36)
     G cutoff =  321.4738  (   1496 G-vectors)  smooth grid: ( 25, 25, 25)
     number of k points=   120

     PseudoPot. # 1 for Si read from file:
     /home/s1333534/quantum_espresso/qe-6.1/pseudo/si_pbe_v1.uspp.F.UPF.txt
     MD5 check sum: a056efeee980c13900f22a371efd63c1
     Pseudo is Ultrasoft + core correction, Zval =  4.0
     Generated by new atomic code, or converted to UPF format
     Using radial grid of  899 points,  6 beta functions with: 
                l(1) =   0
                l(2) =   0
                l(3) =   1
                l(4) =   1
                l(5) =   2
                l(6) =   2
     Q(r) pseudized with  8 coefficients,  rinner =    0.900   0.900   0.900
                                                       0.900   0.900

     Mode symmetry, C_3v (3m)   point group:


     Atomic displacements:
     There are   4 irreducible representations

     Representation     1      1 modes -A_1  L_1  To be done

     Representation     2      1 modes -A_1  L_1  To be done

     Representation     3      2 modes -E    L_3  To be done

     Representation     4      2 modes -E    L_3  To be done



     Alpha used in Ewald sum =   2.5000
     PHONON       :    10.65s CPU        14.46s WALL



     Representation #  1 mode #   1

     Self-consistent Calculation

      iter #   1 total cpu time :    14.9 secs   av.it.:   5.9
      thresh= 1.000E-02 alpha_mix =  0.700 |ddv_scf|^2 =  4.323E-04

      iter #   2 total cpu time :    15.5 secs   av.it.:   9.0
      thresh= 2.079E-03 alpha_mix =  0.700 |ddv_scf|^2 =  6.555E-03

      iter #   3 total cpu time :    16.0 secs   av.it.:   7.0
      thresh= 8.096E-03 alpha_mix =  0.700 |ddv_scf|^2 =  2.717E-07

      iter #   4 total cpu time :    16.6 secs   av.it.:   9.6
      thresh= 5.212E-05 alpha_mix =  0.700 |ddv_scf|^2 =  1.761E-08

      iter #   5 total cpu time :    17.2 secs   av.it.:   9.5
      thresh= 1.327E-05 alpha_mix =  0.700 |ddv_scf|^2 =  3.317E-10

      iter #   6 total cpu time :    17.8 secs   av.it.:   9.6
      thresh= 1.821E-06 alpha_mix =  0.700 |ddv_scf|^2 =  9.497E-10

      iter #   7 total cpu time :    18.4 secs   av.it.:   7.6
      thresh= 3.082E-06 alpha_mix =  0.700 |ddv_scf|^2 =  3.919E-11

      iter #   8 total cpu time :    18.9 secs   av.it.:   9.2
      thresh= 6.260E-07 alpha_mix =  0.700 |ddv_scf|^2 =  5.110E-13

     End of self-consistent calculation

     Convergence has been achieved 


     Representation #  2 mode #   2

     Self-consistent Calculation

      iter #   1 total cpu time :    19.5 secs   av.it.:   5.9
      thresh= 1.000E-02 alpha_mix =  0.700 |ddv_scf|^2 =  4.323E-04

      iter #   2 total cpu time :    20.1 secs   av.it.:   9.0
      thresh= 2.079E-03 alpha_mix =  0.700 |ddv_scf|^2 =  6.555E-03

      iter #   3 total cpu time :    20.6 secs   av.it.:   7.0
      thresh= 8.096E-03 alpha_mix =  0.700 |ddv_scf|^2 =  2.717E-07

      iter #   4 total cpu time :    21.2 secs   av.it.:   9.6
      thresh= 5.212E-05 alpha_mix =  0.700 |ddv_scf|^2 =  1.761E-08

      iter #   5 total cpu time :    21.9 secs   av.it.:   9.5
      thresh= 1.327E-05 alpha_mix =  0.700 |ddv_scf|^2 =  3.317E-10

      iter #   6 total cpu time :    22.5 secs   av.it.:   9.6
      thresh= 1.821E-06 alpha_mix =  0.700 |ddv_scf|^2 =  9.497E-10

      iter #   7 total cpu time :    23.2 secs   av.it.:   7.6
      thresh= 3.082E-06 alpha_mix =  0.700 |ddv_scf|^2 =  3.919E-11

      iter #   8 total cpu time :    23.7 secs   av.it.:   9.2
      thresh= 6.260E-07 alpha_mix =  0.700 |ddv_scf|^2 =  5.110E-13

     End of self-consistent calculation

     Convergence has been achieved 


     Representation #  3 modes #   3  4

     Self-consistent Calculation

      iter #   1 total cpu time :    24.7 secs   av.it.:   5.2
      thresh= 1.000E-02 alpha_mix =  0.700 |ddv_scf|^2 =  6.642E-08

      iter #   2 total cpu time :    25.9 secs   av.it.:  11.4
      thresh= 2.577E-05 alpha_mix =  0.700 |ddv_scf|^2 =  4.270E-09

      iter #   3 total cpu time :    27.2 secs   av.it.:  11.1
      thresh= 6.535E-06 alpha_mix =  0.700 |ddv_scf|^2 =  2.263E-10

      iter #   4 total cpu time :    28.4 secs   av.it.:  11.0
      thresh= 1.504E-06 alpha_mix =  0.700 |ddv_scf|^2 =  8.525E-13

     End of self-consistent calculation

     Convergence has been achieved 


     Representation #  4 modes #   5  6

     Self-consistent Calculation

      iter #   1 total cpu time :    29.3 secs   av.it.:   5.3
      thresh= 1.000E-02 alpha_mix =  0.700 |ddv_scf|^2 =  6.643E-08

      iter #   2 total cpu time :    30.6 secs   av.it.:  11.4
      thresh= 2.577E-05 alpha_mix =  0.700 |ddv_scf|^2 =  4.270E-09

      iter #   3 total cpu time :    31.9 secs   av.it.:  11.2
      thresh= 6.535E-06 alpha_mix =  0.700 |ddv_scf|^2 =  2.262E-10

      iter #   4 total cpu time :    33.1 secs   av.it.:  11.0
      thresh= 1.504E-06 alpha_mix =  0.700 |ddv_scf|^2 =  8.563E-13

     End of self-consistent calculation

     Convergence has been achieved 

     Number of q in the star =    8
     List of q in the star:
          1  -0.250000000   0.250000000  -0.250000000
          2   0.250000000  -0.250000000  -0.250000000
          3   0.250000000  -0.250000000   0.250000000
          4   0.250000000   0.250000000   0.250000000
          5  -0.250000000  -0.250000000  -0.250000000
          6  -0.250000000  -0.250000000   0.250000000
          7  -0.250000000   0.250000000   0.250000000
          8   0.250000000   0.250000000  -0.250000000

     Diagonalizing the dynamical matrix

     q = (   -0.250000000   0.250000000  -0.250000000 ) 

 **************************************************************************
     freq (    1) =       2.756909 [THz] =      91.960590 [cm-1]
     freq (    2) =       2.756909 [THz] =      91.960590 [cm-1]
     freq (    3) =       6.829709 [THz] =     227.814564 [cm-1]
     freq (    4) =      14.429970 [THz] =     481.331992 [cm-1]
     freq (    5) =      14.728533 [THz] =     491.290995 [cm-1]
     freq (    6) =      14.728533 [THz] =     491.290995 [cm-1]
 **************************************************************************

     Mode symmetry, C_3v (3m)   point group:

     freq (  1 -  2) =         92.0  [cm-1]   --> E    L_3           
     freq (  3 -  3) =        227.8  [cm-1]   --> A_1  L_1           
     freq (  4 -  4) =        481.3  [cm-1]   --> A_1  L_1           
     freq (  5 -  6) =        491.3  [cm-1]   --> E    L_3           

     Calculation of q =    0.5000000  -0.5000000   0.5000000

   Info: using nr1, nr2, nr3 values from input

   Info: using nr1, nr2, nr3 values from input

     Parallelization info
     --------------------
     sticks:   dense  smooth     PW     G-vecs:    dense   smooth      PW
     Min         214     108     40                 4221     1495     351
     Max         215     109     41                 4224     1498     354
     Sum         859     433    163                16889     5985    1411



     bravais-lattice index     =            2
     lattice parameter (alat)  =      10.2840  a.u.
     unit-cell volume          =     271.9106 (a.u.)^3
     number of atoms/cell      =            2
     number of atomic types    =            1
     number of electrons       =         8.00
     number of Kohn-Sham states=            4
     kinetic-energy cutoff     =      30.0000  Ry
     charge density cutoff     =     240.0000  Ry
     Exchange-correlation      = SLA  PW   PBE  PBE ( 1  4  3  4 0 0)

     celldm(1)=  10.284000  celldm(2)=   0.000000  celldm(3)=   0.000000
     celldm(4)=   0.000000  celldm(5)=   0.000000  celldm(6)=   0.000000

     crystal axes: (cart. coord. in units of alat)
               a(1) = (  -0.500000   0.000000   0.500000 )  
               a(2) = (   0.000000   0.500000   0.500000 )  
               a(3) = (  -0.500000   0.500000   0.000000 )  

     reciprocal axes: (cart. coord. in units 2 pi/alat)
               b(1) = ( -1.000000 -1.000000  1.000000 )  
               b(2) = (  1.000000  1.000000  1.000000 )  
               b(3) = ( -1.000000  1.000000 -1.000000 )  


     PseudoPot. # 1 for Si read from file:
     /home/s1333534/quantum_espresso/qe-6.1/pseudo/si_pbe_v1.uspp.F.UPF.txt
     MD5 check sum: a056efeee980c13900f22a371efd63c1
     Pseudo is Ultrasoft + core correction, Zval =  4.0
     Generated by new atomic code, or converted to UPF format
     Using radial grid of  899 points,  6 beta functions with: 
                l(1) =   0
                l(2) =   0
                l(3) =   1
                l(4) =   1
                l(5) =   2
                l(6) =   2
     Q(r) pseudized with  8 coefficients,  rinner =    0.900   0.900   0.900
                                                       0.900   0.900

     atomic species   valence    mass     pseudopotential
        Si             4.00    28.08600     Si( 1.00)

     48 Sym. Ops., with inversion, found



   Cartesian axes

     site n.     atom                  positions (alat units)
         1           Si  tau(   1) = (   0.0000000   0.0000000   0.0000000  )
         2           Si  tau(   2) = (   0.2500000   0.2500000   0.2500000  )

     number of k points=    60
                       cart. coord. in units 2pi/alat
        k(    1) = (  -0.1250000   0.1250000   0.1250000), wk =   0.0468750
        k(    2) = (   0.3750000  -0.3750000   0.6250000), wk =   0.0000000
        k(    3) = (  -0.3750000   0.3750000  -0.1250000), wk =   0.0468750
        k(    4) = (   0.1250000  -0.1250000   0.3750000), wk =   0.0000000
        k(    5) = (   0.3750000  -0.3750000   0.6250000), wk =   0.0468750
        k(    6) = (   0.8750000  -0.8750000   1.1250000), wk =   0.0000000
        k(    7) = (   0.1250000  -0.1250000   0.3750000), wk =   0.0468750
        k(    8) = (   0.6250000  -0.6250000   0.8750000), wk =   0.0000000
        k(    9) = (  -0.1250000   0.6250000   0.1250000), wk =   0.0937500
        k(   10) = (   0.3750000   0.1250000   0.6250000), wk =   0.0000000
        k(   11) = (   0.6250000  -0.1250000   0.8750000), wk =   0.0937500
        k(   12) = (   1.1250000  -0.6250000   1.3750000), wk =   0.0000000
        k(   13) = (   0.3750000   0.1250000   0.6250000), wk =   0.0937500
        k(   14) = (   0.8750000  -0.3750000   1.1250000), wk =   0.0000000
        k(   15) = (  -0.1250000  -0.8750000   0.1250000), wk =   0.0937500
        k(   16) = (   0.3750000  -1.3750000   0.6250000), wk =   0.0000000
        k(   17) = (  -0.3750000   0.3750000   0.3750000), wk =   0.0468750
        k(   18) = (   0.1250000  -0.1250000   0.8750000), wk =   0.0000000
        k(   19) = (   0.3750000  -0.3750000   1.1250000), wk =   0.0468750
        k(   20) = (   0.8750000  -0.8750000   1.6250000), wk =   0.0000000
        k(   21) = (   0.1250000  -0.1250000   0.1250000), wk =   0.0156250
        k(   22) = (   0.6250000  -0.6250000   0.6250000), wk =   0.0000000
        k(   23) = (  -0.3750000  -0.3750000  -0.1250000), wk =   0.0937500
        k(   24) = (   0.1250000  -0.8750000   0.3750000), wk =   0.0000000
        k(   25) = (  -0.1250000  -0.3750000   0.3750000), wk =   0.0468750
        k(   26) = (   0.3750000  -0.8750000   0.8750000), wk =   0.0000000
        k(   27) = (   0.3750000   0.3750000   0.6250000), wk =   0.0937500
        k(   28) = (   0.8750000  -0.1250000   1.1250000), wk =   0.0000000
        k(   29) = (   0.6250000   0.3750000  -0.3750000), wk =   0.0468750
        k(   30) = (   1.1250000  -0.1250000   0.1250000), wk =   0.0000000
        k(   31) = (   0.1250000   0.1250000   0.3750000), wk =   0.0937500
        k(   32) = (   0.6250000  -0.3750000   0.8750000), wk =   0.0000000
        k(   33) = (   0.3750000   0.1250000  -0.1250000), wk =   0.0468750
        k(   34) = (   0.8750000  -0.3750000   0.3750000), wk =   0.0000000
        k(   35) = (  -0.1250000  -0.6250000  -0.1250000), wk =   0.0468750
        k(   36) = (   0.3750000  -1.1250000   0.3750000), wk =   0.0000000
        k(   37) = (   0.1250000  -0.6250000   0.1250000), wk =   0.0468750
        k(   38) = (   0.6250000  -1.1250000   0.6250000), wk =   0.0000000
        k(   39) = (   0.6250000   0.1250000   0.8750000), wk =   0.0937500
        k(   40) = (   1.1250000  -0.3750000   1.3750000), wk =   0.0000000
        k(   41) = (  -0.8750000   0.1250000   0.6250000), wk =   0.0937500
        k(   42) = (  -0.3750000  -0.3750000   1.1250000), wk =   0.0000000
        k(   43) = (   0.8750000   0.1250000  -0.6250000), wk =   0.0937500
        k(   44) = (   1.3750000  -0.3750000  -0.1250000), wk =   0.0000000
        k(   45) = (   0.3750000  -0.1250000   0.6250000), wk =   0.0937500
        k(   46) = (   0.8750000  -0.6250000   1.1250000), wk =   0.0000000
        k(   47) = (  -0.6250000  -0.1250000   0.3750000), wk =   0.0937500
        k(   48) = (  -0.1250000  -0.6250000   0.8750000), wk =   0.0000000
        k(   49) = (   0.6250000  -0.1250000  -0.3750000), wk =   0.0937500
        k(   50) = (   1.1250000  -0.6250000   0.1250000), wk =   0.0000000
        k(   51) = (  -0.1250000   0.8750000  -0.1250000), wk =   0.0468750
        k(   52) = (   0.3750000   0.3750000   0.3750000), wk =   0.0000000
        k(   53) = (   0.1250000   0.8750000   0.1250000), wk =   0.0468750
        k(   54) = (   0.6250000   0.3750000   0.6250000), wk =   0.0000000
        k(   55) = (   0.3750000  -0.3750000   0.3750000), wk =   0.0156250
        k(   56) = (   0.8750000  -0.8750000   0.8750000), wk =   0.0000000
        k(   57) = (   0.3750000   0.3750000   1.1250000), wk =   0.0937500
        k(   58) = (   0.8750000  -0.1250000   1.6250000), wk =   0.0000000
        k(   59) = (   1.1250000   0.3750000  -0.3750000), wk =   0.0468750
        k(   60) = (   1.6250000  -0.1250000   0.1250000), wk =   0.0000000

     Dense  grid:    16889 G-vectors     FFT dimensions: (  36,  36,  36)

     Smooth grid:     5985 G-vectors     FFT dimensions: (  25,  25,  25)

     Estimated max dynamical RAM per process >       1.50MB

     Estimated total allocated dynamical RAM >       6.02MB

     The potential is recalculated from file :
     ./_ph0/silicon.10.284.save/charge-density.dat

     Starting wfc are    8 atomic wfcs

     Band Structure Calculation
     Davidson diagonalization with overlap

     ethr =  1.25E-10,  avg # of iterations = 12.2

     total cpu time spent up to now is        2.4 secs

     End of band structure calculation

          k =-0.1250 0.1250 0.1250 (   746 PWs)   bands (ev):

    -5.5849   4.5317   5.8408   5.8408

          k = 0.3750-0.3750 0.6250 (   755 PWs)   bands (ev):

    -3.3866  -0.5921   3.8587   4.5745

          k =-0.3750 0.3750-0.1250 (   757 PWs)   bands (ev):

    -4.5451   1.5160   3.8312   5.3572

          k = 0.1250-0.1250 0.3750 (   757 PWs)   bands (ev):

    -5.0505   2.9093   4.8184   4.8907

          k = 0.3750-0.3750 0.6250 (   755 PWs)   bands (ev):

    -3.3866  -0.5921   3.8587   4.5745

          k = 0.8750-0.8750 1.1250 (   746 PWs)   bands (ev):

    -5.5849   4.5317   5.8408   5.8408

          k = 0.1250-0.1250 0.3750 (   757 PWs)   bands (ev):

    -5.0505   2.9093   4.8184   4.8907

          k = 0.6250-0.6250 0.8750 (   757 PWs)   bands (ev):

    -4.5451   1.5160   3.8312   5.3572

          k =-0.1250 0.6250 0.1250 (   757 PWs)   bands (ev):

    -4.0063   1.1945   3.4750   3.9339

          k = 0.3750 0.1250 0.6250 (   756 PWs)   bands (ev):

    -3.5840   0.3029   2.8275   4.2116

          k = 0.6250-0.1250 0.8750 (   749 PWs)   bands (ev):

    -2.3423  -0.7874   2.0972   3.1896

          k = 1.1250-0.6250 1.3750 (   757 PWs)   bands (ev):

    -4.5451   1.5160   3.8312   5.3572

          k = 0.3750 0.1250 0.6250 (   756 PWs)   bands (ev):

    -3.5840   0.3029   2.8275   4.2116

          k = 0.8750-0.3750 1.1250 (   757 PWs)   bands (ev):

    -4.0063   1.1945   3.4750   3.9339

          k =-0.1250-0.8750 0.1250 (   757 PWs)   bands (ev):

    -2.5156  -0.6870   2.7168   3.4618

          k = 0.3750-1.3750 0.6250 (   755 PWs)   bands (ev):

    -3.3866  -0.5921   3.8587   4.5745

          k =-0.3750 0.3750 0.3750 (   763 PWs)   bands (ev):

    -4.1053   0.2047   5.0462   5.0462

          k = 0.1250-0.1250 0.8750 (   757 PWs)   bands (ev):

    -2.5156  -0.6870   2.7168   3.4618

          k = 0.3750-0.3750 1.1250 (   757 PWs)   bands (ev):

    -2.8851  -0.4924   2.1617   4.2527

          k = 0.8750-0.8750 1.6250 (   757 PWs)   bands (ev):

    -4.0063   1.1945   3.4750   3.9339

          k = 0.1250-0.1250 0.1250 (   746 PWs)   bands (ev):

    -5.5849   4.5317   5.8408   5.8408

          k = 0.6250-0.6250 0.6250 (   763 PWs)   bands (ev):

    -4.1053   0.2047   5.0462   5.0462

          k =-0.3750-0.3750-0.1250 (   757 PWs)   bands (ev):

    -4.5451   1.5160   3.8312   5.3572

          k = 0.1250-0.8750 0.3750 (   749 PWs)   bands (ev):

    -2.3423  -0.7874   2.0972   3.1896

          k =-0.1250-0.3750 0.3750 (   757 PWs)   bands (ev):

    -4.5451   1.5160   3.8312   5.3572

          k = 0.3750-0.8750 0.8750 (   757 PWs)   bands (ev):

    -4.0063   1.1945   3.4750   3.9339

          k = 0.3750 0.3750 0.6250 (   755 PWs)   bands (ev):

    -3.3866  -0.5921   3.8587   4.5745

          k = 0.8750-0.1250 1.1250 (   757 PWs)   bands (ev):

    -2.5156  -0.6870   2.7168   3.4618

          k = 0.6250 0.3750-0.3750 (   755 PWs)   bands (ev):

    -3.3866  -0.5921   3.8587   4.5745

          k = 1.1250-0.1250 0.1250 (   757 PWs)   bands (ev):

    -2.5156  -0.6870   2.7168   3.4618

          k = 0.1250 0.1250 0.3750 (   757 PWs)   bands (ev):

    -5.0505   2.9093   4.8184   4.8907

          k = 0.6250-0.3750 0.8750 (   756 PWs)   bands (ev):

    -3.5840   0.3029   2.8275   4.2116

          k = 0.3750 0.1250-0.1250 (   757 PWs)   bands (ev):

    -5.0505   2.9093   4.8184   4.8907

          k = 0.8750-0.3750 0.3750 (   757 PWs)   bands (ev):

    -2.8851  -0.4924   2.1617   4.2527

          k =-0.1250-0.6250-0.1250 (   757 PWs)   bands (ev):

    -4.0063   1.1945   3.4750   3.9339

          k = 0.3750-1.1250 0.3750 (   757 PWs)   bands (ev):

    -2.8851  -0.4924   2.1617   4.2527

          k = 0.1250-0.6250 0.1250 (   757 PWs)   bands (ev):

    -4.0063   1.1945   3.4750   3.9339

          k = 0.6250-1.1250 0.6250 (   757 PWs)   bands (ev):

    -4.5451   1.5160   3.8312   5.3572

          k = 0.6250 0.1250 0.8750 (   749 PWs)   bands (ev):

    -2.3423  -0.7874   2.0972   3.1896

          k = 1.1250-0.3750 1.3750 (   756 PWs)   bands (ev):

    -3.5840   0.3029   2.8275   4.2116

          k =-0.8750 0.1250 0.6250 (   749 PWs)   bands (ev):

    -2.3423  -0.7874   2.0972   3.1896

          k =-0.3750-0.3750 1.1250 (   757 PWs)   bands (ev):

    -2.8851  -0.4924   2.1617   4.2527

          k = 0.8750 0.1250-0.6250 (   749 PWs)   bands (ev):

    -2.3423  -0.7874   2.0972   3.1896

          k = 1.3750-0.3750-0.1250 (   756 PWs)   bands (ev):

    -3.5840   0.3029   2.8275   4.2116

          k = 0.3750-0.1250 0.6250 (   756 PWs)   bands (ev):

    -3.5840   0.3029   2.8275   4.2116

          k = 0.8750-0.6250 1.1250 (   757 PWs)   bands (ev):

    -5.0505   2.9093   4.8184   4.8907

          k =-0.6250-0.1250 0.3750 (   756 PWs)   bands (ev):

    -3.5840   0.3029   2.8275   4.2116

          k =-0.1250-0.6250 0.8750 (   749 PWs)   bands (ev):

    -2.3423  -0.7874   2.0972   3.1896

          k = 0.6250-0.1250-0.3750 (   756 PWs)   bands (ev):

    -3.5840   0.3029   2.8275   4.2116

          k = 1.1250-0.6250 0.1250 (   749 PWs)   bands (ev):

    -2.3423  -0.7874   2.0972   3.1896

          k =-0.1250 0.8750-0.1250 (   757 PWs)   bands (ev):

    -2.5156  -0.6870   2.7168   3.4618

          k = 0.3750 0.3750 0.3750 (   763 PWs)   bands (ev):

    -4.1053   0.2047   5.0462   5.0462

          k = 0.1250 0.8750 0.1250 (   757 PWs)   bands (ev):

    -2.5156  -0.6870   2.7168   3.4618

          k = 0.6250 0.3750 0.6250 (   755 PWs)   bands (ev):

    -3.3866  -0.5921   3.8587   4.5745

          k = 0.3750-0.3750 0.3750 (   763 PWs)   bands (ev):

    -4.1053   0.2047   5.0462   5.0462

          k = 0.8750-0.8750 0.8750 (   746 PWs)   bands (ev):

    -5.5849   4.5317   5.8408   5.8408

          k = 0.3750 0.3750 1.1250 (   757 PWs)   bands (ev):

    -2.8851  -0.4924   2.1617   4.2527

          k = 0.8750-0.1250 1.6250 (   749 PWs)   bands (ev):

    -2.3423  -0.7874   2.0972   3.1896

          k = 1.1250 0.3750-0.3750 (   757 PWs)   bands (ev):

    -2.8851  -0.4924   2.1617   4.2527

          k = 1.6250-0.1250 0.1250 (   757 PWs)   bands (ev):

    -5.0505   2.9093   4.8184   4.8907

     highest occupied level (ev):     5.8408

     Writing output data file silicon.10.284.save

                                                                                

     bravais-lattice index     =            2
     lattice parameter (alat)  =      10.2840  a.u.
     unit-cell volume          =     271.9106 (a.u.)^3
     number of atoms/cell      =            2
     number of atomic types    =            1
     kinetic-energy cut-off    =      30.0000  Ry
     charge density cut-off    =     240.0000  Ry
     convergence threshold     =      1.0E-12
     beta                      =       0.7000
     number of iterations used =            4
     Exchange-correlation      = SLA  PW   PBE  PBE ( 1  4  3  4 0 0)


     celldm(1)=   10.28400  celldm(2)=    0.00000  celldm(3)=    0.00000
     celldm(4)=    0.00000  celldm(5)=    0.00000  celldm(6)=    0.00000

     crystal axes: (cart. coord. in units of alat)
               a(1) = ( -0.5000  0.0000  0.5000 )  
               a(2) = (  0.0000  0.5000  0.5000 )  
               a(3) = ( -0.5000  0.5000  0.0000 )  

     reciprocal axes: (cart. coord. in units 2 pi/alat)
               b(1) = ( -1.0000 -1.0000  1.0000 )  
               b(2) = (  1.0000  1.0000  1.0000 )  
               b(3) = ( -1.0000  1.0000 -1.0000 )  


     Atoms inside the unit cell: 

     Cartesian axes

     site n.  atom      mass           positions (alat units)
        1     Si  28.0860   tau(    1) = (    0.00000    0.00000    0.00000  )
        2     Si  28.0860   tau(    2) = (    0.25000    0.25000    0.25000  )

     Computing dynamical matrix for 
                    q = (   0.5000000  -0.5000000   0.5000000 )

     13 Sym.Ops. (with q -> -q+G )


     G cutoff =  642.9477  (   4224 G-vectors)     FFT grid: ( 36, 36, 36)
     G cutoff =  321.4738  (   1497 G-vectors)  smooth grid: ( 25, 25, 25)
     number of k points=    60

     PseudoPot. # 1 for Si read from file:
     /home/s1333534/quantum_espresso/qe-6.1/pseudo/si_pbe_v1.uspp.F.UPF.txt
     MD5 check sum: a056efeee980c13900f22a371efd63c1
     Pseudo is Ultrasoft + core correction, Zval =  4.0
     Generated by new atomic code, or converted to UPF format
     Using radial grid of  899 points,  6 beta functions with: 
                l(1) =   0
                l(2) =   0
                l(3) =   1
                l(4) =   1
                l(5) =   2
                l(6) =   2
     Q(r) pseudized with  8 coefficients,  rinner =    0.900   0.900   0.900
                                                       0.900   0.900


     Atomic displacements:
     There are   4 irreducible representations

     Representation     1      1 modes -  To be done

     Representation     2      1 modes -  To be done

     Representation     3      2 modes -  To be done

     Representation     4      2 modes -  To be done



     Alpha used in Ewald sum =   2.5000
     PHONON       :    27.65s CPU        35.46s WALL



     Representation #  1 mode #   1

     Self-consistent Calculation

      iter #   1 total cpu time :    35.7 secs   av.it.:   5.1
      thresh= 1.000E-02 alpha_mix =  0.700 |ddv_scf|^2 =  4.239E-06

      iter #   2 total cpu time :    36.2 secs   av.it.:   9.9
      thresh= 2.059E-04 alpha_mix =  0.700 |ddv_scf|^2 =  3.843E-06

      iter #   3 total cpu time :    36.6 secs   av.it.:   9.2
      thresh= 1.960E-04 alpha_mix =  0.700 |ddv_scf|^2 =  2.342E-09

      iter #   4 total cpu time :    37.0 secs   av.it.:   9.4
      thresh= 4.840E-06 alpha_mix =  0.700 |ddv_scf|^2 =  2.239E-11

      iter #   5 total cpu time :    37.4 secs   av.it.:   9.3
      thresh= 4.732E-07 alpha_mix =  0.700 |ddv_scf|^2 =  3.076E-13

     End of self-consistent calculation

     Convergence has been achieved 


     Representation #  2 mode #   2

     Self-consistent Calculation

      iter #   1 total cpu time :    37.8 secs   av.it.:   6.0
      thresh= 1.000E-02 alpha_mix =  0.700 |ddv_scf|^2 =  6.034E-05

      iter #   2 total cpu time :    38.3 secs   av.it.:   9.7
      thresh= 7.768E-04 alpha_mix =  0.700 |ddv_scf|^2 =  1.871E-04

      iter #   3 total cpu time :    38.6 secs   av.it.:   8.6
      thresh= 1.368E-03 alpha_mix =  0.700 |ddv_scf|^2 =  1.266E-08

      iter #   4 total cpu time :    39.0 secs   av.it.:   9.8
      thresh= 1.125E-05 alpha_mix =  0.700 |ddv_scf|^2 =  6.401E-10

      iter #   5 total cpu time :    39.4 secs   av.it.:  10.2
      thresh= 2.530E-06 alpha_mix =  0.700 |ddv_scf|^2 =  1.981E-11

      iter #   6 total cpu time :    39.8 secs   av.it.:   9.7
      thresh= 4.451E-07 alpha_mix =  0.700 |ddv_scf|^2 =  1.508E-13

     End of self-consistent calculation

     Convergence has been achieved 


     Representation #  3 modes #   3  4

     Self-consistent Calculation

      iter #   1 total cpu time :    40.4 secs   av.it.:   5.1
      thresh= 1.000E-02 alpha_mix =  0.700 |ddv_scf|^2 =  2.710E-08

      iter #   2 total cpu time :    41.2 secs   av.it.:  10.9
      thresh= 1.646E-05 alpha_mix =  0.700 |ddv_scf|^2 =  1.603E-09

      iter #   3 total cpu time :    42.0 secs   av.it.:  10.7
      thresh= 4.004E-06 alpha_mix =  0.700 |ddv_scf|^2 =  5.294E-11

      iter #   4 total cpu time :    42.7 secs   av.it.:  10.7
      thresh= 7.276E-07 alpha_mix =  0.700 |ddv_scf|^2 =  4.348E-13

     End of self-consistent calculation

     Convergence has been achieved 


     Representation #  4 modes #   5  6

     Self-consistent Calculation

      iter #   1 total cpu time :    43.4 secs   av.it.:   5.1
      thresh= 1.000E-02 alpha_mix =  0.700 |ddv_scf|^2 =  1.384E-07

      iter #   2 total cpu time :    44.2 secs   av.it.:  11.1
      thresh= 3.720E-05 alpha_mix =  0.700 |ddv_scf|^2 =  1.109E-08

      iter #   3 total cpu time :    45.1 secs   av.it.:  10.9
      thresh= 1.053E-05 alpha_mix =  0.700 |ddv_scf|^2 =  2.924E-10

      iter #   4 total cpu time :    45.7 secs   av.it.:   9.8
      thresh= 1.710E-06 alpha_mix =  0.700 |ddv_scf|^2 =  5.196E-13

     End of self-consistent calculation

     Convergence has been achieved 

     Number of q in the star =    4
     List of q in the star:
          1   0.500000000  -0.500000000   0.500000000
          2   0.500000000   0.500000000   0.500000000
          3  -0.500000000   0.500000000   0.500000000
          4   0.500000000   0.500000000  -0.500000000

     Diagonalizing the dynamical matrix

     q = (    0.500000000  -0.500000000   0.500000000 ) 

 **************************************************************************
     freq (    1) =       3.224907 [THz] =     107.571335 [cm-1]
     freq (    2) =       3.224907 [THz] =     107.571335 [cm-1]
     freq (    3) =      11.154596 [THz] =     372.077287 [cm-1]
     freq (    4) =      12.247848 [THz] =     408.544249 [cm-1]
     freq (    5) =      14.536029 [THz] =     484.869737 [cm-1]
     freq (    6) =      14.536029 [THz] =     484.869737 [cm-1]
 **************************************************************************

     Calculation of q =    0.0000000   0.5000000   0.0000000

   Info: using nr1, nr2, nr3 values from input

   Info: using nr1, nr2, nr3 values from input

     Parallelization info
     --------------------
     sticks:   dense  smooth     PW     G-vecs:    dense   smooth      PW
     Min         214     108     37                 4221     1495     309
     Max         215     109     38                 4224     1498     312
     Sum         859     433    151                16889     5985    1243



     bravais-lattice index     =            2
     lattice parameter (alat)  =      10.2840  a.u.
     unit-cell volume          =     271.9106 (a.u.)^3
     number of atoms/cell      =            2
     number of atomic types    =            1
     number of electrons       =         8.00
     number of Kohn-Sham states=            4
     kinetic-energy cutoff     =      30.0000  Ry
     charge density cutoff     =     240.0000  Ry
     Exchange-correlation      = SLA  PW   PBE  PBE ( 1  4  3  4 0 0)

     celldm(1)=  10.284000  celldm(2)=   0.000000  celldm(3)=   0.000000
     celldm(4)=   0.000000  celldm(5)=   0.000000  celldm(6)=   0.000000

     crystal axes: (cart. coord. in units of alat)
               a(1) = (  -0.500000   0.000000   0.500000 )  
               a(2) = (   0.000000   0.500000   0.500000 )  
               a(3) = (  -0.500000   0.500000   0.000000 )  

     reciprocal axes: (cart. coord. in units 2 pi/alat)
               b(1) = ( -1.000000 -1.000000  1.000000 )  
               b(2) = (  1.000000  1.000000  1.000000 )  
               b(3) = ( -1.000000  1.000000 -1.000000 )  


     PseudoPot. # 1 for Si read from file:
     /home/s1333534/quantum_espresso/qe-6.1/pseudo/si_pbe_v1.uspp.F.UPF.txt
     MD5 check sum: a056efeee980c13900f22a371efd63c1
     Pseudo is Ultrasoft + core correction, Zval =  4.0
     Generated by new atomic code, or converted to UPF format
     Using radial grid of  899 points,  6 beta functions with: 
                l(1) =   0
                l(2) =   0
                l(3) =   1
                l(4) =   1
                l(5) =   2
                l(6) =   2
     Q(r) pseudized with  8 coefficients,  rinner =    0.900   0.900   0.900
                                                       0.900   0.900

     atomic species   valence    mass     pseudopotential
        Si             4.00    28.08600     Si( 1.00)

     48 Sym. Ops., with inversion, found



   Cartesian axes

     site n.     atom                  positions (alat units)
         1           Si  tau(   1) = (   0.0000000   0.0000000   0.0000000  )
         2           Si  tau(   2) = (   0.2500000   0.2500000   0.2500000  )

     number of k points=    80
                       cart. coord. in units 2pi/alat
        k(    1) = (  -0.1250000   0.1250000   0.1250000), wk =   0.0312500
        k(    2) = (  -0.1250000   0.6250000   0.1250000), wk =   0.0000000
        k(    3) = (  -0.3750000   0.3750000  -0.1250000), wk =   0.0625000
        k(    4) = (  -0.3750000   0.8750000  -0.1250000), wk =   0.0000000
        k(    5) = (   0.3750000  -0.3750000   0.6250000), wk =   0.0625000
        k(    6) = (   0.3750000   0.1250000   0.6250000), wk =   0.0000000
        k(    7) = (   0.1250000  -0.1250000   0.3750000), wk =   0.0625000
        k(    8) = (   0.1250000   0.3750000   0.3750000), wk =   0.0000000
        k(    9) = (  -0.1250000   0.6250000   0.1250000), wk =   0.0312500
        k(   10) = (  -0.1250000   1.1250000   0.1250000), wk =   0.0000000
        k(   11) = (   0.6250000  -0.1250000   0.8750000), wk =   0.0625000
        k(   12) = (   0.6250000   0.3750000   0.8750000), wk =   0.0000000
        k(   13) = (   0.3750000   0.1250000   0.6250000), wk =   0.0625000
        k(   14) = (   0.3750000   0.6250000   0.6250000), wk =   0.0000000
        k(   15) = (  -0.1250000  -0.8750000   0.1250000), wk =   0.0312500
        k(   16) = (  -0.1250000  -0.3750000   0.1250000), wk =   0.0000000
        k(   17) = (  -0.3750000   0.3750000   0.3750000), wk =   0.0312500
        k(   18) = (  -0.3750000   0.8750000   0.3750000), wk =   0.0000000
        k(   19) = (   0.3750000  -0.3750000   1.1250000), wk =   0.0625000
        k(   20) = (   0.3750000   0.1250000   1.1250000), wk =   0.0000000
        k(   21) = (  -0.1250000  -0.1250000   0.1250000), wk =   0.0312500
        k(   22) = (  -0.1250000   0.3750000   0.1250000), wk =   0.0000000
        k(   23) = (   0.1250000  -0.3750000   0.3750000), wk =   0.0625000
        k(   24) = (   0.1250000   0.1250000   0.3750000), wk =   0.0000000
        k(   25) = (   0.3750000  -0.1250000   0.3750000), wk =   0.0312500
        k(   26) = (   0.3750000   0.3750000   0.3750000), wk =   0.0000000
        k(   27) = (   0.3750000   0.1250000   0.3750000), wk =   0.0312500
        k(   28) = (   0.3750000   0.6250000   0.3750000), wk =   0.0000000
        k(   29) = (  -0.6250000   0.3750000  -0.3750000), wk =   0.0625000
        k(   30) = (  -0.6250000   0.8750000  -0.3750000), wk =   0.0000000
        k(   31) = (  -0.3750000   0.6250000  -0.3750000), wk =   0.0312500
        k(   32) = (  -0.3750000   1.1250000  -0.3750000), wk =   0.0000000
        k(   33) = (  -0.3750000  -0.6250000  -0.3750000), wk =   0.0312500
        k(   34) = (  -0.3750000  -0.1250000  -0.3750000), wk =   0.0000000
        k(   35) = (  -0.3750000   0.1250000  -0.1250000), wk =   0.0625000
        k(   36) = (  -0.3750000   0.6250000  -0.1250000), wk =   0.0000000
        k(   37) = (  -0.1250000   0.3750000  -0.1250000), wk =   0.0312500
        k(   38) = (  -0.1250000   0.8750000  -0.1250000), wk =   0.0000000
        k(   39) = (  -0.1250000  -0.3750000  -0.1250000), wk =   0.0312500
        k(   40) = (  -0.1250000   0.1250000  -0.1250000), wk =   0.0000000
        k(   41) = (  -0.1250000  -0.6250000   0.1250000), wk =   0.0312500
        k(   42) = (  -0.1250000  -0.1250000   0.1250000), wk =   0.0000000
        k(   43) = (   0.6250000  -0.1250000  -0.1250000), wk =   0.0625000
        k(   44) = (   0.6250000   0.3750000  -0.1250000), wk =   0.0000000
        k(   45) = (   0.6250000   0.1250000   0.1250000), wk =   0.0625000
        k(   46) = (   0.6250000   0.6250000   0.1250000), wk =   0.0000000
        k(   47) = (  -0.8750000   0.1250000  -0.6250000), wk =   0.0625000
        k(   48) = (  -0.8750000   0.6250000  -0.6250000), wk =   0.0000000
        k(   49) = (  -0.1250000   0.6250000  -0.8750000), wk =   0.0625000
        k(   50) = (  -0.1250000   1.1250000  -0.8750000), wk =   0.0000000
        k(   51) = (  -0.1250000   0.8750000  -0.6250000), wk =   0.0625000
        k(   52) = (  -0.1250000   1.3750000  -0.6250000), wk =   0.0000000
        k(   53) = (  -0.1250000  -0.8750000  -0.6250000), wk =   0.0625000
        k(   54) = (  -0.1250000  -0.3750000  -0.6250000), wk =   0.0000000
        k(   55) = (   0.8750000  -0.6250000   0.1250000), wk =   0.0625000
        k(   56) = (   0.8750000  -0.1250000   0.1250000), wk =   0.0000000
        k(   57) = (  -0.6250000  -0.1250000  -0.3750000), wk =   0.0625000
        k(   58) = (  -0.6250000   0.3750000  -0.3750000), wk =   0.0000000
        k(   59) = (   0.1250000   0.3750000  -0.6250000), wk =   0.0625000
        k(   60) = (   0.1250000   0.8750000  -0.6250000), wk =   0.0000000
        k(   61) = (   0.1250000   0.6250000  -0.3750000), wk =   0.0625000
        k(   62) = (   0.1250000   1.1250000  -0.3750000), wk =   0.0000000
        k(   63) = (   0.1250000  -0.6250000  -0.3750000), wk =   0.0625000
        k(   64) = (   0.1250000  -0.1250000  -0.3750000), wk =   0.0000000
        k(   65) = (   0.6250000  -0.3750000  -0.1250000), wk =   0.0625000
        k(   66) = (   0.6250000   0.1250000  -0.1250000), wk =   0.0000000
        k(   67) = (  -0.1250000   0.8750000   0.1250000), wk =   0.0312500
        k(   68) = (  -0.1250000   1.3750000   0.1250000), wk =   0.0000000
        k(   69) = (  -0.8750000  -0.1250000  -0.1250000), wk =   0.0625000
        k(   70) = (  -0.8750000   0.3750000  -0.1250000), wk =   0.0000000
        k(   71) = (  -0.8750000   0.1250000   0.1250000), wk =   0.0625000
        k(   72) = (  -0.8750000   0.6250000   0.1250000), wk =   0.0000000
        k(   73) = (  -0.3750000  -0.3750000   0.3750000), wk =   0.0312500
        k(   74) = (  -0.3750000   0.1250000   0.3750000), wk =   0.0000000
        k(   75) = (  -1.1250000   0.3750000  -0.3750000), wk =   0.0625000
        k(   76) = (  -1.1250000   0.8750000  -0.3750000), wk =   0.0000000
        k(   77) = (  -0.3750000   1.1250000  -0.3750000), wk =   0.0312500
        k(   78) = (  -0.3750000   1.6250000  -0.3750000), wk =   0.0000000
        k(   79) = (  -0.3750000  -1.1250000  -0.3750000), wk =   0.0312500
        k(   80) = (  -0.3750000  -0.6250000  -0.3750000), wk =   0.0000000

     Dense  grid:    16889 G-vectors     FFT dimensions: (  36,  36,  36)

     Smooth grid:     5985 G-vectors     FFT dimensions: (  25,  25,  25)

     Estimated max dynamical RAM per process >       1.50MB

     Estimated total allocated dynamical RAM >       6.02MB

     The potential is recalculated from file :
     ./_ph0/silicon.10.284.save/charge-density.dat

     Starting wfc are    8 atomic wfcs

     Band Structure Calculation
     Davidson diagonalization with overlap

     ethr =  1.25E-10,  avg # of iterations = 12.2

     total cpu time spent up to now is        3.6 secs

     End of band structure calculation

          k =-0.1250 0.1250 0.1250 (   746 PWs)   bands (ev):

    -5.5849   4.5317   5.8408   5.8408

          k =-0.1250 0.6250 0.1250 (   757 PWs)   bands (ev):

    -4.0063   1.1945   3.4750   3.9339

          k =-0.3750 0.3750-0.1250 (   757 PWs)   bands (ev):

    -4.5451   1.5160   3.8312   5.3572

          k =-0.3750 0.8750-0.1250 (   749 PWs)   bands (ev):

    -2.3423  -0.7874   2.0972   3.1896

          k = 0.3750-0.3750 0.6250 (   755 PWs)   bands (ev):

    -3.3866  -0.5921   3.8587   4.5745

          k = 0.3750 0.1250 0.6250 (   756 PWs)   bands (ev):

    -3.5840   0.3029   2.8275   4.2116

          k = 0.1250-0.1250 0.3750 (   757 PWs)   bands (ev):

    -5.0505   2.9093   4.8184   4.8907

          k = 0.1250 0.3750 0.3750 (   757 PWs)   bands (ev):

    -4.5451   1.5160   3.8312   5.3572

          k =-0.1250 0.6250 0.1250 (   757 PWs)   bands (ev):

    -4.0063   1.1945   3.4750   3.9339

          k =-0.1250 1.1250 0.1250 (   757 PWs)   bands (ev):

    -2.5156  -0.6870   2.7168   3.4618

          k = 0.6250-0.1250 0.8750 (   749 PWs)   bands (ev):

    -2.3423  -0.7874   2.0972   3.1896

          k = 0.6250 0.3750 0.8750 (   756 PWs)   bands (ev):

    -3.5840   0.3029   2.8275   4.2116

          k = 0.3750 0.1250 0.6250 (   756 PWs)   bands (ev):

    -3.5840   0.3029   2.8275   4.2116

          k = 0.3750 0.6250 0.6250 (   755 PWs)   bands (ev):

    -3.3866  -0.5921   3.8587   4.5745

          k =-0.1250-0.8750 0.1250 (   757 PWs)   bands (ev):

    -2.5156  -0.6870   2.7168   3.4618

          k =-0.1250-0.3750 0.1250 (   757 PWs)   bands (ev):

    -5.0505   2.9093   4.8184   4.8907

          k =-0.3750 0.3750 0.3750 (   763 PWs)   bands (ev):

    -4.1053   0.2047   5.0462   5.0462

          k =-0.3750 0.8750 0.3750 (   757 PWs)   bands (ev):

    -2.8851  -0.4924   2.1617   4.2527

          k = 0.3750-0.3750 1.1250 (   757 PWs)   bands (ev):

    -2.8851  -0.4924   2.1617   4.2527

          k = 0.3750 0.1250 1.1250 (   749 PWs)   bands (ev):

    -2.3423  -0.7874   2.0972   3.1896

          k =-0.1250-0.1250 0.1250 (   746 PWs)   bands (ev):

    -5.5849   4.5317   5.8408   5.8408

          k =-0.1250 0.3750 0.1250 (   757 PWs)   bands (ev):

    -5.0505   2.9093   4.8184   4.8907

          k = 0.1250-0.3750 0.3750 (   757 PWs)   bands (ev):

    -4.5451   1.5160   3.8312   5.3572

          k = 0.1250 0.1250 0.3750 (   757 PWs)   bands (ev):

    -5.0505   2.9093   4.8184   4.8907

          k = 0.3750-0.1250 0.3750 (   757 PWs)   bands (ev):

    -4.5451   1.5160   3.8312   5.3572

          k = 0.3750 0.3750 0.3750 (   763 PWs)   bands (ev):

    -4.1053   0.2047   5.0462   5.0462

          k = 0.3750 0.1250 0.3750 (   757 PWs)   bands (ev):

    -4.5451   1.5160   3.8312   5.3572

          k = 0.3750 0.6250 0.3750 (   755 PWs)   bands (ev):

    -3.3866  -0.5921   3.8587   4.5745

          k =-0.6250 0.3750-0.3750 (   755 PWs)   bands (ev):

    -3.3866  -0.5921   3.8587   4.5745

          k =-0.6250 0.8750-0.3750 (   756 PWs)   bands (ev):

    -3.5840   0.3029   2.8275   4.2116

          k =-0.3750 0.6250-0.3750 (   755 PWs)   bands (ev):

    -3.3866  -0.5921   3.8587   4.5745

          k =-0.3750 1.1250-0.3750 (   757 PWs)   bands (ev):

    -2.8851  -0.4924   2.1617   4.2527

          k =-0.3750-0.6250-0.3750 (   755 PWs)   bands (ev):

    -3.3866  -0.5921   3.8587   4.5745

          k =-0.3750-0.1250-0.3750 (   757 PWs)   bands (ev):

    -4.5451   1.5160   3.8312   5.3572

          k =-0.3750 0.1250-0.1250 (   757 PWs)   bands (ev):

    -5.0505   2.9093   4.8184   4.8907

          k =-0.3750 0.6250-0.1250 (   756 PWs)   bands (ev):

    -3.5840   0.3029   2.8275   4.2116

          k =-0.1250 0.3750-0.1250 (   757 PWs)   bands (ev):

    -5.0505   2.9093   4.8184   4.8907

          k =-0.1250 0.8750-0.1250 (   757 PWs)   bands (ev):

    -2.5156  -0.6870   2.7168   3.4618

          k =-0.1250-0.3750-0.1250 (   757 PWs)   bands (ev):

    -5.0505   2.9093   4.8184   4.8907

          k =-0.1250 0.1250-0.1250 (   746 PWs)   bands (ev):

    -5.5849   4.5317   5.8408   5.8408

          k =-0.1250-0.6250 0.1250 (   757 PWs)   bands (ev):

    -4.0063   1.1945   3.4750   3.9339

          k =-0.1250-0.1250 0.1250 (   746 PWs)   bands (ev):

    -5.5849   4.5317   5.8408   5.8408

          k = 0.6250-0.1250-0.1250 (   757 PWs)   bands (ev):

    -4.0063   1.1945   3.4750   3.9339

          k = 0.6250 0.3750-0.1250 (   756 PWs)   bands (ev):

    -3.5840   0.3029   2.8275   4.2116

          k = 0.6250 0.1250 0.1250 (   757 PWs)   bands (ev):

    -4.0063   1.1945   3.4750   3.9339

          k = 0.6250 0.6250 0.1250 (   757 PWs)   bands (ev):

    -2.8851  -0.4924   2.1617   4.2527

          k =-0.8750 0.1250-0.6250 (   749 PWs)   bands (ev):

    -2.3423  -0.7874   2.0972   3.1896

          k =-0.8750 0.6250-0.6250 (   757 PWs)   bands (ev):

    -4.5451   1.5160   3.8312   5.3572

          k =-0.1250 0.6250-0.8750 (   749 PWs)   bands (ev):

    -2.3423  -0.7874   2.0972   3.1896

          k =-0.1250 1.1250-0.8750 (   757 PWs)   bands (ev):

    -2.5156  -0.6870   2.7168   3.4618

          k =-0.1250 0.8750-0.6250 (   749 PWs)   bands (ev):

    -2.3423  -0.7874   2.0972   3.1896

          k =-0.1250 1.3750-0.6250 (   757 PWs)   bands (ev):

    -2.8851  -0.4924   2.1617   4.2527

          k =-0.1250-0.8750-0.6250 (   749 PWs)   bands (ev):

    -2.3423  -0.7874   2.0972   3.1896

          k =-0.1250-0.3750-0.6250 (   756 PWs)   bands (ev):

    -3.5840   0.3029   2.8275   4.2116

          k = 0.8750-0.6250 0.1250 (   749 PWs)   bands (ev):

    -2.3423  -0.7874   2.0972   3.1896

          k = 0.8750-0.1250 0.1250 (   757 PWs)   bands (ev):

    -2.5156  -0.6870   2.7168   3.4618

          k =-0.6250-0.1250-0.3750 (   756 PWs)   bands (ev):

    -3.5840   0.3029   2.8275   4.2116

          k =-0.6250 0.3750-0.3750 (   755 PWs)   bands (ev):

    -3.3866  -0.5921   3.8587   4.5745

          k = 0.1250 0.3750-0.6250 (   756 PWs)   bands (ev):

    -3.5840   0.3029   2.8275   4.2116

          k = 0.1250 0.8750-0.6250 (   749 PWs)   bands (ev):

    -2.3423  -0.7874   2.0972   3.1896

          k = 0.1250 0.6250-0.3750 (   756 PWs)   bands (ev):

    -3.5840   0.3029   2.8275   4.2116

          k = 0.1250 1.1250-0.3750 (   749 PWs)   bands (ev):

    -2.3423  -0.7874   2.0972   3.1896

          k = 0.1250-0.6250-0.3750 (   756 PWs)   bands (ev):

    -3.5840   0.3029   2.8275   4.2116

          k = 0.1250-0.1250-0.3750 (   757 PWs)   bands (ev):

    -5.0505   2.9093   4.8184   4.8907

          k = 0.6250-0.3750-0.1250 (   756 PWs)   bands (ev):

    -3.5840   0.3029   2.8275   4.2116

          k = 0.6250 0.1250-0.1250 (   757 PWs)   bands (ev):

    -4.0063   1.1945   3.4750   3.9339

          k =-0.1250 0.8750 0.1250 (   757 PWs)   bands (ev):

    -2.5156  -0.6870   2.7168   3.4618

          k =-0.1250 1.3750 0.1250 (   757 PWs)   bands (ev):

    -4.0063   1.1945   3.4750   3.9339

          k =-0.8750-0.1250-0.1250 (   757 PWs)   bands (ev):

    -2.5156  -0.6870   2.7168   3.4618

          k =-0.8750 0.3750-0.1250 (   749 PWs)   bands (ev):

    -2.3423  -0.7874   2.0972   3.1896

          k =-0.8750 0.1250 0.1250 (   757 PWs)   bands (ev):

    -2.5156  -0.6870   2.7168   3.4618

          k =-0.8750 0.6250 0.1250 (   749 PWs)   bands (ev):

    -2.3423  -0.7874   2.0972   3.1896

          k =-0.3750-0.3750 0.3750 (   763 PWs)   bands (ev):

    -4.1053   0.2047   5.0462   5.0462

          k =-0.3750 0.1250 0.3750 (   757 PWs)   bands (ev):

    -4.5451   1.5160   3.8312   5.3572

          k =-1.1250 0.3750-0.3750 (   757 PWs)   bands (ev):

    -2.8851  -0.4924   2.1617   4.2527

          k =-1.1250 0.8750-0.3750 (   757 PWs)   bands (ev):

    -4.0063   1.1945   3.4750   3.9339

          k =-0.3750 1.1250-0.3750 (   757 PWs)   bands (ev):

    -2.8851  -0.4924   2.1617   4.2527

          k =-0.3750 1.6250-0.3750 (   763 PWs)   bands (ev):

    -4.1053   0.2047   5.0462   5.0462

          k =-0.3750-1.1250-0.3750 (   757 PWs)   bands (ev):

    -2.8851  -0.4924   2.1617   4.2527

          k =-0.3750-0.6250-0.3750 (   755 PWs)   bands (ev):

    -3.3866  -0.5921   3.8587   4.5745

     highest occupied level (ev):     5.8408

     Writing output data file silicon.10.284.save

                                                                                

     bravais-lattice index     =            2
     lattice parameter (alat)  =      10.2840  a.u.
     unit-cell volume          =     271.9106 (a.u.)^3
     number of atoms/cell      =            2
     number of atomic types    =            1
     kinetic-energy cut-off    =      30.0000  Ry
     charge density cut-off    =     240.0000  Ry
     convergence threshold     =      1.0E-12
     beta                      =       0.7000
     number of iterations used =            4
     Exchange-correlation      = SLA  PW   PBE  PBE ( 1  4  3  4 0 0)


     celldm(1)=   10.28400  celldm(2)=    0.00000  celldm(3)=    0.00000
     celldm(4)=    0.00000  celldm(5)=    0.00000  celldm(6)=    0.00000

     crystal axes: (cart. coord. in units of alat)
               a(1) = ( -0.5000  0.0000  0.5000 )  
               a(2) = (  0.0000  0.5000  0.5000 )  
               a(3) = ( -0.5000  0.5000  0.0000 )  

     reciprocal axes: (cart. coord. in units 2 pi/alat)
               b(1) = ( -1.0000 -1.0000  1.0000 )  
               b(2) = (  1.0000  1.0000  1.0000 )  
               b(3) = ( -1.0000  1.0000 -1.0000 )  


     Atoms inside the unit cell: 

     Cartesian axes

     site n.  atom      mass           positions (alat units)
        1     Si  28.0860   tau(    1) = (    0.00000    0.00000    0.00000  )
        2     Si  28.0860   tau(    2) = (    0.25000    0.25000    0.25000  )

     Computing dynamical matrix for 
                    q = (   0.0000000   0.5000000   0.0000000 )

      8 Sym.Ops. (no q -> -q+G )


     G cutoff =  642.9477  (   4224 G-vectors)     FFT grid: ( 36, 36, 36)
     G cutoff =  321.4738  (   1496 G-vectors)  smooth grid: ( 25, 25, 25)
     number of k points=    80

     PseudoPot. # 1 for Si read from file:
     /home/s1333534/quantum_espresso/qe-6.1/pseudo/si_pbe_v1.uspp.F.UPF.txt
     MD5 check sum: a056efeee980c13900f22a371efd63c1
     Pseudo is Ultrasoft + core correction, Zval =  4.0
     Generated by new atomic code, or converted to UPF format
     Using radial grid of  899 points,  6 beta functions with: 
                l(1) =   0
                l(2) =   0
                l(3) =   1
                l(4) =   1
                l(5) =   2
                l(6) =   2
     Q(r) pseudized with  8 coefficients,  rinner =    0.900   0.900   0.900
                                                       0.900   0.900

     Mode symmetry, C_4v (4mm)  point group:


     Atomic displacements:
     There are   4 irreducible representations

     Representation     1      1 modes -A_1  G_1 D_1  To be done

     Representation     2      1 modes -B_2  G_4 D_2'  To be done

     Representation     3      2 modes -E    G_5 D_5  To be done

     Representation     4      2 modes -E    G_5 D_5  To be done



     Alpha used in Ewald sum =   2.5000
     PHONON       :    37.34s CPU        48.26s WALL



     Representation #  1 mode #   1

     Self-consistent Calculation

      iter #   1 total cpu time :    48.7 secs   av.it.:   6.2
      thresh= 1.000E-02 alpha_mix =  0.700 |ddv_scf|^2 =  5.196E-04

      iter #   2 total cpu time :    49.1 secs   av.it.:   9.2
      thresh= 2.279E-03 alpha_mix =  0.700 |ddv_scf|^2 =  6.852E-03

      iter #   3 total cpu time :    49.5 secs   av.it.:   7.3
      thresh= 8.278E-03 alpha_mix =  0.700 |ddv_scf|^2 =  1.053E-08

      iter #   4 total cpu time :    50.0 secs   av.it.:  10.1
      thresh= 1.026E-05 alpha_mix =  0.700 |ddv_scf|^2 =  9.806E-10

      iter #   5 total cpu time :    50.5 secs   av.it.:   9.6
      thresh= 3.131E-06 alpha_mix =  0.700 |ddv_scf|^2 =  1.171E-10

      iter #   6 total cpu time :    51.0 secs   av.it.:   9.3
      thresh= 1.082E-06 alpha_mix =  0.700 |ddv_scf|^2 =  3.449E-13

     End of self-consistent calculation

     Convergence has been achieved 


     Representation #  2 mode #   2

     Self-consistent Calculation

      iter #   1 total cpu time :    51.4 secs   av.it.:   5.1
      thresh= 1.000E-02 alpha_mix =  0.700 |ddv_scf|^2 =  8.150E-07

      iter #   2 total cpu time :    51.9 secs   av.it.:  10.4
      thresh= 9.027E-05 alpha_mix =  0.700 |ddv_scf|^2 =  2.183E-07

      iter #   3 total cpu time :    52.4 secs   av.it.:   9.9
      thresh= 4.673E-05 alpha_mix =  0.700 |ddv_scf|^2 =  2.207E-09

      iter #   4 total cpu time :    52.9 secs   av.it.:  10.1
      thresh= 4.698E-06 alpha_mix =  0.700 |ddv_scf|^2 =  8.387E-11

      iter #   5 total cpu time :    53.3 secs   av.it.:  10.3
      thresh= 9.158E-07 alpha_mix =  0.700 |ddv_scf|^2 =  5.130E-13

     End of self-consistent calculation

     Convergence has been achieved 


     Representation #  3 modes #   3  4

     Self-consistent Calculation

      iter #   1 total cpu time :    54.0 secs   av.it.:   5.2
      thresh= 1.000E-02 alpha_mix =  0.700 |ddv_scf|^2 =  1.447E-07

      iter #   2 total cpu time :    55.0 secs   av.it.:  11.5
      thresh= 3.804E-05 alpha_mix =  0.700 |ddv_scf|^2 =  1.993E-08

      iter #   3 total cpu time :    55.9 secs   av.it.:  11.1
      thresh= 1.412E-05 alpha_mix =  0.700 |ddv_scf|^2 =  3.355E-10

      iter #   4 total cpu time :    56.7 secs   av.it.:  10.8
      thresh= 1.832E-06 alpha_mix =  0.700 |ddv_scf|^2 =  7.760E-13

     End of self-consistent calculation

     Convergence has been achieved 


     Representation #  4 modes #   5  6

     Self-consistent Calculation

      iter #   1 total cpu time :    57.5 secs   av.it.:   5.3
      thresh= 1.000E-02 alpha_mix =  0.700 |ddv_scf|^2 =  1.327E-07

      iter #   2 total cpu time :    58.6 secs   av.it.:  11.4
      thresh= 3.643E-05 alpha_mix =  0.700 |ddv_scf|^2 =  1.777E-08

      iter #   3 total cpu time :    59.5 secs   av.it.:  11.2
      thresh= 1.333E-05 alpha_mix =  0.700 |ddv_scf|^2 =  3.441E-10

      iter #   4 total cpu time :    60.3 secs   av.it.:  11.0
      thresh= 1.855E-06 alpha_mix =  0.700 |ddv_scf|^2 =  8.405E-13

     End of self-consistent calculation

     Convergence has been achieved 

     Number of q in the star =    6
     List of q in the star:
          1   0.000000000   0.500000000   0.000000000
          2   0.000000000  -0.500000000   0.000000000
          3   0.500000000   0.000000000   0.000000000
          4   0.000000000   0.000000000   0.500000000
          5   0.000000000   0.000000000  -0.500000000
          6  -0.500000000   0.000000000   0.000000000

     Diagonalizing the dynamical matrix

     q = (    0.000000000   0.500000000   0.000000000 ) 

 **************************************************************************
     freq (    1) =       3.736076 [THz] =     124.622090 [cm-1]
     freq (    2) =       3.736076 [THz] =     124.622090 [cm-1]
     freq (    3) =       7.168092 [THz] =     239.101824 [cm-1]
     freq (    4) =      14.076482 [THz] =     469.540896 [cm-1]
     freq (    5) =      14.076482 [THz] =     469.540896 [cm-1]
     freq (    6) =      14.661509 [THz] =     489.055283 [cm-1]
 **************************************************************************

     Mode symmetry, C_4v (4mm)  point group:

     freq (  1 -  2) =        124.6  [cm-1]   --> E    G_5 D_5       
     freq (  3 -  3) =        239.1  [cm-1]   --> A_1  G_1 D_1       
     freq (  4 -  5) =        469.5  [cm-1]   --> E    G_5 D_5       
     freq (  6 -  6) =        489.1  [cm-1]   --> B_2  G_4 D_2'      

     Calculation of q =    0.7500000  -0.2500000   0.7500000

   Info: using nr1, nr2, nr3 values from input

   Info: using nr1, nr2, nr3 values from input

     Parallelization info
     --------------------
     sticks:   dense  smooth     PW     G-vecs:    dense   smooth      PW
     Min         214     108     40                 4221     1495     362
     Max         215     109     41                 4224     1498     366
     Sum         859     433    163                16889     5985    1459



     bravais-lattice index     =            2
     lattice parameter (alat)  =      10.2840  a.u.
     unit-cell volume          =     271.9106 (a.u.)^3
     number of atoms/cell      =            2
     number of atomic types    =            1
     number of electrons       =         8.00
     number of Kohn-Sham states=            4
     kinetic-energy cutoff     =      30.0000  Ry
     charge density cutoff     =     240.0000  Ry
     Exchange-correlation      = SLA  PW   PBE  PBE ( 1  4  3  4 0 0)

     celldm(1)=  10.284000  celldm(2)=   0.000000  celldm(3)=   0.000000
     celldm(4)=   0.000000  celldm(5)=   0.000000  celldm(6)=   0.000000

     crystal axes: (cart. coord. in units of alat)
               a(1) = (  -0.500000   0.000000   0.500000 )  
               a(2) = (   0.000000   0.500000   0.500000 )  
               a(3) = (  -0.500000   0.500000   0.000000 )  

     reciprocal axes: (cart. coord. in units 2 pi/alat)
               b(1) = ( -1.000000 -1.000000  1.000000 )  
               b(2) = (  1.000000  1.000000  1.000000 )  
               b(3) = ( -1.000000  1.000000 -1.000000 )  


     PseudoPot. # 1 for Si read from file:
     /home/s1333534/quantum_espresso/qe-6.1/pseudo/si_pbe_v1.uspp.F.UPF.txt
     MD5 check sum: a056efeee980c13900f22a371efd63c1
     Pseudo is Ultrasoft + core correction, Zval =  4.0
     Generated by new atomic code, or converted to UPF format
     Using radial grid of  899 points,  6 beta functions with: 
                l(1) =   0
                l(2) =   0
                l(3) =   1
                l(4) =   1
                l(5) =   2
                l(6) =   2
     Q(r) pseudized with  8 coefficients,  rinner =    0.900   0.900   0.900
                                                       0.900   0.900

     atomic species   valence    mass     pseudopotential
        Si             4.00    28.08600     Si( 1.00)

     48 Sym. Ops., with inversion, found



   Cartesian axes

     site n.     atom                  positions (alat units)
         1           Si  tau(   1) = (   0.0000000   0.0000000   0.0000000  )
         2           Si  tau(   2) = (   0.2500000   0.2500000   0.2500000  )

     number of k points=   288

     Number of k-points >= 100: set verbosity='high' to print them.

     Dense  grid:    16889 G-vectors     FFT dimensions: (  36,  36,  36)

     Smooth grid:     5985 G-vectors     FFT dimensions: (  25,  25,  25)

     Estimated max dynamical RAM per process >       1.50MB

     Estimated total allocated dynamical RAM >       6.02MB

     The potential is recalculated from file :
     ./_ph0/silicon.10.284.save/charge-density.dat

     Starting wfc are    8 atomic wfcs

     Band Structure Calculation
     Davidson diagonalization with overlap

     ethr =  1.25E-10,  avg # of iterations = 12.1

     total cpu time spent up to now is        6.8 secs

     End of band structure calculation

     Number of k-points >= 100: set verbosity='high' to print the bands.

     highest occupied level (ev):     5.8408

     Writing output data file silicon.10.284.save

                                                                                

     bravais-lattice index     =            2
     lattice parameter (alat)  =      10.2840  a.u.
     unit-cell volume          =     271.9106 (a.u.)^3
     number of atoms/cell      =            2
     number of atomic types    =            1
     kinetic-energy cut-off    =      30.0000  Ry
     charge density cut-off    =     240.0000  Ry
     convergence threshold     =      1.0E-12
     beta                      =       0.7000
     number of iterations used =            4
     Exchange-correlation      = SLA  PW   PBE  PBE ( 1  4  3  4 0 0)


     celldm(1)=   10.28400  celldm(2)=    0.00000  celldm(3)=    0.00000
     celldm(4)=    0.00000  celldm(5)=    0.00000  celldm(6)=    0.00000

     crystal axes: (cart. coord. in units of alat)
               a(1) = ( -0.5000  0.0000  0.5000 )  
               a(2) = (  0.0000  0.5000  0.5000 )  
               a(3) = ( -0.5000  0.5000  0.0000 )  

     reciprocal axes: (cart. coord. in units 2 pi/alat)
               b(1) = ( -1.0000 -1.0000  1.0000 )  
               b(2) = (  1.0000  1.0000  1.0000 )  
               b(3) = ( -1.0000  1.0000 -1.0000 )  


     Atoms inside the unit cell: 

     Cartesian axes

     site n.  atom      mass           positions (alat units)
        1     Si  28.0860   tau(    1) = (    0.00000    0.00000    0.00000  )
        2     Si  28.0860   tau(    2) = (    0.25000    0.25000    0.25000  )

     Computing dynamical matrix for 
                    q = (   0.7500000  -0.2500000   0.7500000 )

      2 Sym.Ops. (no q -> -q+G )


     G cutoff =  642.9477  (   4224 G-vectors)     FFT grid: ( 36, 36, 36)
     G cutoff =  321.4738  (   1497 G-vectors)  smooth grid: ( 25, 25, 25)
     number of k points=   288

     PseudoPot. # 1 for Si read from file:
     /home/s1333534/quantum_espresso/qe-6.1/pseudo/si_pbe_v1.uspp.F.UPF.txt
     MD5 check sum: a056efeee980c13900f22a371efd63c1
     Pseudo is Ultrasoft + core correction, Zval =  4.0
     Generated by new atomic code, or converted to UPF format
     Using radial grid of  899 points,  6 beta functions with: 
                l(1) =   0
                l(2) =   0
                l(3) =   1
                l(4) =   1
                l(5) =   2
                l(6) =   2
     Q(r) pseudized with  8 coefficients,  rinner =    0.900   0.900   0.900
                                                       0.900   0.900

     Mode symmetry, C_s (m)     point group:


     Atomic displacements:
     There are   6 irreducible representations

     Representation     1      1 modes -A'  To be done

     Representation     2      1 modes -A'  To be done

     Representation     3      1 modes -A'  To be done

     Representation     4      1 modes -A'  To be done

     Representation     5      1 modes -A''  To be done

     Representation     6      1 modes -A''  To be done



     Alpha used in Ewald sum =   2.5000
     PHONON       :  0m51.32s CPU     1m 5.48s WALL



     Representation #  1 mode #   1

     Self-consistent Calculation

      iter #   1 total cpu time :    66.4 secs   av.it.:   5.7
      thresh= 1.000E-02 alpha_mix =  0.700 |ddv_scf|^2 =  1.058E-05

      iter #   2 total cpu time :    67.7 secs   av.it.:  10.6
      thresh= 3.253E-04 alpha_mix =  0.700 |ddv_scf|^2 =  2.806E-05

      iter #   3 total cpu time :    68.9 secs   av.it.:   9.2
      thresh= 5.297E-04 alpha_mix =  0.700 |ddv_scf|^2 =  1.886E-07

      iter #   4 total cpu time :    70.2 secs   av.it.:   9.9
      thresh= 4.343E-05 alpha_mix =  0.700 |ddv_scf|^2 =  3.672E-09

      iter #   5 total cpu time :    71.5 secs   av.it.:  10.4
      thresh= 6.059E-06 alpha_mix =  0.700 |ddv_scf|^2 =  6.395E-10

      iter #   6 total cpu time :    72.8 secs   av.it.:  10.3
      thresh= 2.529E-06 alpha_mix =  0.700 |ddv_scf|^2 =  9.196E-12

      iter #   7 total cpu time :    74.2 secs   av.it.:  10.6
      thresh= 3.033E-07 alpha_mix =  0.700 |ddv_scf|^2 =  3.398E-13

     End of self-consistent calculation

     Convergence has been achieved 


     Representation #  2 mode #   2

     Self-consistent Calculation

      iter #   1 total cpu time :    75.3 secs   av.it.:   5.8
      thresh= 1.000E-02 alpha_mix =  0.700 |ddv_scf|^2 =  1.899E-05

      iter #   2 total cpu time :    76.9 secs   av.it.:  10.4
      thresh= 4.358E-04 alpha_mix =  0.700 |ddv_scf|^2 =  5.478E-05

      iter #   3 total cpu time :    78.0 secs   av.it.:   9.0
      thresh= 7.401E-04 alpha_mix =  0.700 |ddv_scf|^2 =  1.253E-07

      iter #   4 total cpu time :    79.3 secs   av.it.:  10.2
      thresh= 3.539E-05 alpha_mix =  0.700 |ddv_scf|^2 =  4.144E-09

      iter #   5 total cpu time :    80.6 secs   av.it.:  10.4
      thresh= 6.438E-06 alpha_mix =  0.700 |ddv_scf|^2 =  8.458E-10

      iter #   6 total cpu time :    81.9 secs   av.it.:  10.3
      thresh= 2.908E-06 alpha_mix =  0.700 |ddv_scf|^2 =  8.637E-12

      iter #   7 total cpu time :    83.2 secs   av.it.:  10.6
      thresh= 2.939E-07 alpha_mix =  0.700 |ddv_scf|^2 =  2.982E-13

     End of self-consistent calculation

     Convergence has been achieved 


     Representation #  3 mode #   3

     Self-consistent Calculation

      iter #   1 total cpu time :    84.3 secs   av.it.:   5.7
      thresh= 1.000E-02 alpha_mix =  0.700 |ddv_scf|^2 =  1.489E-05

      iter #   2 total cpu time :    85.7 secs   av.it.:  10.4
      thresh= 3.859E-04 alpha_mix =  0.700 |ddv_scf|^2 =  4.038E-05

      iter #   3 total cpu time :    86.9 secs   av.it.:   9.0
      thresh= 6.355E-04 alpha_mix =  0.700 |ddv_scf|^2 =  2.192E-07

      iter #   4 total cpu time :    88.2 secs   av.it.:   9.9
      thresh= 4.682E-05 alpha_mix =  0.700 |ddv_scf|^2 =  4.225E-09

      iter #   5 total cpu time :    89.5 secs   av.it.:  10.4
      thresh= 6.500E-06 alpha_mix =  0.700 |ddv_scf|^2 =  8.216E-10

      iter #   6 total cpu time :    90.9 secs   av.it.:  10.3
      thresh= 2.866E-06 alpha_mix =  0.700 |ddv_scf|^2 =  6.049E-12

      iter #   7 total cpu time :    92.2 secs   av.it.:  10.5
      thresh= 2.460E-07 alpha_mix =  0.700 |ddv_scf|^2 =  1.759E-13

     End of self-consistent calculation

     Convergence has been achieved 


     Representation #  4 mode #   4

     Self-consistent Calculation

      iter #   1 total cpu time :    93.2 secs   av.it.:   5.5
      thresh= 1.000E-02 alpha_mix =  0.700 |ddv_scf|^2 =  6.476E-06

      iter #   2 total cpu time :    94.5 secs   av.it.:  10.7
      thresh= 2.545E-04 alpha_mix =  0.700 |ddv_scf|^2 =  1.363E-05

      iter #   3 total cpu time :    95.7 secs   av.it.:   9.4
      thresh= 3.692E-04 alpha_mix =  0.700 |ddv_scf|^2 =  2.953E-07

      iter #   4 total cpu time :    97.0 secs   av.it.:   9.8
      thresh= 5.435E-05 alpha_mix =  0.700 |ddv_scf|^2 =  3.617E-09

      iter #   5 total cpu time :    98.3 secs   av.it.:  10.5
      thresh= 6.014E-06 alpha_mix =  0.700 |ddv_scf|^2 =  6.770E-10

      iter #   6 total cpu time :    99.8 secs   av.it.:  10.4
      thresh= 2.602E-06 alpha_mix =  0.700 |ddv_scf|^2 =  3.909E-12

      iter #   7 total cpu time :   101.1 secs   av.it.:  10.7
      thresh= 1.977E-07 alpha_mix =  0.700 |ddv_scf|^2 =  1.756E-13

     End of self-consistent calculation

     Convergence has been achieved 


     Representation #  5 mode #   5

     Self-consistent Calculation

      iter #   1 total cpu time :   102.1 secs   av.it.:   5.2
      thresh= 1.000E-02 alpha_mix =  0.700 |ddv_scf|^2 =  6.693E-07

      iter #   2 total cpu time :   103.4 secs   av.it.:  10.4
      thresh= 8.181E-05 alpha_mix =  0.700 |ddv_scf|^2 =  1.090E-07

      iter #   3 total cpu time :   104.6 secs   av.it.:  10.1
      thresh= 3.302E-05 alpha_mix =  0.700 |ddv_scf|^2 =  1.454E-09

      iter #   4 total cpu time :   105.9 secs   av.it.:   9.6
      thresh= 3.813E-06 alpha_mix =  0.700 |ddv_scf|^2 =  3.368E-12

      iter #   5 total cpu time :   107.1 secs   av.it.:  10.0
      thresh= 1.835E-07 alpha_mix =  0.700 |ddv_scf|^2 =  9.342E-14

     End of self-consistent calculation

     Convergence has been achieved 


     Representation #  6 mode #   6

     Self-consistent Calculation

      iter #   1 total cpu time :   108.1 secs   av.it.:   5.2
      thresh= 1.000E-02 alpha_mix =  0.700 |ddv_scf|^2 =  6.693E-07

      iter #   2 total cpu time :   109.5 secs   av.it.:  10.4
[...]
        k(   59) = (  -0.8750000   0.1250000  -0.1250000), wk =   0.0625000
        k(   60) = (  -1.3750000  -0.8750000  -0.1250000), wk =   0.0000000
        k(   61) = (  -1.1250000   0.3750000  -0.3750000), wk =   0.0625000
        k(   62) = (  -1.6250000  -0.6250000  -0.3750000), wk =   0.0000000
        k(   63) = (  -0.3750000   0.3750000   1.1250000), wk =   0.0625000
        k(   64) = (  -0.8750000  -0.6250000   1.1250000), wk =   0.0000000

     Dense  grid:    16889 G-vectors     FFT dimensions: (  36,  36,  36)

     Smooth grid:     5985 G-vectors     FFT dimensions: (  25,  25,  25)

     Estimated max dynamical RAM per process >       1.50MB

     Estimated total allocated dynamical RAM >       6.02MB

     The potential is recalculated from file :
     ./_ph0/silicon.10.284.save/charge-density.dat

     Starting wfc are    8 atomic wfcs

     Band Structure Calculation
     Davidson diagonalization with overlap

     ethr =  1.25E-10,  avg # of iterations = 12.1

     total cpu time spent up to now is       10.6 secs

     End of band structure calculation

          k =-0.1250 0.1250 0.1250 (   746 PWs)   bands (ev):

    -5.5849   4.5317   5.8408   5.8408

          k =-0.6250-0.8750 0.1250 (   749 PWs)   bands (ev):

    -2.3423  -0.7874   2.0972   3.1896

          k =-0.3750 0.3750-0.1250 (   757 PWs)   bands (ev):

    -4.5451   1.5160   3.8312   5.3572

          k =-0.8750-0.6250-0.1250 (   749 PWs)   bands (ev):

    -2.3423  -0.7874   2.0972   3.1896

          k = 0.3750-0.3750 0.6250 (   755 PWs)   bands (ev):

    -3.3866  -0.5921   3.8587   4.5745

          k =-0.1250-1.3750 0.6250 (   757 PWs)   bands (ev):

    -2.8851  -0.4924   2.1617   4.2527

          k = 0.1250-0.1250 0.3750 (   757 PWs)   bands (ev):

    -5.0505   2.9093   4.8184   4.8907

          k =-0.3750-1.1250 0.3750 (   757 PWs)   bands (ev):

    -2.8851  -0.4924   2.1617   4.2527

          k =-0.1250 0.6250 0.1250 (   757 PWs)   bands (ev):

    -4.0063   1.1945   3.4750   3.9339

          k =-0.6250-0.3750 0.1250 (   756 PWs)   bands (ev):

    -3.5840   0.3029   2.8275   4.2116

          k = 0.6250-0.1250 0.8750 (   749 PWs)   bands (ev):

    -2.3423  -0.7874   2.0972   3.1896

          k = 0.1250-1.1250 0.8750 (   757 PWs)   bands (ev):

    -2.5156  -0.6870   2.7168   3.4618

          k = 0.3750 0.1250 0.6250 (   756 PWs)   bands (ev):

    -3.5840   0.3029   2.8275   4.2116

          k =-0.1250-0.8750 0.6250 (   749 PWs)   bands (ev):

    -2.3423  -0.7874   2.0972   3.1896

          k =-0.1250-0.8750 0.1250 (   757 PWs)   bands (ev):

    -2.5156  -0.6870   2.7168   3.4618

          k =-0.6250-1.8750 0.1250 (   757 PWs)   bands (ev):

    -4.0063   1.1945   3.4750   3.9339

          k =-0.3750 0.3750 0.3750 (   763 PWs)   bands (ev):

    -4.1053   0.2047   5.0462   5.0462

          k =-0.8750-0.6250 0.3750 (   756 PWs)   bands (ev):

    -3.5840   0.3029   2.8275   4.2116

          k = 0.3750-0.3750 1.1250 (   757 PWs)   bands (ev):

    -2.8851  -0.4924   2.1617   4.2527

          k =-0.1250-1.3750 1.1250 (   749 PWs)   bands (ev):

    -2.3423  -0.7874   2.0972   3.1896

          k = 0.1250-0.3750 0.3750 (   757 PWs)   bands (ev):

    -4.5451   1.5160   3.8312   5.3572

          k =-0.3750-1.3750 0.3750 (   755 PWs)   bands (ev):

    -3.3866  -0.5921   3.8587   4.5745

          k = 0.3750-0.3750-0.1250 (   757 PWs)   bands (ev):

    -4.5451   1.5160   3.8312   5.3572

          k =-0.1250-1.3750-0.1250 (   757 PWs)   bands (ev):

    -4.0063   1.1945   3.4750   3.9339

          k =-0.6250 0.3750-0.3750 (   755 PWs)   bands (ev):

    -3.3866  -0.5921   3.8587   4.5745

          k =-1.1250-0.6250-0.3750 (   756 PWs)   bands (ev):

    -3.5840   0.3029   2.8275   4.2116

          k =-0.3750 0.3750 0.6250 (   755 PWs)   bands (ev):

    -3.3866  -0.5921   3.8587   4.5745

          k =-0.8750-0.6250 0.6250 (   757 PWs)   bands (ev):

    -4.5451   1.5160   3.8312   5.3572

          k =-0.3750 0.1250-0.1250 (   757 PWs)   bands (ev):

    -5.0505   2.9093   4.8184   4.8907

          k =-0.8750-0.8750-0.1250 (   757 PWs)   bands (ev):

    -2.5156  -0.6870   2.7168   3.4618

          k =-0.1250 0.1250 0.3750 (   757 PWs)   bands (ev):

    -5.0505   2.9093   4.8184   4.8907

          k =-0.6250-0.8750 0.3750 (   756 PWs)   bands (ev):

    -3.5840   0.3029   2.8275   4.2116

          k = 0.1250 0.6250-0.1250 (   757 PWs)   bands (ev):

    -4.0063   1.1945   3.4750   3.9339

          k =-0.3750-0.3750-0.1250 (   757 PWs)   bands (ev):

    -4.5451   1.5160   3.8312   5.3572

          k = 0.6250 0.1250-0.1250 (   757 PWs)   bands (ev):

    -4.0063   1.1945   3.4750   3.9339

          k = 0.1250-0.8750-0.1250 (   757 PWs)   bands (ev):

    -2.5156  -0.6870   2.7168   3.4618

          k =-0.8750 0.1250-0.6250 (   749 PWs)   bands (ev):

    -2.3423  -0.7874   2.0972   3.1896

          k =-1.3750-0.8750-0.6250 (   757 PWs)   bands (ev):

    -4.5451   1.5160   3.8312   5.3572

          k = 0.8750-0.1250 0.6250 (   749 PWs)   bands (ev):

    -2.3423  -0.7874   2.0972   3.1896

          k = 0.3750-1.1250 0.6250 (   756 PWs)   bands (ev):

    -3.5840   0.3029   2.8275   4.2116

          k =-0.6250 0.1250 0.8750 (   749 PWs)   bands (ev):

    -2.3423  -0.7874   2.0972   3.1896

          k =-1.1250-0.8750 0.8750 (   746 PWs)   bands (ev):

    -5.5849   4.5317   5.8408   5.8408

          k =-0.1250 0.8750 0.6250 (   749 PWs)   bands (ev):

    -2.3423  -0.7874   2.0972   3.1896

          k =-0.6250-0.1250 0.6250 (   757 PWs)   bands (ev):

    -2.8851  -0.4924   2.1617   4.2527

          k = 0.1250 0.8750-0.6250 (   749 PWs)   bands (ev):

    -2.3423  -0.7874   2.0972   3.1896

          k =-0.3750-0.1250-0.6250 (   756 PWs)   bands (ev):

    -3.5840   0.3029   2.8275   4.2116

          k =-0.6250-0.1250-0.3750 (   756 PWs)   bands (ev):

    -3.5840   0.3029   2.8275   4.2116

          k =-1.1250-1.1250-0.3750 (   757 PWs)   bands (ev):

    -4.0063   1.1945   3.4750   3.9339

          k = 0.6250 0.1250 0.3750 (   756 PWs)   bands (ev):

    -3.5840   0.3029   2.8275   4.2116

          k = 0.1250-0.8750 0.3750 (   749 PWs)   bands (ev):

    -2.3423  -0.7874   2.0972   3.1896

          k =-0.3750-0.1250 0.6250 (   756 PWs)   bands (ev):

    -3.5840   0.3029   2.8275   4.2116

          k =-0.8750-1.1250 0.6250 (   757 PWs)   bands (ev):

    -5.0505   2.9093   4.8184   4.8907

          k = 0.1250 0.6250 0.3750 (   756 PWs)   bands (ev):

    -3.5840   0.3029   2.8275   4.2116

          k =-0.3750-0.3750 0.3750 (   763 PWs)   bands (ev):

    -4.1053   0.2047   5.0462   5.0462

          k =-0.1250 0.6250-0.3750 (   756 PWs)   bands (ev):

    -3.5840   0.3029   2.8275   4.2116

          k =-0.6250-0.3750-0.3750 (   755 PWs)   bands (ev):

    -3.3866  -0.5921   3.8587   4.5745

          k = 0.1250-0.8750-0.1250 (   757 PWs)   bands (ev):

    -2.5156  -0.6870   2.7168   3.4618

          k =-0.3750-1.8750-0.1250 (   757 PWs)   bands (ev):

    -5.0505   2.9093   4.8184   4.8907

          k =-0.8750 0.1250-0.1250 (   757 PWs)   bands (ev):

    -2.5156  -0.6870   2.7168   3.4618

          k =-1.3750-0.8750-0.1250 (   749 PWs)   bands (ev):

    -2.3423  -0.7874   2.0972   3.1896

          k =-1.1250 0.3750-0.3750 (   757 PWs)   bands (ev):

    -2.8851  -0.4924   2.1617   4.2527

          k =-1.6250-0.6250-0.3750 (   755 PWs)   bands (ev):

    -3.3866  -0.5921   3.8587   4.5745

          k =-0.3750 0.3750 1.1250 (   757 PWs)   bands (ev):

    -2.8851  -0.4924   2.1617   4.2527

          k =-0.8750-0.6250 1.1250 (   757 PWs)   bands (ev):

    -5.0505   2.9093   4.8184   4.8907

     highest occupied level (ev):     5.8408

     Writing output data file silicon.10.284.save

                                                                                

     bravais-lattice index     =            2
     lattice parameter (alat)  =      10.2840  a.u.
     unit-cell volume          =     271.9106 (a.u.)^3
     number of atoms/cell      =            2
     number of atomic types    =            1
     kinetic-energy cut-off    =      30.0000  Ry
     charge density cut-off    =     240.0000  Ry
     convergence threshold     =      1.0E-12
     beta                      =       0.7000
     number of iterations used =            4
     Exchange-correlation      = SLA  PW   PBE  PBE ( 1  4  3  4 0 0)


     celldm(1)=   10.28400  celldm(2)=    0.00000  celldm(3)=    0.00000
     celldm(4)=    0.00000  celldm(5)=    0.00000  celldm(6)=    0.00000

     crystal axes: (cart. coord. in units of alat)
               a(1) = ( -0.5000  0.0000  0.5000 )  
               a(2) = (  0.0000  0.5000  0.5000 )  
               a(3) = ( -0.5000  0.5000  0.0000 )  

     reciprocal axes: (cart. coord. in units 2 pi/alat)
               b(1) = ( -1.0000 -1.0000  1.0000 )  
               b(2) = (  1.0000  1.0000  1.0000 )  
               b(3) = ( -1.0000  1.0000 -1.0000 )  


     Atoms inside the unit cell: 

     Cartesian axes

     site n.  atom      mass           positions (alat units)
        1     Si  28.0860   tau(    1) = (    0.00000    0.00000    0.00000  )
        2     Si  28.0860   tau(    2) = (    0.25000    0.25000    0.25000  )

     Computing dynamical matrix for 
                    q = (  -0.5000000  -1.0000000   0.0000000 )

      8 Sym.Ops. (no q -> -q+G )


     G cutoff =  642.9477  (   4224 G-vectors)     FFT grid: ( 36, 36, 36)
     G cutoff =  321.4738  (   1497 G-vectors)  smooth grid: ( 25, 25, 25)
     number of k points=    64

     PseudoPot. # 1 for Si read from file:
     /home/s1333534/quantum_espresso/qe-6.1/pseudo/si_pbe_v1.uspp.F.UPF.txt
     MD5 check sum: a056efeee980c13900f22a371efd63c1
     Pseudo is Ultrasoft + core correction, Zval =  4.0
     Generated by new atomic code, or converted to UPF format
     Using radial grid of  899 points,  6 beta functions with: 
                l(1) =   0
                l(2) =   0
                l(3) =   1
                l(4) =   1
                l(5) =   2
                l(6) =   2
     Q(r) pseudized with  8 coefficients,  rinner =    0.900   0.900   0.900
                                                       0.900   0.900


     Atomic displacements:
     There are   3 irreducible representations

     Representation     1      2 modes -  To be done

     Representation     2      2 modes -  To be done

     Representation     3      2 modes -  To be done



     Alpha used in Ewald sum =   2.5000
     PHONON       :  2m 3.04s CPU     2m32.10s WALL



     Representation #  1 modes #   1  2

     Self-consistent Calculation

      iter #   1 total cpu time :   152.8 secs   av.it.:   5.7
      thresh= 1.000E-02 alpha_mix =  0.700 |ddv_scf|^2 =  1.097E-06

      iter #   2 total cpu time :   153.6 secs   av.it.:  11.6
      thresh= 1.048E-04 alpha_mix =  0.700 |ddv_scf|^2 =  6.226E-07

      iter #   3 total cpu time :   154.4 secs   av.it.:  11.1
      thresh= 7.891E-05 alpha_mix =  0.700 |ddv_scf|^2 =  5.925E-10

      iter #   4 total cpu time :   155.2 secs   av.it.:  11.0
      thresh= 2.434E-06 alpha_mix =  0.700 |ddv_scf|^2 =  2.613E-12

      iter #   5 total cpu time :   155.9 secs   av.it.:  11.1
      thresh= 1.617E-07 alpha_mix =  0.700 |ddv_scf|^2 =  6.898E-14

     End of self-consistent calculation

     Convergence has been achieved 


     Representation #  2 modes #   3  4

     Self-consistent Calculation

      iter #   1 total cpu time :   156.6 secs   av.it.:   5.7
      thresh= 1.000E-02 alpha_mix =  0.700 |ddv_scf|^2 =  1.693E-06

      iter #   2 total cpu time :   157.4 secs   av.it.:  11.6
      thresh= 1.301E-04 alpha_mix =  0.700 |ddv_scf|^2 =  2.265E-06

      iter #   3 total cpu time :   158.2 secs   av.it.:  10.9
      thresh= 1.505E-04 alpha_mix =  0.700 |ddv_scf|^2 =  6.960E-10

      iter #   4 total cpu time :   159.0 secs   av.it.:  11.0
      thresh= 2.638E-06 alpha_mix =  0.700 |ddv_scf|^2 =  9.946E-12

      iter #   5 total cpu time :   159.7 secs   av.it.:  11.1
      thresh= 3.154E-07 alpha_mix =  0.700 |ddv_scf|^2 =  1.721E-13

     End of self-consistent calculation

     Convergence has been achieved 


     Representation #  3 modes #   5  6

     Self-consistent Calculation

      iter #   1 total cpu time :   160.4 secs   av.it.:   5.3
      thresh= 1.000E-02 alpha_mix =  0.700 |ddv_scf|^2 =  4.456E-07

      iter #   2 total cpu time :   161.3 secs   av.it.:  11.6
      thresh= 6.675E-05 alpha_mix =  0.700 |ddv_scf|^2 =  2.608E-07

      iter #   3 total cpu time :   162.1 secs   av.it.:  11.0
      thresh= 5.106E-05 alpha_mix =  0.700 |ddv_scf|^2 =  5.169E-10

      iter #   4 total cpu time :   162.8 secs   av.it.:  11.1
      thresh= 2.274E-06 alpha_mix =  0.700 |ddv_scf|^2 =  5.947E-12

      iter #   5 total cpu time :   163.6 secs   av.it.:  11.1
      thresh= 2.439E-07 alpha_mix =  0.700 |ddv_scf|^2 =  8.330E-14

     End of self-consistent calculation

     Convergence has been achieved 

     Number of q in the star =    6
     List of q in the star:
          1  -0.500000000  -1.000000000   0.000000000
          2   0.000000000   1.000000000   0.500000000
          3   0.000000000  -1.000000000  -0.500000000
          4   0.500000000   1.000000000   0.000000000
          5  -1.000000000  -0.500000000   0.000000000
          6   0.000000000  -0.500000000  -1.000000000

     Diagonalizing the dynamical matrix

     q = (   -0.500000000  -1.000000000   0.000000000 ) 

 **************************************************************************
     freq (    1) =       5.977975 [THz] =     199.403796 [cm-1]
     freq (    2) =       5.977975 [THz] =     199.403796 [cm-1]
     freq (    3) =      10.499646 [THz] =     350.230503 [cm-1]
     freq (    4) =      10.499646 [THz] =     350.230503 [cm-1]
     freq (    5) =      13.848163 [THz] =     461.924995 [cm-1]
     freq (    6) =      13.848163 [THz] =     461.924995 [cm-1]
 **************************************************************************

     init_run     :      1.24s CPU      1.28s WALL (       7 calls)
     electrons    :      7.29s CPU      7.89s WALL (       7 calls)

     Called by init_run:
     wfcinit      :      0.00s CPU      0.02s WALL (       7 calls)
     potinit      :      0.08s CPU      0.08s WALL (       7 calls)

     Called by electrons:
     c_bands      :      7.29s CPU      7.89s WALL (       7 calls)
     v_of_rho     :      0.06s CPU      0.07s WALL (       8 calls)
     newd         :      0.12s CPU      0.12s WALL (       8 calls)

     Called by c_bands:
     init_us_2    :      1.64s CPU      1.58s WALL (   16040 calls)
     cegterg      :      6.12s CPU      6.61s WALL (     796 calls)

     Called by sum_band:

     Called by *egterg:
     h_psi        :     69.63s CPU     74.53s WALL (  154438 calls)
     s_psi        :      5.64s CPU      6.92s WALL (  311278 calls)
     g_psi        :      0.05s CPU      0.07s WALL (    9666 calls)
     cdiaghg      :      0.59s CPU      0.56s WALL (   10462 calls)

     Called by h_psi:
     h_psi:pot    :     69.19s CPU     74.02s WALL (  154438 calls)
     h_psi:calbec :      3.54s CPU      3.96s WALL (  154438 calls)
     vloc_psi     :     61.25s CPU     65.93s WALL (  154438 calls)
     add_vuspsi   :      4.10s CPU      3.66s WALL (  154438 calls)

     General routines
     calbec       :      8.32s CPU      8.32s WALL (  345730 calls)
     fft          :      1.36s CPU      1.44s WALL (    5265 calls)
     ffts         :      0.21s CPU      0.22s WALL (    3320 calls)
     fftw         :     64.36s CPU     68.56s WALL ( 1383296 calls)
     interpolate  :      0.20s CPU      0.23s WALL (     572 calls)
     davcio       :      0.31s CPU      0.84s WALL (   69876 calls)

     Parallel routines
     fft_scatter  :     16.00s CPU     19.08s WALL ( 1391881 calls)

     PHONON       :  2m12.26s CPU     2m43.99s WALL

     INITIALIZATION: 
     phq_setup    :      0.22s CPU      0.51s WALL (       8 calls)
     phq_init     :      6.68s CPU      6.90s WALL (       8 calls)

     phq_init     :      6.68s CPU      6.90s WALL (       8 calls)
     set_drhoc    :      1.79s CPU      1.80s WALL (      24 calls)
     init_vloc    :      0.03s CPU      0.03s WALL (       8 calls)
     init_us_1    :      0.97s CPU      0.97s WALL (       8 calls)
     newd         :      0.12s CPU      0.12s WALL (       8 calls)
     dvanqq       :      1.16s CPU      1.16s WALL (       8 calls)
     drho         :      2.57s CPU      2.65s WALL (       8 calls)

     DYNAMICAL MATRIX:
     dynmat0      :      1.68s CPU      1.76s WALL (       8 calls)
     phqscf       :    112.11s CPU    138.58s WALL (       8 calls)
     dynmatrix    :      0.01s CPU      0.21s WALL (       8 calls)

     phqscf       :    112.11s CPU    138.58s WALL (       8 calls)
     solve_linter :    111.24s CPU    136.28s WALL (      32 calls)
     drhodv       :      0.58s CPU      0.60s WALL (      32 calls)

     dynmat0      :      1.68s CPU      1.76s WALL (       8 calls)
     dynmat_us    :      0.38s CPU      0.38s WALL (       8 calls)
     d2ionq       :      0.03s CPU      0.04s WALL (       8 calls)
     dynmatcc     :      1.26s CPU      1.26s WALL (       8 calls)

     dynmat_us    :      0.38s CPU      0.38s WALL (       8 calls)
     addusdynmat  :      0.00s CPU      0.00s WALL (       8 calls)

     phqscf       :    112.11s CPU    138.58s WALL (       8 calls)
     solve_linter :    111.24s CPU    136.28s WALL (      32 calls)

     solve_linter :    111.24s CPU    136.28s WALL (      32 calls)
     dvqpsi_us    :      2.11s CPU      2.26s WALL (    2508 calls)
     ortho        :      0.88s CPU      0.99s WALL (   13630 calls)
     cgsolve      :     77.04s CPU     83.51s WALL (   13630 calls)
     incdrhoscf   :      6.24s CPU      6.82s WALL (   13630 calls)
     addusddens   :      6.97s CPU      7.04s WALL (     202 calls)
     vpsifft      :      4.57s CPU      4.99s WALL (   11002 calls)
     dv_of_drho   :      1.22s CPU      1.26s WALL (     256 calls)
     mix_pot      :      0.26s CPU      9.49s WALL (     175 calls)
     psymdvscf    :      4.11s CPU      4.16s WALL (     170 calls)
     newdq        :      7.57s CPU      7.59s WALL (     175 calls)
     adddvscf     :      0.48s CPU      0.45s WALL (   11122 calls)
     drhodvus     :      0.01s CPU      0.01s WALL (      32 calls)

     dvqpsi_us    :      2.11s CPU      2.26s WALL (    2508 calls)
     dvqpsi_us_on :      0.91s CPU      0.95s WALL (    2508 calls)

     cgsolve      :     77.04s CPU     83.51s WALL (   13630 calls)
     ch_psi       :     75.88s CPU     81.80s WALL (  143180 calls)

     ch_psi       :     75.88s CPU     81.80s WALL (  143180 calls)
     h_psi        :     69.63s CPU     74.53s WALL (  154438 calls)
     last         :      8.73s CPU      9.00s WALL (  143180 calls)

     h_psi        :     69.63s CPU     74.53s WALL (  154438 calls)
     add_vuspsi   :      4.10s CPU      3.66s WALL (  154438 calls)

     incdrhoscf   :      6.24s CPU      6.82s WALL (   13630 calls)
     addusdbec    :      0.48s CPU      0.53s WALL (   16078 calls)

     drhodvus     :      0.01s CPU      0.01s WALL (      32 calls)

      General routines
     calbec       :      8.32s CPU      8.32s WALL (  345730 calls)
     fft          :      1.36s CPU      1.44s WALL (    5265 calls)
     ffts         :      0.21s CPU      0.22s WALL (    3320 calls)
     fftw         :     64.36s CPU     68.56s WALL ( 1383296 calls)
     davcio       :      0.31s CPU      0.84s WALL (   69876 calls)
     write_rec    :      0.23s CPU      9.40s WALL (     207 calls)


     PHONON       :  2m12.26s CPU     2m43.99s WALL


   This run was terminated on:  15:37:47  10Nov2017            

=------------------------------------------------------------------------------=
   JOB DONE.
=------------------------------------------------------------------------------=
