
     Program PHONON v.6.1 (svn rev. 13369) starts on  9Nov2017 at 17:35:34 

     This program is part of the open-source Quantum ESPRESSO suite
     for quantum simulation of materials; please cite
         "P. Giannozzi et al., J. Phys.:Condens. Matter 21 395502 (2009);
          URL http://www.quantum-espresso.org", 
     in publications or presentations arising from this work. More details at
     http://www.quantum-espresso.org/quote

     Parallel version (MPI), running on     4 processors
     R & G space division:  proc/nbgrp/npool/nimage =       4

     Reading data from directory:
     ./silicon.10.401.save

   Info: using nr1, nr2, nr3 values from input

   Info: using nr1, nr2, nr3 values from input

     IMPORTANT: XC functional enforced from input :
     Exchange-correlation      = SLA  PW   PBE  PBE ( 1  4  3  4 0 0)
     Any further DFT definition will be discarded
     Please, verify this is what you really want


     Parallelization info
     --------------------
     sticks:   dense  smooth     PW     G-vecs:    dense   smooth      PW
     Min          66      66     22                  722      722     152
     Max          67      67     23                  724      724     153
     Sum         265     265     91                 2891     2891     609


     Check: negative/imaginary core charge=   -0.000006    0.000000


     Dynamical matrices for ( 4, 4, 4)  uniform grid of q-points
     (   8q-points):
       N         xq(1)         xq(2)         xq(3) 
       1   0.000000000   0.000000000   0.000000000
       2  -0.250000000   0.250000000  -0.250000000
       3   0.500000000  -0.500000000   0.500000000
       4   0.000000000   0.500000000   0.000000000
       5   0.750000000  -0.250000000   0.750000000
       6   0.500000000   0.000000000   0.500000000
       7   0.000000000  -1.000000000   0.000000000
       8  -0.500000000  -1.000000000   0.000000000

     Calculation of q =    0.0000000   0.0000000   0.0000000

                                                                                

     bravais-lattice index     =            2
     lattice parameter (alat)  =      10.4010  a.u.
     unit-cell volume          =     281.2971 (a.u.)^3
     number of atoms/cell      =            2
     number of atomic types    =            1
     kinetic-energy cut-off    =      18.0000  Ry
     charge density cut-off    =      72.0000  Ry
     convergence threshold     =      1.0E-12
     beta                      =       0.7000
     number of iterations used =            4
     Exchange-correlation      = SLA  PW   PBE  PBE ( 1  4  3  4 0 0)


     celldm(1)=   10.40100  celldm(2)=    0.00000  celldm(3)=    0.00000
     celldm(4)=    0.00000  celldm(5)=    0.00000  celldm(6)=    0.00000

     crystal axes: (cart. coord. in units of alat)
               a(1) = ( -0.5000  0.0000  0.5000 )  
               a(2) = (  0.0000  0.5000  0.5000 )  
               a(3) = ( -0.5000  0.5000  0.0000 )  

     reciprocal axes: (cart. coord. in units 2 pi/alat)
               b(1) = ( -1.0000 -1.0000  1.0000 )  
               b(2) = (  1.0000  1.0000  1.0000 )  
               b(3) = ( -1.0000  1.0000 -1.0000 )  


     Atoms inside the unit cell: 

     Cartesian axes

     site n.  atom      mass           positions (alat units)
        1     Si  28.0860   tau(    1) = (    0.00000    0.00000    0.00000  )
        2     Si  28.0860   tau(    2) = (    0.25000    0.25000    0.25000  )

     Computing dynamical matrix for 
                    q = (   0.0000000   0.0000000   0.0000000 )

     49 Sym.Ops. (with q -> -q+G )


     G cutoff =  197.2981  (    722 G-vectors)     FFT grid: ( 20, 20, 20)
     number of k points=    10

     PseudoPot. # 1 for Si read from file:
     /home/max/quantum_espresso/qe-6.1/pseudo/si_pbe_v1.uspp.F.UPF.txt
     MD5 check sum: a056efeee980c13900f22a371efd63c1
     Pseudo is Ultrasoft + core correction, Zval =  4.0
     Generated by new atomic code, or converted to UPF format
     Using radial grid of  899 points,  6 beta functions with: 
                l(1) =   0
                l(2) =   0
                l(3) =   1
                l(4) =   1
                l(5) =   2
                l(6) =   2
     Q(r) pseudized with  8 coefficients,  rinner =    0.900   0.900   0.900
                                                       0.900   0.900

     Mode symmetry, O_h (m-3m)  point group:


     Electric field:
     Dielectric constant
     Born effective charges in two ways 


     Atomic displacements:
     There are   2 irreducible representations

     Representation     1      3 modes -T_2g G_25' G_5+  To be done

     Representation     2      3 modes -T_1u G_15  G_4-  To be done



     Alpha used in Ewald sum =   0.7000
     PHONON       :     0.39s CPU         0.41s WALL


     Electric Fields Calculation

      iter #   1 total cpu time :     0.8 secs   av.it.:   5.6
      thresh= 1.000E-02 alpha_mix =  0.700 |ddv_scf|^2 =  9.573E-07

      iter #   2 total cpu time :     1.0 secs   av.it.:   9.9
      thresh= 9.784E-05 alpha_mix =  0.700 |ddv_scf|^2 =  6.249E-08

      iter #   3 total cpu time :     1.1 secs   av.it.:   9.8
      thresh= 2.500E-05 alpha_mix =  0.700 |ddv_scf|^2 =  4.964E-09

      iter #   4 total cpu time :     1.3 secs   av.it.:   9.0
      thresh= 7.046E-06 alpha_mix =  0.700 |ddv_scf|^2 =  3.009E-11

      iter #   5 total cpu time :     1.5 secs   av.it.:   9.2
      thresh= 5.486E-07 alpha_mix =  0.700 |ddv_scf|^2 =  1.544E-14

     End of electric fields calculation

          Dielectric constant in cartesian axis 

          (      14.023439081      -0.000000000      -0.000000000 )
          (      -0.000000000      14.023439081       0.000000000 )
          (      -0.000000000       0.000000000      14.023439081 )

          Effective charges (d Force / dE) in cartesian axis

           atom      1   Si 
      Ex  (       -0.03357        0.00000        0.00000 )
      Ey  (        0.00000       -0.03357       -0.00000 )
      Ez  (        0.00000       -0.00000       -0.03357 )
           atom      2   Si 
      Ex  (       -0.03357       -0.00000        0.00000 )
      Ey  (       -0.00000       -0.03357        0.00000 )
      Ez  (       -0.00000        0.00000       -0.03357 )


     Representation #  1 modes #   1  2  3

     Self-consistent Calculation

      iter #   1 total cpu time :     2.0 secs   av.it.:   5.0
      thresh= 1.000E-02 alpha_mix =  0.700 |ddv_scf|^2 =  1.853E-07

      iter #   2 total cpu time :     2.2 secs   av.it.:  10.0
      thresh= 4.304E-05 alpha_mix =  0.700 |ddv_scf|^2 =  1.024E-08

      iter #   3 total cpu time :     2.4 secs   av.it.:   9.5
      thresh= 1.012E-05 alpha_mix =  0.700 |ddv_scf|^2 =  7.079E-10

      iter #   4 total cpu time :     2.6 secs   av.it.:   9.1
      thresh= 2.661E-06 alpha_mix =  0.700 |ddv_scf|^2 =  1.823E-12

      iter #   5 total cpu time :     2.7 secs   av.it.:   9.4
      thresh= 1.350E-07 alpha_mix =  0.700 |ddv_scf|^2 =  1.540E-14

     End of self-consistent calculation

     Convergence has been achieved 


     Representation #  2 modes #   4  5  6

     Self-consistent Calculation

      iter #   1 total cpu time :     3.0 secs   av.it.:   5.0
      thresh= 1.000E-02 alpha_mix =  0.700 |ddv_scf|^2 =  1.926E-07

      iter #   2 total cpu time :     3.1 secs   av.it.:   9.6
      thresh= 4.389E-05 alpha_mix =  0.700 |ddv_scf|^2 =  1.591E-08

      iter #   3 total cpu time :     3.3 secs   av.it.:   9.2
      thresh= 1.261E-05 alpha_mix =  0.700 |ddv_scf|^2 =  9.548E-10

      iter #   4 total cpu time :     3.5 secs   av.it.:   9.5
      thresh= 3.090E-06 alpha_mix =  0.700 |ddv_scf|^2 =  5.558E-12

      iter #   5 total cpu time :     3.7 secs   av.it.:   9.1
      thresh= 2.358E-07 alpha_mix =  0.700 |ddv_scf|^2 =  5.105E-15

     End of self-consistent calculation

     Convergence has been achieved 

     Number of q in the star =    1
     List of q in the star:
          1   0.000000000   0.000000000   0.000000000

          Dielectric constant in cartesian axis 

          (      14.023439081      -0.000000000      -0.000000000 )
          (      -0.000000000      14.023439081       0.000000000 )
          (      -0.000000000       0.000000000      14.023439081 )

          Effective charges (d Force / dE) in cartesian axis

           atom      1   Si 
      Ex  (       -0.03357        0.00000        0.00000 )
      Ey  (        0.00000       -0.03357       -0.00000 )
      Ez  (        0.00000       -0.00000       -0.03357 )
           atom      2   Si 
      Ex  (       -0.03357       -0.00000        0.00000 )
      Ey  (       -0.00000       -0.03357        0.00000 )
      Ez  (       -0.00000        0.00000       -0.03357 )

          Effective charges (d P / du) in cartesian axis 

           atom      1   Si 
      Px  (       -0.07595       -0.00000       -0.00000 )
      Py  (       -0.00000       -0.07595        0.00000 )
      Pz  (       -0.00000        0.00000       -0.07595 )
           atom      2   Si 
      Px  (       -0.07595       -0.00000       -0.00000 )
      Py  (       -0.00000       -0.07595        0.00000 )
      Pz  (       -0.00000        0.00000       -0.07595 )

     Diagonalizing the dynamical matrix

     q = (    0.000000000   0.000000000   0.000000000 ) 

 **************************************************************************
     freq (    1) =       1.780190 [THz] =      59.380738 [cm-1]
     freq (    2) =       1.780190 [THz] =      59.380738 [cm-1]
     freq (    3) =       1.780190 [THz] =      59.380738 [cm-1]
     freq (    4) =      15.566363 [THz] =     519.237974 [cm-1]
     freq (    5) =      15.566363 [THz] =     519.237974 [cm-1]
     freq (    6) =      15.566363 [THz] =     519.237974 [cm-1]
 **************************************************************************

     Mode symmetry, O_h (m-3m)  point group:

     freq (  1 -  3) =         59.4  [cm-1]   --> T_1u G_15  G_4- I  
     freq (  4 -  6) =        519.2  [cm-1]   --> T_2g G_25' G_5+ R  

     Calculation of q =   -0.2500000   0.2500000  -0.2500000

   Info: using nr1, nr2, nr3 values from input

   Info: using nr1, nr2, nr3 values from input

     Parallelization info
     --------------------
     sticks:   dense  smooth     PW     G-vecs:    dense   smooth      PW
     Min          66      66     24                  722      722     161
     Max          67      67     25                  724      724     162
     Sum         265     265     97                 2891     2891     645



     bravais-lattice index     =            2
     lattice parameter (alat)  =      10.4010  a.u.
     unit-cell volume          =     281.2971 (a.u.)^3
     number of atoms/cell      =            2
     number of atomic types    =            1
     number of electrons       =         8.00
     number of Kohn-Sham states=            4
     kinetic-energy cutoff     =      18.0000  Ry
     charge density cutoff     =      72.0000  Ry
     Exchange-correlation      = SLA  PW   PBE  PBE ( 1  4  3  4 0 0)

     celldm(1)=  10.401000  celldm(2)=   0.000000  celldm(3)=   0.000000
     celldm(4)=   0.000000  celldm(5)=   0.000000  celldm(6)=   0.000000

     crystal axes: (cart. coord. in units of alat)
               a(1) = (  -0.500000   0.000000   0.500000 )  
               a(2) = (   0.000000   0.500000   0.500000 )  
               a(3) = (  -0.500000   0.500000   0.000000 )  

     reciprocal axes: (cart. coord. in units 2 pi/alat)
               b(1) = ( -1.000000 -1.000000  1.000000 )  
               b(2) = (  1.000000  1.000000  1.000000 )  
               b(3) = ( -1.000000  1.000000 -1.000000 )  


     PseudoPot. # 1 for Si read from file:
     /home/max/quantum_espresso/qe-6.1/pseudo/si_pbe_v1.uspp.F.UPF.txt
     MD5 check sum: a056efeee980c13900f22a371efd63c1
     Pseudo is Ultrasoft + core correction, Zval =  4.0
     Generated by new atomic code, or converted to UPF format
     Using radial grid of  899 points,  6 beta functions with: 
                l(1) =   0
                l(2) =   0
                l(3) =   1
                l(4) =   1
                l(5) =   2
                l(6) =   2
     Q(r) pseudized with  8 coefficients,  rinner =    0.900   0.900   0.900
                                                       0.900   0.900

     atomic species   valence    mass     pseudopotential
        Si             4.00    28.08600     Si( 1.00)

     48 Sym. Ops., with inversion, found



   Cartesian axes

     site n.     atom                  positions (alat units)
         1           Si  tau(   1) = (   0.0000000   0.0000000   0.0000000  )
         2           Si  tau(   2) = (   0.2500000   0.2500000   0.2500000  )

     number of k points=   120

     Number of k-points >= 100: set verbosity='high' to print them.

     Dense  grid:     2891 G-vectors     FFT dimensions: (  20,  20,  20)

     Estimated max dynamical RAM per process >       0.33MB

     Estimated total allocated dynamical RAM >       1.33MB

     Check: negative/imaginary core charge=   -0.000006    0.000000

     The potential is recalculated from file :
     ./_ph0/silicon.10.401.save/charge-density.dat

     Starting wfc are    8 atomic wfcs

     Band Structure Calculation
     Davidson diagonalization with overlap

     ethr =  1.25E-10,  avg # of iterations = 11.7

     total cpu time spent up to now is        0.8 secs

     End of band structure calculation

     Number of k-points >= 100: set verbosity='high' to print the bands.

     highest occupied level (ev):     5.5072

     Writing output data file silicon.10.401.save

                                                                                

     bravais-lattice index     =            2
     lattice parameter (alat)  =      10.4010  a.u.
     unit-cell volume          =     281.2971 (a.u.)^3
     number of atoms/cell      =            2
     number of atomic types    =            1
     kinetic-energy cut-off    =      18.0000  Ry
     charge density cut-off    =      72.0000  Ry
     convergence threshold     =      1.0E-12
     beta                      =       0.7000
     number of iterations used =            4
     Exchange-correlation      = SLA  PW   PBE  PBE ( 1  4  3  4 0 0)


     celldm(1)=   10.40100  celldm(2)=    0.00000  celldm(3)=    0.00000
     celldm(4)=    0.00000  celldm(5)=    0.00000  celldm(6)=    0.00000

     crystal axes: (cart. coord. in units of alat)
               a(1) = ( -0.5000  0.0000  0.5000 )  
               a(2) = (  0.0000  0.5000  0.5000 )  
               a(3) = ( -0.5000  0.5000  0.0000 )  

     reciprocal axes: (cart. coord. in units 2 pi/alat)
               b(1) = ( -1.0000 -1.0000  1.0000 )  
               b(2) = (  1.0000  1.0000  1.0000 )  
               b(3) = ( -1.0000  1.0000 -1.0000 )  


     Atoms inside the unit cell: 

     Cartesian axes

     site n.  atom      mass           positions (alat units)
        1     Si  28.0860   tau(    1) = (    0.00000    0.00000    0.00000  )
        2     Si  28.0860   tau(    2) = (    0.25000    0.25000    0.25000  )

     Computing dynamical matrix for 
                    q = (  -0.2500000   0.2500000  -0.2500000 )

      6 Sym.Ops. (no q -> -q+G )


     G cutoff =  197.2981  (    722 G-vectors)     FFT grid: ( 20, 20, 20)
     number of k points=   120

     PseudoPot. # 1 for Si read from file:
     /home/max/quantum_espresso/qe-6.1/pseudo/si_pbe_v1.uspp.F.UPF.txt
     MD5 check sum: a056efeee980c13900f22a371efd63c1
     Pseudo is Ultrasoft + core correction, Zval =  4.0
     Generated by new atomic code, or converted to UPF format
     Using radial grid of  899 points,  6 beta functions with: 
                l(1) =   0
                l(2) =   0
                l(3) =   1
                l(4) =   1
                l(5) =   2
                l(6) =   2
     Q(r) pseudized with  8 coefficients,  rinner =    0.900   0.900   0.900
                                                       0.900   0.900

     Mode symmetry, C_3v (3m)   point group:


     Atomic displacements:
     There are   4 irreducible representations

     Representation     1      1 modes -A_1  L_1  To be done

     Representation     2      1 modes -A_1  L_1  To be done

     Representation     3      2 modes -E    L_3  To be done

     Representation     4      2 modes -E    L_3  To be done



     Alpha used in Ewald sum =   0.7000
     PHONON       :     4.78s CPU         5.06s WALL



     Representation #  1 mode #   1

     Self-consistent Calculation

      iter #   1 total cpu time :     5.3 secs   av.it.:   5.5
      thresh= 1.000E-02 alpha_mix =  0.700 |ddv_scf|^2 =  2.429E-03

      iter #   2 total cpu time :     5.5 secs   av.it.:   7.5
      thresh= 4.929E-03 alpha_mix =  0.700 |ddv_scf|^2 =  3.694E-02

      iter #   3 total cpu time :     5.9 secs   av.it.:   6.3
      thresh= 1.000E-02 alpha_mix =  0.700 |ddv_scf|^2 =  1.675E-06

      iter #   4 total cpu time :     6.2 secs   av.it.:   8.2
      thresh= 1.294E-04 alpha_mix =  0.700 |ddv_scf|^2 =  1.115E-07

      iter #   5 total cpu time :     6.4 secs   av.it.:   8.1
      thresh= 3.339E-05 alpha_mix =  0.700 |ddv_scf|^2 =  4.758E-09

      iter #   6 total cpu time :     6.7 secs   av.it.:   8.0
      thresh= 6.898E-06 alpha_mix =  0.700 |ddv_scf|^2 =  3.574E-09

      iter #   7 total cpu time :     6.9 secs   av.it.:   6.3
      thresh= 5.978E-06 alpha_mix =  0.700 |ddv_scf|^2 =  7.478E-10

      iter #   8 total cpu time :     7.1 secs   av.it.:   7.1
      thresh= 2.735E-06 alpha_mix =  0.700 |ddv_scf|^2 =  6.129E-12

      iter #   9 total cpu time :     7.4 secs   av.it.:   7.1
      thresh= 2.476E-07 alpha_mix =  0.700 |ddv_scf|^2 =  3.819E-13

     End of self-consistent calculation

     Convergence has been achieved 


     Representation #  2 mode #   2

     Self-consistent Calculation

      iter #   1 total cpu time :     7.6 secs   av.it.:   5.5
      thresh= 1.000E-02 alpha_mix =  0.700 |ddv_scf|^2 =  2.429E-03

      iter #   2 total cpu time :     8.0 secs   av.it.:   7.5
      thresh= 4.929E-03 alpha_mix =  0.700 |ddv_scf|^2 =  3.694E-02

      iter #   3 total cpu time :     8.2 secs   av.it.:   6.3
      thresh= 1.000E-02 alpha_mix =  0.700 |ddv_scf|^2 =  1.675E-06

      iter #   4 total cpu time :     8.5 secs   av.it.:   8.2
      thresh= 1.294E-04 alpha_mix =  0.700 |ddv_scf|^2 =  1.115E-07

      iter #   5 total cpu time :     8.8 secs   av.it.:   8.1
      thresh= 3.339E-05 alpha_mix =  0.700 |ddv_scf|^2 =  4.758E-09

      iter #   6 total cpu time :     9.0 secs   av.it.:   8.0
      thresh= 6.898E-06 alpha_mix =  0.700 |ddv_scf|^2 =  3.574E-09

      iter #   7 total cpu time :     9.2 secs   av.it.:   6.3
      thresh= 5.978E-06 alpha_mix =  0.700 |ddv_scf|^2 =  7.478E-10

      iter #   8 total cpu time :     9.5 secs   av.it.:   7.1
      thresh= 2.735E-06 alpha_mix =  0.700 |ddv_scf|^2 =  6.129E-12

      iter #   9 total cpu time :     9.8 secs   av.it.:   7.1
      thresh= 2.476E-07 alpha_mix =  0.700 |ddv_scf|^2 =  3.819E-13

     End of self-consistent calculation

     Convergence has been achieved 


     Representation #  3 modes #   3  4

     Self-consistent Calculation

      iter #   1 total cpu time :    10.3 secs   av.it.:   5.0
      thresh= 1.000E-02 alpha_mix =  0.700 |ddv_scf|^2 =  5.358E-07

      iter #   2 total cpu time :    10.9 secs   av.it.:   9.6
      thresh= 7.320E-05 alpha_mix =  0.700 |ddv_scf|^2 =  4.017E-08

      iter #   3 total cpu time :    11.4 secs   av.it.:   9.3
      thresh= 2.004E-05 alpha_mix =  0.700 |ddv_scf|^2 =  3.458E-09

      iter #   4 total cpu time :    12.2 secs   av.it.:   8.9
      thresh= 5.880E-06 alpha_mix =  0.700 |ddv_scf|^2 =  1.142E-11

      iter #   5 total cpu time :    12.7 secs   av.it.:   9.2
      thresh= 3.379E-07 alpha_mix =  0.700 |ddv_scf|^2 =  5.093E-13

     End of self-consistent calculation

     Convergence has been achieved 


     Representation #  4 modes #   5  6

     Self-consistent Calculation

      iter #   1 total cpu time :    13.1 secs   av.it.:   5.0
      thresh= 1.000E-02 alpha_mix =  0.700 |ddv_scf|^2 =  5.356E-07

      iter #   2 total cpu time :    13.8 secs   av.it.:   9.7
      thresh= 7.318E-05 alpha_mix =  0.700 |ddv_scf|^2 =  4.012E-08

      iter #   3 total cpu time :    14.4 secs   av.it.:   9.4
      thresh= 2.003E-05 alpha_mix =  0.700 |ddv_scf|^2 =  3.454E-09

      iter #   4 total cpu time :    15.0 secs   av.it.:   9.1
      thresh= 5.877E-06 alpha_mix =  0.700 |ddv_scf|^2 =  1.143E-11

      iter #   5 total cpu time :    15.6 secs   av.it.:   9.3
      thresh= 3.380E-07 alpha_mix =  0.700 |ddv_scf|^2 =  5.099E-13

     End of self-consistent calculation

     Convergence has been achieved 

     Number of q in the star =    8
     List of q in the star:
          1  -0.250000000   0.250000000  -0.250000000
          2   0.250000000  -0.250000000  -0.250000000
          3   0.250000000  -0.250000000   0.250000000
          4   0.250000000   0.250000000   0.250000000
          5  -0.250000000  -0.250000000  -0.250000000
          6  -0.250000000  -0.250000000   0.250000000
          7  -0.250000000   0.250000000   0.250000000
          8   0.250000000   0.250000000  -0.250000000

     Diagonalizing the dynamical matrix

     q = (   -0.250000000   0.250000000  -0.250000000 ) 

 **************************************************************************
     freq (    1) =       3.408427 [THz] =     113.692871 [cm-1]
     freq (    2) =       3.408427 [THz] =     113.692871 [cm-1]
     freq (    3) =       6.833444 [THz] =     227.939150 [cm-1]
     freq (    4) =      14.666667 [THz] =     489.227350 [cm-1]
     freq (    5) =      14.942801 [THz] =     498.438176 [cm-1]
     freq (    6) =      14.942801 [THz] =     498.438176 [cm-1]
 **************************************************************************

     Mode symmetry, C_3v (3m)   point group:

     freq (  1 -  2) =        113.7  [cm-1]   --> E    L_3           
     freq (  3 -  3) =        227.9  [cm-1]   --> A_1  L_1           
     freq (  4 -  4) =        489.2  [cm-1]   --> A_1  L_1           
     freq (  5 -  6) =        498.4  [cm-1]   --> E    L_3           

     Calculation of q =    0.5000000  -0.5000000   0.5000000

   Info: using nr1, nr2, nr3 values from input

   Info: using nr1, nr2, nr3 values from input

     Parallelization info
     --------------------
     sticks:   dense  smooth     PW     G-vecs:    dense   smooth      PW
     Min          66      66     27                  722      722     186
     Max          67      67     28                  724      724     189
     Sum         265     265    109                 2891     2891     749



     bravais-lattice index     =            2
     lattice parameter (alat)  =      10.4010  a.u.
     unit-cell volume          =     281.2971 (a.u.)^3
     number of atoms/cell      =            2
     number of atomic types    =            1
     number of electrons       =         8.00
     number of Kohn-Sham states=            4
     kinetic-energy cutoff     =      18.0000  Ry
     charge density cutoff     =      72.0000  Ry
     Exchange-correlation      = SLA  PW   PBE  PBE ( 1  4  3  4 0 0)

     celldm(1)=  10.401000  celldm(2)=   0.000000  celldm(3)=   0.000000
     celldm(4)=   0.000000  celldm(5)=   0.000000  celldm(6)=   0.000000

     crystal axes: (cart. coord. in units of alat)
               a(1) = (  -0.500000   0.000000   0.500000 )  
               a(2) = (   0.000000   0.500000   0.500000 )  
               a(3) = (  -0.500000   0.500000   0.000000 )  

     reciprocal axes: (cart. coord. in units 2 pi/alat)
               b(1) = ( -1.000000 -1.000000  1.000000 )  
               b(2) = (  1.000000  1.000000  1.000000 )  
               b(3) = ( -1.000000  1.000000 -1.000000 )  


     PseudoPot. # 1 for Si read from file:
     /home/max/quantum_espresso/qe-6.1/pseudo/si_pbe_v1.uspp.F.UPF.txt
     MD5 check sum: a056efeee980c13900f22a371efd63c1
     Pseudo is Ultrasoft + core correction, Zval =  4.0
     Generated by new atomic code, or converted to UPF format
     Using radial grid of  899 points,  6 beta functions with: 
                l(1) =   0
                l(2) =   0
                l(3) =   1
                l(4) =   1
                l(5) =   2
                l(6) =   2
     Q(r) pseudized with  8 coefficients,  rinner =    0.900   0.900   0.900
                                                       0.900   0.900

     atomic species   valence    mass     pseudopotential
        Si             4.00    28.08600     Si( 1.00)

     48 Sym. Ops., with inversion, found



   Cartesian axes

     site n.     atom                  positions (alat units)
         1           Si  tau(   1) = (   0.0000000   0.0000000   0.0000000  )
         2           Si  tau(   2) = (   0.2500000   0.2500000   0.2500000  )

     number of k points=    60
                       cart. coord. in units 2pi/alat
        k(    1) = (  -0.1250000   0.1250000   0.1250000), wk =   0.0468750
        k(    2) = (   0.3750000  -0.3750000   0.6250000), wk =   0.0000000
        k(    3) = (  -0.3750000   0.3750000  -0.1250000), wk =   0.0468750
        k(    4) = (   0.1250000  -0.1250000   0.3750000), wk =   0.0000000
        k(    5) = (   0.3750000  -0.3750000   0.6250000), wk =   0.0468750
        k(    6) = (   0.8750000  -0.8750000   1.1250000), wk =   0.0000000
        k(    7) = (   0.1250000  -0.1250000   0.3750000), wk =   0.0468750
        k(    8) = (   0.6250000  -0.6250000   0.8750000), wk =   0.0000000
        k(    9) = (  -0.1250000   0.6250000   0.1250000), wk =   0.0937500
        k(   10) = (   0.3750000   0.1250000   0.6250000), wk =   0.0000000
        k(   11) = (   0.6250000  -0.1250000   0.8750000), wk =   0.0937500
        k(   12) = (   1.1250000  -0.6250000   1.3750000), wk =   0.0000000
        k(   13) = (   0.3750000   0.1250000   0.6250000), wk =   0.0937500
        k(   14) = (   0.8750000  -0.3750000   1.1250000), wk =   0.0000000
        k(   15) = (  -0.1250000  -0.8750000   0.1250000), wk =   0.0937500
        k(   16) = (   0.3750000  -1.3750000   0.6250000), wk =   0.0000000
        k(   17) = (  -0.3750000   0.3750000   0.3750000), wk =   0.0468750
        k(   18) = (   0.1250000  -0.1250000   0.8750000), wk =   0.0000000
        k(   19) = (   0.3750000  -0.3750000   1.1250000), wk =   0.0468750
        k(   20) = (   0.8750000  -0.8750000   1.6250000), wk =   0.0000000
        k(   21) = (   0.1250000  -0.1250000   0.1250000), wk =   0.0156250
        k(   22) = (   0.6250000  -0.6250000   0.6250000), wk =   0.0000000
        k(   23) = (  -0.3750000  -0.3750000  -0.1250000), wk =   0.0937500
        k(   24) = (   0.1250000  -0.8750000   0.3750000), wk =   0.0000000
        k(   25) = (  -0.1250000  -0.3750000   0.3750000), wk =   0.0468750
        k(   26) = (   0.3750000  -0.8750000   0.8750000), wk =   0.0000000
        k(   27) = (   0.3750000   0.3750000   0.6250000), wk =   0.0937500
        k(   28) = (   0.8750000  -0.1250000   1.1250000), wk =   0.0000000
        k(   29) = (   0.6250000   0.3750000  -0.3750000), wk =   0.0468750
        k(   30) = (   1.1250000  -0.1250000   0.1250000), wk =   0.0000000
        k(   31) = (   0.1250000   0.1250000   0.3750000), wk =   0.0937500
        k(   32) = (   0.6250000  -0.3750000   0.8750000), wk =   0.0000000
        k(   33) = (   0.3750000   0.1250000  -0.1250000), wk =   0.0468750
        k(   34) = (   0.8750000  -0.3750000   0.3750000), wk =   0.0000000
        k(   35) = (  -0.1250000  -0.6250000  -0.1250000), wk =   0.0468750
        k(   36) = (   0.3750000  -1.1250000   0.3750000), wk =   0.0000000
        k(   37) = (   0.1250000  -0.6250000   0.1250000), wk =   0.0468750
        k(   38) = (   0.6250000  -1.1250000   0.6250000), wk =   0.0000000
        k(   39) = (   0.6250000   0.1250000   0.8750000), wk =   0.0937500
        k(   40) = (   1.1250000  -0.3750000   1.3750000), wk =   0.0000000
        k(   41) = (  -0.8750000   0.1250000   0.6250000), wk =   0.0937500
        k(   42) = (  -0.3750000  -0.3750000   1.1250000), wk =   0.0000000
        k(   43) = (   0.8750000   0.1250000  -0.6250000), wk =   0.0937500
        k(   44) = (   1.3750000  -0.3750000  -0.1250000), wk =   0.0000000
        k(   45) = (   0.3750000  -0.1250000   0.6250000), wk =   0.0937500
        k(   46) = (   0.8750000  -0.6250000   1.1250000), wk =   0.0000000
        k(   47) = (  -0.6250000  -0.1250000   0.3750000), wk =   0.0937500
        k(   48) = (  -0.1250000  -0.6250000   0.8750000), wk =   0.0000000
        k(   49) = (   0.6250000  -0.1250000  -0.3750000), wk =   0.0937500
        k(   50) = (   1.1250000  -0.6250000   0.1250000), wk =   0.0000000
        k(   51) = (  -0.1250000   0.8750000  -0.1250000), wk =   0.0468750
        k(   52) = (   0.3750000   0.3750000   0.3750000), wk =   0.0000000
        k(   53) = (   0.1250000   0.8750000   0.1250000), wk =   0.0468750
        k(   54) = (   0.6250000   0.3750000   0.6250000), wk =   0.0000000
        k(   55) = (   0.3750000  -0.3750000   0.3750000), wk =   0.0156250
        k(   56) = (   0.8750000  -0.8750000   0.8750000), wk =   0.0000000
        k(   57) = (   0.3750000   0.3750000   1.1250000), wk =   0.0937500
        k(   58) = (   0.8750000  -0.1250000   1.6250000), wk =   0.0000000
        k(   59) = (   1.1250000   0.3750000  -0.3750000), wk =   0.0468750
        k(   60) = (   1.6250000  -0.1250000   0.1250000), wk =   0.0000000

     Dense  grid:     2891 G-vectors     FFT dimensions: (  20,  20,  20)

     Estimated max dynamical RAM per process >       0.33MB

     Estimated total allocated dynamical RAM >       1.33MB

     Check: negative/imaginary core charge=   -0.000006    0.000000

     The potential is recalculated from file :
     ./_ph0/silicon.10.401.save/charge-density.dat

     Starting wfc are    8 atomic wfcs

     Band Structure Calculation
     Davidson diagonalization with overlap

     ethr =  1.25E-10,  avg # of iterations = 11.7

     total cpu time spent up to now is        1.5 secs

     End of band structure calculation

          k =-0.1250 0.1250 0.1250 (   353 PWs)   bands (ev):

    -5.7018   4.1960   5.5072   5.5072

          k = 0.3750-0.3750 0.6250 (   364 PWs)   bands (ev):

    -3.5865  -0.7933   3.5691   4.2766

          k =-0.3750 0.3750-0.1250 (   362 PWs)   bands (ev):

    -4.6959   1.2369   3.5596   5.0304

          k = 0.1250-0.1250 0.3750 (   358 PWs)   bands (ev):

    -5.1839   2.5869   4.5211   4.5735

          k = 0.3750-0.3750 0.6250 (   364 PWs)   bands (ev):

    -3.5865  -0.7933   3.5691   4.2766

          k = 0.8750-0.8750 1.1250 (   353 PWs)   bands (ev):

    -5.7018   4.1960   5.5072   5.5072

          k = 0.1250-0.1250 0.3750 (   358 PWs)   bands (ev):

    -5.1839   2.5869   4.5211   4.5735

          k = 0.6250-0.6250 0.8750 (   362 PWs)   bands (ev):

    -4.6959   1.2369   3.5596   5.0304

          k =-0.1250 0.6250 0.1250 (   357 PWs)   bands (ev):

    -4.1725   0.8815   3.2229   3.6628

          k = 0.3750 0.1250 0.6250 (   365 PWs)   bands (ev):

    -3.7683   0.0373   2.5913   3.9338

          k = 0.6250-0.1250 0.8750 (   368 PWs)   bands (ev):

    -2.5716  -1.0506   1.9078   2.9570

          k = 1.1250-0.6250 1.3750 (   362 PWs)   bands (ev):

    -4.6959   1.2369   3.5596   5.0304

          k = 0.3750 0.1250 0.6250 (   365 PWs)   bands (ev):

    -3.7683   0.0373   2.5913   3.9338

          k = 0.8750-0.3750 1.1250 (   357 PWs)   bands (ev):

    -4.1725   0.8815   3.2229   3.6628

          k =-0.1250-0.8750 0.1250 (   364 PWs)   bands (ev):

    -2.7298  -0.9578   2.5004   3.2038

          k = 0.3750-1.3750 0.6250 (   364 PWs)   bands (ev):

    -3.5865  -0.7933   3.5691   4.2766

          k =-0.3750 0.3750 0.3750 (   359 PWs)   bands (ev):

    -4.2739  -0.0185   4.7297   4.7297

          k = 0.1250-0.1250 0.8750 (   364 PWs)   bands (ev):

    -2.7298  -0.9578   2.5004   3.2038

          k = 0.3750-0.3750 1.1250 (   369 PWs)   bands (ev):

    -3.0998  -0.7350   1.9564   3.9671

          k = 0.8750-0.8750 1.6250 (   357 PWs)   bands (ev):

    -4.1725   0.8815   3.2229   3.6628

          k = 0.1250-0.1250 0.1250 (   353 PWs)   bands (ev):

    -5.7018   4.1960   5.5072   5.5072

          k = 0.6250-0.6250 0.6250 (   359 PWs)   bands (ev):

    -4.2739  -0.0185   4.7297   4.7297

          k =-0.3750-0.3750-0.1250 (   362 PWs)   bands (ev):

    -4.6959   1.2369   3.5596   5.0304

          k = 0.1250-0.8750 0.3750 (   368 PWs)   bands (ev):

    -2.5716  -1.0506   1.9078   2.9570

          k =-0.1250-0.3750 0.3750 (   362 PWs)   bands (ev):

    -4.6959   1.2369   3.5596   5.0304

          k = 0.3750-0.8750 0.8750 (   357 PWs)   bands (ev):

    -4.1725   0.8815   3.2229   3.6628

          k = 0.3750 0.3750 0.6250 (   364 PWs)   bands (ev):

    -3.5865  -0.7933   3.5691   4.2766

          k = 0.8750-0.1250 1.1250 (   364 PWs)   bands (ev):

    -2.7298  -0.9578   2.5004   3.2038

          k = 0.6250 0.3750-0.3750 (   364 PWs)   bands (ev):

    -3.5865  -0.7933   3.5691   4.2766

          k = 1.1250-0.1250 0.1250 (   364 PWs)   bands (ev):

    -2.7298  -0.9578   2.5004   3.2038

          k = 0.1250 0.1250 0.3750 (   358 PWs)   bands (ev):

    -5.1839   2.5869   4.5211   4.5735

          k = 0.6250-0.3750 0.8750 (   365 PWs)   bands (ev):

    -3.7683   0.0373   2.5913   3.9338

          k = 0.3750 0.1250-0.1250 (   358 PWs)   bands (ev):

    -5.1839   2.5869   4.5211   4.5735

          k = 0.8750-0.3750 0.3750 (   369 PWs)   bands (ev):

    -3.0998  -0.7350   1.9564   3.9671

          k =-0.1250-0.6250-0.1250 (   357 PWs)   bands (ev):

    -4.1725   0.8815   3.2229   3.6628

          k = 0.3750-1.1250 0.3750 (   369 PWs)   bands (ev):

    -3.0998  -0.7350   1.9564   3.9671

          k = 0.1250-0.6250 0.1250 (   357 PWs)   bands (ev):

    -4.1725   0.8815   3.2229   3.6628

          k = 0.6250-1.1250 0.6250 (   362 PWs)   bands (ev):

    -4.6959   1.2369   3.5596   5.0304

          k = 0.6250 0.1250 0.8750 (   368 PWs)   bands (ev):

    -2.5716  -1.0506   1.9078   2.9570

          k = 1.1250-0.3750 1.3750 (   365 PWs)   bands (ev):

    -3.7683   0.0373   2.5913   3.9338

          k =-0.8750 0.1250 0.6250 (   368 PWs)   bands (ev):

    -2.5716  -1.0506   1.9078   2.9570

          k =-0.3750-0.3750 1.1250 (   369 PWs)   bands (ev):

    -3.0998  -0.7350   1.9564   3.9671

          k = 0.8750 0.1250-0.6250 (   368 PWs)   bands (ev):

    -2.5716  -1.0506   1.9078   2.9570

          k = 1.3750-0.3750-0.1250 (   365 PWs)   bands (ev):

    -3.7683   0.0373   2.5913   3.9338

          k = 0.3750-0.1250 0.6250 (   365 PWs)   bands (ev):

    -3.7683   0.0373   2.5913   3.9338

          k = 0.8750-0.6250 1.1250 (   358 PWs)   bands (ev):

    -5.1839   2.5869   4.5211   4.5735

          k =-0.6250-0.1250 0.3750 (   365 PWs)   bands (ev):

    -3.7683   0.0373   2.5913   3.9338

          k =-0.1250-0.6250 0.8750 (   368 PWs)   bands (ev):

    -2.5716  -1.0506   1.9078   2.9570

          k = 0.6250-0.1250-0.3750 (   365 PWs)   bands (ev):

    -3.7683   0.0373   2.5913   3.9338

          k = 1.1250-0.6250 0.1250 (   368 PWs)   bands (ev):

    -2.5716  -1.0506   1.9078   2.9570

          k =-0.1250 0.8750-0.1250 (   364 PWs)   bands (ev):

    -2.7298  -0.9578   2.5004   3.2038

          k = 0.3750 0.3750 0.3750 (   359 PWs)   bands (ev):

    -4.2739  -0.0185   4.7297   4.7297

          k = 0.1250 0.8750 0.1250 (   364 PWs)   bands (ev):

    -2.7298  -0.9578   2.5004   3.2038

          k = 0.6250 0.3750 0.6250 (   364 PWs)   bands (ev):

    -3.5865  -0.7933   3.5691   4.2766

          k = 0.3750-0.3750 0.3750 (   359 PWs)   bands (ev):

    -4.2739  -0.0185   4.7297   4.7297

          k = 0.8750-0.8750 0.8750 (   353 PWs)   bands (ev):

    -5.7018   4.1960   5.5072   5.5072

          k = 0.3750 0.3750 1.1250 (   369 PWs)   bands (ev):

    -3.0998  -0.7350   1.9564   3.9671

          k = 0.8750-0.1250 1.6250 (   368 PWs)   bands (ev):

    -2.5716  -1.0506   1.9078   2.9570

          k = 1.1250 0.3750-0.3750 (   369 PWs)   bands (ev):

    -3.0998  -0.7350   1.9564   3.9671

          k = 1.6250-0.1250 0.1250 (   358 PWs)   bands (ev):

    -5.1839   2.5869   4.5211   4.5735

     highest occupied level (ev):     5.5072

     Writing output data file silicon.10.401.save

                                                                                

     bravais-lattice index     =            2
     lattice parameter (alat)  =      10.4010  a.u.
     unit-cell volume          =     281.2971 (a.u.)^3
     number of atoms/cell      =            2
     number of atomic types    =            1
     kinetic-energy cut-off    =      18.0000  Ry
     charge density cut-off    =      72.0000  Ry
     convergence threshold     =      1.0E-12
     beta                      =       0.7000
     number of iterations used =            4
     Exchange-correlation      = SLA  PW   PBE  PBE ( 1  4  3  4 0 0)


     celldm(1)=   10.40100  celldm(2)=    0.00000  celldm(3)=    0.00000
     celldm(4)=    0.00000  celldm(5)=    0.00000  celldm(6)=    0.00000

     crystal axes: (cart. coord. in units of alat)
               a(1) = ( -0.5000  0.0000  0.5000 )  
               a(2) = (  0.0000  0.5000  0.5000 )  
               a(3) = ( -0.5000  0.5000  0.0000 )  

     reciprocal axes: (cart. coord. in units 2 pi/alat)
               b(1) = ( -1.0000 -1.0000  1.0000 )  
               b(2) = (  1.0000  1.0000  1.0000 )  
               b(3) = ( -1.0000  1.0000 -1.0000 )  


     Atoms inside the unit cell: 

     Cartesian axes

     site n.  atom      mass           positions (alat units)
        1     Si  28.0860   tau(    1) = (    0.00000    0.00000    0.00000  )
        2     Si  28.0860   tau(    2) = (    0.25000    0.25000    0.25000  )

     Computing dynamical matrix for 
                    q = (   0.5000000  -0.5000000   0.5000000 )

     13 Sym.Ops. (with q -> -q+G )


     G cutoff =  197.2981  (    722 G-vectors)     FFT grid: ( 20, 20, 20)
     number of k points=    60

     PseudoPot. # 1 for Si read from file:
     /home/max/quantum_espresso/qe-6.1/pseudo/si_pbe_v1.uspp.F.UPF.txt
     MD5 check sum: a056efeee980c13900f22a371efd63c1
     Pseudo is Ultrasoft + core correction, Zval =  4.0
     Generated by new atomic code, or converted to UPF format
     Using radial grid of  899 points,  6 beta functions with: 
                l(1) =   0
                l(2) =   0
                l(3) =   1
                l(4) =   1
                l(5) =   2
                l(6) =   2
     Q(r) pseudized with  8 coefficients,  rinner =    0.900   0.900   0.900
                                                       0.900   0.900


     Atomic displacements:
     There are   4 irreducible representations

     Representation     1      1 modes -  To be done

     Representation     2      1 modes -  To be done

     Representation     3      2 modes -  To be done

     Representation     4      2 modes -  To be done



     Alpha used in Ewald sum =   0.7000
     PHONON       :    15.37s CPU        16.45s WALL



     Representation #  1 mode #   1

     Self-consistent Calculation

      iter #   1 total cpu time :    16.6 secs   av.it.:   4.8
      thresh= 1.000E-02 alpha_mix =  0.700 |ddv_scf|^2 =  2.430E-05

      iter #   2 total cpu time :    16.7 secs   av.it.:   8.4
      thresh= 4.930E-04 alpha_mix =  0.700 |ddv_scf|^2 =  2.220E-05

      iter #   3 total cpu time :    16.8 secs   av.it.:   7.5
      thresh= 4.711E-04 alpha_mix =  0.700 |ddv_scf|^2 =  3.811E-08

      iter #   4 total cpu time :    17.0 secs   av.it.:   7.6
      thresh= 1.952E-05 alpha_mix =  0.700 |ddv_scf|^2 =  1.694E-10

      iter #   5 total cpu time :    17.1 secs   av.it.:   7.7
      thresh= 1.302E-06 alpha_mix =  0.700 |ddv_scf|^2 =  4.391E-12

      iter #   6 total cpu time :    17.2 secs   av.it.:   7.5
      thresh= 2.096E-07 alpha_mix =  0.700 |ddv_scf|^2 =  7.198E-14

     End of self-consistent calculation

     Convergence has been achieved 


     Representation #  2 mode #   2

     Self-consistent Calculation

      iter #   1 total cpu time :    17.4 secs   av.it.:   5.7
      thresh= 1.000E-02 alpha_mix =  0.700 |ddv_scf|^2 =  3.436E-04

      iter #   2 total cpu time :    17.5 secs   av.it.:   8.3
      thresh= 1.854E-03 alpha_mix =  0.700 |ddv_scf|^2 =  1.061E-03

      iter #   3 total cpu time :    17.7 secs   av.it.:   7.1
      thresh= 3.257E-03 alpha_mix =  0.700 |ddv_scf|^2 =  1.549E-07

      iter #   4 total cpu time :    18.0 secs   av.it.:   8.2
      thresh= 3.935E-05 alpha_mix =  0.700 |ddv_scf|^2 =  1.047E-08

      iter #   5 total cpu time :    18.1 secs   av.it.:   8.4
      thresh= 1.023E-05 alpha_mix =  0.700 |ddv_scf|^2 =  2.210E-10

      iter #   6 total cpu time :    18.3 secs   av.it.:   8.1
      thresh= 1.487E-06 alpha_mix =  0.700 |ddv_scf|^2 =  4.620E-12

      iter #   7 total cpu time :    18.4 secs   av.it.:   7.4
      thresh= 2.149E-07 alpha_mix =  0.700 |ddv_scf|^2 =  4.130E-14

     End of self-consistent calculation

     Convergence has been achieved 


     Representation #  3 modes #   3  4

     Self-consistent Calculation

      iter #   1 total cpu time :    18.6 secs   av.it.:   4.7
      thresh= 1.000E-02 alpha_mix =  0.700 |ddv_scf|^2 =  3.414E-07

      iter #   2 total cpu time :    18.9 secs   av.it.:   9.0
      thresh= 5.843E-05 alpha_mix =  0.700 |ddv_scf|^2 =  2.944E-08

      iter #   3 total cpu time :    19.2 secs   av.it.:   8.4
      thresh= 1.716E-05 alpha_mix =  0.700 |ddv_scf|^2 =  5.119E-10

      iter #   4 total cpu time :    19.5 secs   av.it.:   8.9
      thresh= 2.263E-06 alpha_mix =  0.700 |ddv_scf|^2 =  6.443E-12

      iter #   5 total cpu time :    19.9 secs   av.it.:   8.7
      thresh= 2.538E-07 alpha_mix =  0.700 |ddv_scf|^2 =  3.592E-14

     End of self-consistent calculation

     Convergence has been achieved 


     Representation #  4 modes #   5  6

     Self-consistent Calculation

      iter #   1 total cpu time :    20.2 secs   av.it.:   4.9
      thresh= 1.000E-02 alpha_mix =  0.700 |ddv_scf|^2 =  9.416E-07

      iter #   2 total cpu time :    20.5 secs   av.it.:   9.5
      thresh= 9.704E-05 alpha_mix =  0.700 |ddv_scf|^2 =  7.486E-08

      iter #   3 total cpu time :    20.8 secs   av.it.:   9.3
      thresh= 2.736E-05 alpha_mix =  0.700 |ddv_scf|^2 =  4.471E-09

      iter #   4 total cpu time :    21.1 secs   av.it.:   8.5
      thresh= 6.686E-06 alpha_mix =  0.700 |ddv_scf|^2 =  6.522E-12

      iter #   5 total cpu time :    21.3 secs   av.it.:   8.8
      thresh= 2.554E-07 alpha_mix =  0.700 |ddv_scf|^2 =  2.546E-14

     End of self-consistent calculation

     Convergence has been achieved 

     Number of q in the star =    4
     List of q in the star:
          1   0.500000000  -0.500000000   0.500000000
          2   0.500000000   0.500000000   0.500000000
          3  -0.500000000   0.500000000   0.500000000
          4   0.500000000   0.500000000  -0.500000000

     Diagonalizing the dynamical matrix

     q = (    0.500000000  -0.500000000   0.500000000 ) 

 **************************************************************************
     freq (    1) =       5.101128 [THz] =     170.155326 [cm-1]
     freq (    2) =       5.101128 [THz] =     170.155326 [cm-1]
     freq (    3) =      11.927186 [THz] =     397.848102 [cm-1]
     freq (    4) =      12.178551 [THz] =     406.232743 [cm-1]
     freq (    5) =      14.709739 [THz] =     490.664071 [cm-1]
     freq (    6) =      14.709739 [THz] =     490.664071 [cm-1]
 **************************************************************************

     Calculation of q =    0.0000000   0.5000000   0.0000000

   Info: using nr1, nr2, nr3 values from input

   Info: using nr1, nr2, nr3 values from input

     Parallelization info
     --------------------
     sticks:   dense  smooth     PW     G-vecs:    dense   smooth      PW
     Min          66      66     27                  722      722     181
     Max          67      67     28                  724      724     182
     Sum         265     265    109                 2891     2891     725



     bravais-lattice index     =            2
     lattice parameter (alat)  =      10.4010  a.u.
     unit-cell volume          =     281.2971 (a.u.)^3
     number of atoms/cell      =            2
     number of atomic types    =            1
     number of electrons       =         8.00
     number of Kohn-Sham states=            4
     kinetic-energy cutoff     =      18.0000  Ry
     charge density cutoff     =      72.0000  Ry
     Exchange-correlation      = SLA  PW   PBE  PBE ( 1  4  3  4 0 0)

     celldm(1)=  10.401000  celldm(2)=   0.000000  celldm(3)=   0.000000
     celldm(4)=   0.000000  celldm(5)=   0.000000  celldm(6)=   0.000000

     crystal axes: (cart. coord. in units of alat)
               a(1) = (  -0.500000   0.000000   0.500000 )  
               a(2) = (   0.000000   0.500000   0.500000 )  
               a(3) = (  -0.500000   0.500000   0.000000 )  

     reciprocal axes: (cart. coord. in units 2 pi/alat)
               b(1) = ( -1.000000 -1.000000  1.000000 )  
               b(2) = (  1.000000  1.000000  1.000000 )  
               b(3) = ( -1.000000  1.000000 -1.000000 )  


     PseudoPot. # 1 for Si read from file:
     /home/max/quantum_espresso/qe-6.1/pseudo/si_pbe_v1.uspp.F.UPF.txt
     MD5 check sum: a056efeee980c13900f22a371efd63c1
     Pseudo is Ultrasoft + core correction, Zval =  4.0
     Generated by new atomic code, or converted to UPF format
     Using radial grid of  899 points,  6 beta functions with: 
                l(1) =   0
                l(2) =   0
                l(3) =   1
                l(4) =   1
                l(5) =   2
                l(6) =   2
     Q(r) pseudized with  8 coefficients,  rinner =    0.900   0.900   0.900
                                                       0.900   0.900

     atomic species   valence    mass     pseudopotential
        Si             4.00    28.08600     Si( 1.00)

     48 Sym. Ops., with inversion, found



   Cartesian axes

     site n.     atom                  positions (alat units)
         1           Si  tau(   1) = (   0.0000000   0.0000000   0.0000000  )
         2           Si  tau(   2) = (   0.2500000   0.2500000   0.2500000  )

     number of k points=    80
                       cart. coord. in units 2pi/alat
        k(    1) = (  -0.1250000   0.1250000   0.1250000), wk =   0.0312500
        k(    2) = (  -0.1250000   0.6250000   0.1250000), wk =   0.0000000
        k(    3) = (  -0.3750000   0.3750000  -0.1250000), wk =   0.0625000
        k(    4) = (  -0.3750000   0.8750000  -0.1250000), wk =   0.0000000
        k(    5) = (   0.3750000  -0.3750000   0.6250000), wk =   0.0625000
        k(    6) = (   0.3750000   0.1250000   0.6250000), wk =   0.0000000
        k(    7) = (   0.1250000  -0.1250000   0.3750000), wk =   0.0625000
        k(    8) = (   0.1250000   0.3750000   0.3750000), wk =   0.0000000
        k(    9) = (  -0.1250000   0.6250000   0.1250000), wk =   0.0312500
        k(   10) = (  -0.1250000   1.1250000   0.1250000), wk =   0.0000000
        k(   11) = (   0.6250000  -0.1250000   0.8750000), wk =   0.0625000
        k(   12) = (   0.6250000   0.3750000   0.8750000), wk =   0.0000000
        k(   13) = (   0.3750000   0.1250000   0.6250000), wk =   0.0625000
        k(   14) = (   0.3750000   0.6250000   0.6250000), wk =   0.0000000
        k(   15) = (  -0.1250000  -0.8750000   0.1250000), wk =   0.0312500
        k(   16) = (  -0.1250000  -0.3750000   0.1250000), wk =   0.0000000
        k(   17) = (  -0.3750000   0.3750000   0.3750000), wk =   0.0312500
        k(   18) = (  -0.3750000   0.8750000   0.3750000), wk =   0.0000000
        k(   19) = (   0.3750000  -0.3750000   1.1250000), wk =   0.0625000
        k(   20) = (   0.3750000   0.1250000   1.1250000), wk =   0.0000000
        k(   21) = (  -0.1250000  -0.1250000   0.1250000), wk =   0.0312500
        k(   22) = (  -0.1250000   0.3750000   0.1250000), wk =   0.0000000
        k(   23) = (   0.1250000  -0.3750000   0.3750000), wk =   0.0625000
        k(   24) = (   0.1250000   0.1250000   0.3750000), wk =   0.0000000
        k(   25) = (   0.3750000  -0.1250000   0.3750000), wk =   0.0312500
        k(   26) = (   0.3750000   0.3750000   0.3750000), wk =   0.0000000
        k(   27) = (   0.3750000   0.1250000   0.3750000), wk =   0.0312500
        k(   28) = (   0.3750000   0.6250000   0.3750000), wk =   0.0000000
        k(   29) = (  -0.6250000   0.3750000  -0.3750000), wk =   0.0625000
        k(   30) = (  -0.6250000   0.8750000  -0.3750000), wk =   0.0000000
        k(   31) = (  -0.3750000   0.6250000  -0.3750000), wk =   0.0312500
        k(   32) = (  -0.3750000   1.1250000  -0.3750000), wk =   0.0000000
        k(   33) = (  -0.3750000  -0.6250000  -0.3750000), wk =   0.0312500
        k(   34) = (  -0.3750000  -0.1250000  -0.3750000), wk =   0.0000000
        k(   35) = (  -0.3750000   0.1250000  -0.1250000), wk =   0.0625000
        k(   36) = (  -0.3750000   0.6250000  -0.1250000), wk =   0.0000000
        k(   37) = (  -0.1250000   0.3750000  -0.1250000), wk =   0.0312500
        k(   38) = (  -0.1250000   0.8750000  -0.1250000), wk =   0.0000000
        k(   39) = (  -0.1250000  -0.3750000  -0.1250000), wk =   0.0312500
        k(   40) = (  -0.1250000   0.1250000  -0.1250000), wk =   0.0000000
        k(   41) = (  -0.1250000  -0.6250000   0.1250000), wk =   0.0312500
        k(   42) = (  -0.1250000  -0.1250000   0.1250000), wk =   0.0000000
        k(   43) = (   0.6250000  -0.1250000  -0.1250000), wk =   0.0625000
        k(   44) = (   0.6250000   0.3750000  -0.1250000), wk =   0.0000000
        k(   45) = (   0.6250000   0.1250000   0.1250000), wk =   0.0625000
        k(   46) = (   0.6250000   0.6250000   0.1250000), wk =   0.0000000
        k(   47) = (  -0.8750000   0.1250000  -0.6250000), wk =   0.0625000
        k(   48) = (  -0.8750000   0.6250000  -0.6250000), wk =   0.0000000
        k(   49) = (  -0.1250000   0.6250000  -0.8750000), wk =   0.0625000
        k(   50) = (  -0.1250000   1.1250000  -0.8750000), wk =   0.0000000
        k(   51) = (  -0.1250000   0.8750000  -0.6250000), wk =   0.0625000
        k(   52) = (  -0.1250000   1.3750000  -0.6250000), wk =   0.0000000
        k(   53) = (  -0.1250000  -0.8750000  -0.6250000), wk =   0.0625000
        k(   54) = (  -0.1250000  -0.3750000  -0.6250000), wk =   0.0000000
        k(   55) = (   0.8750000  -0.6250000   0.1250000), wk =   0.0625000
        k(   56) = (   0.8750000  -0.1250000   0.1250000), wk =   0.0000000
        k(   57) = (  -0.6250000  -0.1250000  -0.3750000), wk =   0.0625000
        k(   58) = (  -0.6250000   0.3750000  -0.3750000), wk =   0.0000000
        k(   59) = (   0.1250000   0.3750000  -0.6250000), wk =   0.0625000
        k(   60) = (   0.1250000   0.8750000  -0.6250000), wk =   0.0000000
        k(   61) = (   0.1250000   0.6250000  -0.3750000), wk =   0.0625000
        k(   62) = (   0.1250000   1.1250000  -0.3750000), wk =   0.0000000
        k(   63) = (   0.1250000  -0.6250000  -0.3750000), wk =   0.0625000
        k(   64) = (   0.1250000  -0.1250000  -0.3750000), wk =   0.0000000
        k(   65) = (   0.6250000  -0.3750000  -0.1250000), wk =   0.0625000
        k(   66) = (   0.6250000   0.1250000  -0.1250000), wk =   0.0000000
        k(   67) = (  -0.1250000   0.8750000   0.1250000), wk =   0.0312500
        k(   68) = (  -0.1250000   1.3750000   0.1250000), wk =   0.0000000
        k(   69) = (  -0.8750000  -0.1250000  -0.1250000), wk =   0.0625000
        k(   70) = (  -0.8750000   0.3750000  -0.1250000), wk =   0.0000000
        k(   71) = (  -0.8750000   0.1250000   0.1250000), wk =   0.0625000
        k(   72) = (  -0.8750000   0.6250000   0.1250000), wk =   0.0000000
        k(   73) = (  -0.3750000  -0.3750000   0.3750000), wk =   0.0312500
        k(   74) = (  -0.3750000   0.1250000   0.3750000), wk =   0.0000000
        k(   75) = (  -1.1250000   0.3750000  -0.3750000), wk =   0.0625000
        k(   76) = (  -1.1250000   0.8750000  -0.3750000), wk =   0.0000000
        k(   77) = (  -0.3750000   1.1250000  -0.3750000), wk =   0.0312500
        k(   78) = (  -0.3750000   1.6250000  -0.3750000), wk =   0.0000000
        k(   79) = (  -0.3750000  -1.1250000  -0.3750000), wk =   0.0312500
        k(   80) = (  -0.3750000  -0.6250000  -0.3750000), wk =   0.0000000

     Dense  grid:     2891 G-vectors     FFT dimensions: (  20,  20,  20)

     Estimated max dynamical RAM per process >       0.33MB

     Estimated total allocated dynamical RAM >       1.33MB

     Check: negative/imaginary core charge=   -0.000006    0.000000

     The potential is recalculated from file :
     ./_ph0/silicon.10.401.save/charge-density.dat

     Starting wfc are    8 atomic wfcs

     Band Structure Calculation
     Davidson diagonalization with overlap

     ethr =  1.25E-10,  avg # of iterations = 11.7

     total cpu time spent up to now is        2.2 secs

     End of band structure calculation

          k =-0.1250 0.1250 0.1250 (   353 PWs)   bands (ev):

    -5.7018   4.1960   5.5072   5.5072

          k =-0.1250 0.6250 0.1250 (   357 PWs)   bands (ev):

    -4.1725   0.8815   3.2229   3.6628

          k =-0.3750 0.3750-0.1250 (   362 PWs)   bands (ev):

    -4.6959   1.2369   3.5596   5.0304

          k =-0.3750 0.8750-0.1250 (   368 PWs)   bands (ev):

    -2.5716  -1.0506   1.9078   2.9570

          k = 0.3750-0.3750 0.6250 (   364 PWs)   bands (ev):

    -3.5865  -0.7933   3.5691   4.2766

          k = 0.3750 0.1250 0.6250 (   365 PWs)   bands (ev):

    -3.7683   0.0373   2.5913   3.9338

          k = 0.1250-0.1250 0.3750 (   358 PWs)   bands (ev):

    -5.1839   2.5869   4.5211   4.5735

          k = 0.1250 0.3750 0.3750 (   362 PWs)   bands (ev):

    -4.6959   1.2369   3.5596   5.0304

          k =-0.1250 0.6250 0.1250 (   357 PWs)   bands (ev):

    -4.1725   0.8815   3.2229   3.6628

          k =-0.1250 1.1250 0.1250 (   364 PWs)   bands (ev):

    -2.7298  -0.9578   2.5004   3.2038

          k = 0.6250-0.1250 0.8750 (   368 PWs)   bands (ev):

    -2.5716  -1.0506   1.9078   2.9570

          k = 0.6250 0.3750 0.8750 (   365 PWs)   bands (ev):

    -3.7683   0.0373   2.5913   3.9338

          k = 0.3750 0.1250 0.6250 (   365 PWs)   bands (ev):

    -3.7683   0.0373   2.5913   3.9338

          k = 0.3750 0.6250 0.6250 (   364 PWs)   bands (ev):

    -3.5865  -0.7933   3.5691   4.2766

          k =-0.1250-0.8750 0.1250 (   364 PWs)   bands (ev):

    -2.7298  -0.9578   2.5004   3.2038

          k =-0.1250-0.3750 0.1250 (   358 PWs)   bands (ev):

    -5.1839   2.5869   4.5211   4.5735

          k =-0.3750 0.3750 0.3750 (   359 PWs)   bands (ev):

    -4.2739  -0.0185   4.7297   4.7297

          k =-0.3750 0.8750 0.3750 (   369 PWs)   bands (ev):

    -3.0998  -0.7350   1.9564   3.9671

          k = 0.3750-0.3750 1.1250 (   369 PWs)   bands (ev):

    -3.0998  -0.7350   1.9564   3.9671

          k = 0.3750 0.1250 1.1250 (   368 PWs)   bands (ev):

    -2.5716  -1.0506   1.9078   2.9570

          k =-0.1250-0.1250 0.1250 (   353 PWs)   bands (ev):

    -5.7018   4.1960   5.5072   5.5072

          k =-0.1250 0.3750 0.1250 (   358 PWs)   bands (ev):

    -5.1839   2.5869   4.5211   4.5735

          k = 0.1250-0.3750 0.3750 (   362 PWs)   bands (ev):

    -4.6959   1.2369   3.5596   5.0304

          k = 0.1250 0.1250 0.3750 (   358 PWs)   bands (ev):

    -5.1839   2.5869   4.5211   4.5735

          k = 0.3750-0.1250 0.3750 (   362 PWs)   bands (ev):

    -4.6959   1.2369   3.5596   5.0304

          k = 0.3750 0.3750 0.3750 (   359 PWs)   bands (ev):

    -4.2739  -0.0185   4.7297   4.7297

          k = 0.3750 0.1250 0.3750 (   362 PWs)   bands (ev):

    -4.6959   1.2369   3.5596   5.0304

          k = 0.3750 0.6250 0.3750 (   364 PWs)   bands (ev):

    -3.5865  -0.7933   3.5691   4.2766

          k =-0.6250 0.3750-0.3750 (   364 PWs)   bands (ev):

    -3.5865  -0.7933   3.5691   4.2766

          k =-0.6250 0.8750-0.3750 (   365 PWs)   bands (ev):

    -3.7683   0.0373   2.5913   3.9338

          k =-0.3750 0.6250-0.3750 (   364 PWs)   bands (ev):

    -3.5865  -0.7933   3.5691   4.2766

          k =-0.3750 1.1250-0.3750 (   369 PWs)   bands (ev):

    -3.0998  -0.7350   1.9564   3.9671

          k =-0.3750-0.6250-0.3750 (   364 PWs)   bands (ev):

    -3.5865  -0.7933   3.5691   4.2766

          k =-0.3750-0.1250-0.3750 (   362 PWs)   bands (ev):

    -4.6959   1.2369   3.5596   5.0304

          k =-0.3750 0.1250-0.1250 (   358 PWs)   bands (ev):

    -5.1839   2.5869   4.5211   4.5735

          k =-0.3750 0.6250-0.1250 (   365 PWs)   bands (ev):

    -3.7683   0.0373   2.5913   3.9338

          k =-0.1250 0.3750-0.1250 (   358 PWs)   bands (ev):

    -5.1839   2.5869   4.5211   4.5735

          k =-0.1250 0.8750-0.1250 (   364 PWs)   bands (ev):

    -2.7298  -0.9578   2.5004   3.2038

          k =-0.1250-0.3750-0.1250 (   358 PWs)   bands (ev):

    -5.1839   2.5869   4.5211   4.5735

          k =-0.1250 0.1250-0.1250 (   353 PWs)   bands (ev):

    -5.7018   4.1960   5.5072   5.5072

          k =-0.1250-0.6250 0.1250 (   357 PWs)   bands (ev):

    -4.1725   0.8815   3.2229   3.6628

          k =-0.1250-0.1250 0.1250 (   353 PWs)   bands (ev):

    -5.7018   4.1960   5.5072   5.5072

          k = 0.6250-0.1250-0.1250 (   357 PWs)   bands (ev):

    -4.1725   0.8815   3.2229   3.6628

          k = 0.6250 0.3750-0.1250 (   365 PWs)   bands (ev):

    -3.7683   0.0373   2.5913   3.9338

          k = 0.6250 0.1250 0.1250 (   357 PWs)   bands (ev):

    -4.1725   0.8815   3.2229   3.6628

          k = 0.6250 0.6250 0.1250 (   369 PWs)   bands (ev):

    -3.0998  -0.7350   1.9564   3.9671

          k =-0.8750 0.1250-0.6250 (   368 PWs)   bands (ev):

    -2.5716  -1.0506   1.9078   2.9570

          k =-0.8750 0.6250-0.6250 (   362 PWs)   bands (ev):

    -4.6959   1.2369   3.5596   5.0304

          k =-0.1250 0.6250-0.8750 (   368 PWs)   bands (ev):

    -2.5716  -1.0506   1.9078   2.9570

          k =-0.1250 1.1250-0.8750 (   364 PWs)   bands (ev):

    -2.7298  -0.9578   2.5004   3.2038

          k =-0.1250 0.8750-0.6250 (   368 PWs)   bands (ev):

    -2.5716  -1.0506   1.9078   2.9570

          k =-0.1250 1.3750-0.6250 (   369 PWs)   bands (ev):

    -3.0998  -0.7350   1.9564   3.9671

          k =-0.1250-0.8750-0.6250 (   368 PWs)   bands (ev):

    -2.5716  -1.0506   1.9078   2.9570

          k =-0.1250-0.3750-0.6250 (   365 PWs)   bands (ev):

    -3.7683   0.0373   2.5913   3.9338

          k = 0.8750-0.6250 0.1250 (   368 PWs)   bands (ev):

    -2.5716  -1.0506   1.9078   2.9570

          k = 0.8750-0.1250 0.1250 (   364 PWs)   bands (ev):

    -2.7298  -0.9578   2.5004   3.2038

          k =-0.6250-0.1250-0.3750 (   365 PWs)   bands (ev):

    -3.7683   0.0373   2.5913   3.9338

          k =-0.6250 0.3750-0.3750 (   364 PWs)   bands (ev):

    -3.5865  -0.7933   3.5691   4.2766

          k = 0.1250 0.3750-0.6250 (   365 PWs)   bands (ev):

    -3.7683   0.0373   2.5913   3.9338

          k = 0.1250 0.8750-0.6250 (   368 PWs)   bands (ev):

    -2.5716  -1.0506   1.9078   2.9570

          k = 0.1250 0.6250-0.3750 (   365 PWs)   bands (ev):

    -3.7683   0.0373   2.5913   3.9338

          k = 0.1250 1.1250-0.3750 (   368 PWs)   bands (ev):

    -2.5716  -1.0506   1.9078   2.9570

          k = 0.1250-0.6250-0.3750 (   365 PWs)   bands (ev):

    -3.7683   0.0373   2.5913   3.9338

          k = 0.1250-0.1250-0.3750 (   358 PWs)   bands (ev):

    -5.1839   2.5869   4.5211   4.5735

          k = 0.6250-0.3750-0.1250 (   365 PWs)   bands (ev):

    -3.7683   0.0373   2.5913   3.9338

          k = 0.6250 0.1250-0.1250 (   357 PWs)   bands (ev):

    -4.1725   0.8815   3.2229   3.6628

          k =-0.1250 0.8750 0.1250 (   364 PWs)   bands (ev):

    -2.7298  -0.9578   2.5004   3.2038

          k =-0.1250 1.3750 0.1250 (   357 PWs)   bands (ev):

    -4.1725   0.8815   3.2229   3.6628

          k =-0.8750-0.1250-0.1250 (   364 PWs)   bands (ev):

    -2.7298  -0.9578   2.5004   3.2038

          k =-0.8750 0.3750-0.1250 (   368 PWs)   bands (ev):

    -2.5716  -1.0506   1.9078   2.9570

          k =-0.8750 0.1250 0.1250 (   364 PWs)   bands (ev):

    -2.7298  -0.9578   2.5004   3.2038

          k =-0.8750 0.6250 0.1250 (   368 PWs)   bands (ev):

    -2.5716  -1.0506   1.9078   2.9570

          k =-0.3750-0.3750 0.3750 (   359 PWs)   bands (ev):

    -4.2739  -0.0185   4.7297   4.7297

          k =-0.3750 0.1250 0.3750 (   362 PWs)   bands (ev):

    -4.6959   1.2369   3.5596   5.0304

          k =-1.1250 0.3750-0.3750 (   369 PWs)   bands (ev):

    -3.0998  -0.7350   1.9564   3.9671

          k =-1.1250 0.8750-0.3750 (   357 PWs)   bands (ev):

    -4.1725   0.8815   3.2229   3.6628

          k =-0.3750 1.1250-0.3750 (   369 PWs)   bands (ev):

    -3.0998  -0.7350   1.9564   3.9671

          k =-0.3750 1.6250-0.3750 (   359 PWs)   bands (ev):

    -4.2739  -0.0185   4.7297   4.7297

          k =-0.3750-1.1250-0.3750 (   369 PWs)   bands (ev):

    -3.0998  -0.7350   1.9564   3.9671

          k =-0.3750-0.6250-0.3750 (   364 PWs)   bands (ev):

    -3.5865  -0.7933   3.5691   4.2766

     highest occupied level (ev):     5.5072

     Writing output data file silicon.10.401.save

                                                                                

     bravais-lattice index     =            2
     lattice parameter (alat)  =      10.4010  a.u.
     unit-cell volume          =     281.2971 (a.u.)^3
     number of atoms/cell      =            2
     number of atomic types    =            1
     kinetic-energy cut-off    =      18.0000  Ry
     charge density cut-off    =      72.0000  Ry
     convergence threshold     =      1.0E-12
     beta                      =       0.7000
     number of iterations used =            4
     Exchange-correlation      = SLA  PW   PBE  PBE ( 1  4  3  4 0 0)


     celldm(1)=   10.40100  celldm(2)=    0.00000  celldm(3)=    0.00000
     celldm(4)=    0.00000  celldm(5)=    0.00000  celldm(6)=    0.00000

     crystal axes: (cart. coord. in units of alat)
               a(1) = ( -0.5000  0.0000  0.5000 )  
               a(2) = (  0.0000  0.5000  0.5000 )  
               a(3) = ( -0.5000  0.5000  0.0000 )  

     reciprocal axes: (cart. coord. in units 2 pi/alat)
               b(1) = ( -1.0000 -1.0000  1.0000 )  
               b(2) = (  1.0000  1.0000  1.0000 )  
               b(3) = ( -1.0000  1.0000 -1.0000 )  


     Atoms inside the unit cell: 

     Cartesian axes

     site n.  atom      mass           positions (alat units)
        1     Si  28.0860   tau(    1) = (    0.00000    0.00000    0.00000  )
        2     Si  28.0860   tau(    2) = (    0.25000    0.25000    0.25000  )

     Computing dynamical matrix for 
                    q = (   0.0000000   0.5000000   0.0000000 )

      8 Sym.Ops. (no q -> -q+G )


     G cutoff =  197.2981  (    722 G-vectors)     FFT grid: ( 20, 20, 20)
     number of k points=    80

     PseudoPot. # 1 for Si read from file:
     /home/max/quantum_espresso/qe-6.1/pseudo/si_pbe_v1.uspp.F.UPF.txt
     MD5 check sum: a056efeee980c13900f22a371efd63c1
     Pseudo is Ultrasoft + core correction, Zval =  4.0
     Generated by new atomic code, or converted to UPF format
     Using radial grid of  899 points,  6 beta functions with: 
                l(1) =   0
                l(2) =   0
                l(3) =   1
                l(4) =   1
                l(5) =   2
                l(6) =   2
     Q(r) pseudized with  8 coefficients,  rinner =    0.900   0.900   0.900
                                                       0.900   0.900

     Mode symmetry, C_4v (4mm)  point group:


     Atomic displacements:
     There are   4 irreducible representations

     Representation     1      1 modes -A_1  G_1 D_1  To be done

     Representation     2      1 modes -B_2  G_4 D_2'  To be done

     Representation     3      2 modes -E    G_5 D_5  To be done

     Representation     4      2 modes -E    G_5 D_5  To be done



     Alpha used in Ewald sum =   0.7000
     PHONON       :    20.90s CPU        22.38s WALL



     Representation #  1 mode #   1

     Self-consistent Calculation

      iter #   1 total cpu time :    22.5 secs   av.it.:   5.8
      thresh= 1.000E-02 alpha_mix =  0.700 |ddv_scf|^2 =  2.926E-03

      iter #   2 total cpu time :    22.7 secs   av.it.:   7.7
      thresh= 5.409E-03 alpha_mix =  0.700 |ddv_scf|^2 =  3.886E-02

      iter #   3 total cpu time :    22.9 secs   av.it.:   6.8
      thresh= 1.000E-02 alpha_mix =  0.700 |ddv_scf|^2 =  1.431E-07

      iter #   4 total cpu time :    23.1 secs   av.it.:   8.2
      thresh= 3.783E-05 alpha_mix =  0.700 |ddv_scf|^2 =  1.703E-08

      iter #   5 total cpu time :    23.2 secs   av.it.:   7.7
      thresh= 1.305E-05 alpha_mix =  0.700 |ddv_scf|^2 =  7.369E-10

      iter #   6 total cpu time :    23.4 secs   av.it.:   7.9
      thresh= 2.715E-06 alpha_mix =  0.700 |ddv_scf|^2 =  3.486E-12

      iter #   7 total cpu time :    23.6 secs   av.it.:   7.8
      thresh= 1.867E-07 alpha_mix =  0.700 |ddv_scf|^2 =  5.846E-13

     End of self-consistent calculation

     Convergence has been achieved 


     Representation #  2 mode #   2

     Self-consistent Calculation

      iter #   1 total cpu time :    23.9 secs   av.it.:   4.9
      thresh= 1.000E-02 alpha_mix =  0.700 |ddv_scf|^2 =  5.154E-06

      iter #   2 total cpu time :    24.1 secs   av.it.:   8.7
      thresh= 2.270E-04 alpha_mix =  0.700 |ddv_scf|^2 =  1.342E-06

      iter #   3 total cpu time :    24.3 secs   av.it.:   8.6
      thresh= 1.159E-04 alpha_mix =  0.700 |ddv_scf|^2 =  3.180E-08

      iter #   4 total cpu time :    24.5 secs   av.it.:   8.2
      thresh= 1.783E-05 alpha_mix =  0.700 |ddv_scf|^2 =  7.941E-10

      iter #   5 total cpu time :    24.7 secs   av.it.:   8.5
      thresh= 2.818E-06 alpha_mix =  0.700 |ddv_scf|^2 =  9.993E-12

      iter #   6 total cpu time :    24.8 secs   av.it.:   7.7
      thresh= 3.161E-07 alpha_mix =  0.700 |ddv_scf|^2 =  8.572E-14

     End of self-consistent calculation

     Convergence has been achieved 


     Representation #  3 modes #   3  4

     Self-consistent Calculation

      iter #   1 total cpu time :    25.1 secs   av.it.:   5.0
      thresh= 1.000E-02 alpha_mix =  0.700 |ddv_scf|^2 =  9.392E-07

      iter #   2 total cpu time :    25.5 secs   av.it.:   9.8
      thresh= 9.691E-05 alpha_mix =  0.700 |ddv_scf|^2 =  1.192E-07

      iter #   3 total cpu time :    26.1 secs   av.it.:   9.5
      thresh= 3.453E-05 alpha_mix =  0.700 |ddv_scf|^2 =  4.935E-09

      iter #   4 total cpu time :    26.5 secs   av.it.:   8.9
      thresh= 7.025E-06 alpha_mix =  0.700 |ddv_scf|^2 =  8.834E-12

      iter #   5 total cpu time :    26.9 secs   av.it.:   9.1
      thresh= 2.972E-07 alpha_mix =  0.700 |ddv_scf|^2 =  3.018E-13

     End of self-consistent calculation

     Convergence has been achieved 


     Representation #  4 modes #   5  6

     Self-consistent Calculation

      iter #   1 total cpu time :    27.2 secs   av.it.:   5.0
      thresh= 1.000E-02 alpha_mix =  0.700 |ddv_scf|^2 =  9.427E-07

      iter #   2 total cpu time :    27.6 secs   av.it.:   9.8
      thresh= 9.709E-05 alpha_mix =  0.700 |ddv_scf|^2 =  1.197E-07

      iter #   3 total cpu time :    28.1 secs   av.it.:   9.5
      thresh= 3.459E-05 alpha_mix =  0.700 |ddv_scf|^2 =  7.359E-09

      iter #   4 total cpu time :    28.5 secs   av.it.:   8.9
      thresh= 8.579E-06 alpha_mix =  0.700 |ddv_scf|^2 =  1.548E-11

      iter #   5 total cpu time :    28.9 secs   av.it.:   9.2
      thresh= 3.934E-07 alpha_mix =  0.700 |ddv_scf|^2 =  4.588E-14

     End of self-consistent calculation

     Convergence has been achieved 

     Number of q in the star =    6
     List of q in the star:
          1   0.000000000   0.500000000   0.000000000
          2   0.000000000  -0.500000000   0.000000000
          3   0.500000000   0.000000000   0.000000000
          4   0.000000000   0.000000000   0.500000000
          5   0.000000000   0.000000000  -0.500000000
          6  -0.500000000   0.000000000   0.000000000

     Diagonalizing the dynamical matrix

     q = (    0.000000000   0.500000000   0.000000000 ) 

 **************************************************************************
     freq (    1) =       4.408332 [THz] =     147.046143 [cm-1]
     freq (    2) =       4.408332 [THz] =     147.046143 [cm-1]
     freq (    3) =       7.019125 [THz] =     234.132805 [cm-1]
     freq (    4) =      14.217484 [THz] =     474.244232 [cm-1]
     freq (    5) =      14.217484 [THz] =     474.244232 [cm-1]
     freq (    6) =      14.923551 [THz] =     497.796082 [cm-1]
 **************************************************************************

     Mode symmetry, C_4v (4mm)  point group:

     freq (  1 -  2) =        147.0  [cm-1]   --> E    G_5 D_5       
     freq (  3 -  3) =        234.1  [cm-1]   --> A_1  G_1 D_1       
     freq (  4 -  5) =        474.2  [cm-1]   --> E    G_5 D_5       
     freq (  6 -  6) =        497.8  [cm-1]   --> B_2  G_4 D_2'      

     Calculation of q =    0.7500000  -0.2500000   0.7500000

   Info: using nr1, nr2, nr3 values from input

   Info: using nr1, nr2, nr3 values from input

     Parallelization info
     --------------------
     sticks:   dense  smooth     PW     G-vecs:    dense   smooth      PW
     Min          65      65     30                  722      722     216
     Max          67      67     31                  723      723     218
     Sum         265     265    121                 2891     2891     869



     bravais-lattice index     =            2
     lattice parameter (alat)  =      10.4010  a.u.
     unit-cell volume          =     281.2971 (a.u.)^3
     number of atoms/cell      =            2
     number of atomic types    =            1
     number of electrons       =         8.00
     number of Kohn-Sham states=            4
     kinetic-energy cutoff     =      18.0000  Ry
     charge density cutoff     =      72.0000  Ry
     Exchange-correlation      = SLA  PW   PBE  PBE ( 1  4  3  4 0 0)

     celldm(1)=  10.401000  celldm(2)=   0.000000  celldm(3)=   0.000000
     celldm(4)=   0.000000  celldm(5)=   0.000000  celldm(6)=   0.000000

     crystal axes: (cart. coord. in units of alat)
               a(1) = (  -0.500000   0.000000   0.500000 )  
               a(2) = (   0.000000   0.500000   0.500000 )  
               a(3) = (  -0.500000   0.500000   0.000000 )  

     reciprocal axes: (cart. coord. in units 2 pi/alat)
               b(1) = ( -1.000000 -1.000000  1.000000 )  
               b(2) = (  1.000000  1.000000  1.000000 )  
               b(3) = ( -1.000000  1.000000 -1.000000 )  


     PseudoPot. # 1 for Si read from file:
     /home/max/quantum_espresso/qe-6.1/pseudo/si_pbe_v1.uspp.F.UPF.txt
     MD5 check sum: a056efeee980c13900f22a371efd63c1
     Pseudo is Ultrasoft + core correction, Zval =  4.0
     Generated by new atomic code, or converted to UPF format
     Using radial grid of  899 points,  6 beta functions with: 
                l(1) =   0
                l(2) =   0
                l(3) =   1
                l(4) =   1
                l(5) =   2
                l(6) =   2
     Q(r) pseudized with  8 coefficients,  rinner =    0.900   0.900   0.900
                                                       0.900   0.900

     atomic species   valence    mass     pseudopotential
        Si             4.00    28.08600     Si( 1.00)

     48 Sym. Ops., with inversion, found



   Cartesian axes

     site n.     atom                  positions (alat units)
         1           Si  tau(   1) = (   0.0000000   0.0000000   0.0000000  )
         2           Si  tau(   2) = (   0.2500000   0.2500000   0.2500000  )

     number of k points=   288

     Number of k-points >= 100: set verbosity='high' to print them.

     Dense  grid:     2891 G-vectors     FFT dimensions: (  20,  20,  20)

     Estimated max dynamical RAM per process >       0.33MB

     Estimated total allocated dynamical RAM >       1.33MB

     Check: negative/imaginary core charge=   -0.000006    0.000000

     The potential is recalculated from file :
     ./_ph0/silicon.10.401.save/charge-density.dat

     Starting wfc are    8 atomic wfcs

     Band Structure Calculation
     Davidson diagonalization with overlap

     ethr =  1.25E-10,  avg # of iterations = 11.6

     total cpu time spent up to now is        4.2 secs

     End of band structure calculation

     Number of k-points >= 100: set verbosity='high' to print the bands.

     highest occupied level (ev):     5.5072

     Writing output data file silicon.10.401.save

                                                                                

     bravais-lattice index     =            2
     lattice parameter (alat)  =      10.4010  a.u.
     unit-cell volume          =     281.2971 (a.u.)^3
     number of atoms/cell      =            2
     number of atomic types    =            1
     kinetic-energy cut-off    =      18.0000  Ry
     charge density cut-off    =      72.0000  Ry
     convergence threshold     =      1.0E-12
     beta                      =       0.7000
     number of iterations used =            4
     Exchange-correlation      = SLA  PW   PBE  PBE ( 1  4  3  4 0 0)


     celldm(1)=   10.40100  celldm(2)=    0.00000  celldm(3)=    0.00000
     celldm(4)=    0.00000  celldm(5)=    0.00000  celldm(6)=    0.00000

     crystal axes: (cart. coord. in units of alat)
               a(1) = ( -0.5000  0.0000  0.5000 )  
               a(2) = (  0.0000  0.5000  0.5000 )  
               a(3) = ( -0.5000  0.5000  0.0000 )  

     reciprocal axes: (cart. coord. in units 2 pi/alat)
               b(1) = ( -1.0000 -1.0000  1.0000 )  
               b(2) = (  1.0000  1.0000  1.0000 )  
               b(3) = ( -1.0000  1.0000 -1.0000 )  


     Atoms inside the unit cell: 

     Cartesian axes

     site n.  atom      mass           positions (alat units)
        1     Si  28.0860   tau(    1) = (    0.00000    0.00000    0.00000  )
        2     Si  28.0860   tau(    2) = (    0.25000    0.25000    0.25000  )

     Computing dynamical matrix for 
                    q = (   0.7500000  -0.2500000   0.7500000 )

      2 Sym.Ops. (no q -> -q+G )


     G cutoff =  197.2981  (    723 G-vectors)     FFT grid: ( 20, 20, 20)
     number of k points=   288

     PseudoPot. # 1 for Si read from file:
     /home/max/quantum_espresso/qe-6.1/pseudo/si_pbe_v1.uspp.F.UPF.txt
     MD5 check sum: a056efeee980c13900f22a371efd63c1
     Pseudo is Ultrasoft + core correction, Zval =  4.0
     Generated by new atomic code, or converted to UPF format
     Using radial grid of  899 points,  6 beta functions with: 
                l(1) =   0
                l(2) =   0
                l(3) =   1
                l(4) =   1
                l(5) =   2
                l(6) =   2
     Q(r) pseudized with  8 coefficients,  rinner =    0.900   0.900   0.900
                                                       0.900   0.900

     Mode symmetry, C_s (m)     point group:


     Atomic displacements:
     There are   6 irreducible representations

     Representation     1      1 modes -A'  To be done

     Representation     2      1 modes -A'  To be done

     Representation     3      1 modes -A'  To be done

     Representation     4      1 modes -A'  To be done

     Representation     5      1 modes -A''  To be done

     Representation     6      1 modes -A''  To be done



     Alpha used in Ewald sum =   0.7000
     PHONON       :    29.60s CPU        31.63s WALL



     Representation #  1 mode #   1

     Self-consistent Calculation

      iter #   1 total cpu time :    32.3 secs   av.it.:   5.3
      thresh= 1.000E-02 alpha_mix =  0.700 |ddv_scf|^2 =  6.052E-05

      iter #   2 total cpu time :    32.9 secs   av.it.:   8.9
      thresh= 7.779E-04 alpha_mix =  0.700 |ddv_scf|^2 =  1.611E-04

      iter #   3 total cpu time :    33.5 secs   av.it.:   7.6
      thresh= 1.269E-03 alpha_mix =  0.700 |ddv_scf|^2 =  1.128E-06

      iter #   4 total cpu time :    34.3 secs   av.it.:   8.4
      thresh= 1.062E-04 alpha_mix =  0.700 |ddv_scf|^2 =  5.894E-08

      iter #   5 total cpu time :    34.9 secs   av.it.:   8.3
      thresh= 2.428E-05 alpha_mix =  0.700 |ddv_scf|^2 =  7.426E-09

      iter #   6 total cpu time :    35.6 secs   av.it.:   8.5
      thresh= 8.618E-06 alpha_mix =  0.700 |ddv_scf|^2 =  1.055E-10

      iter #   7 total cpu time :    36.4 secs   av.it.:   8.7
      thresh= 1.027E-06 alpha_mix =  0.700 |ddv_scf|^2 =  3.684E-12

      iter #   8 total cpu time :    37.1 secs   av.it.:   8.6
      thresh= 1.919E-07 alpha_mix =  0.700 |ddv_scf|^2 =  2.546E-13

     End of self-consistent calculation

     Convergence has been achieved 


     Representation #  2 mode #   2

     Self-consistent Calculation

      iter #   1 total cpu time :    37.6 secs   av.it.:   5.4
      thresh= 1.000E-02 alpha_mix =  0.700 |ddv_scf|^2 =  1.086E-04

      iter #   2 total cpu time :    38.4 secs   av.it.:   8.7
      thresh= 1.042E-03 alpha_mix =  0.700 |ddv_scf|^2 =  3.113E-04

      iter #   3 total cpu time :    39.0 secs   av.it.:   7.4
      thresh= 1.764E-03 alpha_mix =  0.700 |ddv_scf|^2 =  8.228E-07

      iter #   4 total cpu time :    39.7 secs   av.it.:   8.5
      thresh= 9.071E-05 alpha_mix =  0.700 |ddv_scf|^2 =  5.572E-08

      iter #   5 total cpu time :    40.5 secs   av.it.:   8.3
      thresh= 2.360E-05 alpha_mix =  0.700 |ddv_scf|^2 =  1.077E-08

      iter #   6 total cpu time :    41.1 secs   av.it.:   8.5
      thresh= 1.038E-05 alpha_mix =  0.700 |ddv_scf|^2 =  1.163E-10

      iter #   7 total cpu time :    41.9 secs   av.it.:   8.6
      thresh= 1.078E-06 alpha_mix =  0.700 |ddv_scf|^2 =  3.133E-12

      iter #   8 total cpu time :    42.6 secs   av.it.:   8.6
      thresh= 1.770E-07 alpha_mix =  0.700 |ddv_scf|^2 =  8.512E-13

     End of self-consistent calculation

     Convergence has been achieved 


     Representation #  3 mode #   3

     Self-consistent Calculation

      iter #   1 total cpu time :    43.1 secs   av.it.:   5.3
      thresh= 1.000E-02 alpha_mix =  0.700 |ddv_scf|^2 =  8.546E-05

      iter #   2 total cpu time :    43.9 secs   av.it.:   8.7
      thresh= 9.244E-04 alpha_mix =  0.700 |ddv_scf|^2 =  2.280E-04

      iter #   3 total cpu time :    44.5 secs   av.it.:   7.4
      thresh= 1.510E-03 alpha_mix =  0.700 |ddv_scf|^2 =  1.400E-06

      iter #   4 total cpu time :    45.1 secs   av.it.:   8.2
      thresh= 1.183E-04 alpha_mix =  0.700 |ddv_scf|^2 =  5.855E-08

      iter #   5 total cpu time :    45.9 secs   av.it.:   8.4
      thresh= 2.420E-05 alpha_mix =  0.700 |ddv_scf|^2 =  1.095E-08

      iter #   6 total cpu time :    46.6 secs   av.it.:   8.5
      thresh= 1.046E-05 alpha_mix =  0.700 |ddv_scf|^2 =  7.109E-11

      iter #   7 total cpu time :    47.2 secs   av.it.:   8.6
      thresh= 8.432E-07 alpha_mix =  0.700 |ddv_scf|^2 =  2.552E-12

      iter #   8 total cpu time :    48.1 secs   av.it.:   8.7
      thresh= 1.598E-07 alpha_mix =  0.700 |ddv_scf|^2 =  7.691E-13

     End of self-consistent calculation

     Convergence has been achieved 


     Representation #  4 mode #   4

     Self-consistent Calculation

      iter #   1 total cpu time :    48.6 secs   av.it.:   5.2
      thresh= 1.000E-02 alpha_mix =  0.700 |ddv_scf|^2 =  3.737E-05

      iter #   2 total cpu time :    49.3 secs   av.it.:   9.0
[...]
        k(   59) = (  -0.8750000   0.1250000  -0.1250000), wk =   0.0625000
        k(   60) = (  -1.3750000  -0.8750000  -0.1250000), wk =   0.0000000
        k(   61) = (  -1.1250000   0.3750000  -0.3750000), wk =   0.0625000
        k(   62) = (  -1.6250000  -0.6250000  -0.3750000), wk =   0.0000000
        k(   63) = (  -0.3750000   0.3750000   1.1250000), wk =   0.0625000
        k(   64) = (  -0.8750000  -0.6250000   1.1250000), wk =   0.0000000

     Dense  grid:     2891 G-vectors     FFT dimensions: (  20,  20,  20)

     Estimated max dynamical RAM per process >       0.33MB

     Estimated total allocated dynamical RAM >       1.33MB

     Check: negative/imaginary core charge=   -0.000006    0.000000

     The potential is recalculated from file :
     ./_ph0/silicon.10.401.save/charge-density.dat

     Starting wfc are    8 atomic wfcs

     Band Structure Calculation
     Davidson diagonalization with overlap

     ethr =  1.25E-10,  avg # of iterations = 11.6

     total cpu time spent up to now is        6.4 secs

     End of band structure calculation

          k =-0.1250 0.1250 0.1250 (   353 PWs)   bands (ev):

    -5.7018   4.1960   5.5072   5.5072

          k =-0.6250-0.8750 0.1250 (   368 PWs)   bands (ev):

    -2.5716  -1.0506   1.9078   2.9570

          k =-0.3750 0.3750-0.1250 (   362 PWs)   bands (ev):

    -4.6959   1.2369   3.5596   5.0304

          k =-0.8750-0.6250-0.1250 (   368 PWs)   bands (ev):

    -2.5716  -1.0506   1.9078   2.9570

          k = 0.3750-0.3750 0.6250 (   364 PWs)   bands (ev):

    -3.5865  -0.7933   3.5691   4.2766

          k =-0.1250-1.3750 0.6250 (   369 PWs)   bands (ev):

    -3.0998  -0.7350   1.9564   3.9671

          k = 0.1250-0.1250 0.3750 (   358 PWs)   bands (ev):

    -5.1839   2.5869   4.5211   4.5735

          k =-0.3750-1.1250 0.3750 (   369 PWs)   bands (ev):

    -3.0998  -0.7350   1.9564   3.9671

          k =-0.1250 0.6250 0.1250 (   357 PWs)   bands (ev):

    -4.1725   0.8815   3.2229   3.6628

          k =-0.6250-0.3750 0.1250 (   365 PWs)   bands (ev):

    -3.7683   0.0373   2.5913   3.9338

          k = 0.6250-0.1250 0.8750 (   368 PWs)   bands (ev):

    -2.5716  -1.0506   1.9078   2.9570

          k = 0.1250-1.1250 0.8750 (   364 PWs)   bands (ev):

    -2.7298  -0.9578   2.5004   3.2038

          k = 0.3750 0.1250 0.6250 (   365 PWs)   bands (ev):

    -3.7683   0.0373   2.5913   3.9338

          k =-0.1250-0.8750 0.6250 (   368 PWs)   bands (ev):

    -2.5716  -1.0506   1.9078   2.9570

          k =-0.1250-0.8750 0.1250 (   364 PWs)   bands (ev):

    -2.7298  -0.9578   2.5004   3.2038

          k =-0.6250-1.8750 0.1250 (   357 PWs)   bands (ev):

    -4.1725   0.8815   3.2229   3.6628

          k =-0.3750 0.3750 0.3750 (   359 PWs)   bands (ev):

    -4.2739  -0.0185   4.7297   4.7297

          k =-0.8750-0.6250 0.3750 (   365 PWs)   bands (ev):

    -3.7683   0.0373   2.5913   3.9338

          k = 0.3750-0.3750 1.1250 (   369 PWs)   bands (ev):

    -3.0998  -0.7350   1.9564   3.9671

          k =-0.1250-1.3750 1.1250 (   368 PWs)   bands (ev):

    -2.5716  -1.0506   1.9078   2.9570

          k = 0.1250-0.3750 0.3750 (   362 PWs)   bands (ev):

    -4.6959   1.2369   3.5596   5.0304

          k =-0.3750-1.3750 0.3750 (   364 PWs)   bands (ev):

    -3.5865  -0.7933   3.5691   4.2766

          k = 0.3750-0.3750-0.1250 (   362 PWs)   bands (ev):

    -4.6959   1.2369   3.5596   5.0304

          k =-0.1250-1.3750-0.1250 (   357 PWs)   bands (ev):

    -4.1725   0.8815   3.2229   3.6628

          k =-0.6250 0.3750-0.3750 (   364 PWs)   bands (ev):

    -3.5865  -0.7933   3.5691   4.2766

          k =-1.1250-0.6250-0.3750 (   365 PWs)   bands (ev):

    -3.7683   0.0373   2.5913   3.9338

          k =-0.3750 0.3750 0.6250 (   364 PWs)   bands (ev):

    -3.5865  -0.7933   3.5691   4.2766

          k =-0.8750-0.6250 0.6250 (   362 PWs)   bands (ev):

    -4.6959   1.2369   3.5596   5.0304

          k =-0.3750 0.1250-0.1250 (   358 PWs)   bands (ev):

    -5.1839   2.5869   4.5211   4.5735

          k =-0.8750-0.8750-0.1250 (   364 PWs)   bands (ev):

    -2.7298  -0.9578   2.5004   3.2038

          k =-0.1250 0.1250 0.3750 (   358 PWs)   bands (ev):

    -5.1839   2.5869   4.5211   4.5735

          k =-0.6250-0.8750 0.3750 (   365 PWs)   bands (ev):

    -3.7683   0.0373   2.5913   3.9338

          k = 0.1250 0.6250-0.1250 (   357 PWs)   bands (ev):

    -4.1725   0.8815   3.2229   3.6628

          k =-0.3750-0.3750-0.1250 (   362 PWs)   bands (ev):

    -4.6959   1.2369   3.5596   5.0304

          k = 0.6250 0.1250-0.1250 (   357 PWs)   bands (ev):

    -4.1725   0.8815   3.2229   3.6628

          k = 0.1250-0.8750-0.1250 (   364 PWs)   bands (ev):

    -2.7298  -0.9578   2.5004   3.2038

          k =-0.8750 0.1250-0.6250 (   368 PWs)   bands (ev):

    -2.5716  -1.0506   1.9078   2.9570

          k =-1.3750-0.8750-0.6250 (   362 PWs)   bands (ev):

    -4.6959   1.2369   3.5596   5.0304

          k = 0.8750-0.1250 0.6250 (   368 PWs)   bands (ev):

    -2.5716  -1.0506   1.9078   2.9570

          k = 0.3750-1.1250 0.6250 (   365 PWs)   bands (ev):

    -3.7683   0.0373   2.5913   3.9338

          k =-0.6250 0.1250 0.8750 (   368 PWs)   bands (ev):

    -2.5716  -1.0506   1.9078   2.9570

          k =-1.1250-0.8750 0.8750 (   353 PWs)   bands (ev):

    -5.7018   4.1960   5.5072   5.5072

          k =-0.1250 0.8750 0.6250 (   368 PWs)   bands (ev):

    -2.5716  -1.0506   1.9078   2.9570

          k =-0.6250-0.1250 0.6250 (   369 PWs)   bands (ev):

    -3.0998  -0.7350   1.9564   3.9671

          k = 0.1250 0.8750-0.6250 (   368 PWs)   bands (ev):

    -2.5716  -1.0506   1.9078   2.9570

          k =-0.3750-0.1250-0.6250 (   365 PWs)   bands (ev):

    -3.7683   0.0373   2.5913   3.9338

          k =-0.6250-0.1250-0.3750 (   365 PWs)   bands (ev):

    -3.7683   0.0373   2.5913   3.9338

          k =-1.1250-1.1250-0.3750 (   357 PWs)   bands (ev):

    -4.1725   0.8815   3.2229   3.6628

          k = 0.6250 0.1250 0.3750 (   365 PWs)   bands (ev):

    -3.7683   0.0373   2.5913   3.9338

          k = 0.1250-0.8750 0.3750 (   368 PWs)   bands (ev):

    -2.5716  -1.0506   1.9078   2.9570

          k =-0.3750-0.1250 0.6250 (   365 PWs)   bands (ev):

    -3.7683   0.0373   2.5913   3.9338

          k =-0.8750-1.1250 0.6250 (   358 PWs)   bands (ev):

    -5.1839   2.5869   4.5211   4.5735

          k = 0.1250 0.6250 0.3750 (   365 PWs)   bands (ev):

    -3.7683   0.0373   2.5913   3.9338

          k =-0.3750-0.3750 0.3750 (   359 PWs)   bands (ev):

    -4.2739  -0.0185   4.7297   4.7297

          k =-0.1250 0.6250-0.3750 (   365 PWs)   bands (ev):

    -3.7683   0.0373   2.5913   3.9338

          k =-0.6250-0.3750-0.3750 (   364 PWs)   bands (ev):

    -3.5865  -0.7933   3.5691   4.2766

          k = 0.1250-0.8750-0.1250 (   364 PWs)   bands (ev):

    -2.7298  -0.9578   2.5004   3.2038

          k =-0.3750-1.8750-0.1250 (   358 PWs)   bands (ev):

    -5.1839   2.5869   4.5211   4.5735

          k =-0.8750 0.1250-0.1250 (   364 PWs)   bands (ev):

    -2.7298  -0.9578   2.5004   3.2038

          k =-1.3750-0.8750-0.1250 (   368 PWs)   bands (ev):

    -2.5716  -1.0506   1.9078   2.9570

          k =-1.1250 0.3750-0.3750 (   369 PWs)   bands (ev):

    -3.0998  -0.7350   1.9564   3.9671

          k =-1.6250-0.6250-0.3750 (   364 PWs)   bands (ev):

    -3.5865  -0.7933   3.5691   4.2766

          k =-0.3750 0.3750 1.1250 (   369 PWs)   bands (ev):

    -3.0998  -0.7350   1.9564   3.9671

          k =-0.8750-0.6250 1.1250 (   358 PWs)   bands (ev):

    -5.1839   2.5869   4.5211   4.5735

     highest occupied level (ev):     5.5072

     Writing output data file silicon.10.401.save

                                                                                

     bravais-lattice index     =            2
     lattice parameter (alat)  =      10.4010  a.u.
     unit-cell volume          =     281.2971 (a.u.)^3
     number of atoms/cell      =            2
     number of atomic types    =            1
     kinetic-energy cut-off    =      18.0000  Ry
     charge density cut-off    =      72.0000  Ry
     convergence threshold     =      1.0E-12
     beta                      =       0.7000
     number of iterations used =            4
     Exchange-correlation      = SLA  PW   PBE  PBE ( 1  4  3  4 0 0)


     celldm(1)=   10.40100  celldm(2)=    0.00000  celldm(3)=    0.00000
     celldm(4)=    0.00000  celldm(5)=    0.00000  celldm(6)=    0.00000

     crystal axes: (cart. coord. in units of alat)
               a(1) = ( -0.5000  0.0000  0.5000 )  
               a(2) = (  0.0000  0.5000  0.5000 )  
               a(3) = ( -0.5000  0.5000  0.0000 )  

     reciprocal axes: (cart. coord. in units 2 pi/alat)
               b(1) = ( -1.0000 -1.0000  1.0000 )  
               b(2) = (  1.0000  1.0000  1.0000 )  
               b(3) = ( -1.0000  1.0000 -1.0000 )  


     Atoms inside the unit cell: 

     Cartesian axes

     site n.  atom      mass           positions (alat units)
        1     Si  28.0860   tau(    1) = (    0.00000    0.00000    0.00000  )
        2     Si  28.0860   tau(    2) = (    0.25000    0.25000    0.25000  )

     Computing dynamical matrix for 
                    q = (  -0.5000000  -1.0000000   0.0000000 )

      8 Sym.Ops. (no q -> -q+G )


     G cutoff =  197.2981  (    722 G-vectors)     FFT grid: ( 20, 20, 20)
     number of k points=    64

     PseudoPot. # 1 for Si read from file:
     /home/max/quantum_espresso/qe-6.1/pseudo/si_pbe_v1.uspp.F.UPF.txt
     MD5 check sum: a056efeee980c13900f22a371efd63c1
     Pseudo is Ultrasoft + core correction, Zval =  4.0
     Generated by new atomic code, or converted to UPF format
     Using radial grid of  899 points,  6 beta functions with: 
                l(1) =   0
                l(2) =   0
                l(3) =   1
                l(4) =   1
                l(5) =   2
                l(6) =   2
     Q(r) pseudized with  8 coefficients,  rinner =    0.900   0.900   0.900
                                                       0.900   0.900


     Atomic displacements:
     There are   3 irreducible representations

     Representation     1      2 modes -  To be done

     Representation     2      2 modes -  To be done

     Representation     3      2 modes -  To be done



     Alpha used in Ewald sum =   0.7000
     PHONON       :  1m13.97s CPU     1m19.24s WALL



     Representation #  1 modes #   1  2

     Self-consistent Calculation

      iter #   1 total cpu time :    79.5 secs   av.it.:   5.3
      thresh= 1.000E-02 alpha_mix =  0.700 |ddv_scf|^2 =  6.460E-06

      iter #   2 total cpu time :    80.0 secs   av.it.:   9.8
      thresh= 2.542E-04 alpha_mix =  0.700 |ddv_scf|^2 =  3.474E-06

      iter #   3 total cpu time :    80.3 secs   av.it.:   9.3
      thresh= 1.864E-04 alpha_mix =  0.700 |ddv_scf|^2 =  8.563E-09

      iter #   4 total cpu time :    80.6 secs   av.it.:   9.1
      thresh= 9.253E-06 alpha_mix =  0.700 |ddv_scf|^2 =  4.119E-11

      iter #   5 total cpu time :    80.9 secs   av.it.:   8.8
      thresh= 6.418E-07 alpha_mix =  0.700 |ddv_scf|^2 =  7.745E-13

     End of self-consistent calculation

     Convergence has been achieved 


     Representation #  2 modes #   3  4

     Self-consistent Calculation

      iter #   1 total cpu time :    81.2 secs   av.it.:   5.3
      thresh= 1.000E-02 alpha_mix =  0.700 |ddv_scf|^2 =  9.700E-06

      iter #   2 total cpu time :    81.5 secs   av.it.:   9.9
      thresh= 3.114E-04 alpha_mix =  0.700 |ddv_scf|^2 =  1.319E-05

      iter #   3 total cpu time :    82.0 secs   av.it.:   9.1
      thresh= 3.632E-04 alpha_mix =  0.700 |ddv_scf|^2 =  1.018E-08

      iter #   4 total cpu time :    82.3 secs   av.it.:   8.9
      thresh= 1.009E-05 alpha_mix =  0.700 |ddv_scf|^2 =  9.690E-11

      iter #   5 total cpu time :    82.6 secs   av.it.:   9.4
      thresh= 9.844E-07 alpha_mix =  0.700 |ddv_scf|^2 =  1.859E-12

      iter #   6 total cpu time :    82.9 secs   av.it.:   9.1
      thresh= 1.363E-07 alpha_mix =  0.700 |ddv_scf|^2 =  1.616E-14

     End of self-consistent calculation

     Convergence has been achieved 


     Representation #  3 modes #   5  6

     Self-consistent Calculation

      iter #   1 total cpu time :    83.1 secs   av.it.:   5.1
      thresh= 1.000E-02 alpha_mix =  0.700 |ddv_scf|^2 =  2.655E-06

      iter #   2 total cpu time :    83.5 secs   av.it.:   9.7
      thresh= 1.629E-04 alpha_mix =  0.700 |ddv_scf|^2 =  1.463E-06

      iter #   3 total cpu time :    83.9 secs   av.it.:   9.0
      thresh= 1.210E-04 alpha_mix =  0.700 |ddv_scf|^2 =  8.073E-09

      iter #   4 total cpu time :    84.2 secs   av.it.:   8.7
      thresh= 8.985E-06 alpha_mix =  0.700 |ddv_scf|^2 =  5.679E-11

      iter #   5 total cpu time :    84.6 secs   av.it.:   9.0
      thresh= 7.536E-07 alpha_mix =  0.700 |ddv_scf|^2 =  7.933E-13

     End of self-consistent calculation

     Convergence has been achieved 

     Number of q in the star =    6
     List of q in the star:
          1  -0.500000000  -1.000000000   0.000000000
          2   0.000000000   1.000000000   0.500000000
          3   0.000000000  -1.000000000  -0.500000000
          4   0.500000000   1.000000000   0.000000000
          5  -1.000000000  -0.500000000   0.000000000
          6   0.000000000  -0.500000000  -1.000000000

     Diagonalizing the dynamical matrix

     q = (   -0.500000000  -1.000000000   0.000000000 ) 

 **************************************************************************
     freq (    1) =       7.803196 [THz] =     260.286613 [cm-1]
     freq (    2) =       7.803196 [THz] =     260.286613 [cm-1]
     freq (    3) =      11.024671 [THz] =     367.743425 [cm-1]
     freq (    4) =      11.024671 [THz] =     367.743425 [cm-1]
     freq (    5) =      13.758261 [THz] =     458.926182 [cm-1]
     freq (    6) =      13.758261 [THz] =     458.926182 [cm-1]
 **************************************************************************

     init_run     :      0.52s CPU      0.54s WALL (       7 calls)
     electrons    :      4.71s CPU      5.07s WALL (       7 calls)

     Called by init_run:
     wfcinit      :      0.00s CPU      0.00s WALL (       7 calls)
     potinit      :      0.02s CPU      0.02s WALL (       7 calls)

     Called by electrons:
     c_bands      :      4.70s CPU      5.06s WALL (       7 calls)
     v_of_rho     :      0.02s CPU      0.02s WALL (       8 calls)
     newd         :      0.03s CPU      0.03s WALL (       8 calls)

     Called by c_bands:
     init_us_2    :      0.68s CPU      0.73s WALL (   17588 calls)
     cegterg      :      3.95s CPU      4.25s WALL (     796 calls)

     Called by sum_band:

     Called by *egterg:
     h_psi        :     43.31s CPU     46.31s WALL (  152135 calls)
     s_psi        :      5.82s CPU      6.22s WALL (  308990 calls)
     g_psi        :      0.03s CPU      0.03s WALL (    9268 calls)
     cdiaghg      :      0.46s CPU      0.52s WALL (   10064 calls)

     Called by h_psi:
     h_psi:pot    :     43.12s CPU     46.11s WALL (  152135 calls)
     h_psi:calbec :      4.56s CPU      4.93s WALL (  152135 calls)
     vloc_psi     :     35.44s CPU     37.90s WALL (  152135 calls)
     add_vuspsi   :      2.91s CPU      3.06s WALL (  152135 calls)

     General routines
     calbec       :     10.01s CPU     10.85s WALL (  345362 calls)
     fft          :      0.41s CPU      0.48s WALL (    5239 calls)
     ffts         :      0.13s CPU      0.14s WALL (    2748 calls)
     fftw         :     41.06s CPU     43.93s WALL ( 1377884 calls)
     davcio       :      0.31s CPU      0.34s WALL (   79045 calls)

     Parallel routines
     fft_scatter  :      9.33s CPU     10.38s WALL ( 1385871 calls)

     PHONON       :  1m18.95s CPU     1m24.58s WALL

     INITIALIZATION: 
     phq_setup    :      0.05s CPU      0.05s WALL (       8 calls)
     phq_init     :      1.93s CPU      1.97s WALL (       8 calls)

     phq_init     :      1.93s CPU      1.97s WALL (       8 calls)
     set_drhoc    :      0.29s CPU      0.29s WALL (      24 calls)
     init_vloc    :      0.01s CPU      0.01s WALL (       8 calls)
     init_us_1    :      0.47s CPU      0.48s WALL (       8 calls)
     newd         :      0.03s CPU      0.03s WALL (       8 calls)
     dvanqq       :      0.23s CPU      0.24s WALL (       8 calls)
     drho         :      0.98s CPU      1.00s WALL (       8 calls)

     DYNAMICAL MATRIX:
     dynmat0      :      0.48s CPU      0.49s WALL (       8 calls)
     phqscf       :     69.22s CPU     74.28s WALL (       8 calls)
     dynmatrix    :      0.01s CPU      0.02s WALL (       8 calls)

     phqscf       :     69.22s CPU     74.28s WALL (       8 calls)
     solve_linter :     68.45s CPU     73.41s WALL (      32 calls)
     drhodv       :      0.53s CPU      0.54s WALL (      32 calls)

     dynmat0      :      0.48s CPU      0.49s WALL (       8 calls)
     dynmat_us    :      0.26s CPU      0.27s WALL (       8 calls)
     d2ionq       :      0.01s CPU      0.01s WALL (       8 calls)
     dynmatcc     :      0.21s CPU      0.21s WALL (       8 calls)

     dynmat_us    :      0.26s CPU      0.27s WALL (       8 calls)
     addusdynmat  :      0.00s CPU      0.00s WALL (       8 calls)

     phqscf       :     69.22s CPU     74.28s WALL (       8 calls)
     solve_linter :     68.45s CPU     73.41s WALL (      32 calls)

     solve_linter :     68.45s CPU     73.41s WALL (      32 calls)
     dvqpsi_us    :      1.60s CPU      1.68s WALL (    2508 calls)
     ortho        :      1.07s CPU      1.14s WALL (   15550 calls)
     cgsolve      :     53.64s CPU     57.51s WALL (   15550 calls)
     incdrhoscf   :      4.61s CPU      4.95s WALL (   15550 calls)
     addusddens   :      1.17s CPU      1.25s WALL (     228 calls)
     vpsifft      :      3.39s CPU      3.63s WALL (   12922 calls)
     dv_of_drho   :      0.20s CPU      0.21s WALL (     295 calls)
     mix_pot      :      0.06s CPU      0.06s WALL (     201 calls)
     psymdvscf    :      0.79s CPU      0.83s WALL (     196 calls)
     newdq        :      1.25s CPU      1.36s WALL (     201 calls)
     adddvscf     :      0.46s CPU      0.49s WALL (   13042 calls)
     drhodvus     :      0.00s CPU      0.00s WALL (      32 calls)

     dvqpsi_us    :      1.60s CPU      1.68s WALL (    2508 calls)
     dvqpsi_us_on :      0.82s CPU      0.86s WALL (    2508 calls)

     cgsolve      :     53.64s CPU     57.51s WALL (   15550 calls)
     ch_psi       :     51.77s CPU     55.45s WALL (  141275 calls)

     ch_psi       :     51.77s CPU     55.45s WALL (  141275 calls)
     h_psi        :     43.31s CPU     46.31s WALL (  152135 calls)
     last         :      8.67s CPU      9.38s WALL (  141275 calls)

     h_psi        :     43.31s CPU     46.31s WALL (  152135 calls)
     add_vuspsi   :      2.91s CPU      3.06s WALL (  152135 calls)

     incdrhoscf   :      4.61s CPU      4.95s WALL (   15550 calls)
     addusdbec    :      0.62s CPU      0.67s WALL (   17998 calls)

     drhodvus     :      0.00s CPU      0.00s WALL (      32 calls)

      General routines
     calbec       :     10.01s CPU     10.85s WALL (  345362 calls)
     fft          :      0.41s CPU      0.48s WALL (    5239 calls)
     ffts         :      0.13s CPU      0.14s WALL (    2748 calls)
     fftw         :     41.06s CPU     43.93s WALL ( 1377884 calls)
     davcio       :      0.31s CPU      0.34s WALL (   79045 calls)
     write_rec    :      0.21s CPU      0.22s WALL (     233 calls)


     PHONON       :  1m18.95s CPU     1m24.58s WALL


   This run was terminated on:  17:36:59   9Nov2017            

=------------------------------------------------------------------------------=
   JOB DONE.
=------------------------------------------------------------------------------=
