
     Program PWSCF v.6.1 (svn rev. 13369) starts on 10Nov2017 at 10:31: 4 

     This program is part of the open-source Quantum ESPRESSO suite
     for quantum simulation of materials; please cite
         "P. Giannozzi et al., J. Phys.:Condens. Matter 21 395502 (2009);
          URL http://www.quantum-espresso.org", 
     in publications or presentations arising from this work. More details at
     http://www.quantum-espresso.org/quote

     Parallel version (MPI), running on     4 processors
     R & G space division:  proc/nbgrp/npool/nimage =       4
     Waiting for input...
     Reading input from standard input
     Message from routine read_cards :
     DEPRECATED: no units specified in ATOMIC_POSITIONS card
     Message from routine read_cards :
     ATOMIC_POSITIONS: units set to alat

     Current dimensions of program PWSCF are:
     Max number of different atomic species (ntypx) = 10
     Max number of k-points (npk) =  40000
     Max angular momentum in pseudopotentials (lmaxx) =  3

     Subspace diagonalization in iterative solution of the eigenvalue problem:
     a serial algorithm will be used


     Parallelization info
     --------------------
     sticks:   dense  smooth     PW     G-vecs:    dense   smooth      PW
     Min         217     109     37                 4288     1520     301
     Max         219     111     38                 4289     1521     304
     Sum         871     439    151                17153     6081    1211



     bravais-lattice index     =            2
     lattice parameter (alat)  =      10.3160  a.u.
     unit-cell volume          =     274.4568 (a.u.)^3
     number of atoms/cell      =            2
     number of atomic types    =            1
     number of electrons       =         8.00
     number of Kohn-Sham states=            4
     kinetic-energy cutoff     =      30.0000  Ry
     charge density cutoff     =     240.0000  Ry
     convergence threshold     =      1.0E-08
     mixing beta               =       0.7000
     number of iterations used =            8  plain     mixing
     Exchange-correlation      = SLA  PW   PBE  PBE ( 1  4  3  4 0 0)

     celldm(1)=  10.316000  celldm(2)=   0.000000  celldm(3)=   0.000000
     celldm(4)=   0.000000  celldm(5)=   0.000000  celldm(6)=   0.000000

     crystal axes: (cart. coord. in units of alat)
               a(1) = (  -0.500000   0.000000   0.500000 )  
               a(2) = (   0.000000   0.500000   0.500000 )  
               a(3) = (  -0.500000   0.500000   0.000000 )  

     reciprocal axes: (cart. coord. in units 2 pi/alat)
               b(1) = ( -1.000000 -1.000000  1.000000 )  
               b(2) = (  1.000000  1.000000  1.000000 )  
               b(3) = ( -1.000000  1.000000 -1.000000 )  


     PseudoPot. # 1 for Si read from file:
     /home/max/quantum_espresso/qe-6.1/pseudo/si_pbe_v1.uspp.F.UPF.txt
     MD5 check sum: a056efeee980c13900f22a371efd63c1
     Pseudo is Ultrasoft + core correction, Zval =  4.0
     Generated by new atomic code, or converted to UPF format
     Using radial grid of  899 points,  6 beta functions with: 
                l(1) =   0
                l(2) =   0
                l(3) =   1
                l(4) =   1
                l(5) =   2
                l(6) =   2
     Q(r) pseudized with  8 coefficients,  rinner =    0.900   0.900   0.900
                                                       0.900   0.900

     atomic species   valence    mass     pseudopotential
        Si             4.00    28.08600     Si( 1.00)

     48 Sym. Ops., with inversion, found (24 have fractional translation)



   Cartesian axes

     site n.     atom                  positions (alat units)
         1           Si  tau(   1) = (   0.0000000   0.0000000   0.0000000  )
         2           Si  tau(   2) = (   0.2500000   0.2500000   0.2500000  )

     number of k points=    28
                       cart. coord. in units 2pi/alat
        k(    1) = (  -0.0833333   0.0833333   0.0833333), wk =   0.0185185
        k(    2) = (  -0.2500000   0.2500000  -0.0833333), wk =   0.0555556
        k(    3) = (  -0.4166667   0.4166667  -0.2500000), wk =   0.0555556
        k(    4) = (   0.4166667  -0.4166667   0.5833333), wk =   0.0555556
        k(    5) = (   0.2500000  -0.2500000   0.4166667), wk =   0.0555556
        k(    6) = (   0.0833333  -0.0833333   0.2500000), wk =   0.0555556
        k(    7) = (  -0.0833333   0.4166667   0.0833333), wk =   0.0555556
        k(    8) = (  -0.2500000   0.5833333  -0.0833333), wk =   0.1111111
        k(    9) = (   0.5833333  -0.2500000   0.7500000), wk =   0.1111111
        k(   10) = (   0.4166667  -0.0833333   0.5833333), wk =   0.1111111
        k(   11) = (   0.2500000   0.0833333   0.4166667), wk =   0.1111111
        k(   12) = (  -0.0833333   0.7500000   0.0833333), wk =   0.0555556
        k(   13) = (   0.7500000  -0.0833333   0.9166667), wk =   0.1111111
        k(   14) = (   0.5833333   0.0833333   0.7500000), wk =   0.1111111
        k(   15) = (   0.4166667   0.2500000   0.5833333), wk =   0.1111111
        k(   16) = (  -0.0833333  -0.9166667   0.0833333), wk =   0.0555556
        k(   17) = (  -0.2500000  -0.7500000  -0.0833333), wk =   0.1111111
        k(   18) = (  -0.0833333  -0.5833333   0.0833333), wk =   0.0555556
        k(   19) = (  -0.2500000   0.2500000   0.2500000), wk =   0.0185185
        k(   20) = (  -0.4166667   0.4166667   0.0833333), wk =   0.0555556
        k(   21) = (   0.4166667  -0.4166667   0.9166667), wk =   0.0555556
        k(   22) = (   0.2500000  -0.2500000   0.7500000), wk =   0.0555556
        k(   23) = (  -0.2500000   0.5833333   0.2500000), wk =   0.0555556
        k(   24) = (   0.5833333  -0.2500000   1.0833333), wk =   0.1111111
        k(   25) = (   0.4166667  -0.0833333   0.9166667), wk =   0.1111111
        k(   26) = (  -0.2500000  -1.0833333   0.2500000), wk =   0.0555556
        k(   27) = (  -0.4166667   0.4166667   0.4166667), wk =   0.0185185
        k(   28) = (   0.4166667  -0.4166667   1.2500000), wk =   0.0555556

     Dense  grid:    17153 G-vectors     FFT dimensions: (  36,  36,  36)

     Smooth grid:     6081 G-vectors     FFT dimensions: (  25,  25,  25)

     Estimated max dynamical RAM per process >       3.04MB

     Estimated total allocated dynamical RAM >      12.16MB

     Initial potential from superposition of free atoms

     starting charge    7.99866, renormalised to    8.00000
     Starting wfc are    8 randomized atomic wfcs

     total cpu time spent up to now is        0.5 secs

     per-process dynamical memory:     9.9 Mb

     Self-consistent Calculation

     iteration #  1     ecut=    30.00 Ry     beta=0.70
     Davidson diagonalization with overlap
     ethr =  1.00E-02,  avg # of iterations =  2.0

     Threshold (ethr) on eigenvalues was too large:
     Diagonalizing with lowered threshold

     Davidson diagonalization with overlap
     ethr =  6.83E-04,  avg # of iterations =  1.0

     total cpu time spent up to now is        0.9 secs

     total energy              =     -19.19119360 Ry
     Harris-Foulkes estimate   =     -19.20384349 Ry
     estimated scf accuracy    <       0.05409713 Ry

     iteration #  2     ecut=    30.00 Ry     beta=0.70
     Davidson diagonalization with overlap
     ethr =  6.76E-04,  avg # of iterations =  1.0

     total cpu time spent up to now is        1.2 secs

     total energy              =     -19.19297516 Ry
     Harris-Foulkes estimate   =     -19.19314461 Ry
     estimated scf accuracy    <       0.00244451 Ry

     iteration #  3     ecut=    30.00 Ry     beta=0.70
     Davidson diagonalization with overlap
     ethr =  3.06E-05,  avg # of iterations =  2.0

     total cpu time spent up to now is        1.8 secs

     total energy              =     -19.19330857 Ry
     Harris-Foulkes estimate   =     -19.19332170 Ry
     estimated scf accuracy    <       0.00004292 Ry

     iteration #  4     ecut=    30.00 Ry     beta=0.70
     Davidson diagonalization with overlap
     ethr =  5.36E-07,  avg # of iterations =  3.4

     total cpu time spent up to now is        2.1 secs

     total energy              =     -19.19334918 Ry
     Harris-Foulkes estimate   =     -19.19335008 Ry
     estimated scf accuracy    <       0.00000322 Ry

     iteration #  5     ecut=    30.00 Ry     beta=0.70
     Davidson diagonalization with overlap
     ethr =  4.03E-08,  avg # of iterations =  2.0

     total cpu time spent up to now is        2.3 secs

     End of self-consistent calculation

          k =-0.0833 0.0833 0.0833 (   749 PWs)   bands (ev):

    -5.7315   5.1724   5.8895   5.8895

          k =-0.2500 0.2500-0.0833 (   765 PWs)   bands (ev):

    -5.2598   3.1020   4.6668   5.6800

          k =-0.4167 0.4167-0.2500 (   764 PWs)   bands (ev):

    -4.1803   0.3658   4.2037   5.0489

          k = 0.4167-0.4167 0.5833 (   765 PWs)   bands (ev):

    -3.4925  -0.7641   4.2678   4.6726

          k = 0.2500-0.2500 0.4167 (   769 PWs)   bands (ev):

    -4.5870   1.2037   4.7332   4.7623

          k = 0.0833-0.0833 0.2500 (   765 PWs)   bands (ev):

    -5.4933   4.1058   5.2510   5.4322

          k =-0.0833 0.4167 0.0833 (   770 PWs)   bands (ev):

    -5.0211   2.9085   4.5109   4.5284

          k =-0.2500 0.5833-0.0833 (   763 PWs)   bands (ev):

    -4.1207   1.0829   3.2079   4.1448

          k = 0.5833-0.2500 0.7500 (   759 PWs)   bands (ev):

    -3.0197  -0.6452   2.6092   3.9208

          k = 0.4167-0.0833 0.5833 (   766 PWs)   bands (ev):

    -3.7313   0.3983   2.5715   4.4011

          k = 0.2500 0.0833 0.4167 (   765 PWs)   bands (ev):

    -4.7982   2.0822   3.8975   5.0608

          k =-0.0833 0.7500 0.0833 (   763 PWs)   bands (ev):

    -3.4163   0.2575   3.1741   3.5091

          k = 0.7500-0.0833 0.9167 (   751 PWs)   bands (ev):

    -2.2342  -1.0703   2.3435   3.1084

          k = 0.5833 0.0833 0.7500 (   750 PWs)   bands (ev):

    -2.6039  -0.7332   1.8646   3.6478

          k = 0.4167 0.2500 0.5833 (   763 PWs)   bands (ev):

    -3.6217  -0.2720   3.4985   4.4974

          k =-0.0833-0.9167 0.0833 (   764 PWs)   bands (ev):

    -2.3238  -1.0777   2.9075   3.2957

          k =-0.2500-0.7500-0.0833 (   762 PWs)   bands (ev):

    -3.2502   0.0372   2.6597   3.4454

          k =-0.0833-0.5833 0.0833 (   762 PWs)   bands (ev):

    -4.3237   1.6129   3.7124   3.9276

          k =-0.2500 0.2500 0.2500 (   769 PWs)   bands (ev):

    -5.0328   2.1334   5.2813   5.2813

          k =-0.4167 0.4167 0.0833 (   763 PWs)   bands (ev):

    -4.3612   1.2015   3.1720   5.1128

          k = 0.4167-0.4167 0.9167 (   765 PWs)   bands (ev):

    -3.1967  -0.2301   2.0783   4.3353

          k = 0.2500-0.2500 0.7500 (   763 PWs)   bands (ev):

    -3.1445  -0.3089   2.5502   3.8586

          k =-0.2500 0.5833 0.2500 (   767 PWs)   bands (ev):

    -3.9422   0.4029   3.6272   4.2281

          k = 0.5833-0.2500 1.0833 (   757 PWs)   bands (ev):

    -2.9519  -0.3462   2.1779   3.4442

          k = 0.4167-0.0833 0.9167 (   755 PWs)   bands (ev):

    -2.1305  -1.0781   2.0184   2.7851

          k =-0.2500-1.0833 0.2500 (   756 PWs)   bands (ev):

    -2.3392  -0.9820   1.8934   3.6660

          k =-0.4167 0.4167 0.4167 (   769 PWs)   bands (ev):

    -3.8560  -0.3683   4.8953   4.8953

          k = 0.4167-0.4167 1.2500 (   761 PWs)   bands (ev):

    -3.2591  -0.6705   3.0778   4.4605

     highest occupied level (ev):     5.8895

!    total energy              =     -19.19334961 Ry
     Harris-Foulkes estimate   =     -19.19334960 Ry
     estimated scf accuracy    <          9.4E-09 Ry

     The total energy is the sum of the following terms:

     one-electron contribution =       4.98964878 Ry
     hartree contribution      =       1.12937228 Ry
     xc contribution           =      -8.60264428 Ry
     ewald contribution        =     -16.70972639 Ry

     convergence has been achieved in   5 iterations

     Writing output data file silicon.10.316.save

     init_run     :      0.33s CPU      0.39s WALL (       1 calls)
     electrons    :      1.23s CPU      1.82s WALL (       1 calls)

     Called by init_run:
     wfcinit      :      0.07s CPU      0.09s WALL (       1 calls)
     potinit      :      0.02s CPU      0.02s WALL (       1 calls)

     Called by electrons:
     c_bands      :      0.72s CPU      1.04s WALL (       6 calls)
     sum_band     :      0.30s CPU      0.48s WALL (       6 calls)
     v_of_rho     :      0.09s CPU      0.13s WALL (       6 calls)
     newd         :      0.13s CPU      0.18s WALL (       6 calls)
     mix_rho      :      0.00s CPU      0.01s WALL (       6 calls)

     Called by c_bands:
     init_us_2    :      0.04s CPU      0.05s WALL (     364 calls)
     cegterg      :      0.62s CPU      0.91s WALL (     168 calls)

     Called by sum_band:
     sum_band:bec :      0.00s CPU      0.00s WALL (     168 calls)
     addusdens    :      0.14s CPU      0.18s WALL (       6 calls)

     Called by *egterg:
     h_psi        :      0.53s CPU      0.78s WALL (     516 calls)
     s_psi        :      0.04s CPU      0.05s WALL (     516 calls)
     g_psi        :      0.00s CPU      0.00s WALL (     320 calls)
     cdiaghg      :      0.03s CPU      0.04s WALL (     460 calls)

     Called by h_psi:
     h_psi:pot    :      0.53s CPU      0.78s WALL (     516 calls)
     h_psi:calbec :      0.06s CPU      0.08s WALL (     516 calls)
     vloc_psi     :      0.43s CPU      0.65s WALL (     516 calls)
     add_vuspsi   :      0.04s CPU      0.05s WALL (     516 calls)

     General routines
     calbec       :      0.08s CPU      0.14s WALL (     684 calls)
     fft          :      0.09s CPU      0.15s WALL (      96 calls)
     ffts         :      0.00s CPU      0.00s WALL (      12 calls)
     fftw         :      0.44s CPU      0.73s WALL (    4622 calls)
     interpolate  :      0.01s CPU      0.01s WALL (      12 calls)
     davcio       :      0.00s CPU      0.00s WALL (      28 calls)

     Parallel routines
     fft_scatter  :      0.26s CPU      0.56s WALL (    4730 calls)

     PWSCF        :     1.78s CPU         2.44s WALL


   This run was terminated on:  10:31: 7  10Nov2017            

=------------------------------------------------------------------------------=
   JOB DONE.
=------------------------------------------------------------------------------=
