
     Program PHONON v.6.1 (svn rev. 13369) starts on  9Nov2017 at 17:48:19 

     This program is part of the open-source Quantum ESPRESSO suite
     for quantum simulation of materials; please cite
         "P. Giannozzi et al., J. Phys.:Condens. Matter 21 395502 (2009);
          URL http://www.quantum-espresso.org", 
     in publications or presentations arising from this work. More details at
     http://www.quantum-espresso.org/quote

     Parallel version (MPI), running on     4 processors
     R & G space division:  proc/nbgrp/npool/nimage =       4

     Reading data from directory:
     ./silicon.10.407.save

   Info: using nr1, nr2, nr3 values from input

   Info: using nr1, nr2, nr3 values from input

     IMPORTANT: XC functional enforced from input :
     Exchange-correlation      = SLA  PW   PBE  PBE ( 1  4  3  4 0 0)
     Any further DFT definition will be discarded
     Please, verify this is what you really want


     Parallelization info
     --------------------
     sticks:   dense  smooth     PW     G-vecs:    dense   smooth      PW
     Min          66      66     22                  722      722     152
     Max          67      67     23                  724      724     153
     Sum         265     265     91                 2891     2891     609


     Check: negative/imaginary core charge=   -0.000006    0.000000


     Dynamical matrices for ( 4, 4, 4)  uniform grid of q-points
     (   8q-points):
       N         xq(1)         xq(2)         xq(3) 
       1   0.000000000   0.000000000   0.000000000
       2  -0.250000000   0.250000000  -0.250000000
       3   0.500000000  -0.500000000   0.500000000
       4   0.000000000   0.500000000   0.000000000
       5   0.750000000  -0.250000000   0.750000000
       6   0.500000000   0.000000000   0.500000000
       7   0.000000000  -1.000000000   0.000000000
       8  -0.500000000  -1.000000000   0.000000000

     Calculation of q =    0.0000000   0.0000000   0.0000000

                                                                                

     bravais-lattice index     =            2
     lattice parameter (alat)  =      10.4070  a.u.
     unit-cell volume          =     281.7842 (a.u.)^3
     number of atoms/cell      =            2
     number of atomic types    =            1
     kinetic-energy cut-off    =      18.0000  Ry
     charge density cut-off    =      72.0000  Ry
     convergence threshold     =      1.0E-12
     beta                      =       0.7000
     number of iterations used =            4
     Exchange-correlation      = SLA  PW   PBE  PBE ( 1  4  3  4 0 0)


     celldm(1)=   10.40700  celldm(2)=    0.00000  celldm(3)=    0.00000
     celldm(4)=    0.00000  celldm(5)=    0.00000  celldm(6)=    0.00000

     crystal axes: (cart. coord. in units of alat)
               a(1) = ( -0.5000  0.0000  0.5000 )  
               a(2) = (  0.0000  0.5000  0.5000 )  
               a(3) = ( -0.5000  0.5000  0.0000 )  

     reciprocal axes: (cart. coord. in units 2 pi/alat)
               b(1) = ( -1.0000 -1.0000  1.0000 )  
               b(2) = (  1.0000  1.0000  1.0000 )  
               b(3) = ( -1.0000  1.0000 -1.0000 )  


     Atoms inside the unit cell: 

     Cartesian axes

     site n.  atom      mass           positions (alat units)
        1     Si  28.0860   tau(    1) = (    0.00000    0.00000    0.00000  )
        2     Si  28.0860   tau(    2) = (    0.25000    0.25000    0.25000  )

     Computing dynamical matrix for 
                    q = (   0.0000000   0.0000000   0.0000000 )

     49 Sym.Ops. (with q -> -q+G )


     G cutoff =  197.5258  (    722 G-vectors)     FFT grid: ( 20, 20, 20)
     number of k points=    10

     PseudoPot. # 1 for Si read from file:
     /home/max/quantum_espresso/qe-6.1/pseudo/si_pbe_v1.uspp.F.UPF.txt
     MD5 check sum: a056efeee980c13900f22a371efd63c1
     Pseudo is Ultrasoft + core correction, Zval =  4.0
     Generated by new atomic code, or converted to UPF format
     Using radial grid of  899 points,  6 beta functions with: 
                l(1) =   0
                l(2) =   0
                l(3) =   1
                l(4) =   1
                l(5) =   2
                l(6) =   2
     Q(r) pseudized with  8 coefficients,  rinner =    0.900   0.900   0.900
                                                       0.900   0.900

     Mode symmetry, O_h (m-3m)  point group:


     Electric field:
     Dielectric constant
     Born effective charges in two ways 


     Atomic displacements:
     There are   2 irreducible representations

     Representation     1      3 modes -T_2g G_25' G_5+  To be done

     Representation     2      3 modes -T_1u G_15  G_4-  To be done



     Alpha used in Ewald sum =   0.7000
     PHONON       :     0.39s CPU         0.41s WALL


     Electric Fields Calculation

      iter #   1 total cpu time :     0.8 secs   av.it.:   5.6
      thresh= 1.000E-02 alpha_mix =  0.700 |ddv_scf|^2 =  9.597E-07

      iter #   2 total cpu time :     1.0 secs   av.it.:   9.9
      thresh= 9.797E-05 alpha_mix =  0.700 |ddv_scf|^2 =  6.277E-08

      iter #   3 total cpu time :     1.1 secs   av.it.:   9.8
      thresh= 2.505E-05 alpha_mix =  0.700 |ddv_scf|^2 =  4.990E-09

      iter #   4 total cpu time :     1.3 secs   av.it.:   9.0
      thresh= 7.064E-06 alpha_mix =  0.700 |ddv_scf|^2 =  3.026E-11

      iter #   5 total cpu time :     1.6 secs   av.it.:   9.2
      thresh= 5.501E-07 alpha_mix =  0.700 |ddv_scf|^2 =  1.549E-14

     End of electric fields calculation

          Dielectric constant in cartesian axis 

          (      14.039060045      -0.000000000       0.000000000 )
          (      -0.000000000      14.039060045       0.000000000 )
          (      -0.000000000       0.000000000      14.039060045 )

          Effective charges (d Force / dE) in cartesian axis

           atom      1   Si 
      Ex  (       -0.03345       -0.00000       -0.00000 )
      Ey  (       -0.00000       -0.03345        0.00000 )
      Ez  (       -0.00000        0.00000       -0.03345 )
           atom      2   Si 
      Ex  (       -0.03345        0.00000        0.00000 )
      Ey  (        0.00000       -0.03345       -0.00000 )
      Ez  (        0.00000       -0.00000       -0.03345 )


     Representation #  1 modes #   1  2  3

     Self-consistent Calculation

      iter #   1 total cpu time :     2.0 secs   av.it.:   5.0
      thresh= 1.000E-02 alpha_mix =  0.700 |ddv_scf|^2 =  1.856E-07

      iter #   2 total cpu time :     2.2 secs   av.it.:  10.0
      thresh= 4.308E-05 alpha_mix =  0.700 |ddv_scf|^2 =  1.027E-08

      iter #   3 total cpu time :     2.4 secs   av.it.:   9.5
      thresh= 1.014E-05 alpha_mix =  0.700 |ddv_scf|^2 =  7.102E-10

      iter #   4 total cpu time :     2.5 secs   av.it.:   9.1
      thresh= 2.665E-06 alpha_mix =  0.700 |ddv_scf|^2 =  1.831E-12

      iter #   5 total cpu time :     2.7 secs   av.it.:   9.4
      thresh= 1.353E-07 alpha_mix =  0.700 |ddv_scf|^2 =  1.545E-14

     End of self-consistent calculation

     Convergence has been achieved 


     Representation #  2 modes #   4  5  6

     Self-consistent Calculation

      iter #   1 total cpu time :     3.0 secs   av.it.:   5.0
      thresh= 1.000E-02 alpha_mix =  0.700 |ddv_scf|^2 =  1.932E-07

      iter #   2 total cpu time :     3.1 secs   av.it.:   9.6
      thresh= 4.396E-05 alpha_mix =  0.700 |ddv_scf|^2 =  1.598E-08

      iter #   3 total cpu time :     3.3 secs   av.it.:   9.2
      thresh= 1.264E-05 alpha_mix =  0.700 |ddv_scf|^2 =  9.585E-10

      iter #   4 total cpu time :     3.7 secs   av.it.:   9.5
      thresh= 3.096E-06 alpha_mix =  0.700 |ddv_scf|^2 =  5.581E-12

      iter #   5 total cpu time :     3.8 secs   av.it.:   9.1
      thresh= 2.362E-07 alpha_mix =  0.700 |ddv_scf|^2 =  5.135E-15

     End of self-consistent calculation

     Convergence has been achieved 

     Number of q in the star =    1
     List of q in the star:
          1   0.000000000   0.000000000   0.000000000

          Dielectric constant in cartesian axis 

          (      14.039060045      -0.000000000       0.000000000 )
          (      -0.000000000      14.039060045       0.000000000 )
          (      -0.000000000       0.000000000      14.039060045 )

          Effective charges (d Force / dE) in cartesian axis

           atom      1   Si 
      Ex  (       -0.03345       -0.00000       -0.00000 )
      Ey  (       -0.00000       -0.03345        0.00000 )
      Ez  (       -0.00000        0.00000       -0.03345 )
           atom      2   Si 
      Ex  (       -0.03345        0.00000        0.00000 )
      Ey  (        0.00000       -0.03345       -0.00000 )
      Ez  (        0.00000       -0.00000       -0.03345 )

          Effective charges (d P / du) in cartesian axis 

           atom      1   Si 
      Px  (       -0.07612        0.00000        0.00000 )
      Py  (        0.00000       -0.07612       -0.00000 )
      Pz  (        0.00000       -0.00000       -0.07612 )
           atom      2   Si 
      Px  (       -0.07612        0.00000        0.00000 )
      Py  (        0.00000       -0.07612       -0.00000 )
      Pz  (        0.00000       -0.00000       -0.07612 )

     Diagonalizing the dynamical matrix

     q = (    0.000000000   0.000000000   0.000000000 ) 

 **************************************************************************
     freq (    1) =       1.764063 [THz] =      58.842806 [cm-1]
     freq (    2) =       1.764063 [THz] =      58.842806 [cm-1]
     freq (    3) =       1.764063 [THz] =      58.842806 [cm-1]
     freq (    4) =      15.544637 [THz] =     518.513263 [cm-1]
     freq (    5) =      15.544637 [THz] =     518.513263 [cm-1]
     freq (    6) =      15.544637 [THz] =     518.513263 [cm-1]
 **************************************************************************

     Mode symmetry, O_h (m-3m)  point group:

     freq (  1 -  3) =         58.8  [cm-1]   --> T_1u G_15  G_4- I  
     freq (  4 -  6) =        518.5  [cm-1]   --> T_2g G_25' G_5+ R  

     Calculation of q =   -0.2500000   0.2500000  -0.2500000

   Info: using nr1, nr2, nr3 values from input

   Info: using nr1, nr2, nr3 values from input

     Parallelization info
     --------------------
     sticks:   dense  smooth     PW     G-vecs:    dense   smooth      PW
     Min          66      66     27                  722      722     175
     Max          67      67     28                  724      724     176
     Sum         265     265    109                 2891     2891     701



     bravais-lattice index     =            2
     lattice parameter (alat)  =      10.4070  a.u.
     unit-cell volume          =     281.7842 (a.u.)^3
     number of atoms/cell      =            2
     number of atomic types    =            1
     number of electrons       =         8.00
     number of Kohn-Sham states=            4
     kinetic-energy cutoff     =      18.0000  Ry
     charge density cutoff     =      72.0000  Ry
     Exchange-correlation      = SLA  PW   PBE  PBE ( 1  4  3  4 0 0)

     celldm(1)=  10.407000  celldm(2)=   0.000000  celldm(3)=   0.000000
     celldm(4)=   0.000000  celldm(5)=   0.000000  celldm(6)=   0.000000

     crystal axes: (cart. coord. in units of alat)
               a(1) = (  -0.500000   0.000000   0.500000 )  
               a(2) = (   0.000000   0.500000   0.500000 )  
               a(3) = (  -0.500000   0.500000   0.000000 )  

     reciprocal axes: (cart. coord. in units 2 pi/alat)
               b(1) = ( -1.000000 -1.000000  1.000000 )  
               b(2) = (  1.000000  1.000000  1.000000 )  
               b(3) = ( -1.000000  1.000000 -1.000000 )  


     PseudoPot. # 1 for Si read from file:
     /home/max/quantum_espresso/qe-6.1/pseudo/si_pbe_v1.uspp.F.UPF.txt
     MD5 check sum: a056efeee980c13900f22a371efd63c1
     Pseudo is Ultrasoft + core correction, Zval =  4.0
     Generated by new atomic code, or converted to UPF format
     Using radial grid of  899 points,  6 beta functions with: 
                l(1) =   0
                l(2) =   0
                l(3) =   1
                l(4) =   1
                l(5) =   2
                l(6) =   2
     Q(r) pseudized with  8 coefficients,  rinner =    0.900   0.900   0.900
                                                       0.900   0.900

     atomic species   valence    mass     pseudopotential
        Si             4.00    28.08600     Si( 1.00)

     48 Sym. Ops., with inversion, found



   Cartesian axes

     site n.     atom                  positions (alat units)
         1           Si  tau(   1) = (   0.0000000   0.0000000   0.0000000  )
         2           Si  tau(   2) = (   0.2500000   0.2500000   0.2500000  )

     number of k points=   120

     Number of k-points >= 100: set verbosity='high' to print them.

     Dense  grid:     2891 G-vectors     FFT dimensions: (  20,  20,  20)

     Estimated max dynamical RAM per process >       0.33MB

     Estimated total allocated dynamical RAM >       1.33MB

     Check: negative/imaginary core charge=   -0.000006    0.000000

     The potential is recalculated from file :
     ./_ph0/silicon.10.407.save/charge-density.dat

     Starting wfc are    8 atomic wfcs

     Band Structure Calculation
     Davidson diagonalization with overlap

     ethr =  1.25E-10,  avg # of iterations = 11.7

     total cpu time spent up to now is        0.8 secs

     End of band structure calculation

     Number of k-points >= 100: set verbosity='high' to print the bands.

     highest occupied level (ev):     5.4903

     Writing output data file silicon.10.407.save

                                                                                

     bravais-lattice index     =            2
     lattice parameter (alat)  =      10.4070  a.u.
     unit-cell volume          =     281.7842 (a.u.)^3
     number of atoms/cell      =            2
     number of atomic types    =            1
     kinetic-energy cut-off    =      18.0000  Ry
     charge density cut-off    =      72.0000  Ry
     convergence threshold     =      1.0E-12
     beta                      =       0.7000
     number of iterations used =            4
     Exchange-correlation      = SLA  PW   PBE  PBE ( 1  4  3  4 0 0)


     celldm(1)=   10.40700  celldm(2)=    0.00000  celldm(3)=    0.00000
     celldm(4)=    0.00000  celldm(5)=    0.00000  celldm(6)=    0.00000

     crystal axes: (cart. coord. in units of alat)
               a(1) = ( -0.5000  0.0000  0.5000 )  
               a(2) = (  0.0000  0.5000  0.5000 )  
               a(3) = ( -0.5000  0.5000  0.0000 )  

     reciprocal axes: (cart. coord. in units 2 pi/alat)
               b(1) = ( -1.0000 -1.0000  1.0000 )  
               b(2) = (  1.0000  1.0000  1.0000 )  
               b(3) = ( -1.0000  1.0000 -1.0000 )  


     Atoms inside the unit cell: 

     Cartesian axes

     site n.  atom      mass           positions (alat units)
        1     Si  28.0860   tau(    1) = (    0.00000    0.00000    0.00000  )
        2     Si  28.0860   tau(    2) = (    0.25000    0.25000    0.25000  )

     Computing dynamical matrix for 
                    q = (  -0.2500000   0.2500000  -0.2500000 )

      6 Sym.Ops. (no q -> -q+G )


     G cutoff =  197.5258  (    722 G-vectors)     FFT grid: ( 20, 20, 20)
     number of k points=   120

     PseudoPot. # 1 for Si read from file:
     /home/max/quantum_espresso/qe-6.1/pseudo/si_pbe_v1.uspp.F.UPF.txt
     MD5 check sum: a056efeee980c13900f22a371efd63c1
     Pseudo is Ultrasoft + core correction, Zval =  4.0
     Generated by new atomic code, or converted to UPF format
     Using radial grid of  899 points,  6 beta functions with: 
                l(1) =   0
                l(2) =   0
                l(3) =   1
                l(4) =   1
                l(5) =   2
                l(6) =   2
     Q(r) pseudized with  8 coefficients,  rinner =    0.900   0.900   0.900
                                                       0.900   0.900

     Mode symmetry, C_3v (3m)   point group:


     Atomic displacements:
     There are   4 irreducible representations

     Representation     1      1 modes -A_1  L_1  To be done

     Representation     2      1 modes -A_1  L_1  To be done

     Representation     3      2 modes -E    L_3  To be done

     Representation     4      2 modes -E    L_3  To be done



     Alpha used in Ewald sum =   0.7000
     PHONON       :     4.83s CPU         5.08s WALL



     Representation #  1 mode #   1

     Self-consistent Calculation

      iter #   1 total cpu time :     5.3 secs   av.it.:   5.5
      thresh= 1.000E-02 alpha_mix =  0.700 |ddv_scf|^2 =  2.424E-03

      iter #   2 total cpu time :     5.7 secs   av.it.:   7.5
      thresh= 4.923E-03 alpha_mix =  0.700 |ddv_scf|^2 =  3.690E-02

      iter #   3 total cpu time :     5.9 secs   av.it.:   6.3
      thresh= 1.000E-02 alpha_mix =  0.700 |ddv_scf|^2 =  1.688E-06

      iter #   4 total cpu time :     6.2 secs   av.it.:   8.2
      thresh= 1.299E-04 alpha_mix =  0.700 |ddv_scf|^2 =  1.140E-07

      iter #   5 total cpu time :     6.5 secs   av.it.:   8.1
      thresh= 3.376E-05 alpha_mix =  0.700 |ddv_scf|^2 =  4.538E-09

      iter #   6 total cpu time :     6.7 secs   av.it.:   8.1
      thresh= 6.736E-06 alpha_mix =  0.700 |ddv_scf|^2 =  2.930E-09

      iter #   7 total cpu time :     6.9 secs   av.it.:   6.5
      thresh= 5.413E-06 alpha_mix =  0.700 |ddv_scf|^2 =  8.146E-10

      iter #   8 total cpu time :     7.2 secs   av.it.:   7.0
      thresh= 2.854E-06 alpha_mix =  0.700 |ddv_scf|^2 =  4.919E-12

      iter #   9 total cpu time :     7.6 secs   av.it.:   7.2
      thresh= 2.218E-07 alpha_mix =  0.700 |ddv_scf|^2 =  2.417E-13

     End of self-consistent calculation

     Convergence has been achieved 


     Representation #  2 mode #   2

     Self-consistent Calculation

      iter #   1 total cpu time :     7.8 secs   av.it.:   5.5
      thresh= 1.000E-02 alpha_mix =  0.700 |ddv_scf|^2 =  2.424E-03

      iter #   2 total cpu time :     8.1 secs   av.it.:   7.5
      thresh= 4.923E-03 alpha_mix =  0.700 |ddv_scf|^2 =  3.690E-02

      iter #   3 total cpu time :     8.3 secs   av.it.:   6.3
      thresh= 1.000E-02 alpha_mix =  0.700 |ddv_scf|^2 =  1.688E-06

      iter #   4 total cpu time :     8.6 secs   av.it.:   8.2
      thresh= 1.299E-04 alpha_mix =  0.700 |ddv_scf|^2 =  1.140E-07

      iter #   5 total cpu time :     8.8 secs   av.it.:   8.1
      thresh= 3.376E-05 alpha_mix =  0.700 |ddv_scf|^2 =  4.538E-09

      iter #   6 total cpu time :     9.1 secs   av.it.:   8.1
      thresh= 6.736E-06 alpha_mix =  0.700 |ddv_scf|^2 =  2.930E-09

      iter #   7 total cpu time :     9.3 secs   av.it.:   6.5
      thresh= 5.413E-06 alpha_mix =  0.700 |ddv_scf|^2 =  8.146E-10

      iter #   8 total cpu time :     9.7 secs   av.it.:   7.0
      thresh= 2.854E-06 alpha_mix =  0.700 |ddv_scf|^2 =  4.919E-12

      iter #   9 total cpu time :    10.0 secs   av.it.:   7.2
      thresh= 2.218E-07 alpha_mix =  0.700 |ddv_scf|^2 =  2.417E-13

     End of self-consistent calculation

     Convergence has been achieved 


     Representation #  3 modes #   3  4

     Self-consistent Calculation

      iter #   1 total cpu time :    10.4 secs   av.it.:   4.9
      thresh= 1.000E-02 alpha_mix =  0.700 |ddv_scf|^2 =  5.367E-07

      iter #   2 total cpu time :    11.0 secs   av.it.:   9.5
      thresh= 7.326E-05 alpha_mix =  0.700 |ddv_scf|^2 =  4.028E-08

      iter #   3 total cpu time :    11.7 secs   av.it.:   9.3
      thresh= 2.007E-05 alpha_mix =  0.700 |ddv_scf|^2 =  3.472E-09

      iter #   4 total cpu time :    12.2 secs   av.it.:   8.9
      thresh= 5.892E-06 alpha_mix =  0.700 |ddv_scf|^2 =  1.147E-11

      iter #   5 total cpu time :    12.8 secs   av.it.:   9.2
      thresh= 3.386E-07 alpha_mix =  0.700 |ddv_scf|^2 =  5.103E-13

     End of self-consistent calculation

     Convergence has been achieved 


     Representation #  4 modes #   5  6

     Self-consistent Calculation

      iter #   1 total cpu time :    13.2 secs   av.it.:   5.0
      thresh= 1.000E-02 alpha_mix =  0.700 |ddv_scf|^2 =  5.366E-07

      iter #   2 total cpu time :    14.0 secs   av.it.:   9.7
      thresh= 7.325E-05 alpha_mix =  0.700 |ddv_scf|^2 =  4.023E-08

      iter #   3 total cpu time :    14.6 secs   av.it.:   9.4
      thresh= 2.006E-05 alpha_mix =  0.700 |ddv_scf|^2 =  3.468E-09

      iter #   4 total cpu time :    15.2 secs   av.it.:   9.1
      thresh= 5.889E-06 alpha_mix =  0.700 |ddv_scf|^2 =  1.147E-11

      iter #   5 total cpu time :    15.9 secs   av.it.:   9.3
      thresh= 3.387E-07 alpha_mix =  0.700 |ddv_scf|^2 =  5.107E-13

     End of self-consistent calculation

     Convergence has been achieved 

     Number of q in the star =    8
     List of q in the star:
          1  -0.250000000   0.250000000  -0.250000000
          2   0.250000000  -0.250000000  -0.250000000
          3   0.250000000  -0.250000000   0.250000000
          4   0.250000000   0.250000000   0.250000000
          5  -0.250000000  -0.250000000  -0.250000000
          6  -0.250000000  -0.250000000   0.250000000
          7  -0.250000000   0.250000000   0.250000000
          8   0.250000000   0.250000000  -0.250000000

     Diagonalizing the dynamical matrix

     q = (   -0.250000000   0.250000000  -0.250000000 ) 

 **************************************************************************
     freq (    1) =       3.402676 [THz] =     113.501061 [cm-1]
     freq (    2) =       3.402676 [THz] =     113.501061 [cm-1]
     freq (    3) =       6.809368 [THz] =     227.136055 [cm-1]
     freq (    4) =      14.645846 [THz] =     488.532836 [cm-1]
     freq (    5) =      14.918849 [THz] =     497.639240 [cm-1]
     freq (    6) =      14.918849 [THz] =     497.639240 [cm-1]
 **************************************************************************

     Mode symmetry, C_3v (3m)   point group:

     freq (  1 -  2) =        113.5  [cm-1]   --> E    L_3           
     freq (  3 -  3) =        227.1  [cm-1]   --> A_1  L_1           
     freq (  4 -  4) =        488.5  [cm-1]   --> A_1  L_1           
     freq (  5 -  6) =        497.6  [cm-1]   --> E    L_3           

     Calculation of q =    0.5000000  -0.5000000   0.5000000

   Info: using nr1, nr2, nr3 values from input

   Info: using nr1, nr2, nr3 values from input

     Parallelization info
     --------------------
     sticks:   dense  smooth     PW     G-vecs:    dense   smooth      PW
     Min          66      66     27                  722      722     186
     Max          67      67     28                  724      724     189
     Sum         265     265    109                 2891     2891     749



     bravais-lattice index     =            2
     lattice parameter (alat)  =      10.4070  a.u.
     unit-cell volume          =     281.7842 (a.u.)^3
     number of atoms/cell      =            2
     number of atomic types    =            1
     number of electrons       =         8.00
     number of Kohn-Sham states=            4
     kinetic-energy cutoff     =      18.0000  Ry
     charge density cutoff     =      72.0000  Ry
     Exchange-correlation      = SLA  PW   PBE  PBE ( 1  4  3  4 0 0)

     celldm(1)=  10.407000  celldm(2)=   0.000000  celldm(3)=   0.000000
     celldm(4)=   0.000000  celldm(5)=   0.000000  celldm(6)=   0.000000

     crystal axes: (cart. coord. in units of alat)
               a(1) = (  -0.500000   0.000000   0.500000 )  
               a(2) = (   0.000000   0.500000   0.500000 )  
               a(3) = (  -0.500000   0.500000   0.000000 )  

     reciprocal axes: (cart. coord. in units 2 pi/alat)
               b(1) = ( -1.000000 -1.000000  1.000000 )  
               b(2) = (  1.000000  1.000000  1.000000 )  
               b(3) = ( -1.000000  1.000000 -1.000000 )  


     PseudoPot. # 1 for Si read from file:
     /home/max/quantum_espresso/qe-6.1/pseudo/si_pbe_v1.uspp.F.UPF.txt
     MD5 check sum: a056efeee980c13900f22a371efd63c1
     Pseudo is Ultrasoft + core correction, Zval =  4.0
     Generated by new atomic code, or converted to UPF format
     Using radial grid of  899 points,  6 beta functions with: 
                l(1) =   0
                l(2) =   0
                l(3) =   1
                l(4) =   1
                l(5) =   2
                l(6) =   2
     Q(r) pseudized with  8 coefficients,  rinner =    0.900   0.900   0.900
                                                       0.900   0.900

     atomic species   valence    mass     pseudopotential
        Si             4.00    28.08600     Si( 1.00)

     48 Sym. Ops., with inversion, found



   Cartesian axes

     site n.     atom                  positions (alat units)
         1           Si  tau(   1) = (   0.0000000   0.0000000   0.0000000  )
         2           Si  tau(   2) = (   0.2500000   0.2500000   0.2500000  )

     number of k points=    60
                       cart. coord. in units 2pi/alat
        k(    1) = (  -0.1250000   0.1250000   0.1250000), wk =   0.0468750
        k(    2) = (   0.3750000  -0.3750000   0.6250000), wk =   0.0000000
        k(    3) = (  -0.3750000   0.3750000  -0.1250000), wk =   0.0468750
        k(    4) = (   0.1250000  -0.1250000   0.3750000), wk =   0.0000000
        k(    5) = (   0.3750000  -0.3750000   0.6250000), wk =   0.0468750
        k(    6) = (   0.8750000  -0.8750000   1.1250000), wk =   0.0000000
        k(    7) = (   0.1250000  -0.1250000   0.3750000), wk =   0.0468750
        k(    8) = (   0.6250000  -0.6250000   0.8750000), wk =   0.0000000
        k(    9) = (  -0.1250000   0.6250000   0.1250000), wk =   0.0937500
        k(   10) = (   0.3750000   0.1250000   0.6250000), wk =   0.0000000
        k(   11) = (   0.6250000  -0.1250000   0.8750000), wk =   0.0937500
        k(   12) = (   1.1250000  -0.6250000   1.3750000), wk =   0.0000000
        k(   13) = (   0.3750000   0.1250000   0.6250000), wk =   0.0937500
        k(   14) = (   0.8750000  -0.3750000   1.1250000), wk =   0.0000000
        k(   15) = (  -0.1250000  -0.8750000   0.1250000), wk =   0.0937500
        k(   16) = (   0.3750000  -1.3750000   0.6250000), wk =   0.0000000
        k(   17) = (  -0.3750000   0.3750000   0.3750000), wk =   0.0468750
        k(   18) = (   0.1250000  -0.1250000   0.8750000), wk =   0.0000000
        k(   19) = (   0.3750000  -0.3750000   1.1250000), wk =   0.0468750
        k(   20) = (   0.8750000  -0.8750000   1.6250000), wk =   0.0000000
        k(   21) = (   0.1250000  -0.1250000   0.1250000), wk =   0.0156250
        k(   22) = (   0.6250000  -0.6250000   0.6250000), wk =   0.0000000
        k(   23) = (  -0.3750000  -0.3750000  -0.1250000), wk =   0.0937500
        k(   24) = (   0.1250000  -0.8750000   0.3750000), wk =   0.0000000
        k(   25) = (  -0.1250000  -0.3750000   0.3750000), wk =   0.0468750
        k(   26) = (   0.3750000  -0.8750000   0.8750000), wk =   0.0000000
        k(   27) = (   0.3750000   0.3750000   0.6250000), wk =   0.0937500
        k(   28) = (   0.8750000  -0.1250000   1.1250000), wk =   0.0000000
        k(   29) = (   0.6250000   0.3750000  -0.3750000), wk =   0.0468750
        k(   30) = (   1.1250000  -0.1250000   0.1250000), wk =   0.0000000
        k(   31) = (   0.1250000   0.1250000   0.3750000), wk =   0.0937500
        k(   32) = (   0.6250000  -0.3750000   0.8750000), wk =   0.0000000
        k(   33) = (   0.3750000   0.1250000  -0.1250000), wk =   0.0468750
        k(   34) = (   0.8750000  -0.3750000   0.3750000), wk =   0.0000000
        k(   35) = (  -0.1250000  -0.6250000  -0.1250000), wk =   0.0468750
        k(   36) = (   0.3750000  -1.1250000   0.3750000), wk =   0.0000000
        k(   37) = (   0.1250000  -0.6250000   0.1250000), wk =   0.0468750
        k(   38) = (   0.6250000  -1.1250000   0.6250000), wk =   0.0000000
        k(   39) = (   0.6250000   0.1250000   0.8750000), wk =   0.0937500
        k(   40) = (   1.1250000  -0.3750000   1.3750000), wk =   0.0000000
        k(   41) = (  -0.8750000   0.1250000   0.6250000), wk =   0.0937500
        k(   42) = (  -0.3750000  -0.3750000   1.1250000), wk =   0.0000000
        k(   43) = (   0.8750000   0.1250000  -0.6250000), wk =   0.0937500
        k(   44) = (   1.3750000  -0.3750000  -0.1250000), wk =   0.0000000
        k(   45) = (   0.3750000  -0.1250000   0.6250000), wk =   0.0937500
        k(   46) = (   0.8750000  -0.6250000   1.1250000), wk =   0.0000000
        k(   47) = (  -0.6250000  -0.1250000   0.3750000), wk =   0.0937500
        k(   48) = (  -0.1250000  -0.6250000   0.8750000), wk =   0.0000000
        k(   49) = (   0.6250000  -0.1250000  -0.3750000), wk =   0.0937500
        k(   50) = (   1.1250000  -0.6250000   0.1250000), wk =   0.0000000
        k(   51) = (  -0.1250000   0.8750000  -0.1250000), wk =   0.0468750
        k(   52) = (   0.3750000   0.3750000   0.3750000), wk =   0.0000000
        k(   53) = (   0.1250000   0.8750000   0.1250000), wk =   0.0468750
        k(   54) = (   0.6250000   0.3750000   0.6250000), wk =   0.0000000
        k(   55) = (   0.3750000  -0.3750000   0.3750000), wk =   0.0156250
        k(   56) = (   0.8750000  -0.8750000   0.8750000), wk =   0.0000000
        k(   57) = (   0.3750000   0.3750000   1.1250000), wk =   0.0937500
        k(   58) = (   0.8750000  -0.1250000   1.6250000), wk =   0.0000000
        k(   59) = (   1.1250000   0.3750000  -0.3750000), wk =   0.0468750
        k(   60) = (   1.6250000  -0.1250000   0.1250000), wk =   0.0000000

     Dense  grid:     2891 G-vectors     FFT dimensions: (  20,  20,  20)

     Estimated max dynamical RAM per process >       0.33MB

     Estimated total allocated dynamical RAM >       1.33MB

     Check: negative/imaginary core charge=   -0.000006    0.000000

     The potential is recalculated from file :
     ./_ph0/silicon.10.407.save/charge-density.dat

     Starting wfc are    8 atomic wfcs

     Band Structure Calculation
     Davidson diagonalization with overlap

     ethr =  1.25E-10,  avg # of iterations = 11.7

     total cpu time spent up to now is        1.3 secs

     End of band structure calculation

          k =-0.1250 0.1250 0.1250 (   353 PWs)   bands (ev):

    -5.7080   4.1788   5.4903   5.4903

          k = 0.3750-0.3750 0.6250 (   364 PWs)   bands (ev):

    -3.5967  -0.8039   3.5543   4.2615

          k =-0.3750 0.3750-0.1250 (   362 PWs)   bands (ev):

    -4.7038   1.2226   3.5456   5.0139

          k = 0.1250-0.1250 0.3750 (   358 PWs)   bands (ev):

    -5.1909   2.5704   4.5059   4.5574

          k = 0.3750-0.3750 0.6250 (   364 PWs)   bands (ev):

    -3.5967  -0.8039   3.5543   4.2615

          k = 0.8750-0.8750 1.1250 (   353 PWs)   bands (ev):

    -5.7080   4.1788   5.4903   5.4903

          k = 0.1250-0.1250 0.3750 (   358 PWs)   bands (ev):

    -5.1909   2.5704   4.5059   4.5574

          k = 0.6250-0.6250 0.8750 (   362 PWs)   bands (ev):

    -4.7038   1.2226   3.5456   5.0139

          k =-0.1250 0.6250 0.1250 (   357 PWs)   bands (ev):

    -4.1811   0.8657   3.2098   3.6490

          k = 0.3750 0.1250 0.6250 (   365 PWs)   bands (ev):

    -3.7777   0.0238   2.5789   3.9195

          k = 0.6250-0.1250 0.8750 (   368 PWs)   bands (ev):

    -2.5831  -1.0638   1.8975   2.9448

          k = 1.1250-0.6250 1.3750 (   362 PWs)   bands (ev):

    -4.7038   1.2226   3.5456   5.0139

          k = 0.3750 0.1250 0.6250 (   365 PWs)   bands (ev):

    -3.7777   0.0238   2.5789   3.9195

          k = 0.8750-0.3750 1.1250 (   357 PWs)   bands (ev):

    -4.1811   0.8657   3.2098   3.6490

          k =-0.1250-0.8750 0.1250 (   364 PWs)   bands (ev):

    -2.7407  -0.9714   2.4889   3.1906

          k = 0.3750-1.3750 0.6250 (   364 PWs)   bands (ev):

    -3.5967  -0.8039   3.5543   4.2615

          k =-0.3750 0.3750 0.3750 (   359 PWs)   bands (ev):

    -4.2826  -0.0302   4.7137   4.7137

          k = 0.1250-0.1250 0.8750 (   364 PWs)   bands (ev):

    -2.7407  -0.9714   2.4889   3.1906

          k = 0.3750-0.3750 1.1250 (   369 PWs)   bands (ev):

    -3.1107  -0.7475   1.9454   3.9526

          k = 0.8750-0.8750 1.6250 (   357 PWs)   bands (ev):

    -4.1811   0.8657   3.2098   3.6490

          k = 0.1250-0.1250 0.1250 (   353 PWs)   bands (ev):

    -5.7080   4.1788   5.4903   5.4903

          k = 0.6250-0.6250 0.6250 (   359 PWs)   bands (ev):

    -4.2826  -0.0302   4.7137   4.7137

          k =-0.3750-0.3750-0.1250 (   362 PWs)   bands (ev):

    -4.7038   1.2226   3.5456   5.0139

          k = 0.1250-0.8750 0.3750 (   368 PWs)   bands (ev):

    -2.5831  -1.0638   1.8975   2.9448

          k =-0.1250-0.3750 0.3750 (   362 PWs)   bands (ev):

    -4.7038   1.2226   3.5456   5.0139

          k = 0.3750-0.8750 0.8750 (   357 PWs)   bands (ev):

    -4.1811   0.8657   3.2098   3.6490

          k = 0.3750 0.3750 0.6250 (   364 PWs)   bands (ev):

    -3.5967  -0.8039   3.5543   4.2615

          k = 0.8750-0.1250 1.1250 (   364 PWs)   bands (ev):

    -2.7407  -0.9714   2.4889   3.1906

          k = 0.6250 0.3750-0.3750 (   364 PWs)   bands (ev):

    -3.5967  -0.8039   3.5543   4.2615

          k = 1.1250-0.1250 0.1250 (   364 PWs)   bands (ev):

    -2.7407  -0.9714   2.4889   3.1906

          k = 0.1250 0.1250 0.3750 (   358 PWs)   bands (ev):

    -5.1909   2.5704   4.5059   4.5574

          k = 0.6250-0.3750 0.8750 (   365 PWs)   bands (ev):

    -3.7777   0.0238   2.5789   3.9195

          k = 0.3750 0.1250-0.1250 (   358 PWs)   bands (ev):

    -5.1909   2.5704   4.5059   4.5574

          k = 0.8750-0.3750 0.3750 (   369 PWs)   bands (ev):

    -3.1107  -0.7475   1.9454   3.9526

          k =-0.1250-0.6250-0.1250 (   357 PWs)   bands (ev):

    -4.1811   0.8657   3.2098   3.6490

          k = 0.3750-1.1250 0.3750 (   369 PWs)   bands (ev):

    -3.1107  -0.7475   1.9454   3.9526

          k = 0.1250-0.6250 0.1250 (   357 PWs)   bands (ev):

    -4.1811   0.8657   3.2098   3.6490

          k = 0.6250-1.1250 0.6250 (   362 PWs)   bands (ev):

    -4.7038   1.2226   3.5456   5.0139

          k = 0.6250 0.1250 0.8750 (   368 PWs)   bands (ev):

    -2.5831  -1.0638   1.8975   2.9448

          k = 1.1250-0.3750 1.3750 (   365 PWs)   bands (ev):

    -3.7777   0.0238   2.5789   3.9195

          k =-0.8750 0.1250 0.6250 (   368 PWs)   bands (ev):

    -2.5831  -1.0638   1.8975   2.9448

          k =-0.3750-0.3750 1.1250 (   369 PWs)   bands (ev):

    -3.1107  -0.7475   1.9454   3.9526

          k = 0.8750 0.1250-0.6250 (   368 PWs)   bands (ev):

    -2.5831  -1.0638   1.8975   2.9448

          k = 1.3750-0.3750-0.1250 (   365 PWs)   bands (ev):

    -3.7777   0.0238   2.5789   3.9195

          k = 0.3750-0.1250 0.6250 (   365 PWs)   bands (ev):

    -3.7777   0.0238   2.5789   3.9195

          k = 0.8750-0.6250 1.1250 (   358 PWs)   bands (ev):

    -5.1909   2.5704   4.5059   4.5574

          k =-0.6250-0.1250 0.3750 (   365 PWs)   bands (ev):

    -3.7777   0.0238   2.5789   3.9195

          k =-0.1250-0.6250 0.8750 (   368 PWs)   bands (ev):

    -2.5831  -1.0638   1.8975   2.9448

          k = 0.6250-0.1250-0.3750 (   365 PWs)   bands (ev):

    -3.7777   0.0238   2.5789   3.9195

          k = 1.1250-0.6250 0.1250 (   368 PWs)   bands (ev):

    -2.5831  -1.0638   1.8975   2.9448

          k =-0.1250 0.8750-0.1250 (   364 PWs)   bands (ev):

    -2.7407  -0.9714   2.4889   3.1906

          k = 0.3750 0.3750 0.3750 (   359 PWs)   bands (ev):

    -4.2826  -0.0302   4.7137   4.7137

          k = 0.1250 0.8750 0.1250 (   364 PWs)   bands (ev):

    -2.7407  -0.9714   2.4889   3.1906

          k = 0.6250 0.3750 0.6250 (   364 PWs)   bands (ev):

    -3.5967  -0.8039   3.5543   4.2615

          k = 0.3750-0.3750 0.3750 (   359 PWs)   bands (ev):

    -4.2826  -0.0302   4.7137   4.7137

          k = 0.8750-0.8750 0.8750 (   353 PWs)   bands (ev):

    -5.7080   4.1788   5.4903   5.4903

          k = 0.3750 0.3750 1.1250 (   369 PWs)   bands (ev):

    -3.1107  -0.7475   1.9454   3.9526

          k = 0.8750-0.1250 1.6250 (   368 PWs)   bands (ev):

    -2.5831  -1.0638   1.8975   2.9448

          k = 1.1250 0.3750-0.3750 (   369 PWs)   bands (ev):

    -3.1107  -0.7475   1.9454   3.9526

          k = 1.6250-0.1250 0.1250 (   358 PWs)   bands (ev):

    -5.1909   2.5704   4.5059   4.5574

     highest occupied level (ev):     5.4903

     Writing output data file silicon.10.407.save

                                                                                

     bravais-lattice index     =            2
     lattice parameter (alat)  =      10.4070  a.u.
     unit-cell volume          =     281.7842 (a.u.)^3
     number of atoms/cell      =            2
     number of atomic types    =            1
     kinetic-energy cut-off    =      18.0000  Ry
     charge density cut-off    =      72.0000  Ry
     convergence threshold     =      1.0E-12
     beta                      =       0.7000
     number of iterations used =            4
     Exchange-correlation      = SLA  PW   PBE  PBE ( 1  4  3  4 0 0)


     celldm(1)=   10.40700  celldm(2)=    0.00000  celldm(3)=    0.00000
     celldm(4)=    0.00000  celldm(5)=    0.00000  celldm(6)=    0.00000

     crystal axes: (cart. coord. in units of alat)
               a(1) = ( -0.5000  0.0000  0.5000 )  
               a(2) = (  0.0000  0.5000  0.5000 )  
               a(3) = ( -0.5000  0.5000  0.0000 )  

     reciprocal axes: (cart. coord. in units 2 pi/alat)
               b(1) = ( -1.0000 -1.0000  1.0000 )  
               b(2) = (  1.0000  1.0000  1.0000 )  
               b(3) = ( -1.0000  1.0000 -1.0000 )  


     Atoms inside the unit cell: 

     Cartesian axes

     site n.  atom      mass           positions (alat units)
        1     Si  28.0860   tau(    1) = (    0.00000    0.00000    0.00000  )
        2     Si  28.0860   tau(    2) = (    0.25000    0.25000    0.25000  )

     Computing dynamical matrix for 
                    q = (   0.5000000  -0.5000000   0.5000000 )

     13 Sym.Ops. (with q -> -q+G )


     G cutoff =  197.5258  (    722 G-vectors)     FFT grid: ( 20, 20, 20)
     number of k points=    60

     PseudoPot. # 1 for Si read from file:
     /home/max/quantum_espresso/qe-6.1/pseudo/si_pbe_v1.uspp.F.UPF.txt
     MD5 check sum: a056efeee980c13900f22a371efd63c1
     Pseudo is Ultrasoft + core correction, Zval =  4.0
     Generated by new atomic code, or converted to UPF format
     Using radial grid of  899 points,  6 beta functions with: 
                l(1) =   0
                l(2) =   0
                l(3) =   1
                l(4) =   1
                l(5) =   2
                l(6) =   2
     Q(r) pseudized with  8 coefficients,  rinner =    0.900   0.900   0.900
                                                       0.900   0.900


     Atomic displacements:
     There are   4 irreducible representations

     Representation     1      1 modes -  To be done

     Representation     2      1 modes -  To be done

     Representation     3      2 modes -  To be done

     Representation     4      2 modes -  To be done



     Alpha used in Ewald sum =   0.7000
     PHONON       :    15.51s CPU        16.65s WALL



     Representation #  1 mode #   1

     Self-consistent Calculation

      iter #   1 total cpu time :    16.8 secs   av.it.:   4.8
      thresh= 1.000E-02 alpha_mix =  0.700 |ddv_scf|^2 =  2.426E-05

      iter #   2 total cpu time :    16.9 secs   av.it.:   8.4
      thresh= 4.925E-04 alpha_mix =  0.700 |ddv_scf|^2 =  2.220E-05

      iter #   3 total cpu time :    17.0 secs   av.it.:   7.5
      thresh= 4.712E-04 alpha_mix =  0.700 |ddv_scf|^2 =  3.827E-08

      iter #   4 total cpu time :    17.2 secs   av.it.:   7.6
      thresh= 1.956E-05 alpha_mix =  0.700 |ddv_scf|^2 =  1.425E-10

      iter #   5 total cpu time :    17.3 secs   av.it.:   7.8
      thresh= 1.194E-06 alpha_mix =  0.700 |ddv_scf|^2 =  4.131E-12

      iter #   6 total cpu time :    17.6 secs   av.it.:   7.7
      thresh= 2.033E-07 alpha_mix =  0.700 |ddv_scf|^2 =  7.438E-14

     End of self-consistent calculation

     Convergence has been achieved 


     Representation #  2 mode #   2

     Self-consistent Calculation

      iter #   1 total cpu time :    17.8 secs   av.it.:   5.6
      thresh= 1.000E-02 alpha_mix =  0.700 |ddv_scf|^2 =  3.403E-04

      iter #   2 total cpu time :    17.9 secs   av.it.:   8.3
      thresh= 1.845E-03 alpha_mix =  0.700 |ddv_scf|^2 =  1.053E-03

      iter #   3 total cpu time :    18.0 secs   av.it.:   7.1
      thresh= 3.245E-03 alpha_mix =  0.700 |ddv_scf|^2 =  1.455E-07

      iter #   4 total cpu time :    18.2 secs   av.it.:   8.2
      thresh= 3.815E-05 alpha_mix =  0.700 |ddv_scf|^2 =  1.001E-08

      iter #   5 total cpu time :    18.3 secs   av.it.:   8.4
      thresh= 1.001E-05 alpha_mix =  0.700 |ddv_scf|^2 =  1.592E-10

      iter #   6 total cpu time :    18.5 secs   av.it.:   8.2
      thresh= 1.262E-06 alpha_mix =  0.700 |ddv_scf|^2 =  3.811E-12

      iter #   7 total cpu time :    18.6 secs   av.it.:   7.6
      thresh= 1.952E-07 alpha_mix =  0.700 |ddv_scf|^2 =  1.622E-14

     End of self-consistent calculation

     Convergence has been achieved 


     Representation #  3 modes #   3  4

     Self-consistent Calculation

      iter #   1 total cpu time :    18.8 secs   av.it.:   4.7
      thresh= 1.000E-02 alpha_mix =  0.700 |ddv_scf|^2 =  3.425E-07

      iter #   2 total cpu time :    19.1 secs   av.it.:   9.0
      thresh= 5.852E-05 alpha_mix =  0.700 |ddv_scf|^2 =  2.956E-08

      iter #   3 total cpu time :    19.4 secs   av.it.:   8.3
      thresh= 1.719E-05 alpha_mix =  0.700 |ddv_scf|^2 =  5.123E-10

      iter #   4 total cpu time :    19.8 secs   av.it.:   8.9
      thresh= 2.264E-06 alpha_mix =  0.700 |ddv_scf|^2 =  6.455E-12

      iter #   5 total cpu time :    20.1 secs   av.it.:   8.7
      thresh= 2.541E-07 alpha_mix =  0.700 |ddv_scf|^2 =  3.611E-14

     End of self-consistent calculation

     Convergence has been achieved 


     Representation #  4 modes #   5  6

     Self-consistent Calculation

      iter #   1 total cpu time :    20.4 secs   av.it.:   4.9
      thresh= 1.000E-02 alpha_mix =  0.700 |ddv_scf|^2 =  9.422E-07

      iter #   2 total cpu time :    20.7 secs   av.it.:   9.5
      thresh= 9.707E-05 alpha_mix =  0.700 |ddv_scf|^2 =  7.493E-08

      iter #   3 total cpu time :    21.0 secs   av.it.:   9.3
      thresh= 2.737E-05 alpha_mix =  0.700 |ddv_scf|^2 =  4.489E-09

      iter #   4 total cpu time :    21.3 secs   av.it.:   8.5
      thresh= 6.700E-06 alpha_mix =  0.700 |ddv_scf|^2 =  6.556E-12

      iter #   5 total cpu time :    21.7 secs   av.it.:   8.8
      thresh= 2.560E-07 alpha_mix =  0.700 |ddv_scf|^2 =  2.561E-14

     End of self-consistent calculation

     Convergence has been achieved 

     Number of q in the star =    4
     List of q in the star:
          1   0.500000000  -0.500000000   0.500000000
          2   0.500000000   0.500000000   0.500000000
          3  -0.500000000   0.500000000   0.500000000
          4   0.500000000   0.500000000  -0.500000000

     Diagonalizing the dynamical matrix

     q = (    0.500000000  -0.500000000   0.500000000 ) 

 **************************************************************************
     freq (    1) =       5.111361 [THz] =     170.496665 [cm-1]
     freq (    2) =       5.111361 [THz] =     170.496665 [cm-1]
     freq (    3) =      11.885906 [THz] =     396.471152 [cm-1]
     freq (    4) =      12.177726 [THz] =     406.205206 [cm-1]
     freq (    5) =      14.684402 [THz] =     489.818933 [cm-1]
     freq (    6) =      14.684402 [THz] =     489.818933 [cm-1]
 **************************************************************************

     Calculation of q =    0.0000000   0.5000000   0.0000000

   Info: using nr1, nr2, nr3 values from input

   Info: using nr1, nr2, nr3 values from input

     Parallelization info
     --------------------
     sticks:   dense  smooth     PW     G-vecs:    dense   smooth      PW
     Min          66      66     27                  722      722     181
     Max          67      67     28                  724      724     182
     Sum         265     265    109                 2891     2891     725



     bravais-lattice index     =            2
     lattice parameter (alat)  =      10.4070  a.u.
     unit-cell volume          =     281.7842 (a.u.)^3
     number of atoms/cell      =            2
     number of atomic types    =            1
     number of electrons       =         8.00
     number of Kohn-Sham states=            4
     kinetic-energy cutoff     =      18.0000  Ry
     charge density cutoff     =      72.0000  Ry
     Exchange-correlation      = SLA  PW   PBE  PBE ( 1  4  3  4 0 0)

     celldm(1)=  10.407000  celldm(2)=   0.000000  celldm(3)=   0.000000
     celldm(4)=   0.000000  celldm(5)=   0.000000  celldm(6)=   0.000000

     crystal axes: (cart. coord. in units of alat)
               a(1) = (  -0.500000   0.000000   0.500000 )  
               a(2) = (   0.000000   0.500000   0.500000 )  
               a(3) = (  -0.500000   0.500000   0.000000 )  

     reciprocal axes: (cart. coord. in units 2 pi/alat)
               b(1) = ( -1.000000 -1.000000  1.000000 )  
               b(2) = (  1.000000  1.000000  1.000000 )  
               b(3) = ( -1.000000  1.000000 -1.000000 )  


     PseudoPot. # 1 for Si read from file:
     /home/max/quantum_espresso/qe-6.1/pseudo/si_pbe_v1.uspp.F.UPF.txt
     MD5 check sum: a056efeee980c13900f22a371efd63c1
     Pseudo is Ultrasoft + core correction, Zval =  4.0
     Generated by new atomic code, or converted to UPF format
     Using radial grid of  899 points,  6 beta functions with: 
                l(1) =   0
                l(2) =   0
                l(3) =   1
                l(4) =   1
                l(5) =   2
                l(6) =   2
     Q(r) pseudized with  8 coefficients,  rinner =    0.900   0.900   0.900
                                                       0.900   0.900

     atomic species   valence    mass     pseudopotential
        Si             4.00    28.08600     Si( 1.00)

     48 Sym. Ops., with inversion, found



   Cartesian axes

     site n.     atom                  positions (alat units)
         1           Si  tau(   1) = (   0.0000000   0.0000000   0.0000000  )
         2           Si  tau(   2) = (   0.2500000   0.2500000   0.2500000  )

     number of k points=    80
                       cart. coord. in units 2pi/alat
        k(    1) = (  -0.1250000   0.1250000   0.1250000), wk =   0.0312500
        k(    2) = (  -0.1250000   0.6250000   0.1250000), wk =   0.0000000
        k(    3) = (  -0.3750000   0.3750000  -0.1250000), wk =   0.0625000
        k(    4) = (  -0.3750000   0.8750000  -0.1250000), wk =   0.0000000
        k(    5) = (   0.3750000  -0.3750000   0.6250000), wk =   0.0625000
        k(    6) = (   0.3750000   0.1250000   0.6250000), wk =   0.0000000
        k(    7) = (   0.1250000  -0.1250000   0.3750000), wk =   0.0625000
        k(    8) = (   0.1250000   0.3750000   0.3750000), wk =   0.0000000
        k(    9) = (  -0.1250000   0.6250000   0.1250000), wk =   0.0312500
        k(   10) = (  -0.1250000   1.1250000   0.1250000), wk =   0.0000000
        k(   11) = (   0.6250000  -0.1250000   0.8750000), wk =   0.0625000
        k(   12) = (   0.6250000   0.3750000   0.8750000), wk =   0.0000000
        k(   13) = (   0.3750000   0.1250000   0.6250000), wk =   0.0625000
        k(   14) = (   0.3750000   0.6250000   0.6250000), wk =   0.0000000
        k(   15) = (  -0.1250000  -0.8750000   0.1250000), wk =   0.0312500
        k(   16) = (  -0.1250000  -0.3750000   0.1250000), wk =   0.0000000
        k(   17) = (  -0.3750000   0.3750000   0.3750000), wk =   0.0312500
        k(   18) = (  -0.3750000   0.8750000   0.3750000), wk =   0.0000000
        k(   19) = (   0.3750000  -0.3750000   1.1250000), wk =   0.0625000
        k(   20) = (   0.3750000   0.1250000   1.1250000), wk =   0.0000000
        k(   21) = (  -0.1250000  -0.1250000   0.1250000), wk =   0.0312500
        k(   22) = (  -0.1250000   0.3750000   0.1250000), wk =   0.0000000
        k(   23) = (   0.1250000  -0.3750000   0.3750000), wk =   0.0625000
        k(   24) = (   0.1250000   0.1250000   0.3750000), wk =   0.0000000
        k(   25) = (   0.3750000  -0.1250000   0.3750000), wk =   0.0312500
        k(   26) = (   0.3750000   0.3750000   0.3750000), wk =   0.0000000
        k(   27) = (   0.3750000   0.1250000   0.3750000), wk =   0.0312500
        k(   28) = (   0.3750000   0.6250000   0.3750000), wk =   0.0000000
        k(   29) = (  -0.6250000   0.3750000  -0.3750000), wk =   0.0625000
        k(   30) = (  -0.6250000   0.8750000  -0.3750000), wk =   0.0000000
        k(   31) = (  -0.3750000   0.6250000  -0.3750000), wk =   0.0312500
        k(   32) = (  -0.3750000   1.1250000  -0.3750000), wk =   0.0000000
        k(   33) = (  -0.3750000  -0.6250000  -0.3750000), wk =   0.0312500
        k(   34) = (  -0.3750000  -0.1250000  -0.3750000), wk =   0.0000000
        k(   35) = (  -0.3750000   0.1250000  -0.1250000), wk =   0.0625000
        k(   36) = (  -0.3750000   0.6250000  -0.1250000), wk =   0.0000000
        k(   37) = (  -0.1250000   0.3750000  -0.1250000), wk =   0.0312500
        k(   38) = (  -0.1250000   0.8750000  -0.1250000), wk =   0.0000000
        k(   39) = (  -0.1250000  -0.3750000  -0.1250000), wk =   0.0312500
        k(   40) = (  -0.1250000   0.1250000  -0.1250000), wk =   0.0000000
        k(   41) = (  -0.1250000  -0.6250000   0.1250000), wk =   0.0312500
        k(   42) = (  -0.1250000  -0.1250000   0.1250000), wk =   0.0000000
        k(   43) = (   0.6250000  -0.1250000  -0.1250000), wk =   0.0625000
        k(   44) = (   0.6250000   0.3750000  -0.1250000), wk =   0.0000000
        k(   45) = (   0.6250000   0.1250000   0.1250000), wk =   0.0625000
        k(   46) = (   0.6250000   0.6250000   0.1250000), wk =   0.0000000
        k(   47) = (  -0.8750000   0.1250000  -0.6250000), wk =   0.0625000
        k(   48) = (  -0.8750000   0.6250000  -0.6250000), wk =   0.0000000
        k(   49) = (  -0.1250000   0.6250000  -0.8750000), wk =   0.0625000
        k(   50) = (  -0.1250000   1.1250000  -0.8750000), wk =   0.0000000
        k(   51) = (  -0.1250000   0.8750000  -0.6250000), wk =   0.0625000
        k(   52) = (  -0.1250000   1.3750000  -0.6250000), wk =   0.0000000
        k(   53) = (  -0.1250000  -0.8750000  -0.6250000), wk =   0.0625000
        k(   54) = (  -0.1250000  -0.3750000  -0.6250000), wk =   0.0000000
        k(   55) = (   0.8750000  -0.6250000   0.1250000), wk =   0.0625000
        k(   56) = (   0.8750000  -0.1250000   0.1250000), wk =   0.0000000
        k(   57) = (  -0.6250000  -0.1250000  -0.3750000), wk =   0.0625000
        k(   58) = (  -0.6250000   0.3750000  -0.3750000), wk =   0.0000000
        k(   59) = (   0.1250000   0.3750000  -0.6250000), wk =   0.0625000
        k(   60) = (   0.1250000   0.8750000  -0.6250000), wk =   0.0000000
        k(   61) = (   0.1250000   0.6250000  -0.3750000), wk =   0.0625000
        k(   62) = (   0.1250000   1.1250000  -0.3750000), wk =   0.0000000
        k(   63) = (   0.1250000  -0.6250000  -0.3750000), wk =   0.0625000
        k(   64) = (   0.1250000  -0.1250000  -0.3750000), wk =   0.0000000
        k(   65) = (   0.6250000  -0.3750000  -0.1250000), wk =   0.0625000
        k(   66) = (   0.6250000   0.1250000  -0.1250000), wk =   0.0000000
        k(   67) = (  -0.1250000   0.8750000   0.1250000), wk =   0.0312500
        k(   68) = (  -0.1250000   1.3750000   0.1250000), wk =   0.0000000
        k(   69) = (  -0.8750000  -0.1250000  -0.1250000), wk =   0.0625000
        k(   70) = (  -0.8750000   0.3750000  -0.1250000), wk =   0.0000000
        k(   71) = (  -0.8750000   0.1250000   0.1250000), wk =   0.0625000
        k(   72) = (  -0.8750000   0.6250000   0.1250000), wk =   0.0000000
        k(   73) = (  -0.3750000  -0.3750000   0.3750000), wk =   0.0312500
        k(   74) = (  -0.3750000   0.1250000   0.3750000), wk =   0.0000000
        k(   75) = (  -1.1250000   0.3750000  -0.3750000), wk =   0.0625000
        k(   76) = (  -1.1250000   0.8750000  -0.3750000), wk =   0.0000000
        k(   77) = (  -0.3750000   1.1250000  -0.3750000), wk =   0.0312500
        k(   78) = (  -0.3750000   1.6250000  -0.3750000), wk =   0.0000000
        k(   79) = (  -0.3750000  -1.1250000  -0.3750000), wk =   0.0312500
        k(   80) = (  -0.3750000  -0.6250000  -0.3750000), wk =   0.0000000

     Dense  grid:     2891 G-vectors     FFT dimensions: (  20,  20,  20)

     Estimated max dynamical RAM per process >       0.33MB

     Estimated total allocated dynamical RAM >       1.33MB

     Check: negative/imaginary core charge=   -0.000006    0.000000

     The potential is recalculated from file :
     ./_ph0/silicon.10.407.save/charge-density.dat

     Starting wfc are    8 atomic wfcs

     Band Structure Calculation
     Davidson diagonalization with overlap

     ethr =  1.25E-10,  avg # of iterations = 11.7

     total cpu time spent up to now is        1.9 secs

     End of band structure calculation

          k =-0.1250 0.1250 0.1250 (   353 PWs)   bands (ev):

    -5.7080   4.1788   5.4903   5.4903

          k =-0.1250 0.6250 0.1250 (   357 PWs)   bands (ev):

    -4.1811   0.8657   3.2098   3.6490

          k =-0.3750 0.3750-0.1250 (   362 PWs)   bands (ev):

    -4.7038   1.2226   3.5456   5.0139

          k =-0.3750 0.8750-0.1250 (   368 PWs)   bands (ev):

    -2.5831  -1.0638   1.8975   2.9448

          k = 0.3750-0.3750 0.6250 (   364 PWs)   bands (ev):

    -3.5967  -0.8039   3.5543   4.2615

          k = 0.3750 0.1250 0.6250 (   365 PWs)   bands (ev):

    -3.7777   0.0238   2.5789   3.9195

          k = 0.1250-0.1250 0.3750 (   358 PWs)   bands (ev):

    -5.1909   2.5704   4.5059   4.5574

          k = 0.1250 0.3750 0.3750 (   362 PWs)   bands (ev):

    -4.7038   1.2226   3.5456   5.0139

          k =-0.1250 0.6250 0.1250 (   357 PWs)   bands (ev):

    -4.1811   0.8657   3.2098   3.6490

          k =-0.1250 1.1250 0.1250 (   364 PWs)   bands (ev):

    -2.7407  -0.9714   2.4889   3.1906

          k = 0.6250-0.1250 0.8750 (   368 PWs)   bands (ev):

    -2.5831  -1.0638   1.8975   2.9448

          k = 0.6250 0.3750 0.8750 (   365 PWs)   bands (ev):

    -3.7777   0.0238   2.5789   3.9195

          k = 0.3750 0.1250 0.6250 (   365 PWs)   bands (ev):

    -3.7777   0.0238   2.5789   3.9195

          k = 0.3750 0.6250 0.6250 (   364 PWs)   bands (ev):

    -3.5967  -0.8039   3.5543   4.2615

          k =-0.1250-0.8750 0.1250 (   364 PWs)   bands (ev):

    -2.7407  -0.9714   2.4889   3.1906

          k =-0.1250-0.3750 0.1250 (   358 PWs)   bands (ev):

    -5.1909   2.5704   4.5059   4.5574

          k =-0.3750 0.3750 0.3750 (   359 PWs)   bands (ev):

    -4.2826  -0.0302   4.7137   4.7137

          k =-0.3750 0.8750 0.3750 (   369 PWs)   bands (ev):

    -3.1107  -0.7475   1.9454   3.9526

          k = 0.3750-0.3750 1.1250 (   369 PWs)   bands (ev):

    -3.1107  -0.7475   1.9454   3.9526

          k = 0.3750 0.1250 1.1250 (   368 PWs)   bands (ev):

    -2.5831  -1.0638   1.8975   2.9448

          k =-0.1250-0.1250 0.1250 (   353 PWs)   bands (ev):

    -5.7080   4.1788   5.4903   5.4903

          k =-0.1250 0.3750 0.1250 (   358 PWs)   bands (ev):

    -5.1909   2.5704   4.5059   4.5574

          k = 0.1250-0.3750 0.3750 (   362 PWs)   bands (ev):

    -4.7038   1.2226   3.5456   5.0139

          k = 0.1250 0.1250 0.3750 (   358 PWs)   bands (ev):

    -5.1909   2.5704   4.5059   4.5574

          k = 0.3750-0.1250 0.3750 (   362 PWs)   bands (ev):

    -4.7038   1.2226   3.5456   5.0139

          k = 0.3750 0.3750 0.3750 (   359 PWs)   bands (ev):

    -4.2826  -0.0302   4.7137   4.7137

          k = 0.3750 0.1250 0.3750 (   362 PWs)   bands (ev):

    -4.7038   1.2226   3.5456   5.0139

          k = 0.3750 0.6250 0.3750 (   364 PWs)   bands (ev):

    -3.5967  -0.8039   3.5543   4.2615

          k =-0.6250 0.3750-0.3750 (   364 PWs)   bands (ev):

    -3.5967  -0.8039   3.5543   4.2615

          k =-0.6250 0.8750-0.3750 (   365 PWs)   bands (ev):

    -3.7777   0.0238   2.5789   3.9195

          k =-0.3750 0.6250-0.3750 (   364 PWs)   bands (ev):

    -3.5967  -0.8039   3.5543   4.2615

          k =-0.3750 1.1250-0.3750 (   369 PWs)   bands (ev):

    -3.1107  -0.7475   1.9454   3.9526

          k =-0.3750-0.6250-0.3750 (   364 PWs)   bands (ev):

    -3.5967  -0.8039   3.5543   4.2615

          k =-0.3750-0.1250-0.3750 (   362 PWs)   bands (ev):

    -4.7038   1.2226   3.5456   5.0139

          k =-0.3750 0.1250-0.1250 (   358 PWs)   bands (ev):

    -5.1909   2.5704   4.5059   4.5574

          k =-0.3750 0.6250-0.1250 (   365 PWs)   bands (ev):

    -3.7777   0.0238   2.5789   3.9195

          k =-0.1250 0.3750-0.1250 (   358 PWs)   bands (ev):

    -5.1909   2.5704   4.5059   4.5574

          k =-0.1250 0.8750-0.1250 (   364 PWs)   bands (ev):

    -2.7407  -0.9714   2.4889   3.1906

          k =-0.1250-0.3750-0.1250 (   358 PWs)   bands (ev):

    -5.1909   2.5704   4.5059   4.5574

          k =-0.1250 0.1250-0.1250 (   353 PWs)   bands (ev):

    -5.7080   4.1788   5.4903   5.4903

          k =-0.1250-0.6250 0.1250 (   357 PWs)   bands (ev):

    -4.1811   0.8657   3.2098   3.6490

          k =-0.1250-0.1250 0.1250 (   353 PWs)   bands (ev):

    -5.7080   4.1788   5.4903   5.4903

          k = 0.6250-0.1250-0.1250 (   357 PWs)   bands (ev):

    -4.1811   0.8657   3.2098   3.6490

          k = 0.6250 0.3750-0.1250 (   365 PWs)   bands (ev):

    -3.7777   0.0238   2.5789   3.9195

          k = 0.6250 0.1250 0.1250 (   357 PWs)   bands (ev):

    -4.1811   0.8657   3.2098   3.6490

          k = 0.6250 0.6250 0.1250 (   369 PWs)   bands (ev):

    -3.1107  -0.7475   1.9454   3.9526

          k =-0.8750 0.1250-0.6250 (   368 PWs)   bands (ev):

    -2.5831  -1.0638   1.8975   2.9448

          k =-0.8750 0.6250-0.6250 (   362 PWs)   bands (ev):

    -4.7038   1.2226   3.5456   5.0139

          k =-0.1250 0.6250-0.8750 (   368 PWs)   bands (ev):

    -2.5831  -1.0638   1.8975   2.9448

          k =-0.1250 1.1250-0.8750 (   364 PWs)   bands (ev):

    -2.7407  -0.9714   2.4889   3.1906

          k =-0.1250 0.8750-0.6250 (   368 PWs)   bands (ev):

    -2.5831  -1.0638   1.8975   2.9448

          k =-0.1250 1.3750-0.6250 (   369 PWs)   bands (ev):

    -3.1107  -0.7475   1.9454   3.9526

          k =-0.1250-0.8750-0.6250 (   368 PWs)   bands (ev):

    -2.5831  -1.0638   1.8975   2.9448

          k =-0.1250-0.3750-0.6250 (   365 PWs)   bands (ev):

    -3.7777   0.0238   2.5789   3.9195

          k = 0.8750-0.6250 0.1250 (   368 PWs)   bands (ev):

    -2.5831  -1.0638   1.8975   2.9448

          k = 0.8750-0.1250 0.1250 (   364 PWs)   bands (ev):

    -2.7407  -0.9714   2.4889   3.1906

          k =-0.6250-0.1250-0.3750 (   365 PWs)   bands (ev):

    -3.7777   0.0238   2.5789   3.9195

          k =-0.6250 0.3750-0.3750 (   364 PWs)   bands (ev):

    -3.5967  -0.8039   3.5543   4.2615

          k = 0.1250 0.3750-0.6250 (   365 PWs)   bands (ev):

    -3.7777   0.0238   2.5789   3.9195

          k = 0.1250 0.8750-0.6250 (   368 PWs)   bands (ev):

    -2.5831  -1.0638   1.8975   2.9448

          k = 0.1250 0.6250-0.3750 (   365 PWs)   bands (ev):

    -3.7777   0.0238   2.5789   3.9195

          k = 0.1250 1.1250-0.3750 (   368 PWs)   bands (ev):

    -2.5831  -1.0638   1.8975   2.9448

          k = 0.1250-0.6250-0.3750 (   365 PWs)   bands (ev):

    -3.7777   0.0238   2.5789   3.9195

          k = 0.1250-0.1250-0.3750 (   358 PWs)   bands (ev):

    -5.1909   2.5704   4.5059   4.5574

          k = 0.6250-0.3750-0.1250 (   365 PWs)   bands (ev):

    -3.7777   0.0238   2.5789   3.9195

          k = 0.6250 0.1250-0.1250 (   357 PWs)   bands (ev):

    -4.1811   0.8657   3.2098   3.6490

          k =-0.1250 0.8750 0.1250 (   364 PWs)   bands (ev):

    -2.7407  -0.9714   2.4889   3.1906

          k =-0.1250 1.3750 0.1250 (   357 PWs)   bands (ev):

    -4.1811   0.8657   3.2098   3.6490

          k =-0.8750-0.1250-0.1250 (   364 PWs)   bands (ev):

    -2.7407  -0.9714   2.4889   3.1906

          k =-0.8750 0.3750-0.1250 (   368 PWs)   bands (ev):

    -2.5831  -1.0638   1.8975   2.9448

          k =-0.8750 0.1250 0.1250 (   364 PWs)   bands (ev):

    -2.7407  -0.9714   2.4889   3.1906

          k =-0.8750 0.6250 0.1250 (   368 PWs)   bands (ev):

    -2.5831  -1.0638   1.8975   2.9448

          k =-0.3750-0.3750 0.3750 (   359 PWs)   bands (ev):

    -4.2826  -0.0302   4.7137   4.7137

          k =-0.3750 0.1250 0.3750 (   362 PWs)   bands (ev):

    -4.7038   1.2226   3.5456   5.0139

          k =-1.1250 0.3750-0.3750 (   369 PWs)   bands (ev):

    -3.1107  -0.7475   1.9454   3.9526

          k =-1.1250 0.8750-0.3750 (   357 PWs)   bands (ev):

    -4.1811   0.8657   3.2098   3.6490

          k =-0.3750 1.1250-0.3750 (   369 PWs)   bands (ev):

    -3.1107  -0.7475   1.9454   3.9526

          k =-0.3750 1.6250-0.3750 (   359 PWs)   bands (ev):

    -4.2826  -0.0302   4.7137   4.7137

          k =-0.3750-1.1250-0.3750 (   369 PWs)   bands (ev):

    -3.1107  -0.7475   1.9454   3.9526

          k =-0.3750-0.6250-0.3750 (   364 PWs)   bands (ev):

    -3.5967  -0.8039   3.5543   4.2615

     highest occupied level (ev):     5.4903

     Writing output data file silicon.10.407.save

                                                                                

     bravais-lattice index     =            2
     lattice parameter (alat)  =      10.4070  a.u.
     unit-cell volume          =     281.7842 (a.u.)^3
     number of atoms/cell      =            2
     number of atomic types    =            1
     kinetic-energy cut-off    =      18.0000  Ry
     charge density cut-off    =      72.0000  Ry
     convergence threshold     =      1.0E-12
     beta                      =       0.7000
     number of iterations used =            4
     Exchange-correlation      = SLA  PW   PBE  PBE ( 1  4  3  4 0 0)


     celldm(1)=   10.40700  celldm(2)=    0.00000  celldm(3)=    0.00000
     celldm(4)=    0.00000  celldm(5)=    0.00000  celldm(6)=    0.00000

     crystal axes: (cart. coord. in units of alat)
               a(1) = ( -0.5000  0.0000  0.5000 )  
               a(2) = (  0.0000  0.5000  0.5000 )  
               a(3) = ( -0.5000  0.5000  0.0000 )  

     reciprocal axes: (cart. coord. in units 2 pi/alat)
               b(1) = ( -1.0000 -1.0000  1.0000 )  
               b(2) = (  1.0000  1.0000  1.0000 )  
               b(3) = ( -1.0000  1.0000 -1.0000 )  


     Atoms inside the unit cell: 

     Cartesian axes

     site n.  atom      mass           positions (alat units)
        1     Si  28.0860   tau(    1) = (    0.00000    0.00000    0.00000  )
        2     Si  28.0860   tau(    2) = (    0.25000    0.25000    0.25000  )

     Computing dynamical matrix for 
                    q = (   0.0000000   0.5000000   0.0000000 )

      8 Sym.Ops. (no q -> -q+G )


     G cutoff =  197.5258  (    722 G-vectors)     FFT grid: ( 20, 20, 20)
     number of k points=    80

     PseudoPot. # 1 for Si read from file:
     /home/max/quantum_espresso/qe-6.1/pseudo/si_pbe_v1.uspp.F.UPF.txt
     MD5 check sum: a056efeee980c13900f22a371efd63c1
     Pseudo is Ultrasoft + core correction, Zval =  4.0
     Generated by new atomic code, or converted to UPF format
     Using radial grid of  899 points,  6 beta functions with: 
                l(1) =   0
                l(2) =   0
                l(3) =   1
                l(4) =   1
                l(5) =   2
                l(6) =   2
     Q(r) pseudized with  8 coefficients,  rinner =    0.900   0.900   0.900
                                                       0.900   0.900

     Mode symmetry, C_4v (4mm)  point group:


     Atomic displacements:
     There are   4 irreducible representations

     Representation     1      1 modes -A_1  G_1 D_1  To be done

     Representation     2      1 modes -B_2  G_4 D_2'  To be done

     Representation     3      2 modes -E    G_5 D_5  To be done

     Representation     4      2 modes -E    G_5 D_5  To be done



     Alpha used in Ewald sum =   0.7000
     PHONON       :    21.09s CPU        22.57s WALL



     Representation #  1 mode #   1

     Self-consistent Calculation

      iter #   1 total cpu time :    22.7 secs   av.it.:   5.8
      thresh= 1.000E-02 alpha_mix =  0.700 |ddv_scf|^2 =  2.920E-03

      iter #   2 total cpu time :    22.9 secs   av.it.:   7.6
      thresh= 5.404E-03 alpha_mix =  0.700 |ddv_scf|^2 =  3.883E-02

      iter #   3 total cpu time :    23.1 secs   av.it.:   6.7
      thresh= 1.000E-02 alpha_mix =  0.700 |ddv_scf|^2 =  1.466E-07

      iter #   4 total cpu time :    23.2 secs   av.it.:   8.2
      thresh= 3.829E-05 alpha_mix =  0.700 |ddv_scf|^2 =  1.635E-08

      iter #   5 total cpu time :    23.4 secs   av.it.:   7.7
      thresh= 1.279E-05 alpha_mix =  0.700 |ddv_scf|^2 =  6.907E-10

      iter #   6 total cpu time :    23.8 secs   av.it.:   7.9
      thresh= 2.628E-06 alpha_mix =  0.700 |ddv_scf|^2 =  2.945E-12

      iter #   7 total cpu time :    23.9 secs   av.it.:   7.9
      thresh= 1.716E-07 alpha_mix =  0.700 |ddv_scf|^2 =  5.397E-13

     End of self-consistent calculation

     Convergence has been achieved 


     Representation #  2 mode #   2

     Self-consistent Calculation

      iter #   1 total cpu time :    24.1 secs   av.it.:   4.9
      thresh= 1.000E-02 alpha_mix =  0.700 |ddv_scf|^2 =  5.136E-06

      iter #   2 total cpu time :    24.3 secs   av.it.:   8.7
      thresh= 2.266E-04 alpha_mix =  0.700 |ddv_scf|^2 =  1.346E-06

      iter #   3 total cpu time :    24.5 secs   av.it.:   8.5
      thresh= 1.160E-04 alpha_mix =  0.700 |ddv_scf|^2 =  3.179E-08

      iter #   4 total cpu time :    24.7 secs   av.it.:   8.2
      thresh= 1.783E-05 alpha_mix =  0.700 |ddv_scf|^2 =  7.763E-10

      iter #   5 total cpu time :    24.9 secs   av.it.:   8.6
      thresh= 2.786E-06 alpha_mix =  0.700 |ddv_scf|^2 =  8.312E-12

      iter #   6 total cpu time :    25.0 secs   av.it.:   7.8
      thresh= 2.883E-07 alpha_mix =  0.700 |ddv_scf|^2 =  9.575E-14

     End of self-consistent calculation

     Convergence has been achieved 


     Representation #  3 modes #   3  4

     Self-consistent Calculation

      iter #   1 total cpu time :    25.3 secs   av.it.:   5.0
      thresh= 1.000E-02 alpha_mix =  0.700 |ddv_scf|^2 =  9.393E-07

      iter #   2 total cpu time :    25.9 secs   av.it.:   9.8
      thresh= 9.692E-05 alpha_mix =  0.700 |ddv_scf|^2 =  1.192E-07

      iter #   3 total cpu time :    26.3 secs   av.it.:   9.5
      thresh= 3.453E-05 alpha_mix =  0.700 |ddv_scf|^2 =  4.956E-09

      iter #   4 total cpu time :    26.7 secs   av.it.:   8.9
      thresh= 7.040E-06 alpha_mix =  0.700 |ddv_scf|^2 =  8.866E-12

      iter #   5 total cpu time :    27.1 secs   av.it.:   9.1
      thresh= 2.978E-07 alpha_mix =  0.700 |ddv_scf|^2 =  3.027E-13

     End of self-consistent calculation

     Convergence has been achieved 


     Representation #  4 modes #   5  6

     Self-consistent Calculation

      iter #   1 total cpu time :    27.4 secs   av.it.:   5.0
      thresh= 1.000E-02 alpha_mix =  0.700 |ddv_scf|^2 =  9.434E-07

      iter #   2 total cpu time :    27.9 secs   av.it.:   9.8
      thresh= 9.713E-05 alpha_mix =  0.700 |ddv_scf|^2 =  1.198E-07

      iter #   3 total cpu time :    28.3 secs   av.it.:   9.5
      thresh= 3.461E-05 alpha_mix =  0.700 |ddv_scf|^2 =  7.401E-09

      iter #   4 total cpu time :    28.7 secs   av.it.:   8.9
      thresh= 8.603E-06 alpha_mix =  0.700 |ddv_scf|^2 =  1.553E-11

      iter #   5 total cpu time :    29.1 secs   av.it.:   9.2
      thresh= 3.941E-07 alpha_mix =  0.700 |ddv_scf|^2 =  4.598E-14

     End of self-consistent calculation

     Convergence has been achieved 

     Number of q in the star =    6
     List of q in the star:
          1   0.000000000   0.500000000   0.000000000
          2   0.000000000  -0.500000000   0.000000000
          3   0.500000000   0.000000000   0.000000000
          4   0.000000000   0.000000000   0.500000000
          5   0.000000000   0.000000000  -0.500000000
          6  -0.500000000   0.000000000   0.000000000

     Diagonalizing the dynamical matrix

     q = (    0.000000000   0.500000000   0.000000000 ) 

 **************************************************************************
     freq (    1) =       4.404397 [THz] =     146.914872 [cm-1]
     freq (    2) =       4.404397 [THz] =     146.914872 [cm-1]
     freq (    3) =       6.994719 [THz] =     233.318703 [cm-1]
     freq (    4) =      14.191668 [THz] =     473.383076 [cm-1]
     freq (    5) =      14.191668 [THz] =     473.383076 [cm-1]
     freq (    6) =      14.902610 [THz] =     497.097550 [cm-1]
 **************************************************************************

     Mode symmetry, C_4v (4mm)  point group:

     freq (  1 -  2) =        146.9  [cm-1]   --> E    G_5 D_5       
     freq (  3 -  3) =        233.3  [cm-1]   --> A_1  G_1 D_1       
     freq (  4 -  5) =        473.4  [cm-1]   --> E    G_5 D_5       
     freq (  6 -  6) =        497.1  [cm-1]   --> B_2  G_4 D_2'      

     Calculation of q =    0.7500000  -0.2500000   0.7500000

   Info: using nr1, nr2, nr3 values from input

   Info: using nr1, nr2, nr3 values from input

     Parallelization info
     --------------------
     sticks:   dense  smooth     PW     G-vecs:    dense   smooth      PW
     Min          65      65     30                  722      722     216
     Max          67      67     31                  723      723     218
     Sum         265     265    121                 2891     2891     869



     bravais-lattice index     =            2
     lattice parameter (alat)  =      10.4070  a.u.
     unit-cell volume          =     281.7842 (a.u.)^3
     number of atoms/cell      =            2
     number of atomic types    =            1
     number of electrons       =         8.00
     number of Kohn-Sham states=            4
     kinetic-energy cutoff     =      18.0000  Ry
     charge density cutoff     =      72.0000  Ry
     Exchange-correlation      = SLA  PW   PBE  PBE ( 1  4  3  4 0 0)

     celldm(1)=  10.407000  celldm(2)=   0.000000  celldm(3)=   0.000000
     celldm(4)=   0.000000  celldm(5)=   0.000000  celldm(6)=   0.000000

     crystal axes: (cart. coord. in units of alat)
               a(1) = (  -0.500000   0.000000   0.500000 )  
               a(2) = (   0.000000   0.500000   0.500000 )  
               a(3) = (  -0.500000   0.500000   0.000000 )  

     reciprocal axes: (cart. coord. in units 2 pi/alat)
               b(1) = ( -1.000000 -1.000000  1.000000 )  
               b(2) = (  1.000000  1.000000  1.000000 )  
               b(3) = ( -1.000000  1.000000 -1.000000 )  


     PseudoPot. # 1 for Si read from file:
     /home/max/quantum_espresso/qe-6.1/pseudo/si_pbe_v1.uspp.F.UPF.txt
     MD5 check sum: a056efeee980c13900f22a371efd63c1
     Pseudo is Ultrasoft + core correction, Zval =  4.0
     Generated by new atomic code, or converted to UPF format
     Using radial grid of  899 points,  6 beta functions with: 
                l(1) =   0
                l(2) =   0
                l(3) =   1
                l(4) =   1
                l(5) =   2
                l(6) =   2
     Q(r) pseudized with  8 coefficients,  rinner =    0.900   0.900   0.900
                                                       0.900   0.900

     atomic species   valence    mass     pseudopotential
        Si             4.00    28.08600     Si( 1.00)

     48 Sym. Ops., with inversion, found



   Cartesian axes

     site n.     atom                  positions (alat units)
         1           Si  tau(   1) = (   0.0000000   0.0000000   0.0000000  )
         2           Si  tau(   2) = (   0.2500000   0.2500000   0.2500000  )

     number of k points=   288

     Number of k-points >= 100: set verbosity='high' to print them.

     Dense  grid:     2891 G-vectors     FFT dimensions: (  20,  20,  20)

     Estimated max dynamical RAM per process >       0.33MB

     Estimated total allocated dynamical RAM >       1.33MB

     Check: negative/imaginary core charge=   -0.000006    0.000000

     The potential is recalculated from file :
     ./_ph0/silicon.10.407.save/charge-density.dat

     Starting wfc are    8 atomic wfcs

     Band Structure Calculation
     Davidson diagonalization with overlap

     ethr =  1.25E-10,  avg # of iterations = 11.6

     total cpu time spent up to now is        3.9 secs

     End of band structure calculation

     Number of k-points >= 100: set verbosity='high' to print the bands.

     highest occupied level (ev):     5.4903

     Writing output data file silicon.10.407.save

                                                                                

     bravais-lattice index     =            2
     lattice parameter (alat)  =      10.4070  a.u.
     unit-cell volume          =     281.7842 (a.u.)^3
     number of atoms/cell      =            2
     number of atomic types    =            1
     kinetic-energy cut-off    =      18.0000  Ry
     charge density cut-off    =      72.0000  Ry
     convergence threshold     =      1.0E-12
     beta                      =       0.7000
     number of iterations used =            4
     Exchange-correlation      = SLA  PW   PBE  PBE ( 1  4  3  4 0 0)


     celldm(1)=   10.40700  celldm(2)=    0.00000  celldm(3)=    0.00000
     celldm(4)=    0.00000  celldm(5)=    0.00000  celldm(6)=    0.00000

     crystal axes: (cart. coord. in units of alat)
               a(1) = ( -0.5000  0.0000  0.5000 )  
               a(2) = (  0.0000  0.5000  0.5000 )  
               a(3) = ( -0.5000  0.5000  0.0000 )  

     reciprocal axes: (cart. coord. in units 2 pi/alat)
               b(1) = ( -1.0000 -1.0000  1.0000 )  
               b(2) = (  1.0000  1.0000  1.0000 )  
               b(3) = ( -1.0000  1.0000 -1.0000 )  


     Atoms inside the unit cell: 

     Cartesian axes

     site n.  atom      mass           positions (alat units)
        1     Si  28.0860   tau(    1) = (    0.00000    0.00000    0.00000  )
        2     Si  28.0860   tau(    2) = (    0.25000    0.25000    0.25000  )

     Computing dynamical matrix for 
                    q = (   0.7500000  -0.2500000   0.7500000 )

      2 Sym.Ops. (no q -> -q+G )


     G cutoff =  197.5258  (    723 G-vectors)     FFT grid: ( 20, 20, 20)
     number of k points=   288

     PseudoPot. # 1 for Si read from file:
     /home/max/quantum_espresso/qe-6.1/pseudo/si_pbe_v1.uspp.F.UPF.txt
     MD5 check sum: a056efeee980c13900f22a371efd63c1
     Pseudo is Ultrasoft + core correction, Zval =  4.0
     Generated by new atomic code, or converted to UPF format
     Using radial grid of  899 points,  6 beta functions with: 
                l(1) =   0
                l(2) =   0
                l(3) =   1
                l(4) =   1
                l(5) =   2
                l(6) =   2
     Q(r) pseudized with  8 coefficients,  rinner =    0.900   0.900   0.900
                                                       0.900   0.900

     Mode symmetry, C_s (m)     point group:


     Atomic displacements:
     There are   6 irreducible representations

     Representation     1      1 modes -A'  To be done

     Representation     2      1 modes -A'  To be done

     Representation     3      1 modes -A'  To be done

     Representation     4      1 modes -A'  To be done

     Representation     5      1 modes -A''  To be done

     Representation     6      1 modes -A''  To be done



     Alpha used in Ewald sum =   0.7000
     PHONON       :    29.84s CPU        31.93s WALL



     Representation #  1 mode #   1

     Self-consistent Calculation

      iter #   1 total cpu time :    32.4 secs   av.it.:   5.3
      thresh= 1.000E-02 alpha_mix =  0.700 |ddv_scf|^2 =  6.032E-05

      iter #   2 total cpu time :    33.1 secs   av.it.:   8.9
      thresh= 7.767E-04 alpha_mix =  0.700 |ddv_scf|^2 =  1.604E-04

      iter #   3 total cpu time :    33.8 secs   av.it.:   7.6
      thresh= 1.266E-03 alpha_mix =  0.700 |ddv_scf|^2 =  1.128E-06

      iter #   4 total cpu time :    34.5 secs   av.it.:   8.4
      thresh= 1.062E-04 alpha_mix =  0.700 |ddv_scf|^2 =  5.812E-08

      iter #   5 total cpu time :    35.1 secs   av.it.:   8.3
      thresh= 2.411E-05 alpha_mix =  0.700 |ddv_scf|^2 =  7.325E-09

      iter #   6 total cpu time :    35.9 secs   av.it.:   8.5
      thresh= 8.559E-06 alpha_mix =  0.700 |ddv_scf|^2 =  9.750E-11

      iter #   7 total cpu time :    36.6 secs   av.it.:   8.7
      thresh= 9.874E-07 alpha_mix =  0.700 |ddv_scf|^2 =  3.362E-12

      iter #   8 total cpu time :    37.2 secs   av.it.:   8.6
      thresh= 1.834E-07 alpha_mix =  0.700 |ddv_scf|^2 =  2.187E-13

     End of self-consistent calculation

     Convergence has been achieved 


     Representation #  2 mode #   2

     Self-consistent Calculation

      iter #   1 total cpu time :    37.9 secs   av.it.:   5.4
      thresh= 1.000E-02 alpha_mix =  0.700 |ddv_scf|^2 =  1.075E-04

      iter #   2 total cpu time :    38.6 secs   av.it.:   8.7
      thresh= 1.037E-03 alpha_mix =  0.700 |ddv_scf|^2 =  3.089E-04

      iter #   3 total cpu time :    39.1 secs   av.it.:   7.4
      thresh= 1.758E-03 alpha_mix =  0.700 |ddv_scf|^2 =  8.077E-07

      iter #   4 total cpu time :    39.9 secs   av.it.:   8.5
      thresh= 8.987E-05 alpha_mix =  0.700 |ddv_scf|^2 =  5.621E-08

      iter #   5 total cpu time :    40.6 secs   av.it.:   8.2
      thresh= 2.371E-05 alpha_mix =  0.700 |ddv_scf|^2 =  1.068E-08

      iter #   6 total cpu time :    41.2 secs   av.it.:   8.5
      thresh= 1.033E-05 alpha_mix =  0.700 |ddv_scf|^2 =  9.756E-11

      iter #   7 total cpu time :    42.0 secs   av.it.:   8.7
      thresh= 9.877E-07 alpha_mix =  0.700 |ddv_scf|^2 =  3.090E-12

      iter #   8 total cpu time :    42.7 secs   av.it.:   8.6
      thresh= 1.758E-07 alpha_mix =  0.700 |ddv_scf|^2 =  9.742E-13

     End of self-consistent calculation

     Convergence has been achieved 


     Representation #  3 mode #   3

     Self-consistent Calculation

      iter #   1 total cpu time :    43.2 secs   av.it.:   5.3
      thresh= 1.000E-02 alpha_mix =  0.700 |ddv_scf|^2 =  8.437E-05

      iter #   2 total cpu time :    44.1 secs   av.it.:   8.8
      thresh= 9.185E-04 alpha_mix =  0.700 |ddv_scf|^2 =  2.262E-04

      iter #   3 total cpu time :    44.6 secs   av.it.:   7.4
      thresh= 1.504E-03 alpha_mix =  0.700 |ddv_scf|^2 =  1.375E-06

      iter #   4 total cpu time :    45.3 secs   av.it.:   8.2
      thresh= 1.173E-04 alpha_mix =  0.700 |ddv_scf|^2 =  5.788E-08

      iter #   5 total cpu time :    46.1 secs   av.it.:   8.4
      thresh= 2.406E-05 alpha_mix =  0.700 |ddv_scf|^2 =  1.100E-08

      iter #   6 total cpu time :    46.7 secs   av.it.:   8.5
      thresh= 1.049E-05 alpha_mix =  0.700 |ddv_scf|^2 =  5.584E-11

      iter #   7 total cpu time :    47.4 secs   av.it.:   8.7
      thresh= 7.473E-07 alpha_mix =  0.700 |ddv_scf|^2 =  2.153E-12

      iter #   8 total cpu time :    48.2 secs   av.it.:   8.8
      thresh= 1.467E-07 alpha_mix =  0.700 |ddv_scf|^2 =  5.198E-13

     End of self-consistent calculation

     Convergence has been achieved 


     Representation #  4 mode #   4

     Self-consistent Calculation

      iter #   1 total cpu time :    48.7 secs   av.it.:   5.2
      thresh= 1.000E-02 alpha_mix =  0.700 |ddv_scf|^2 =  3.718E-05

      iter #   2 total cpu time :    49.4 secs   av.it.:   9.0
[...]
        k(   59) = (  -0.8750000   0.1250000  -0.1250000), wk =   0.0625000
        k(   60) = (  -1.3750000  -0.8750000  -0.1250000), wk =   0.0000000
        k(   61) = (  -1.1250000   0.3750000  -0.3750000), wk =   0.0625000
        k(   62) = (  -1.6250000  -0.6250000  -0.3750000), wk =   0.0000000
        k(   63) = (  -0.3750000   0.3750000   1.1250000), wk =   0.0625000
        k(   64) = (  -0.8750000  -0.6250000   1.1250000), wk =   0.0000000

     Dense  grid:     2891 G-vectors     FFT dimensions: (  20,  20,  20)

     Estimated max dynamical RAM per process >       0.33MB

     Estimated total allocated dynamical RAM >       1.33MB

     Check: negative/imaginary core charge=   -0.000006    0.000000

     The potential is recalculated from file :
     ./_ph0/silicon.10.407.save/charge-density.dat

     Starting wfc are    8 atomic wfcs

     Band Structure Calculation
     Davidson diagonalization with overlap

     ethr =  1.25E-10,  avg # of iterations = 11.6

     total cpu time spent up to now is        6.1 secs

     End of band structure calculation

          k =-0.1250 0.1250 0.1250 (   353 PWs)   bands (ev):

    -5.7080   4.1788   5.4903   5.4903

          k =-0.6250-0.8750 0.1250 (   368 PWs)   bands (ev):

    -2.5831  -1.0638   1.8975   2.9448

          k =-0.3750 0.3750-0.1250 (   362 PWs)   bands (ev):

    -4.7038   1.2226   3.5456   5.0139

          k =-0.8750-0.6250-0.1250 (   368 PWs)   bands (ev):

    -2.5831  -1.0638   1.8975   2.9448

          k = 0.3750-0.3750 0.6250 (   364 PWs)   bands (ev):

    -3.5967  -0.8039   3.5543   4.2615

          k =-0.1250-1.3750 0.6250 (   369 PWs)   bands (ev):

    -3.1107  -0.7475   1.9454   3.9526

          k = 0.1250-0.1250 0.3750 (   358 PWs)   bands (ev):

    -5.1909   2.5704   4.5059   4.5574

          k =-0.3750-1.1250 0.3750 (   369 PWs)   bands (ev):

    -3.1107  -0.7475   1.9454   3.9526

          k =-0.1250 0.6250 0.1250 (   357 PWs)   bands (ev):

    -4.1811   0.8657   3.2098   3.6490

          k =-0.6250-0.3750 0.1250 (   365 PWs)   bands (ev):

    -3.7777   0.0238   2.5789   3.9195

          k = 0.6250-0.1250 0.8750 (   368 PWs)   bands (ev):

    -2.5831  -1.0638   1.8975   2.9448

          k = 0.1250-1.1250 0.8750 (   364 PWs)   bands (ev):

    -2.7407  -0.9714   2.4889   3.1906

          k = 0.3750 0.1250 0.6250 (   365 PWs)   bands (ev):

    -3.7777   0.0238   2.5789   3.9195

          k =-0.1250-0.8750 0.6250 (   368 PWs)   bands (ev):

    -2.5831  -1.0638   1.8975   2.9448

          k =-0.1250-0.8750 0.1250 (   364 PWs)   bands (ev):

    -2.7407  -0.9714   2.4889   3.1906

          k =-0.6250-1.8750 0.1250 (   357 PWs)   bands (ev):

    -4.1811   0.8657   3.2098   3.6490

          k =-0.3750 0.3750 0.3750 (   359 PWs)   bands (ev):

    -4.2826  -0.0302   4.7137   4.7137

          k =-0.8750-0.6250 0.3750 (   365 PWs)   bands (ev):

    -3.7777   0.0238   2.5789   3.9195

          k = 0.3750-0.3750 1.1250 (   369 PWs)   bands (ev):

    -3.1107  -0.7475   1.9454   3.9526

          k =-0.1250-1.3750 1.1250 (   368 PWs)   bands (ev):

    -2.5831  -1.0638   1.8975   2.9448

          k = 0.1250-0.3750 0.3750 (   362 PWs)   bands (ev):

    -4.7038   1.2226   3.5456   5.0139

          k =-0.3750-1.3750 0.3750 (   364 PWs)   bands (ev):

    -3.5967  -0.8039   3.5543   4.2615

          k = 0.3750-0.3750-0.1250 (   362 PWs)   bands (ev):

    -4.7038   1.2226   3.5456   5.0139

          k =-0.1250-1.3750-0.1250 (   357 PWs)   bands (ev):

    -4.1811   0.8657   3.2098   3.6490

          k =-0.6250 0.3750-0.3750 (   364 PWs)   bands (ev):

    -3.5967  -0.8039   3.5543   4.2615

          k =-1.1250-0.6250-0.3750 (   365 PWs)   bands (ev):

    -3.7777   0.0238   2.5789   3.9195

          k =-0.3750 0.3750 0.6250 (   364 PWs)   bands (ev):

    -3.5967  -0.8039   3.5543   4.2615

          k =-0.8750-0.6250 0.6250 (   362 PWs)   bands (ev):

    -4.7038   1.2226   3.5456   5.0139

          k =-0.3750 0.1250-0.1250 (   358 PWs)   bands (ev):

    -5.1909   2.5704   4.5059   4.5574

          k =-0.8750-0.8750-0.1250 (   364 PWs)   bands (ev):

    -2.7407  -0.9714   2.4889   3.1906

          k =-0.1250 0.1250 0.3750 (   358 PWs)   bands (ev):

    -5.1909   2.5704   4.5059   4.5574

          k =-0.6250-0.8750 0.3750 (   365 PWs)   bands (ev):

    -3.7777   0.0238   2.5789   3.9195

          k = 0.1250 0.6250-0.1250 (   357 PWs)   bands (ev):

    -4.1811   0.8657   3.2098   3.6490

          k =-0.3750-0.3750-0.1250 (   362 PWs)   bands (ev):

    -4.7038   1.2226   3.5456   5.0139

          k = 0.6250 0.1250-0.1250 (   357 PWs)   bands (ev):

    -4.1811   0.8657   3.2098   3.6490

          k = 0.1250-0.8750-0.1250 (   364 PWs)   bands (ev):

    -2.7407  -0.9714   2.4889   3.1906

          k =-0.8750 0.1250-0.6250 (   368 PWs)   bands (ev):

    -2.5831  -1.0638   1.8975   2.9448

          k =-1.3750-0.8750-0.6250 (   362 PWs)   bands (ev):

    -4.7038   1.2226   3.5456   5.0139

          k = 0.8750-0.1250 0.6250 (   368 PWs)   bands (ev):

    -2.5831  -1.0638   1.8975   2.9448

          k = 0.3750-1.1250 0.6250 (   365 PWs)   bands (ev):

    -3.7777   0.0238   2.5789   3.9195

          k =-0.6250 0.1250 0.8750 (   368 PWs)   bands (ev):

    -2.5831  -1.0638   1.8975   2.9448

          k =-1.1250-0.8750 0.8750 (   353 PWs)   bands (ev):

    -5.7080   4.1788   5.4903   5.4903

          k =-0.1250 0.8750 0.6250 (   368 PWs)   bands (ev):

    -2.5831  -1.0638   1.8975   2.9448

          k =-0.6250-0.1250 0.6250 (   369 PWs)   bands (ev):

    -3.1107  -0.7475   1.9454   3.9526

          k = 0.1250 0.8750-0.6250 (   368 PWs)   bands (ev):

    -2.5831  -1.0638   1.8975   2.9448

          k =-0.3750-0.1250-0.6250 (   365 PWs)   bands (ev):

    -3.7777   0.0238   2.5789   3.9195

          k =-0.6250-0.1250-0.3750 (   365 PWs)   bands (ev):

    -3.7777   0.0238   2.5789   3.9195

          k =-1.1250-1.1250-0.3750 (   357 PWs)   bands (ev):

    -4.1811   0.8657   3.2098   3.6490

          k = 0.6250 0.1250 0.3750 (   365 PWs)   bands (ev):

    -3.7777   0.0238   2.5789   3.9195

          k = 0.1250-0.8750 0.3750 (   368 PWs)   bands (ev):

    -2.5831  -1.0638   1.8975   2.9448

          k =-0.3750-0.1250 0.6250 (   365 PWs)   bands (ev):

    -3.7777   0.0238   2.5789   3.9195

          k =-0.8750-1.1250 0.6250 (   358 PWs)   bands (ev):

    -5.1909   2.5704   4.5059   4.5574

          k = 0.1250 0.6250 0.3750 (   365 PWs)   bands (ev):

    -3.7777   0.0238   2.5789   3.9195

          k =-0.3750-0.3750 0.3750 (   359 PWs)   bands (ev):

    -4.2826  -0.0302   4.7137   4.7137

          k =-0.1250 0.6250-0.3750 (   365 PWs)   bands (ev):

    -3.7777   0.0238   2.5789   3.9195

          k =-0.6250-0.3750-0.3750 (   364 PWs)   bands (ev):

    -3.5967  -0.8039   3.5543   4.2615

          k = 0.1250-0.8750-0.1250 (   364 PWs)   bands (ev):

    -2.7407  -0.9714   2.4889   3.1906

          k =-0.3750-1.8750-0.1250 (   358 PWs)   bands (ev):

    -5.1909   2.5704   4.5059   4.5574

          k =-0.8750 0.1250-0.1250 (   364 PWs)   bands (ev):

    -2.7407  -0.9714   2.4889   3.1906

          k =-1.3750-0.8750-0.1250 (   368 PWs)   bands (ev):

    -2.5831  -1.0638   1.8975   2.9448

          k =-1.1250 0.3750-0.3750 (   369 PWs)   bands (ev):

    -3.1107  -0.7475   1.9454   3.9526

          k =-1.6250-0.6250-0.3750 (   364 PWs)   bands (ev):

    -3.5967  -0.8039   3.5543   4.2615

          k =-0.3750 0.3750 1.1250 (   369 PWs)   bands (ev):

    -3.1107  -0.7475   1.9454   3.9526

          k =-0.8750-0.6250 1.1250 (   358 PWs)   bands (ev):

    -5.1909   2.5704   4.5059   4.5574

     highest occupied level (ev):     5.4903

     Writing output data file silicon.10.407.save

                                                                                

     bravais-lattice index     =            2
     lattice parameter (alat)  =      10.4070  a.u.
     unit-cell volume          =     281.7842 (a.u.)^3
     number of atoms/cell      =            2
     number of atomic types    =            1
     kinetic-energy cut-off    =      18.0000  Ry
     charge density cut-off    =      72.0000  Ry
     convergence threshold     =      1.0E-12
     beta                      =       0.7000
     number of iterations used =            4
     Exchange-correlation      = SLA  PW   PBE  PBE ( 1  4  3  4 0 0)


     celldm(1)=   10.40700  celldm(2)=    0.00000  celldm(3)=    0.00000
     celldm(4)=    0.00000  celldm(5)=    0.00000  celldm(6)=    0.00000

     crystal axes: (cart. coord. in units of alat)
               a(1) = ( -0.5000  0.0000  0.5000 )  
               a(2) = (  0.0000  0.5000  0.5000 )  
               a(3) = ( -0.5000  0.5000  0.0000 )  

     reciprocal axes: (cart. coord. in units 2 pi/alat)
               b(1) = ( -1.0000 -1.0000  1.0000 )  
               b(2) = (  1.0000  1.0000  1.0000 )  
               b(3) = ( -1.0000  1.0000 -1.0000 )  


     Atoms inside the unit cell: 

     Cartesian axes

     site n.  atom      mass           positions (alat units)
        1     Si  28.0860   tau(    1) = (    0.00000    0.00000    0.00000  )
        2     Si  28.0860   tau(    2) = (    0.25000    0.25000    0.25000  )

     Computing dynamical matrix for 
                    q = (  -0.5000000  -1.0000000   0.0000000 )

      8 Sym.Ops. (no q -> -q+G )


     G cutoff =  197.5258  (    722 G-vectors)     FFT grid: ( 20, 20, 20)
     number of k points=    64

     PseudoPot. # 1 for Si read from file:
     /home/max/quantum_espresso/qe-6.1/pseudo/si_pbe_v1.uspp.F.UPF.txt
     MD5 check sum: a056efeee980c13900f22a371efd63c1
     Pseudo is Ultrasoft + core correction, Zval =  4.0
     Generated by new atomic code, or converted to UPF format
     Using radial grid of  899 points,  6 beta functions with: 
                l(1) =   0
                l(2) =   0
                l(3) =   1
                l(4) =   1
                l(5) =   2
                l(6) =   2
     Q(r) pseudized with  8 coefficients,  rinner =    0.900   0.900   0.900
                                                       0.900   0.900


     Atomic displacements:
     There are   3 irreducible representations

     Representation     1      2 modes -  To be done

     Representation     2      2 modes -  To be done

     Representation     3      2 modes -  To be done



     Alpha used in Ewald sum =   0.7000
     PHONON       :  1m13.67s CPU     1m19.29s WALL



     Representation #  1 modes #   1  2

     Self-consistent Calculation

      iter #   1 total cpu time :    79.7 secs   av.it.:   5.3
      thresh= 1.000E-02 alpha_mix =  0.700 |ddv_scf|^2 =  6.316E-06

      iter #   2 total cpu time :    80.0 secs   av.it.:   9.8
      thresh= 2.513E-04 alpha_mix =  0.700 |ddv_scf|^2 =  3.397E-06

      iter #   3 total cpu time :    80.3 secs   av.it.:   9.2
      thresh= 1.843E-04 alpha_mix =  0.700 |ddv_scf|^2 =  8.562E-09

      iter #   4 total cpu time :    80.6 secs   av.it.:   9.1
      thresh= 9.253E-06 alpha_mix =  0.700 |ddv_scf|^2 =  2.677E-11

      iter #   5 total cpu time :    80.9 secs   av.it.:   9.0
      thresh= 5.174E-07 alpha_mix =  0.700 |ddv_scf|^2 =  7.059E-13

     End of self-consistent calculation

     Convergence has been achieved 


     Representation #  2 modes #   3  4

     Self-consistent Calculation

      iter #   1 total cpu time :    81.2 secs   av.it.:   5.2
      thresh= 1.000E-02 alpha_mix =  0.700 |ddv_scf|^2 =  9.692E-06

      iter #   2 total cpu time :    81.7 secs   av.it.:   9.9
      thresh= 3.113E-04 alpha_mix =  0.700 |ddv_scf|^2 =  1.321E-05

      iter #   3 total cpu time :    82.0 secs   av.it.:   9.1
      thresh= 3.634E-04 alpha_mix =  0.700 |ddv_scf|^2 =  1.022E-08

      iter #   4 total cpu time :    82.3 secs   av.it.:   8.9
      thresh= 1.011E-05 alpha_mix =  0.700 |ddv_scf|^2 =  9.801E-11

      iter #   5 total cpu time :    82.6 secs   av.it.:   9.4
      thresh= 9.900E-07 alpha_mix =  0.700 |ddv_scf|^2 =  1.877E-12

      iter #   6 total cpu time :    82.9 secs   av.it.:   9.1
      thresh= 1.370E-07 alpha_mix =  0.700 |ddv_scf|^2 =  1.615E-14

     End of self-consistent calculation

     Convergence has been achieved 


     Representation #  3 modes #   5  6

     Self-consistent Calculation

      iter #   1 total cpu time :    83.2 secs   av.it.:   5.1
      thresh= 1.000E-02 alpha_mix =  0.700 |ddv_scf|^2 =  2.624E-06

      iter #   2 total cpu time :    83.7 secs   av.it.:   9.7
      thresh= 1.620E-04 alpha_mix =  0.700 |ddv_scf|^2 =  1.433E-06

      iter #   3 total cpu time :    84.0 secs   av.it.:   9.0
      thresh= 1.197E-04 alpha_mix =  0.700 |ddv_scf|^2 =  8.162E-09

      iter #   4 total cpu time :    84.3 secs   av.it.:   8.7
      thresh= 9.034E-06 alpha_mix =  0.700 |ddv_scf|^2 =  4.800E-11

      iter #   5 total cpu time :    84.6 secs   av.it.:   9.1
      thresh= 6.928E-07 alpha_mix =  0.700 |ddv_scf|^2 =  7.344E-13

     End of self-consistent calculation

     Convergence has been achieved 

     Number of q in the star =    6
     List of q in the star:
          1  -0.500000000  -1.000000000   0.000000000
          2   0.000000000   1.000000000   0.500000000
          3   0.000000000  -1.000000000  -0.500000000
          4   0.500000000   1.000000000   0.000000000
          5  -1.000000000  -0.500000000   0.000000000
          6   0.000000000  -0.500000000  -1.000000000

     Diagonalizing the dynamical matrix

     q = (   -0.500000000  -1.000000000   0.000000000 ) 

 **************************************************************************
     freq (    1) =       7.814505 [THz] =     260.663815 [cm-1]
     freq (    2) =       7.814505 [THz] =     260.663815 [cm-1]
     freq (    3) =      11.011721 [THz] =     367.311464 [cm-1]
     freq (    4) =      11.011721 [THz] =     367.311464 [cm-1]
     freq (    5) =      13.722239 [THz] =     457.724633 [cm-1]
     freq (    6) =      13.722239 [THz] =     457.724633 [cm-1]
 **************************************************************************

     init_run     :      0.52s CPU      0.54s WALL (       7 calls)
     electrons    :      4.44s CPU      4.77s WALL (       7 calls)

     Called by init_run:
     wfcinit      :      0.00s CPU      0.00s WALL (       7 calls)
     potinit      :      0.01s CPU      0.02s WALL (       7 calls)

     Called by electrons:
     c_bands      :      4.43s CPU      4.76s WALL (       7 calls)
     v_of_rho     :      0.01s CPU      0.01s WALL (       8 calls)
     newd         :      0.03s CPU      0.03s WALL (       8 calls)

     Called by c_bands:
     init_us_2    :      0.69s CPU      0.73s WALL (   17588 calls)
     cegterg      :      3.73s CPU      4.02s WALL (     796 calls)

     Called by sum_band:

     Called by *egterg:
     h_psi        :     43.18s CPU     46.42s WALL (  152227 calls)
     s_psi        :      5.83s CPU      6.21s WALL (  309174 calls)
     g_psi        :      0.03s CPU      0.03s WALL (    9268 calls)
     cdiaghg      :      0.42s CPU      0.44s WALL (   10064 calls)

     Called by h_psi:
     h_psi:pot    :     42.99s CPU     46.22s WALL (  152227 calls)
     h_psi:calbec :      4.34s CPU      4.78s WALL (  152227 calls)
     vloc_psi     :     35.53s CPU     38.13s WALL (  152227 calls)
     add_vuspsi   :      2.91s CPU      3.09s WALL (  152227 calls)

     General routines
     calbec       :      9.71s CPU     10.55s WALL (  345546 calls)
     fft          :      0.57s CPU      0.60s WALL (    5239 calls)
     ffts         :      0.13s CPU      0.13s WALL (    2748 calls)
     fftw         :     41.22s CPU     44.42s WALL ( 1378642 calls)
     davcio       :      0.32s CPU      0.35s WALL (   79045 calls)

     Parallel routines
     fft_scatter  :      9.45s CPU     10.62s WALL ( 1386629 calls)

     PHONON       :  1m18.64s CPU     1m24.60s WALL

     INITIALIZATION: 
     phq_setup    :      0.05s CPU      0.05s WALL (       8 calls)
     phq_init     :      2.13s CPU      2.29s WALL (       8 calls)

     phq_init     :      2.13s CPU      2.29s WALL (       8 calls)
     set_drhoc    :      0.29s CPU      0.29s WALL (      24 calls)
     init_vloc    :      0.01s CPU      0.01s WALL (       8 calls)
     init_us_1    :      0.48s CPU      0.48s WALL (       8 calls)
     newd         :      0.03s CPU      0.03s WALL (       8 calls)
     dvanqq       :      0.24s CPU      0.24s WALL (       8 calls)
     drho         :      1.17s CPU      1.32s WALL (       8 calls)

     DYNAMICAL MATRIX:
     dynmat0      :      0.49s CPU      0.49s WALL (       8 calls)
     phqscf       :     68.95s CPU     74.33s WALL (       8 calls)
     dynmatrix    :      0.01s CPU      0.01s WALL (       8 calls)

     phqscf       :     68.95s CPU     74.33s WALL (       8 calls)
     solve_linter :     68.15s CPU     73.48s WALL (      32 calls)
     drhodv       :      0.59s CPU      0.60s WALL (      32 calls)

     dynmat0      :      0.49s CPU      0.49s WALL (       8 calls)
     dynmat_us    :      0.27s CPU      0.27s WALL (       8 calls)
     d2ionq       :      0.01s CPU      0.01s WALL (       8 calls)
     dynmatcc     :      0.21s CPU      0.21s WALL (       8 calls)

     dynmat_us    :      0.27s CPU      0.27s WALL (       8 calls)
     addusdynmat  :      0.00s CPU      0.00s WALL (       8 calls)

     phqscf       :     68.95s CPU     74.33s WALL (       8 calls)
     solve_linter :     68.15s CPU     73.48s WALL (      32 calls)

     solve_linter :     68.15s CPU     73.48s WALL (      32 calls)
     dvqpsi_us    :      1.62s CPU      1.74s WALL (    2508 calls)
     ortho        :      1.00s CPU      1.09s WALL (   15550 calls)
     cgsolve      :     53.37s CPU     57.48s WALL (   15550 calls)
     incdrhoscf   :      4.67s CPU      5.15s WALL (   15550 calls)
     addusddens   :      1.16s CPU      1.18s WALL (     228 calls)
     vpsifft      :      3.36s CPU      3.63s WALL (   12922 calls)
     dv_of_drho   :      0.33s CPU      0.34s WALL (     295 calls)
     mix_pot      :      0.06s CPU      0.06s WALL (     201 calls)
     psymdvscf    :      0.81s CPU      0.82s WALL (     196 calls)
     newdq        :      1.24s CPU      1.35s WALL (     201 calls)
     adddvscf     :      0.46s CPU      0.49s WALL (   13042 calls)
     drhodvus     :      0.00s CPU      0.00s WALL (      32 calls)

     dvqpsi_us    :      1.62s CPU      1.74s WALL (    2508 calls)
     dvqpsi_us_on :      0.82s CPU      0.87s WALL (    2508 calls)

     cgsolve      :     53.37s CPU     57.48s WALL (   15550 calls)
     ch_psi       :     51.58s CPU     55.47s WALL (  141367 calls)

     ch_psi       :     51.58s CPU     55.47s WALL (  141367 calls)
     h_psi        :     43.18s CPU     46.42s WALL (  152227 calls)
     last         :      8.40s CPU      9.09s WALL (  141367 calls)

     h_psi        :     43.18s CPU     46.42s WALL (  152227 calls)
     add_vuspsi   :      2.91s CPU      3.09s WALL (  152227 calls)

     incdrhoscf   :      4.67s CPU      5.15s WALL (   15550 calls)
     addusdbec    :      0.70s CPU      0.80s WALL (   17998 calls)

     drhodvus     :      0.00s CPU      0.00s WALL (      32 calls)

      General routines
     calbec       :      9.71s CPU     10.55s WALL (  345546 calls)
     fft          :      0.57s CPU      0.60s WALL (    5239 calls)
     ffts         :      0.13s CPU      0.13s WALL (    2748 calls)
     fftw         :     41.22s CPU     44.42s WALL ( 1378642 calls)
     davcio       :      0.32s CPU      0.35s WALL (   79045 calls)
     write_rec    :      0.22s CPU      0.25s WALL (     233 calls)


     PHONON       :  1m18.64s CPU     1m24.61s WALL


   This run was terminated on:  17:49:44   9Nov2017            

=------------------------------------------------------------------------------=
   JOB DONE.
=------------------------------------------------------------------------------=
