
     Program PHONON v.6.1 (svn rev. 13369) starts on 10Nov2017 at 15:28:51 

     This program is part of the open-source Quantum ESPRESSO suite
     for quantum simulation of materials; please cite
         "P. Giannozzi et al., J. Phys.:Condens. Matter 21 395502 (2009);
          URL http://www.quantum-espresso.org", 
     in publications or presentations arising from this work. More details at
     http://www.quantum-espresso.org/quote

     Parallel version (MPI), running on     4 processors
     R & G space division:  proc/nbgrp/npool/nimage =       4

     Reading data from directory:
     ./silicon.10.312.save

   Info: using nr1, nr2, nr3 values from input

   Info: using nr1, nr2, nr3 values from input

     IMPORTANT: XC functional enforced from input :
     Exchange-correlation      = SLA  PW   PBE  PBE ( 1  4  3  4 0 0)
     Any further DFT definition will be discarded
     Please, verify this is what you really want


     Parallelization info
     --------------------
     sticks:   dense  smooth     PW     G-vecs:    dense   smooth      PW
     Min         217     109     37                 4288     1520     284
     Max         219     111     38                 4289     1521     285
     Sum         871     439    151                17153     6081    1139



     Dynamical matrices for ( 4, 4, 4)  uniform grid of q-points
     (   8q-points):
       N         xq(1)         xq(2)         xq(3) 
       1   0.000000000   0.000000000   0.000000000
       2  -0.250000000   0.250000000  -0.250000000
       3   0.500000000  -0.500000000   0.500000000
       4   0.000000000   0.500000000   0.000000000
       5   0.750000000  -0.250000000   0.750000000
       6   0.500000000   0.000000000   0.500000000
       7   0.000000000  -1.000000000   0.000000000
       8  -0.500000000  -1.000000000   0.000000000

     Calculation of q =    0.0000000   0.0000000   0.0000000

                                                                                

     bravais-lattice index     =            2
     lattice parameter (alat)  =      10.3120  a.u.
     unit-cell volume          =     274.1377 (a.u.)^3
     number of atoms/cell      =            2
     number of atomic types    =            1
     kinetic-energy cut-off    =      30.0000  Ry
     charge density cut-off    =     240.0000  Ry
     convergence threshold     =      1.0E-12
     beta                      =       0.7000
     number of iterations used =            4
     Exchange-correlation      = SLA  PW   PBE  PBE ( 1  4  3  4 0 0)


     celldm(1)=   10.31200  celldm(2)=    0.00000  celldm(3)=    0.00000
     celldm(4)=    0.00000  celldm(5)=    0.00000  celldm(6)=    0.00000

     crystal axes: (cart. coord. in units of alat)
               a(1) = ( -0.5000  0.0000  0.5000 )  
               a(2) = (  0.0000  0.5000  0.5000 )  
               a(3) = ( -0.5000  0.5000  0.0000 )  

     reciprocal axes: (cart. coord. in units 2 pi/alat)
               b(1) = ( -1.0000 -1.0000  1.0000 )  
               b(2) = (  1.0000  1.0000  1.0000 )  
               b(3) = ( -1.0000  1.0000 -1.0000 )  


     Atoms inside the unit cell: 

     Cartesian axes

     site n.  atom      mass           positions (alat units)
        1     Si  28.0860   tau(    1) = (    0.00000    0.00000    0.00000  )
        2     Si  28.0860   tau(    2) = (    0.25000    0.25000    0.25000  )

     Computing dynamical matrix for 
                    q = (   0.0000000   0.0000000   0.0000000 )

     49 Sym.Ops. (with q -> -q+G )


     G cutoff =  646.4535  (   4288 G-vectors)     FFT grid: ( 36, 36, 36)
     G cutoff =  323.2268  (   1520 G-vectors)  smooth grid: ( 25, 25, 25)
     number of k points=    10

     PseudoPot. # 1 for Si read from file:
     /home/s1333534/quantum_espresso/qe-6.1/pseudo/si_pbe_v1.uspp.F.UPF.txt
     MD5 check sum: a056efeee980c13900f22a371efd63c1
     Pseudo is Ultrasoft + core correction, Zval =  4.0
     Generated by new atomic code, or converted to UPF format
     Using radial grid of  899 points,  6 beta functions with: 
                l(1) =   0
                l(2) =   0
                l(3) =   1
                l(4) =   1
                l(5) =   2
                l(6) =   2
     Q(r) pseudized with  8 coefficients,  rinner =    0.900   0.900   0.900
                                                       0.900   0.900

     Mode symmetry, O_h (m-3m)  point group:


     Electric field:
     Dielectric constant
     Born effective charges in two ways 


     Atomic displacements:
     There are   2 irreducible representations

     Representation     1      3 modes -T_2g G_25' G_5+  To be done

     Representation     2      3 modes -T_1u G_15  G_4-  To be done



     Alpha used in Ewald sum =   2.5000
     PHONON       :     0.94s CPU         1.26s WALL


     Electric Fields Calculation

      iter #   1 total cpu time :     2.2 secs   av.it.:   5.7
      thresh= 1.000E-02 alpha_mix =  0.700 |ddv_scf|^2 =  1.334E-07

      iter #   2 total cpu time :     2.9 secs   av.it.:  11.8
      thresh= 3.652E-05 alpha_mix =  0.700 |ddv_scf|^2 =  7.788E-09

      iter #   3 total cpu time :     3.6 secs   av.it.:  11.4
      thresh= 8.825E-06 alpha_mix =  0.700 |ddv_scf|^2 =  5.159E-10

      iter #   4 total cpu time :     4.3 secs   av.it.:  10.2
      thresh= 2.271E-06 alpha_mix =  0.700 |ddv_scf|^2 =  3.351E-12

      iter #   5 total cpu time :     5.0 secs   av.it.:  11.1
      thresh= 1.831E-07 alpha_mix =  0.700 |ddv_scf|^2 =  3.350E-15

     End of electric fields calculation

          Dielectric constant in cartesian axis 

          (      13.923947141      -0.000000000       0.000000000 )
          (       0.000000000      13.923947141       0.000000000 )
          (      -0.000000000       0.000000000      13.923947141 )

          Effective charges (d Force / dE) in cartesian axis

           atom      1   Si 
      Ex  (       -0.03891       -0.00000        0.00000 )
      Ey  (       -0.00000       -0.03891        0.00000 )
      Ez  (        0.00000        0.00000       -0.03891 )
           atom      2   Si 
      Ex  (       -0.03891       -0.00000       -0.00000 )
      Ey  (       -0.00000       -0.03891       -0.00000 )
      Ez  (       -0.00000        0.00000       -0.03891 )


     Representation #  1 modes #   1  2  3

     Self-consistent Calculation

      iter #   1 total cpu time :     6.4 secs   av.it.:   5.1
      thresh= 1.000E-02 alpha_mix =  0.700 |ddv_scf|^2 =  2.354E-08

      iter #   2 total cpu time :     7.2 secs   av.it.:  11.6
      thresh= 1.534E-05 alpha_mix =  0.700 |ddv_scf|^2 =  9.648E-10

      iter #   3 total cpu time :     8.1 secs   av.it.:  11.1
      thresh= 3.106E-06 alpha_mix =  0.700 |ddv_scf|^2 =  6.562E-11

      iter #   4 total cpu time :     8.7 secs   av.it.:  10.1
      thresh= 8.100E-07 alpha_mix =  0.700 |ddv_scf|^2 =  1.604E-13

     End of self-consistent calculation

     Convergence has been achieved 


     Representation #  2 modes #   4  5  6

     Self-consistent Calculation

      iter #   1 total cpu time :     9.7 secs   av.it.:   5.2
      thresh= 1.000E-02 alpha_mix =  0.700 |ddv_scf|^2 =  1.857E-08

      iter #   2 total cpu time :    10.5 secs   av.it.:  11.6
      thresh= 1.363E-05 alpha_mix =  0.700 |ddv_scf|^2 =  1.094E-09

      iter #   3 total cpu time :    11.3 secs   av.it.:  11.2
      thresh= 3.308E-06 alpha_mix =  0.700 |ddv_scf|^2 =  6.780E-11

      iter #   4 total cpu time :    11.9 secs   av.it.:  11.3
      thresh= 8.234E-07 alpha_mix =  0.700 |ddv_scf|^2 =  2.627E-13

     End of self-consistent calculation

     Convergence has been achieved 

     Number of q in the star =    1
     List of q in the star:
          1   0.000000000   0.000000000   0.000000000

          Dielectric constant in cartesian axis 

          (      13.923947141      -0.000000000       0.000000000 )
          (       0.000000000      13.923947141       0.000000000 )
          (      -0.000000000       0.000000000      13.923947141 )

          Effective charges (d Force / dE) in cartesian axis

           atom      1   Si 
      Ex  (       -0.03891       -0.00000        0.00000 )
      Ey  (       -0.00000       -0.03891        0.00000 )
      Ez  (        0.00000        0.00000       -0.03891 )
           atom      2   Si 
      Ex  (       -0.03891       -0.00000       -0.00000 )
      Ey  (       -0.00000       -0.03891       -0.00000 )
      Ez  (       -0.00000        0.00000       -0.03891 )

          Effective charges (d P / du) in cartesian axis 

           atom      1   Si 
      Px  (       -0.07223        0.00000        0.00000 )
      Py  (        0.00000       -0.07223        0.00000 )
      Pz  (        0.00000       -0.00000       -0.07223 )
           atom      2   Si 
      Px  (       -0.07223        0.00000        0.00000 )
      Py  (        0.00000       -0.07223       -0.00000 )
      Pz  (        0.00000       -0.00000       -0.07223 )

     Diagonalizing the dynamical matrix

     q = (    0.000000000   0.000000000   0.000000000 ) 

 **************************************************************************
     freq (    1) =      -0.472025 [THz] =     -15.745057 [cm-1]
     freq (    2) =      -0.472025 [THz] =     -15.745057 [cm-1]
     freq (    3) =      -0.472025 [THz] =     -15.745057 [cm-1]
     freq (    4) =      15.161096 [THz] =     505.719727 [cm-1]
     freq (    5) =      15.161096 [THz] =     505.719727 [cm-1]
     freq (    6) =      15.161096 [THz] =     505.719727 [cm-1]
 **************************************************************************

     Mode symmetry, O_h (m-3m)  point group:

     freq (  1 -  3) =        -15.7  [cm-1]   --> T_1u G_15  G_4- I  
     freq (  4 -  6) =        505.7  [cm-1]   --> T_2g G_25' G_5+ R  

     Calculation of q =   -0.2500000   0.2500000  -0.2500000

   Info: using nr1, nr2, nr3 values from input

   Info: using nr1, nr2, nr3 values from input

     Parallelization info
     --------------------
     sticks:   dense  smooth     PW     G-vecs:    dense   smooth      PW
     Min         217     109     37                 4288     1520     309
     Max         218     111     38                 4289     1521     312
     Sum         871     439    151                17153     6081    1243



     bravais-lattice index     =            2
     lattice parameter (alat)  =      10.3120  a.u.
     unit-cell volume          =     274.1377 (a.u.)^3
     number of atoms/cell      =            2
     number of atomic types    =            1
     number of electrons       =         8.00
     number of Kohn-Sham states=            4
     kinetic-energy cutoff     =      30.0000  Ry
     charge density cutoff     =     240.0000  Ry
     Exchange-correlation      = SLA  PW   PBE  PBE ( 1  4  3  4 0 0)

     celldm(1)=  10.312000  celldm(2)=   0.000000  celldm(3)=   0.000000
     celldm(4)=   0.000000  celldm(5)=   0.000000  celldm(6)=   0.000000

     crystal axes: (cart. coord. in units of alat)
               a(1) = (  -0.500000   0.000000   0.500000 )  
               a(2) = (   0.000000   0.500000   0.500000 )  
               a(3) = (  -0.500000   0.500000   0.000000 )  

     reciprocal axes: (cart. coord. in units 2 pi/alat)
               b(1) = ( -1.000000 -1.000000  1.000000 )  
               b(2) = (  1.000000  1.000000  1.000000 )  
               b(3) = ( -1.000000  1.000000 -1.000000 )  


     PseudoPot. # 1 for Si read from file:
     /home/s1333534/quantum_espresso/qe-6.1/pseudo/si_pbe_v1.uspp.F.UPF.txt
     MD5 check sum: a056efeee980c13900f22a371efd63c1
     Pseudo is Ultrasoft + core correction, Zval =  4.0
     Generated by new atomic code, or converted to UPF format
     Using radial grid of  899 points,  6 beta functions with: 
                l(1) =   0
                l(2) =   0
                l(3) =   1
                l(4) =   1
                l(5) =   2
                l(6) =   2
     Q(r) pseudized with  8 coefficients,  rinner =    0.900   0.900   0.900
                                                       0.900   0.900

     atomic species   valence    mass     pseudopotential
        Si             4.00    28.08600     Si( 1.00)

     48 Sym. Ops., with inversion, found



   Cartesian axes

     site n.     atom                  positions (alat units)
         1           Si  tau(   1) = (   0.0000000   0.0000000   0.0000000  )
         2           Si  tau(   2) = (   0.2500000   0.2500000   0.2500000  )

     number of k points=   120

     Number of k-points >= 100: set verbosity='high' to print them.

     Dense  grid:    17153 G-vectors     FFT dimensions: (  36,  36,  36)

     Smooth grid:     6081 G-vectors     FFT dimensions: (  25,  25,  25)

     Estimated max dynamical RAM per process >       1.51MB

     Estimated total allocated dynamical RAM >       6.06MB

     The potential is recalculated from file :
     ./_ph0/silicon.10.312.save/charge-density.dat

     Starting wfc are    8 atomic wfcs

     Band Structure Calculation
     Davidson diagonalization with overlap

     ethr =  1.25E-10,  avg # of iterations = 12.2

     total cpu time spent up to now is        1.4 secs

     End of band structure calculation

     Number of k-points >= 100: set verbosity='high' to print the bands.

     highest occupied level (ev):     5.7588

     Writing output data file silicon.10.312.save

                                                                                

     bravais-lattice index     =            2
     lattice parameter (alat)  =      10.3120  a.u.
     unit-cell volume          =     274.1377 (a.u.)^3
     number of atoms/cell      =            2
     number of atomic types    =            1
     kinetic-energy cut-off    =      30.0000  Ry
     charge density cut-off    =     240.0000  Ry
     convergence threshold     =      1.0E-12
     beta                      =       0.7000
     number of iterations used =            4
     Exchange-correlation      = SLA  PW   PBE  PBE ( 1  4  3  4 0 0)


     celldm(1)=   10.31200  celldm(2)=    0.00000  celldm(3)=    0.00000
     celldm(4)=    0.00000  celldm(5)=    0.00000  celldm(6)=    0.00000

     crystal axes: (cart. coord. in units of alat)
               a(1) = ( -0.5000  0.0000  0.5000 )  
               a(2) = (  0.0000  0.5000  0.5000 )  
               a(3) = ( -0.5000  0.5000  0.0000 )  

     reciprocal axes: (cart. coord. in units 2 pi/alat)
               b(1) = ( -1.0000 -1.0000  1.0000 )  
               b(2) = (  1.0000  1.0000  1.0000 )  
               b(3) = ( -1.0000  1.0000 -1.0000 )  


     Atoms inside the unit cell: 

     Cartesian axes

     site n.  atom      mass           positions (alat units)
        1     Si  28.0860   tau(    1) = (    0.00000    0.00000    0.00000  )
        2     Si  28.0860   tau(    2) = (    0.25000    0.25000    0.25000  )

     Computing dynamical matrix for 
                    q = (  -0.2500000   0.2500000  -0.2500000 )

      6 Sym.Ops. (no q -> -q+G )


     G cutoff =  646.4535  (   4288 G-vectors)     FFT grid: ( 36, 36, 36)
     G cutoff =  323.2268  (   1520 G-vectors)  smooth grid: ( 25, 25, 25)
     number of k points=   120

     PseudoPot. # 1 for Si read from file:
     /home/s1333534/quantum_espresso/qe-6.1/pseudo/si_pbe_v1.uspp.F.UPF.txt
     MD5 check sum: a056efeee980c13900f22a371efd63c1
     Pseudo is Ultrasoft + core correction, Zval =  4.0
     Generated by new atomic code, or converted to UPF format
     Using radial grid of  899 points,  6 beta functions with: 
                l(1) =   0
                l(2) =   0
                l(3) =   1
                l(4) =   1
                l(5) =   2
                l(6) =   2
     Q(r) pseudized with  8 coefficients,  rinner =    0.900   0.900   0.900
                                                       0.900   0.900

     Mode symmetry, C_3v (3m)   point group:


     Atomic displacements:
     There are   4 irreducible representations

     Representation     1      1 modes -A_1  L_1  To be done

     Representation     2      1 modes -A_1  L_1  To be done

     Representation     3      2 modes -E    L_3  To be done

     Representation     4      2 modes -E    L_3  To be done



     Alpha used in Ewald sum =   2.5000
     PHONON       :    10.65s CPU        15.10s WALL



     Representation #  1 mode #   1

     Self-consistent Calculation

      iter #   1 total cpu time :    15.5 secs   av.it.:   5.9
      thresh= 1.000E-02 alpha_mix =  0.700 |ddv_scf|^2 =  4.289E-04

      iter #   2 total cpu time :    16.1 secs   av.it.:   9.0
      thresh= 2.071E-03 alpha_mix =  0.700 |ddv_scf|^2 =  6.521E-03

      iter #   3 total cpu time :    16.6 secs   av.it.:   7.0
      thresh= 8.075E-03 alpha_mix =  0.700 |ddv_scf|^2 =  2.721E-07

      iter #   4 total cpu time :    17.2 secs   av.it.:   9.6
      thresh= 5.216E-05 alpha_mix =  0.700 |ddv_scf|^2 =  1.791E-08

      iter #   5 total cpu time :    17.9 secs   av.it.:   9.6
      thresh= 1.338E-05 alpha_mix =  0.700 |ddv_scf|^2 =  3.398E-10

      iter #   6 total cpu time :    18.5 secs   av.it.:   9.7
      thresh= 1.843E-06 alpha_mix =  0.700 |ddv_scf|^2 =  1.222E-09

      iter #   7 total cpu time :    19.0 secs   av.it.:   7.6
      thresh= 3.495E-06 alpha_mix =  0.700 |ddv_scf|^2 =  3.656E-11

      iter #   8 total cpu time :    19.5 secs   av.it.:   9.3
      thresh= 6.047E-07 alpha_mix =  0.700 |ddv_scf|^2 =  4.609E-13

     End of self-consistent calculation

     Convergence has been achieved 


     Representation #  2 mode #   2

     Self-consistent Calculation

      iter #   1 total cpu time :    20.1 secs   av.it.:   5.9
      thresh= 1.000E-02 alpha_mix =  0.700 |ddv_scf|^2 =  4.289E-04

      iter #   2 total cpu time :    20.7 secs   av.it.:   9.0
      thresh= 2.071E-03 alpha_mix =  0.700 |ddv_scf|^2 =  6.521E-03

      iter #   3 total cpu time :    21.2 secs   av.it.:   7.0
      thresh= 8.075E-03 alpha_mix =  0.700 |ddv_scf|^2 =  2.721E-07

      iter #   4 total cpu time :    21.8 secs   av.it.:   9.6
      thresh= 5.216E-05 alpha_mix =  0.700 |ddv_scf|^2 =  1.791E-08

      iter #   5 total cpu time :    22.4 secs   av.it.:   9.6
      thresh= 1.338E-05 alpha_mix =  0.700 |ddv_scf|^2 =  3.398E-10

      iter #   6 total cpu time :    23.0 secs   av.it.:   9.7
      thresh= 1.843E-06 alpha_mix =  0.700 |ddv_scf|^2 =  1.222E-09

      iter #   7 total cpu time :    23.6 secs   av.it.:   7.6
      thresh= 3.495E-06 alpha_mix =  0.700 |ddv_scf|^2 =  3.656E-11

      iter #   8 total cpu time :    24.1 secs   av.it.:   9.3
      thresh= 6.047E-07 alpha_mix =  0.700 |ddv_scf|^2 =  4.609E-13

     End of self-consistent calculation

     Convergence has been achieved 


     Representation #  3 modes #   3  4

     Self-consistent Calculation

      iter #   1 total cpu time :    25.0 secs   av.it.:   5.2
      thresh= 1.000E-02 alpha_mix =  0.700 |ddv_scf|^2 =  6.628E-08

      iter #   2 total cpu time :    26.2 secs   av.it.:  11.4
      thresh= 2.574E-05 alpha_mix =  0.700 |ddv_scf|^2 =  4.261E-09

      iter #   3 total cpu time :    27.5 secs   av.it.:  11.1
      thresh= 6.528E-06 alpha_mix =  0.700 |ddv_scf|^2 =  2.255E-10

      iter #   4 total cpu time :    28.6 secs   av.it.:  11.0
      thresh= 1.502E-06 alpha_mix =  0.700 |ddv_scf|^2 =  8.561E-13

     End of self-consistent calculation

     Convergence has been achieved 


     Representation #  4 modes #   5  6

     Self-consistent Calculation

      iter #   1 total cpu time :    29.6 secs   av.it.:   5.2
      thresh= 1.000E-02 alpha_mix =  0.700 |ddv_scf|^2 =  6.629E-08

      iter #   2 total cpu time :    30.8 secs   av.it.:  11.4
      thresh= 2.575E-05 alpha_mix =  0.700 |ddv_scf|^2 =  4.260E-09

      iter #   3 total cpu time :    32.1 secs   av.it.:  11.2
      thresh= 6.527E-06 alpha_mix =  0.700 |ddv_scf|^2 =  2.254E-10

      iter #   4 total cpu time :    33.3 secs   av.it.:  11.0
      thresh= 1.501E-06 alpha_mix =  0.700 |ddv_scf|^2 =  8.602E-13

     End of self-consistent calculation

     Convergence has been achieved 

     Number of q in the star =    8
     List of q in the star:
          1  -0.250000000   0.250000000  -0.250000000
          2   0.250000000  -0.250000000  -0.250000000
          3   0.250000000  -0.250000000   0.250000000
          4   0.250000000   0.250000000   0.250000000
          5  -0.250000000  -0.250000000  -0.250000000
          6  -0.250000000  -0.250000000   0.250000000
          7  -0.250000000   0.250000000   0.250000000
          8   0.250000000   0.250000000  -0.250000000

     Diagonalizing the dynamical matrix

     q = (   -0.250000000   0.250000000  -0.250000000 ) 

 **************************************************************************
     freq (    1) =       2.773760 [THz] =      92.522688 [cm-1]
     freq (    2) =       2.773760 [THz] =      92.522688 [cm-1]
     freq (    3) =       6.775309 [THz] =     225.999975 [cm-1]
     freq (    4) =      14.310577 [THz] =     477.349482 [cm-1]
     freq (    5) =      14.594573 [THz] =     486.822563 [cm-1]
     freq (    6) =      14.594573 [THz] =     486.822563 [cm-1]
 **************************************************************************

     Mode symmetry, C_3v (3m)   point group:

     freq (  1 -  2) =         92.5  [cm-1]   --> E    L_3           
     freq (  3 -  3) =        226.0  [cm-1]   --> A_1  L_1           
     freq (  4 -  4) =        477.3  [cm-1]   --> A_1  L_1           
     freq (  5 -  6) =        486.8  [cm-1]   --> E    L_3           

     Calculation of q =    0.5000000  -0.5000000   0.5000000

   Info: using nr1, nr2, nr3 values from input

   Info: using nr1, nr2, nr3 values from input

     Parallelization info
     --------------------
     sticks:   dense  smooth     PW     G-vecs:    dense   smooth      PW
     Min         217     109     40                 4288     1520     351
     Max         219     111     41                 4289     1521     354
     Sum         871     439    163                17153     6081    1411



     bravais-lattice index     =            2
     lattice parameter (alat)  =      10.3120  a.u.
     unit-cell volume          =     274.1377 (a.u.)^3
     number of atoms/cell      =            2
     number of atomic types    =            1
     number of electrons       =         8.00
     number of Kohn-Sham states=            4
     kinetic-energy cutoff     =      30.0000  Ry
     charge density cutoff     =     240.0000  Ry
     Exchange-correlation      = SLA  PW   PBE  PBE ( 1  4  3  4 0 0)

     celldm(1)=  10.312000  celldm(2)=   0.000000  celldm(3)=   0.000000
     celldm(4)=   0.000000  celldm(5)=   0.000000  celldm(6)=   0.000000

     crystal axes: (cart. coord. in units of alat)
               a(1) = (  -0.500000   0.000000   0.500000 )  
               a(2) = (   0.000000   0.500000   0.500000 )  
               a(3) = (  -0.500000   0.500000   0.000000 )  

     reciprocal axes: (cart. coord. in units 2 pi/alat)
               b(1) = ( -1.000000 -1.000000  1.000000 )  
               b(2) = (  1.000000  1.000000  1.000000 )  
               b(3) = ( -1.000000  1.000000 -1.000000 )  


     PseudoPot. # 1 for Si read from file:
     /home/s1333534/quantum_espresso/qe-6.1/pseudo/si_pbe_v1.uspp.F.UPF.txt
     MD5 check sum: a056efeee980c13900f22a371efd63c1
     Pseudo is Ultrasoft + core correction, Zval =  4.0
     Generated by new atomic code, or converted to UPF format
     Using radial grid of  899 points,  6 beta functions with: 
                l(1) =   0
                l(2) =   0
                l(3) =   1
                l(4) =   1
                l(5) =   2
                l(6) =   2
     Q(r) pseudized with  8 coefficients,  rinner =    0.900   0.900   0.900
                                                       0.900   0.900

     atomic species   valence    mass     pseudopotential
        Si             4.00    28.08600     Si( 1.00)

     48 Sym. Ops., with inversion, found



   Cartesian axes

     site n.     atom                  positions (alat units)
         1           Si  tau(   1) = (   0.0000000   0.0000000   0.0000000  )
         2           Si  tau(   2) = (   0.2500000   0.2500000   0.2500000  )

     number of k points=    60
                       cart. coord. in units 2pi/alat
        k(    1) = (  -0.1250000   0.1250000   0.1250000), wk =   0.0468750
        k(    2) = (   0.3750000  -0.3750000   0.6250000), wk =   0.0000000
        k(    3) = (  -0.3750000   0.3750000  -0.1250000), wk =   0.0468750
        k(    4) = (   0.1250000  -0.1250000   0.3750000), wk =   0.0000000
        k(    5) = (   0.3750000  -0.3750000   0.6250000), wk =   0.0468750
        k(    6) = (   0.8750000  -0.8750000   1.1250000), wk =   0.0000000
        k(    7) = (   0.1250000  -0.1250000   0.3750000), wk =   0.0468750
        k(    8) = (   0.6250000  -0.6250000   0.8750000), wk =   0.0000000
        k(    9) = (  -0.1250000   0.6250000   0.1250000), wk =   0.0937500
        k(   10) = (   0.3750000   0.1250000   0.6250000), wk =   0.0000000
        k(   11) = (   0.6250000  -0.1250000   0.8750000), wk =   0.0937500
        k(   12) = (   1.1250000  -0.6250000   1.3750000), wk =   0.0000000
        k(   13) = (   0.3750000   0.1250000   0.6250000), wk =   0.0937500
        k(   14) = (   0.8750000  -0.3750000   1.1250000), wk =   0.0000000
        k(   15) = (  -0.1250000  -0.8750000   0.1250000), wk =   0.0937500
        k(   16) = (   0.3750000  -1.3750000   0.6250000), wk =   0.0000000
        k(   17) = (  -0.3750000   0.3750000   0.3750000), wk =   0.0468750
        k(   18) = (   0.1250000  -0.1250000   0.8750000), wk =   0.0000000
        k(   19) = (   0.3750000  -0.3750000   1.1250000), wk =   0.0468750
        k(   20) = (   0.8750000  -0.8750000   1.6250000), wk =   0.0000000
        k(   21) = (   0.1250000  -0.1250000   0.1250000), wk =   0.0156250
        k(   22) = (   0.6250000  -0.6250000   0.6250000), wk =   0.0000000
        k(   23) = (  -0.3750000  -0.3750000  -0.1250000), wk =   0.0937500
        k(   24) = (   0.1250000  -0.8750000   0.3750000), wk =   0.0000000
        k(   25) = (  -0.1250000  -0.3750000   0.3750000), wk =   0.0468750
        k(   26) = (   0.3750000  -0.8750000   0.8750000), wk =   0.0000000
        k(   27) = (   0.3750000   0.3750000   0.6250000), wk =   0.0937500
        k(   28) = (   0.8750000  -0.1250000   1.1250000), wk =   0.0000000
        k(   29) = (   0.6250000   0.3750000  -0.3750000), wk =   0.0468750
        k(   30) = (   1.1250000  -0.1250000   0.1250000), wk =   0.0000000
        k(   31) = (   0.1250000   0.1250000   0.3750000), wk =   0.0937500
        k(   32) = (   0.6250000  -0.3750000   0.8750000), wk =   0.0000000
        k(   33) = (   0.3750000   0.1250000  -0.1250000), wk =   0.0468750
        k(   34) = (   0.8750000  -0.3750000   0.3750000), wk =   0.0000000
        k(   35) = (  -0.1250000  -0.6250000  -0.1250000), wk =   0.0468750
        k(   36) = (   0.3750000  -1.1250000   0.3750000), wk =   0.0000000
        k(   37) = (   0.1250000  -0.6250000   0.1250000), wk =   0.0468750
        k(   38) = (   0.6250000  -1.1250000   0.6250000), wk =   0.0000000
        k(   39) = (   0.6250000   0.1250000   0.8750000), wk =   0.0937500
        k(   40) = (   1.1250000  -0.3750000   1.3750000), wk =   0.0000000
        k(   41) = (  -0.8750000   0.1250000   0.6250000), wk =   0.0937500
        k(   42) = (  -0.3750000  -0.3750000   1.1250000), wk =   0.0000000
        k(   43) = (   0.8750000   0.1250000  -0.6250000), wk =   0.0937500
        k(   44) = (   1.3750000  -0.3750000  -0.1250000), wk =   0.0000000
        k(   45) = (   0.3750000  -0.1250000   0.6250000), wk =   0.0937500
        k(   46) = (   0.8750000  -0.6250000   1.1250000), wk =   0.0000000
        k(   47) = (  -0.6250000  -0.1250000   0.3750000), wk =   0.0937500
        k(   48) = (  -0.1250000  -0.6250000   0.8750000), wk =   0.0000000
        k(   49) = (   0.6250000  -0.1250000  -0.3750000), wk =   0.0937500
        k(   50) = (   1.1250000  -0.6250000   0.1250000), wk =   0.0000000
        k(   51) = (  -0.1250000   0.8750000  -0.1250000), wk =   0.0468750
        k(   52) = (   0.3750000   0.3750000   0.3750000), wk =   0.0000000
        k(   53) = (   0.1250000   0.8750000   0.1250000), wk =   0.0468750
        k(   54) = (   0.6250000   0.3750000   0.6250000), wk =   0.0000000
        k(   55) = (   0.3750000  -0.3750000   0.3750000), wk =   0.0156250
        k(   56) = (   0.8750000  -0.8750000   0.8750000), wk =   0.0000000
        k(   57) = (   0.3750000   0.3750000   1.1250000), wk =   0.0937500
        k(   58) = (   0.8750000  -0.1250000   1.6250000), wk =   0.0000000
        k(   59) = (   1.1250000   0.3750000  -0.3750000), wk =   0.0468750
        k(   60) = (   1.6250000  -0.1250000   0.1250000), wk =   0.0000000

     Dense  grid:    17153 G-vectors     FFT dimensions: (  36,  36,  36)

     Smooth grid:     6081 G-vectors     FFT dimensions: (  25,  25,  25)

     Estimated max dynamical RAM per process >       1.51MB

     Estimated total allocated dynamical RAM >       6.06MB

     The potential is recalculated from file :
     ./_ph0/silicon.10.312.save/charge-density.dat

     Starting wfc are    8 atomic wfcs

     Band Structure Calculation
     Davidson diagonalization with overlap

     ethr =  1.25E-10,  avg # of iterations = 12.2

     total cpu time spent up to now is        2.3 secs

     End of band structure calculation

          k =-0.1250 0.1250 0.1250 (   764 PWs)   bands (ev):

    -5.6150   4.4497   5.7588   5.7588

          k = 0.3750-0.3750 0.6250 (   760 PWs)   bands (ev):

    -3.4356  -0.6427   3.7867   4.5012

          k =-0.3750 0.3750-0.1250 (   767 PWs)   bands (ev):

    -4.5829   1.4477   3.7631   5.2772

          k = 0.1250-0.1250 0.3750 (   766 PWs)   bands (ev):

    -5.0844   2.8311   4.7450   4.8124

          k = 0.3750-0.3750 0.6250 (   760 PWs)   bands (ev):

    -3.4356  -0.6427   3.7867   4.5012

          k = 0.8750-0.8750 1.1250 (   764 PWs)   bands (ev):

    -5.6150   4.4497   5.7588   5.7588

          k = 0.1250-0.1250 0.3750 (   766 PWs)   bands (ev):

    -5.0844   2.8311   4.7450   4.8124

          k = 0.6250-0.6250 0.8750 (   767 PWs)   bands (ev):

    -4.5829   1.4477   3.7631   5.2772

          k =-0.1250 0.6250 0.1250 (   762 PWs)   bands (ev):

    -4.0478   1.1189   3.4114   3.8667

          k = 0.3750 0.1250 0.6250 (   766 PWs)   bands (ev):

    -3.6295   0.2381   2.7673   4.1425

          k = 0.6250-0.1250 0.8750 (   754 PWs)   bands (ev):

    -2.3981  -0.8511   2.0475   3.1305

          k = 1.1250-0.6250 1.3750 (   767 PWs)   bands (ev):

    -4.5829   1.4477   3.7631   5.2772

          k = 0.3750 0.1250 0.6250 (   766 PWs)   bands (ev):

    -3.6295   0.2381   2.7673   4.1425

          k = 0.8750-0.3750 1.1250 (   762 PWs)   bands (ev):

    -4.0478   1.1189   3.4114   3.8667

          k =-0.1250-0.8750 0.1250 (   762 PWs)   bands (ev):

    -2.5682  -0.7525   2.6614   3.3977

          k = 0.3750-1.3750 0.6250 (   760 PWs)   bands (ev):

    -3.4356  -0.6427   3.7867   4.5012

          k =-0.3750 0.3750 0.3750 (   763 PWs)   bands (ev):

    -4.1472   0.1488   4.9687   4.9687

          k = 0.1250-0.1250 0.8750 (   762 PWs)   bands (ev):

    -2.5682  -0.7525   2.6614   3.3977

          k = 0.3750-0.3750 1.1250 (   763 PWs)   bands (ev):

    -2.9375  -0.5518   2.1083   4.1823

          k = 0.8750-0.8750 1.6250 (   762 PWs)   bands (ev):

    -4.0478   1.1189   3.4114   3.8667

          k = 0.1250-0.1250 0.1250 (   764 PWs)   bands (ev):

    -5.6150   4.4497   5.7588   5.7588

          k = 0.6250-0.6250 0.6250 (   763 PWs)   bands (ev):

    -4.1472   0.1488   4.9687   4.9687

          k =-0.3750-0.3750-0.1250 (   767 PWs)   bands (ev):

    -4.5829   1.4477   3.7631   5.2772

          k = 0.1250-0.8750 0.3750 (   754 PWs)   bands (ev):

    -2.3981  -0.8511   2.0475   3.1305

          k =-0.1250-0.3750 0.3750 (   767 PWs)   bands (ev):

    -4.5829   1.4477   3.7631   5.2772

          k = 0.3750-0.8750 0.8750 (   762 PWs)   bands (ev):

    -4.0478   1.1189   3.4114   3.8667

          k = 0.3750 0.3750 0.6250 (   760 PWs)   bands (ev):

    -3.4356  -0.6427   3.7867   4.5012

          k = 0.8750-0.1250 1.1250 (   762 PWs)   bands (ev):

    -2.5682  -0.7525   2.6614   3.3977

          k = 0.6250 0.3750-0.3750 (   760 PWs)   bands (ev):

    -3.4356  -0.6427   3.7867   4.5012

          k = 1.1250-0.1250 0.1250 (   762 PWs)   bands (ev):

    -2.5682  -0.7525   2.6614   3.3977

          k = 0.1250 0.1250 0.3750 (   766 PWs)   bands (ev):

    -5.0844   2.8311   4.7450   4.8124

          k = 0.6250-0.3750 0.8750 (   766 PWs)   bands (ev):

    -3.6295   0.2381   2.7673   4.1425

          k = 0.3750 0.1250-0.1250 (   766 PWs)   bands (ev):

    -5.0844   2.8311   4.7450   4.8124

          k = 0.8750-0.3750 0.3750 (   763 PWs)   bands (ev):

    -2.9375  -0.5518   2.1083   4.1823

          k =-0.1250-0.6250-0.1250 (   762 PWs)   bands (ev):

    -4.0478   1.1189   3.4114   3.8667

          k = 0.3750-1.1250 0.3750 (   763 PWs)   bands (ev):

    -2.9375  -0.5518   2.1083   4.1823

          k = 0.1250-0.6250 0.1250 (   762 PWs)   bands (ev):

    -4.0478   1.1189   3.4114   3.8667

          k = 0.6250-1.1250 0.6250 (   767 PWs)   bands (ev):

    -4.5829   1.4477   3.7631   5.2772

          k = 0.6250 0.1250 0.8750 (   754 PWs)   bands (ev):

    -2.3981  -0.8511   2.0475   3.1305

          k = 1.1250-0.3750 1.3750 (   766 PWs)   bands (ev):

    -3.6295   0.2381   2.7673   4.1425

          k =-0.8750 0.1250 0.6250 (   754 PWs)   bands (ev):

    -2.3981  -0.8511   2.0475   3.1305

          k =-0.3750-0.3750 1.1250 (   763 PWs)   bands (ev):

    -2.9375  -0.5518   2.1083   4.1823

          k = 0.8750 0.1250-0.6250 (   754 PWs)   bands (ev):

    -2.3981  -0.8511   2.0475   3.1305

          k = 1.3750-0.3750-0.1250 (   766 PWs)   bands (ev):

    -3.6295   0.2381   2.7673   4.1425

          k = 0.3750-0.1250 0.6250 (   766 PWs)   bands (ev):

    -3.6295   0.2381   2.7673   4.1425

          k = 0.8750-0.6250 1.1250 (   766 PWs)   bands (ev):

    -5.0844   2.8311   4.7450   4.8124

          k =-0.6250-0.1250 0.3750 (   766 PWs)   bands (ev):

    -3.6295   0.2381   2.7673   4.1425

          k =-0.1250-0.6250 0.8750 (   754 PWs)   bands (ev):

    -2.3981  -0.8511   2.0475   3.1305

          k = 0.6250-0.1250-0.3750 (   766 PWs)   bands (ev):

    -3.6295   0.2381   2.7673   4.1425

          k = 1.1250-0.6250 0.1250 (   754 PWs)   bands (ev):

    -2.3981  -0.8511   2.0475   3.1305

          k =-0.1250 0.8750-0.1250 (   762 PWs)   bands (ev):

    -2.5682  -0.7525   2.6614   3.3977

          k = 0.3750 0.3750 0.3750 (   763 PWs)   bands (ev):

    -4.1472   0.1488   4.9687   4.9687

          k = 0.1250 0.8750 0.1250 (   762 PWs)   bands (ev):

    -2.5682  -0.7525   2.6614   3.3977

          k = 0.6250 0.3750 0.6250 (   760 PWs)   bands (ev):

    -3.4356  -0.6427   3.7867   4.5012

          k = 0.3750-0.3750 0.3750 (   763 PWs)   bands (ev):

    -4.1472   0.1488   4.9687   4.9687

          k = 0.8750-0.8750 0.8750 (   764 PWs)   bands (ev):

    -5.6150   4.4497   5.7588   5.7588

          k = 0.3750 0.3750 1.1250 (   763 PWs)   bands (ev):

    -2.9375  -0.5518   2.1083   4.1823

          k = 0.8750-0.1250 1.6250 (   754 PWs)   bands (ev):

    -2.3981  -0.8511   2.0475   3.1305

          k = 1.1250 0.3750-0.3750 (   763 PWs)   bands (ev):

    -2.9375  -0.5518   2.1083   4.1823

          k = 1.6250-0.1250 0.1250 (   766 PWs)   bands (ev):

    -5.0844   2.8311   4.7450   4.8124

     highest occupied level (ev):     5.7588

     Writing output data file silicon.10.312.save

                                                                                

     bravais-lattice index     =            2
     lattice parameter (alat)  =      10.3120  a.u.
     unit-cell volume          =     274.1377 (a.u.)^3
     number of atoms/cell      =            2
     number of atomic types    =            1
     kinetic-energy cut-off    =      30.0000  Ry
     charge density cut-off    =     240.0000  Ry
     convergence threshold     =      1.0E-12
     beta                      =       0.7000
     number of iterations used =            4
     Exchange-correlation      = SLA  PW   PBE  PBE ( 1  4  3  4 0 0)


     celldm(1)=   10.31200  celldm(2)=    0.00000  celldm(3)=    0.00000
     celldm(4)=    0.00000  celldm(5)=    0.00000  celldm(6)=    0.00000

     crystal axes: (cart. coord. in units of alat)
               a(1) = ( -0.5000  0.0000  0.5000 )  
               a(2) = (  0.0000  0.5000  0.5000 )  
               a(3) = ( -0.5000  0.5000  0.0000 )  

     reciprocal axes: (cart. coord. in units 2 pi/alat)
               b(1) = ( -1.0000 -1.0000  1.0000 )  
               b(2) = (  1.0000  1.0000  1.0000 )  
               b(3) = ( -1.0000  1.0000 -1.0000 )  


     Atoms inside the unit cell: 

     Cartesian axes

     site n.  atom      mass           positions (alat units)
        1     Si  28.0860   tau(    1) = (    0.00000    0.00000    0.00000  )
        2     Si  28.0860   tau(    2) = (    0.25000    0.25000    0.25000  )

     Computing dynamical matrix for 
                    q = (   0.5000000  -0.5000000   0.5000000 )

     13 Sym.Ops. (with q -> -q+G )


     G cutoff =  646.4535  (   4288 G-vectors)     FFT grid: ( 36, 36, 36)
     G cutoff =  323.2268  (   1520 G-vectors)  smooth grid: ( 25, 25, 25)
     number of k points=    60

     PseudoPot. # 1 for Si read from file:
     /home/s1333534/quantum_espresso/qe-6.1/pseudo/si_pbe_v1.uspp.F.UPF.txt
     MD5 check sum: a056efeee980c13900f22a371efd63c1
     Pseudo is Ultrasoft + core correction, Zval =  4.0
     Generated by new atomic code, or converted to UPF format
     Using radial grid of  899 points,  6 beta functions with: 
                l(1) =   0
                l(2) =   0
                l(3) =   1
                l(4) =   1
                l(5) =   2
                l(6) =   2
     Q(r) pseudized with  8 coefficients,  rinner =    0.900   0.900   0.900
                                                       0.900   0.900


     Atomic displacements:
     There are   4 irreducible representations

     Representation     1      1 modes -  To be done

     Representation     2      1 modes -  To be done

     Representation     3      2 modes -  To be done

     Representation     4      2 modes -  To be done



     Alpha used in Ewald sum =   2.5000
     PHONON       :    27.55s CPU        35.44s WALL



     Representation #  1 mode #   1

     Self-consistent Calculation

      iter #   1 total cpu time :    35.7 secs   av.it.:   5.1
      thresh= 1.000E-02 alpha_mix =  0.700 |ddv_scf|^2 =  4.206E-06

      iter #   2 total cpu time :    36.1 secs   av.it.:   9.9
      thresh= 2.051E-04 alpha_mix =  0.700 |ddv_scf|^2 =  3.840E-06

      iter #   3 total cpu time :    36.5 secs   av.it.:   9.2
      thresh= 1.960E-04 alpha_mix =  0.700 |ddv_scf|^2 =  2.314E-09

      iter #   4 total cpu time :    36.9 secs   av.it.:   9.4
      thresh= 4.810E-06 alpha_mix =  0.700 |ddv_scf|^2 =  2.232E-11

      iter #   5 total cpu time :    37.2 secs   av.it.:   9.3
      thresh= 4.724E-07 alpha_mix =  0.700 |ddv_scf|^2 =  3.068E-13

     End of self-consistent calculation

     Convergence has been achieved 


     Representation #  2 mode #   2

     Self-consistent Calculation

      iter #   1 total cpu time :    37.6 secs   av.it.:   6.0
      thresh= 1.000E-02 alpha_mix =  0.700 |ddv_scf|^2 =  5.983E-05

      iter #   2 total cpu time :    38.0 secs   av.it.:   9.8
      thresh= 7.735E-04 alpha_mix =  0.700 |ddv_scf|^2 =  1.859E-04

      iter #   3 total cpu time :    38.4 secs   av.it.:   8.6
      thresh= 1.364E-03 alpha_mix =  0.700 |ddv_scf|^2 =  1.307E-08

      iter #   4 total cpu time :    38.9 secs   av.it.:   9.8
      thresh= 1.143E-05 alpha_mix =  0.700 |ddv_scf|^2 =  6.645E-10

      iter #   5 total cpu time :    39.2 secs   av.it.:  10.2
      thresh= 2.578E-06 alpha_mix =  0.700 |ddv_scf|^2 =  2.031E-11

      iter #   6 total cpu time :    39.6 secs   av.it.:   9.7
      thresh= 4.506E-07 alpha_mix =  0.700 |ddv_scf|^2 =  1.530E-13

     End of self-consistent calculation

     Convergence has been achieved 


     Representation #  3 modes #   3  4

     Self-consistent Calculation

      iter #   1 total cpu time :    40.2 secs   av.it.:   5.0
      thresh= 1.000E-02 alpha_mix =  0.700 |ddv_scf|^2 =  2.700E-08

      iter #   2 total cpu time :    41.0 secs   av.it.:  10.9
      thresh= 1.643E-05 alpha_mix =  0.700 |ddv_scf|^2 =  1.594E-09

      iter #   3 total cpu time :    41.7 secs   av.it.:  10.7
      thresh= 3.993E-06 alpha_mix =  0.700 |ddv_scf|^2 =  5.317E-11

      iter #   4 total cpu time :    42.4 secs   av.it.:  10.6
      thresh= 7.292E-07 alpha_mix =  0.700 |ddv_scf|^2 =  4.344E-13

     End of self-consistent calculation

     Convergence has been achieved 


     Representation #  4 modes #   5  6

     Self-consistent Calculation

      iter #   1 total cpu time :    43.1 secs   av.it.:   5.1
      thresh= 1.000E-02 alpha_mix =  0.700 |ddv_scf|^2 =  1.380E-07

      iter #   2 total cpu time :    43.9 secs   av.it.:  11.1
      thresh= 3.715E-05 alpha_mix =  0.700 |ddv_scf|^2 =  1.107E-08

      iter #   3 total cpu time :    44.6 secs   av.it.:  10.9
      thresh= 1.052E-05 alpha_mix =  0.700 |ddv_scf|^2 =  2.914E-10

      iter #   4 total cpu time :    45.3 secs   av.it.:   9.9
      thresh= 1.707E-06 alpha_mix =  0.700 |ddv_scf|^2 =  5.244E-13

     End of self-consistent calculation

     Convergence has been achieved 

     Number of q in the star =    4
     List of q in the star:
          1   0.500000000  -0.500000000   0.500000000
          2   0.500000000   0.500000000   0.500000000
          3  -0.500000000   0.500000000   0.500000000
          4   0.500000000   0.500000000  -0.500000000

     Diagonalizing the dynamical matrix

     q = (    0.500000000  -0.500000000   0.500000000 ) 

 **************************************************************************
     freq (    1) =       3.269753 [THz] =     109.067225 [cm-1]
     freq (    2) =       3.269753 [THz] =     109.067225 [cm-1]
     freq (    3) =      11.122428 [THz] =     371.004273 [cm-1]
     freq (    4) =      12.088132 [THz] =     403.216683 [cm-1]
     freq (    5) =      14.391710 [THz] =     480.055758 [cm-1]
     freq (    6) =      14.391710 [THz] =     480.055758 [cm-1]
 **************************************************************************

     Calculation of q =    0.0000000   0.5000000   0.0000000

   Info: using nr1, nr2, nr3 values from input

   Info: using nr1, nr2, nr3 values from input

     Parallelization info
     --------------------
     sticks:   dense  smooth     PW     G-vecs:    dense   smooth      PW
     Min         217     109     37                 4288     1520     309
     Max         218     111     38                 4289     1521     312
     Sum         871     439    151                17153     6081    1243



     bravais-lattice index     =            2
     lattice parameter (alat)  =      10.3120  a.u.
     unit-cell volume          =     274.1377 (a.u.)^3
     number of atoms/cell      =            2
     number of atomic types    =            1
     number of electrons       =         8.00
     number of Kohn-Sham states=            4
     kinetic-energy cutoff     =      30.0000  Ry
     charge density cutoff     =     240.0000  Ry
     Exchange-correlation      = SLA  PW   PBE  PBE ( 1  4  3  4 0 0)

     celldm(1)=  10.312000  celldm(2)=   0.000000  celldm(3)=   0.000000
     celldm(4)=   0.000000  celldm(5)=   0.000000  celldm(6)=   0.000000

     crystal axes: (cart. coord. in units of alat)
               a(1) = (  -0.500000   0.000000   0.500000 )  
               a(2) = (   0.000000   0.500000   0.500000 )  
               a(3) = (  -0.500000   0.500000   0.000000 )  

     reciprocal axes: (cart. coord. in units 2 pi/alat)
               b(1) = ( -1.000000 -1.000000  1.000000 )  
               b(2) = (  1.000000  1.000000  1.000000 )  
               b(3) = ( -1.000000  1.000000 -1.000000 )  


     PseudoPot. # 1 for Si read from file:
     /home/s1333534/quantum_espresso/qe-6.1/pseudo/si_pbe_v1.uspp.F.UPF.txt
     MD5 check sum: a056efeee980c13900f22a371efd63c1
     Pseudo is Ultrasoft + core correction, Zval =  4.0
     Generated by new atomic code, or converted to UPF format
     Using radial grid of  899 points,  6 beta functions with: 
                l(1) =   0
                l(2) =   0
                l(3) =   1
                l(4) =   1
                l(5) =   2
                l(6) =   2
     Q(r) pseudized with  8 coefficients,  rinner =    0.900   0.900   0.900
                                                       0.900   0.900

     atomic species   valence    mass     pseudopotential
        Si             4.00    28.08600     Si( 1.00)

     48 Sym. Ops., with inversion, found



   Cartesian axes

     site n.     atom                  positions (alat units)
         1           Si  tau(   1) = (   0.0000000   0.0000000   0.0000000  )
         2           Si  tau(   2) = (   0.2500000   0.2500000   0.2500000  )

     number of k points=    80
                       cart. coord. in units 2pi/alat
        k(    1) = (  -0.1250000   0.1250000   0.1250000), wk =   0.0312500
        k(    2) = (  -0.1250000   0.6250000   0.1250000), wk =   0.0000000
        k(    3) = (  -0.3750000   0.3750000  -0.1250000), wk =   0.0625000
        k(    4) = (  -0.3750000   0.8750000  -0.1250000), wk =   0.0000000
        k(    5) = (   0.3750000  -0.3750000   0.6250000), wk =   0.0625000
        k(    6) = (   0.3750000   0.1250000   0.6250000), wk =   0.0000000
        k(    7) = (   0.1250000  -0.1250000   0.3750000), wk =   0.0625000
        k(    8) = (   0.1250000   0.3750000   0.3750000), wk =   0.0000000
        k(    9) = (  -0.1250000   0.6250000   0.1250000), wk =   0.0312500
        k(   10) = (  -0.1250000   1.1250000   0.1250000), wk =   0.0000000
        k(   11) = (   0.6250000  -0.1250000   0.8750000), wk =   0.0625000
        k(   12) = (   0.6250000   0.3750000   0.8750000), wk =   0.0000000
        k(   13) = (   0.3750000   0.1250000   0.6250000), wk =   0.0625000
        k(   14) = (   0.3750000   0.6250000   0.6250000), wk =   0.0000000
        k(   15) = (  -0.1250000  -0.8750000   0.1250000), wk =   0.0312500
        k(   16) = (  -0.1250000  -0.3750000   0.1250000), wk =   0.0000000
        k(   17) = (  -0.3750000   0.3750000   0.3750000), wk =   0.0312500
        k(   18) = (  -0.3750000   0.8750000   0.3750000), wk =   0.0000000
        k(   19) = (   0.3750000  -0.3750000   1.1250000), wk =   0.0625000
        k(   20) = (   0.3750000   0.1250000   1.1250000), wk =   0.0000000
        k(   21) = (  -0.1250000  -0.1250000   0.1250000), wk =   0.0312500
        k(   22) = (  -0.1250000   0.3750000   0.1250000), wk =   0.0000000
        k(   23) = (   0.1250000  -0.3750000   0.3750000), wk =   0.0625000
        k(   24) = (   0.1250000   0.1250000   0.3750000), wk =   0.0000000
        k(   25) = (   0.3750000  -0.1250000   0.3750000), wk =   0.0312500
        k(   26) = (   0.3750000   0.3750000   0.3750000), wk =   0.0000000
        k(   27) = (   0.3750000   0.1250000   0.3750000), wk =   0.0312500
        k(   28) = (   0.3750000   0.6250000   0.3750000), wk =   0.0000000
        k(   29) = (  -0.6250000   0.3750000  -0.3750000), wk =   0.0625000
        k(   30) = (  -0.6250000   0.8750000  -0.3750000), wk =   0.0000000
        k(   31) = (  -0.3750000   0.6250000  -0.3750000), wk =   0.0312500
        k(   32) = (  -0.3750000   1.1250000  -0.3750000), wk =   0.0000000
        k(   33) = (  -0.3750000  -0.6250000  -0.3750000), wk =   0.0312500
        k(   34) = (  -0.3750000  -0.1250000  -0.3750000), wk =   0.0000000
        k(   35) = (  -0.3750000   0.1250000  -0.1250000), wk =   0.0625000
        k(   36) = (  -0.3750000   0.6250000  -0.1250000), wk =   0.0000000
        k(   37) = (  -0.1250000   0.3750000  -0.1250000), wk =   0.0312500
        k(   38) = (  -0.1250000   0.8750000  -0.1250000), wk =   0.0000000
        k(   39) = (  -0.1250000  -0.3750000  -0.1250000), wk =   0.0312500
        k(   40) = (  -0.1250000   0.1250000  -0.1250000), wk =   0.0000000
        k(   41) = (  -0.1250000  -0.6250000   0.1250000), wk =   0.0312500
        k(   42) = (  -0.1250000  -0.1250000   0.1250000), wk =   0.0000000
        k(   43) = (   0.6250000  -0.1250000  -0.1250000), wk =   0.0625000
        k(   44) = (   0.6250000   0.3750000  -0.1250000), wk =   0.0000000
        k(   45) = (   0.6250000   0.1250000   0.1250000), wk =   0.0625000
        k(   46) = (   0.6250000   0.6250000   0.1250000), wk =   0.0000000
        k(   47) = (  -0.8750000   0.1250000  -0.6250000), wk =   0.0625000
        k(   48) = (  -0.8750000   0.6250000  -0.6250000), wk =   0.0000000
        k(   49) = (  -0.1250000   0.6250000  -0.8750000), wk =   0.0625000
        k(   50) = (  -0.1250000   1.1250000  -0.8750000), wk =   0.0000000
        k(   51) = (  -0.1250000   0.8750000  -0.6250000), wk =   0.0625000
        k(   52) = (  -0.1250000   1.3750000  -0.6250000), wk =   0.0000000
        k(   53) = (  -0.1250000  -0.8750000  -0.6250000), wk =   0.0625000
        k(   54) = (  -0.1250000  -0.3750000  -0.6250000), wk =   0.0000000
        k(   55) = (   0.8750000  -0.6250000   0.1250000), wk =   0.0625000
        k(   56) = (   0.8750000  -0.1250000   0.1250000), wk =   0.0000000
        k(   57) = (  -0.6250000  -0.1250000  -0.3750000), wk =   0.0625000
        k(   58) = (  -0.6250000   0.3750000  -0.3750000), wk =   0.0000000
        k(   59) = (   0.1250000   0.3750000  -0.6250000), wk =   0.0625000
        k(   60) = (   0.1250000   0.8750000  -0.6250000), wk =   0.0000000
        k(   61) = (   0.1250000   0.6250000  -0.3750000), wk =   0.0625000
        k(   62) = (   0.1250000   1.1250000  -0.3750000), wk =   0.0000000
        k(   63) = (   0.1250000  -0.6250000  -0.3750000), wk =   0.0625000
        k(   64) = (   0.1250000  -0.1250000  -0.3750000), wk =   0.0000000
        k(   65) = (   0.6250000  -0.3750000  -0.1250000), wk =   0.0625000
        k(   66) = (   0.6250000   0.1250000  -0.1250000), wk =   0.0000000
        k(   67) = (  -0.1250000   0.8750000   0.1250000), wk =   0.0312500
        k(   68) = (  -0.1250000   1.3750000   0.1250000), wk =   0.0000000
        k(   69) = (  -0.8750000  -0.1250000  -0.1250000), wk =   0.0625000
        k(   70) = (  -0.8750000   0.3750000  -0.1250000), wk =   0.0000000
        k(   71) = (  -0.8750000   0.1250000   0.1250000), wk =   0.0625000
        k(   72) = (  -0.8750000   0.6250000   0.1250000), wk =   0.0000000
        k(   73) = (  -0.3750000  -0.3750000   0.3750000), wk =   0.0312500
        k(   74) = (  -0.3750000   0.1250000   0.3750000), wk =   0.0000000
        k(   75) = (  -1.1250000   0.3750000  -0.3750000), wk =   0.0625000
        k(   76) = (  -1.1250000   0.8750000  -0.3750000), wk =   0.0000000
        k(   77) = (  -0.3750000   1.1250000  -0.3750000), wk =   0.0312500
        k(   78) = (  -0.3750000   1.6250000  -0.3750000), wk =   0.0000000
        k(   79) = (  -0.3750000  -1.1250000  -0.3750000), wk =   0.0312500
        k(   80) = (  -0.3750000  -0.6250000  -0.3750000), wk =   0.0000000

     Dense  grid:    17153 G-vectors     FFT dimensions: (  36,  36,  36)

     Smooth grid:     6081 G-vectors     FFT dimensions: (  25,  25,  25)

     Estimated max dynamical RAM per process >       1.51MB

     Estimated total allocated dynamical RAM >       6.06MB

     The potential is recalculated from file :
     ./_ph0/silicon.10.312.save/charge-density.dat

     Starting wfc are    8 atomic wfcs

     Band Structure Calculation
     Davidson diagonalization with overlap

     ethr =  1.25E-10,  avg # of iterations = 12.2

     total cpu time spent up to now is        3.5 secs

     End of band structure calculation

          k =-0.1250 0.1250 0.1250 (   764 PWs)   bands (ev):

    -5.6150   4.4497   5.7588   5.7588

          k =-0.1250 0.6250 0.1250 (   762 PWs)   bands (ev):

    -4.0478   1.1189   3.4114   3.8667

          k =-0.3750 0.3750-0.1250 (   767 PWs)   bands (ev):

    -4.5829   1.4477   3.7631   5.2772

          k =-0.3750 0.8750-0.1250 (   754 PWs)   bands (ev):

    -2.3981  -0.8511   2.0475   3.1305

          k = 0.3750-0.3750 0.6250 (   760 PWs)   bands (ev):

    -3.4356  -0.6427   3.7867   4.5012

          k = 0.3750 0.1250 0.6250 (   766 PWs)   bands (ev):

    -3.6295   0.2381   2.7673   4.1425

          k = 0.1250-0.1250 0.3750 (   766 PWs)   bands (ev):

    -5.0844   2.8311   4.7450   4.8124

          k = 0.1250 0.3750 0.3750 (   767 PWs)   bands (ev):

    -4.5829   1.4477   3.7631   5.2772

          k =-0.1250 0.6250 0.1250 (   762 PWs)   bands (ev):

    -4.0478   1.1189   3.4114   3.8667

          k =-0.1250 1.1250 0.1250 (   762 PWs)   bands (ev):

    -2.5682  -0.7525   2.6614   3.3977

          k = 0.6250-0.1250 0.8750 (   754 PWs)   bands (ev):

    -2.3981  -0.8511   2.0475   3.1305

          k = 0.6250 0.3750 0.8750 (   766 PWs)   bands (ev):

    -3.6295   0.2381   2.7673   4.1425

          k = 0.3750 0.1250 0.6250 (   766 PWs)   bands (ev):

    -3.6295   0.2381   2.7673   4.1425

          k = 0.3750 0.6250 0.6250 (   760 PWs)   bands (ev):

    -3.4356  -0.6427   3.7867   4.5012

          k =-0.1250-0.8750 0.1250 (   762 PWs)   bands (ev):

    -2.5682  -0.7525   2.6614   3.3977

          k =-0.1250-0.3750 0.1250 (   766 PWs)   bands (ev):

    -5.0844   2.8311   4.7450   4.8124

          k =-0.3750 0.3750 0.3750 (   763 PWs)   bands (ev):

    -4.1472   0.1488   4.9687   4.9687

          k =-0.3750 0.8750 0.3750 (   763 PWs)   bands (ev):

    -2.9375  -0.5518   2.1083   4.1823

          k = 0.3750-0.3750 1.1250 (   763 PWs)   bands (ev):

    -2.9375  -0.5518   2.1083   4.1823

          k = 0.3750 0.1250 1.1250 (   754 PWs)   bands (ev):

    -2.3981  -0.8511   2.0475   3.1305

          k =-0.1250-0.1250 0.1250 (   764 PWs)   bands (ev):

    -5.6150   4.4497   5.7588   5.7588

          k =-0.1250 0.3750 0.1250 (   766 PWs)   bands (ev):

    -5.0844   2.8311   4.7450   4.8124

          k = 0.1250-0.3750 0.3750 (   767 PWs)   bands (ev):

    -4.5829   1.4477   3.7631   5.2772

          k = 0.1250 0.1250 0.3750 (   766 PWs)   bands (ev):

    -5.0844   2.8311   4.7450   4.8124

          k = 0.3750-0.1250 0.3750 (   767 PWs)   bands (ev):

    -4.5829   1.4477   3.7631   5.2772

          k = 0.3750 0.3750 0.3750 (   763 PWs)   bands (ev):

    -4.1472   0.1488   4.9687   4.9687

          k = 0.3750 0.1250 0.3750 (   767 PWs)   bands (ev):

    -4.5829   1.4477   3.7631   5.2772

          k = 0.3750 0.6250 0.3750 (   760 PWs)   bands (ev):

    -3.4356  -0.6427   3.7867   4.5012

          k =-0.6250 0.3750-0.3750 (   760 PWs)   bands (ev):

    -3.4356  -0.6427   3.7867   4.5012

          k =-0.6250 0.8750-0.3750 (   766 PWs)   bands (ev):

    -3.6295   0.2381   2.7673   4.1425

          k =-0.3750 0.6250-0.3750 (   760 PWs)   bands (ev):

    -3.4356  -0.6427   3.7867   4.5012

          k =-0.3750 1.1250-0.3750 (   763 PWs)   bands (ev):

    -2.9375  -0.5518   2.1083   4.1823

          k =-0.3750-0.6250-0.3750 (   760 PWs)   bands (ev):

    -3.4356  -0.6427   3.7867   4.5012

          k =-0.3750-0.1250-0.3750 (   767 PWs)   bands (ev):

    -4.5829   1.4477   3.7631   5.2772

          k =-0.3750 0.1250-0.1250 (   766 PWs)   bands (ev):

    -5.0844   2.8311   4.7450   4.8124

          k =-0.3750 0.6250-0.1250 (   766 PWs)   bands (ev):

    -3.6295   0.2381   2.7673   4.1425

          k =-0.1250 0.3750-0.1250 (   766 PWs)   bands (ev):

    -5.0844   2.8311   4.7450   4.8124

          k =-0.1250 0.8750-0.1250 (   762 PWs)   bands (ev):

    -2.5682  -0.7525   2.6614   3.3977

          k =-0.1250-0.3750-0.1250 (   766 PWs)   bands (ev):

    -5.0844   2.8311   4.7450   4.8124

          k =-0.1250 0.1250-0.1250 (   764 PWs)   bands (ev):

    -5.6150   4.4497   5.7588   5.7588

          k =-0.1250-0.6250 0.1250 (   762 PWs)   bands (ev):

    -4.0478   1.1189   3.4114   3.8667

          k =-0.1250-0.1250 0.1250 (   764 PWs)   bands (ev):

    -5.6150   4.4497   5.7588   5.7588

          k = 0.6250-0.1250-0.1250 (   762 PWs)   bands (ev):

    -4.0478   1.1189   3.4114   3.8667

          k = 0.6250 0.3750-0.1250 (   766 PWs)   bands (ev):

    -3.6295   0.2381   2.7673   4.1425

          k = 0.6250 0.1250 0.1250 (   762 PWs)   bands (ev):

    -4.0478   1.1189   3.4114   3.8667

          k = 0.6250 0.6250 0.1250 (   763 PWs)   bands (ev):

    -2.9375  -0.5518   2.1083   4.1823

          k =-0.8750 0.1250-0.6250 (   754 PWs)   bands (ev):

    -2.3981  -0.8511   2.0475   3.1305

          k =-0.8750 0.6250-0.6250 (   767 PWs)   bands (ev):

    -4.5829   1.4477   3.7631   5.2772

          k =-0.1250 0.6250-0.8750 (   754 PWs)   bands (ev):

    -2.3981  -0.8511   2.0475   3.1305

          k =-0.1250 1.1250-0.8750 (   762 PWs)   bands (ev):

    -2.5682  -0.7525   2.6614   3.3977

          k =-0.1250 0.8750-0.6250 (   754 PWs)   bands (ev):

    -2.3981  -0.8511   2.0475   3.1305

          k =-0.1250 1.3750-0.6250 (   763 PWs)   bands (ev):

    -2.9375  -0.5518   2.1083   4.1823

          k =-0.1250-0.8750-0.6250 (   754 PWs)   bands (ev):

    -2.3981  -0.8511   2.0475   3.1305

          k =-0.1250-0.3750-0.6250 (   766 PWs)   bands (ev):

    -3.6295   0.2381   2.7673   4.1425

          k = 0.8750-0.6250 0.1250 (   754 PWs)   bands (ev):

    -2.3981  -0.8511   2.0475   3.1305

          k = 0.8750-0.1250 0.1250 (   762 PWs)   bands (ev):

    -2.5682  -0.7525   2.6614   3.3977

          k =-0.6250-0.1250-0.3750 (   766 PWs)   bands (ev):

    -3.6295   0.2381   2.7673   4.1425

          k =-0.6250 0.3750-0.3750 (   760 PWs)   bands (ev):

    -3.4356  -0.6427   3.7867   4.5012

          k = 0.1250 0.3750-0.6250 (   766 PWs)   bands (ev):

    -3.6295   0.2381   2.7673   4.1425

          k = 0.1250 0.8750-0.6250 (   754 PWs)   bands (ev):

    -2.3981  -0.8511   2.0475   3.1305

          k = 0.1250 0.6250-0.3750 (   766 PWs)   bands (ev):

    -3.6295   0.2381   2.7673   4.1425

          k = 0.1250 1.1250-0.3750 (   754 PWs)   bands (ev):

    -2.3981  -0.8511   2.0475   3.1305

          k = 0.1250-0.6250-0.3750 (   766 PWs)   bands (ev):

    -3.6295   0.2381   2.7673   4.1425

          k = 0.1250-0.1250-0.3750 (   766 PWs)   bands (ev):

    -5.0844   2.8311   4.7450   4.8124

          k = 0.6250-0.3750-0.1250 (   766 PWs)   bands (ev):

    -3.6295   0.2381   2.7673   4.1425

          k = 0.6250 0.1250-0.1250 (   762 PWs)   bands (ev):

    -4.0478   1.1189   3.4114   3.8667

          k =-0.1250 0.8750 0.1250 (   762 PWs)   bands (ev):

    -2.5682  -0.7525   2.6614   3.3977

          k =-0.1250 1.3750 0.1250 (   762 PWs)   bands (ev):

    -4.0478   1.1189   3.4114   3.8667

          k =-0.8750-0.1250-0.1250 (   762 PWs)   bands (ev):

    -2.5682  -0.7525   2.6614   3.3977

          k =-0.8750 0.3750-0.1250 (   754 PWs)   bands (ev):

    -2.3981  -0.8511   2.0475   3.1305

          k =-0.8750 0.1250 0.1250 (   762 PWs)   bands (ev):

    -2.5682  -0.7525   2.6614   3.3977

          k =-0.8750 0.6250 0.1250 (   754 PWs)   bands (ev):

    -2.3981  -0.8511   2.0475   3.1305

          k =-0.3750-0.3750 0.3750 (   763 PWs)   bands (ev):

    -4.1472   0.1488   4.9687   4.9687

          k =-0.3750 0.1250 0.3750 (   767 PWs)   bands (ev):

    -4.5829   1.4477   3.7631   5.2772

          k =-1.1250 0.3750-0.3750 (   763 PWs)   bands (ev):

    -2.9375  -0.5518   2.1083   4.1823

          k =-1.1250 0.8750-0.3750 (   762 PWs)   bands (ev):

    -4.0478   1.1189   3.4114   3.8667

          k =-0.3750 1.1250-0.3750 (   763 PWs)   bands (ev):

    -2.9375  -0.5518   2.1083   4.1823

          k =-0.3750 1.6250-0.3750 (   763 PWs)   bands (ev):

    -4.1472   0.1488   4.9687   4.9687

          k =-0.3750-1.1250-0.3750 (   763 PWs)   bands (ev):

    -2.9375  -0.5518   2.1083   4.1823

          k =-0.3750-0.6250-0.3750 (   760 PWs)   bands (ev):

    -3.4356  -0.6427   3.7867   4.5012

     highest occupied level (ev):     5.7588

     Writing output data file silicon.10.312.save

                                                                                

     bravais-lattice index     =            2
     lattice parameter (alat)  =      10.3120  a.u.
     unit-cell volume          =     274.1377 (a.u.)^3
     number of atoms/cell      =            2
     number of atomic types    =            1
     kinetic-energy cut-off    =      30.0000  Ry
     charge density cut-off    =     240.0000  Ry
     convergence threshold     =      1.0E-12
     beta                      =       0.7000
     number of iterations used =            4
     Exchange-correlation      = SLA  PW   PBE  PBE ( 1  4  3  4 0 0)


     celldm(1)=   10.31200  celldm(2)=    0.00000  celldm(3)=    0.00000
     celldm(4)=    0.00000  celldm(5)=    0.00000  celldm(6)=    0.00000

     crystal axes: (cart. coord. in units of alat)
               a(1) = ( -0.5000  0.0000  0.5000 )  
               a(2) = (  0.0000  0.5000  0.5000 )  
               a(3) = ( -0.5000  0.5000  0.0000 )  

     reciprocal axes: (cart. coord. in units 2 pi/alat)
               b(1) = ( -1.0000 -1.0000  1.0000 )  
               b(2) = (  1.0000  1.0000  1.0000 )  
               b(3) = ( -1.0000  1.0000 -1.0000 )  


     Atoms inside the unit cell: 

     Cartesian axes

     site n.  atom      mass           positions (alat units)
        1     Si  28.0860   tau(    1) = (    0.00000    0.00000    0.00000  )
        2     Si  28.0860   tau(    2) = (    0.25000    0.25000    0.25000  )

     Computing dynamical matrix for 
                    q = (   0.0000000   0.5000000   0.0000000 )

      8 Sym.Ops. (no q -> -q+G )


     G cutoff =  646.4535  (   4288 G-vectors)     FFT grid: ( 36, 36, 36)
     G cutoff =  323.2268  (   1520 G-vectors)  smooth grid: ( 25, 25, 25)
     number of k points=    80

     PseudoPot. # 1 for Si read from file:
     /home/s1333534/quantum_espresso/qe-6.1/pseudo/si_pbe_v1.uspp.F.UPF.txt
     MD5 check sum: a056efeee980c13900f22a371efd63c1
     Pseudo is Ultrasoft + core correction, Zval =  4.0
     Generated by new atomic code, or converted to UPF format
     Using radial grid of  899 points,  6 beta functions with: 
                l(1) =   0
                l(2) =   0
                l(3) =   1
                l(4) =   1
                l(5) =   2
                l(6) =   2
     Q(r) pseudized with  8 coefficients,  rinner =    0.900   0.900   0.900
                                                       0.900   0.900

     Mode symmetry, C_4v (4mm)  point group:


     Atomic displacements:
     There are   4 irreducible representations

     Representation     1      1 modes -A_1  G_1 D_1  To be done

     Representation     2      1 modes -B_2  G_4 D_2'  To be done

     Representation     3      2 modes -E    G_5 D_5  To be done

     Representation     4      2 modes -E    G_5 D_5  To be done



     Alpha used in Ewald sum =   2.5000
     PHONON       :    37.26s CPU        47.68s WALL



     Representation #  1 mode #   1

     Self-consistent Calculation

      iter #   1 total cpu time :    48.0 secs   av.it.:   6.2
      thresh= 1.000E-02 alpha_mix =  0.700 |ddv_scf|^2 =  5.156E-04

      iter #   2 total cpu time :    48.5 secs   av.it.:   9.2
      thresh= 2.271E-03 alpha_mix =  0.700 |ddv_scf|^2 =  6.825E-03

      iter #   3 total cpu time :    48.9 secs   av.it.:   7.3
      thresh= 8.261E-03 alpha_mix =  0.700 |ddv_scf|^2 =  1.033E-08

      iter #   4 total cpu time :    49.4 secs   av.it.:  10.1
      thresh= 1.017E-05 alpha_mix =  0.700 |ddv_scf|^2 =  1.008E-09

      iter #   5 total cpu time :    49.8 secs   av.it.:   9.6
      thresh= 3.175E-06 alpha_mix =  0.700 |ddv_scf|^2 =  1.153E-10

      iter #   6 total cpu time :    50.3 secs   av.it.:   9.3
      thresh= 1.074E-06 alpha_mix =  0.700 |ddv_scf|^2 =  3.201E-13

     End of self-consistent calculation

     Convergence has been achieved 


     Representation #  2 mode #   2

     Self-consistent Calculation

      iter #   1 total cpu time :    50.7 secs   av.it.:   5.1
      thresh= 1.000E-02 alpha_mix =  0.700 |ddv_scf|^2 =  8.125E-07

      iter #   2 total cpu time :    51.2 secs   av.it.:  10.4
      thresh= 9.014E-05 alpha_mix =  0.700 |ddv_scf|^2 =  2.206E-07

      iter #   3 total cpu time :    51.6 secs   av.it.:   9.9
      thresh= 4.697E-05 alpha_mix =  0.700 |ddv_scf|^2 =  2.242E-09

      iter #   4 total cpu time :    52.1 secs   av.it.:  10.1
      thresh= 4.735E-06 alpha_mix =  0.700 |ddv_scf|^2 =  8.690E-11

      iter #   5 total cpu time :    52.5 secs   av.it.:  10.3
      thresh= 9.322E-07 alpha_mix =  0.700 |ddv_scf|^2 =  5.199E-13

     End of self-consistent calculation

     Convergence has been achieved 


     Representation #  3 modes #   3  4

     Self-consistent Calculation

      iter #   1 total cpu time :    53.2 secs   av.it.:   5.2
      thresh= 1.000E-02 alpha_mix =  0.700 |ddv_scf|^2 =  1.441E-07

      iter #   2 total cpu time :    54.1 secs   av.it.:  11.5
      thresh= 3.796E-05 alpha_mix =  0.700 |ddv_scf|^2 =  1.986E-08

      iter #   3 total cpu time :    55.2 secs   av.it.:  11.1
      thresh= 1.409E-05 alpha_mix =  0.700 |ddv_scf|^2 =  3.345E-10

      iter #   4 total cpu time :    56.0 secs   av.it.:  10.7
      thresh= 1.829E-06 alpha_mix =  0.700 |ddv_scf|^2 =  7.812E-13

     End of self-consistent calculation

     Convergence has been achieved 


     Representation #  4 modes #   5  6

     Self-consistent Calculation

      iter #   1 total cpu time :    56.8 secs   av.it.:   5.3
      thresh= 1.000E-02 alpha_mix =  0.700 |ddv_scf|^2 =  1.321E-07

      iter #   2 total cpu time :    57.8 secs   av.it.:  11.4
      thresh= 3.635E-05 alpha_mix =  0.700 |ddv_scf|^2 =  1.772E-08

      iter #   3 total cpu time :    58.7 secs   av.it.:  11.2
      thresh= 1.331E-05 alpha_mix =  0.700 |ddv_scf|^2 =  3.427E-10

      iter #   4 total cpu time :    59.5 secs   av.it.:  11.0
      thresh= 1.851E-06 alpha_mix =  0.700 |ddv_scf|^2 =  8.413E-13

     End of self-consistent calculation

     Convergence has been achieved 

     Number of q in the star =    6
     List of q in the star:
          1   0.000000000   0.500000000   0.000000000
          2   0.000000000  -0.500000000   0.000000000
          3   0.500000000   0.000000000   0.000000000
          4   0.000000000   0.000000000   0.500000000
          5   0.000000000   0.000000000  -0.500000000
          6  -0.500000000   0.000000000   0.000000000

     Diagonalizing the dynamical matrix

     q = (    0.000000000   0.500000000   0.000000000 ) 

 **************************************************************************
     freq (    1) =       3.755883 [THz] =     125.282766 [cm-1]
     freq (    2) =       3.755883 [THz] =     125.282766 [cm-1]
     freq (    3) =       7.106063 [THz] =     237.032748 [cm-1]
     freq (    4) =      13.931537 [THz] =     464.706056 [cm-1]
     freq (    5) =      13.931537 [THz] =     464.706056 [cm-1]
     freq (    6) =      14.544929 [THz] =     485.166602 [cm-1]
 **************************************************************************

     Mode symmetry, C_4v (4mm)  point group:

     freq (  1 -  2) =        125.3  [cm-1]   --> E    G_5 D_5       
     freq (  3 -  3) =        237.0  [cm-1]   --> A_1  G_1 D_1       
     freq (  4 -  5) =        464.7  [cm-1]   --> E    G_5 D_5       
     freq (  6 -  6) =        485.2  [cm-1]   --> B_2  G_4 D_2'      

     Calculation of q =    0.7500000  -0.2500000   0.7500000

   Info: using nr1, nr2, nr3 values from input

   Info: using nr1, nr2, nr3 values from input

     Parallelization info
     --------------------
     sticks:   dense  smooth     PW     G-vecs:    dense   smooth      PW
     Min         217     109     40                 4288     1520     362
     Max         219     111     41                 4289     1521     366
     Sum         871     439    163                17153     6081    1459



     bravais-lattice index     =            2
     lattice parameter (alat)  =      10.3120  a.u.
     unit-cell volume          =     274.1377 (a.u.)^3
     number of atoms/cell      =            2
     number of atomic types    =            1
     number of electrons       =         8.00
     number of Kohn-Sham states=            4
     kinetic-energy cutoff     =      30.0000  Ry
     charge density cutoff     =     240.0000  Ry
     Exchange-correlation      = SLA  PW   PBE  PBE ( 1  4  3  4 0 0)

     celldm(1)=  10.312000  celldm(2)=   0.000000  celldm(3)=   0.000000
     celldm(4)=   0.000000  celldm(5)=   0.000000  celldm(6)=   0.000000

     crystal axes: (cart. coord. in units of alat)
               a(1) = (  -0.500000   0.000000   0.500000 )  
               a(2) = (   0.000000   0.500000   0.500000 )  
               a(3) = (  -0.500000   0.500000   0.000000 )  

     reciprocal axes: (cart. coord. in units 2 pi/alat)
               b(1) = ( -1.000000 -1.000000  1.000000 )  
               b(2) = (  1.000000  1.000000  1.000000 )  
               b(3) = ( -1.000000  1.000000 -1.000000 )  


     PseudoPot. # 1 for Si read from file:
     /home/s1333534/quantum_espresso/qe-6.1/pseudo/si_pbe_v1.uspp.F.UPF.txt
     MD5 check sum: a056efeee980c13900f22a371efd63c1
     Pseudo is Ultrasoft + core correction, Zval =  4.0
     Generated by new atomic code, or converted to UPF format
     Using radial grid of  899 points,  6 beta functions with: 
                l(1) =   0
                l(2) =   0
                l(3) =   1
                l(4) =   1
                l(5) =   2
                l(6) =   2
     Q(r) pseudized with  8 coefficients,  rinner =    0.900   0.900   0.900
                                                       0.900   0.900

     atomic species   valence    mass     pseudopotential
        Si             4.00    28.08600     Si( 1.00)

     48 Sym. Ops., with inversion, found



   Cartesian axes

     site n.     atom                  positions (alat units)
         1           Si  tau(   1) = (   0.0000000   0.0000000   0.0000000  )
         2           Si  tau(   2) = (   0.2500000   0.2500000   0.2500000  )

     number of k points=   288

     Number of k-points >= 100: set verbosity='high' to print them.

     Dense  grid:    17153 G-vectors     FFT dimensions: (  36,  36,  36)

     Smooth grid:     6081 G-vectors     FFT dimensions: (  25,  25,  25)

     Estimated max dynamical RAM per process >       1.51MB

     Estimated total allocated dynamical RAM >       6.06MB

     The potential is recalculated from file :
     ./_ph0/silicon.10.312.save/charge-density.dat

     Starting wfc are    8 atomic wfcs

     Band Structure Calculation
     Davidson diagonalization with overlap

     ethr =  1.25E-10,  avg # of iterations = 12.1

     total cpu time spent up to now is        6.7 secs

     End of band structure calculation

     Number of k-points >= 100: set verbosity='high' to print the bands.

     highest occupied level (ev):     5.7588

     Writing output data file silicon.10.312.save

                                                                                

     bravais-lattice index     =            2
     lattice parameter (alat)  =      10.3120  a.u.
     unit-cell volume          =     274.1377 (a.u.)^3
     number of atoms/cell      =            2
     number of atomic types    =            1
     kinetic-energy cut-off    =      30.0000  Ry
     charge density cut-off    =     240.0000  Ry
     convergence threshold     =      1.0E-12
     beta                      =       0.7000
     number of iterations used =            4
     Exchange-correlation      = SLA  PW   PBE  PBE ( 1  4  3  4 0 0)


     celldm(1)=   10.31200  celldm(2)=    0.00000  celldm(3)=    0.00000
     celldm(4)=    0.00000  celldm(5)=    0.00000  celldm(6)=    0.00000

     crystal axes: (cart. coord. in units of alat)
               a(1) = ( -0.5000  0.0000  0.5000 )  
               a(2) = (  0.0000  0.5000  0.5000 )  
               a(3) = ( -0.5000  0.5000  0.0000 )  

     reciprocal axes: (cart. coord. in units 2 pi/alat)
               b(1) = ( -1.0000 -1.0000  1.0000 )  
               b(2) = (  1.0000  1.0000  1.0000 )  
               b(3) = ( -1.0000  1.0000 -1.0000 )  


     Atoms inside the unit cell: 

     Cartesian axes

     site n.  atom      mass           positions (alat units)
        1     Si  28.0860   tau(    1) = (    0.00000    0.00000    0.00000  )
        2     Si  28.0860   tau(    2) = (    0.25000    0.25000    0.25000  )

     Computing dynamical matrix for 
                    q = (   0.7500000  -0.2500000   0.7500000 )

      2 Sym.Ops. (no q -> -q+G )


     G cutoff =  646.4535  (   4288 G-vectors)     FFT grid: ( 36, 36, 36)
     G cutoff =  323.2268  (   1520 G-vectors)  smooth grid: ( 25, 25, 25)
     number of k points=   288

     PseudoPot. # 1 for Si read from file:
     /home/s1333534/quantum_espresso/qe-6.1/pseudo/si_pbe_v1.uspp.F.UPF.txt
     MD5 check sum: a056efeee980c13900f22a371efd63c1
     Pseudo is Ultrasoft + core correction, Zval =  4.0
     Generated by new atomic code, or converted to UPF format
     Using radial grid of  899 points,  6 beta functions with: 
                l(1) =   0
                l(2) =   0
                l(3) =   1
                l(4) =   1
                l(5) =   2
                l(6) =   2
     Q(r) pseudized with  8 coefficients,  rinner =    0.900   0.900   0.900
                                                       0.900   0.900

     Mode symmetry, C_s (m)     point group:


     Atomic displacements:
     There are   6 irreducible representations

     Representation     1      1 modes -A'  To be done

     Representation     2      1 modes -A'  To be done

     Representation     3      1 modes -A'  To be done

     Representation     4      1 modes -A'  To be done

     Representation     5      1 modes -A''  To be done

     Representation     6      1 modes -A''  To be done



     Alpha used in Ewald sum =   2.5000
     PHONON       :  0m51.02s CPU     1m 4.67s WALL



     Representation #  1 mode #   1

     Self-consistent Calculation

      iter #   1 total cpu time :    65.5 secs   av.it.:   5.7
      thresh= 1.000E-02 alpha_mix =  0.700 |ddv_scf|^2 =  1.051E-05

      iter #   2 total cpu time :    66.9 secs   av.it.:  10.6
      thresh= 3.242E-04 alpha_mix =  0.700 |ddv_scf|^2 =  2.799E-05

      iter #   3 total cpu time :    68.0 secs   av.it.:   9.2
      thresh= 5.291E-04 alpha_mix =  0.700 |ddv_scf|^2 =  1.879E-07

      iter #   4 total cpu time :    69.3 secs   av.it.:   9.9
      thresh= 4.334E-05 alpha_mix =  0.700 |ddv_scf|^2 =  3.707E-09

      iter #   5 total cpu time :    70.6 secs   av.it.:  10.4
      thresh= 6.088E-06 alpha_mix =  0.700 |ddv_scf|^2 =  6.397E-10

      iter #   6 total cpu time :    71.9 secs   av.it.:  10.4
      thresh= 2.529E-06 alpha_mix =  0.700 |ddv_scf|^2 =  9.530E-12

      iter #   7 total cpu time :    73.2 secs   av.it.:  10.6
      thresh= 3.087E-07 alpha_mix =  0.700 |ddv_scf|^2 =  3.569E-13

     End of self-consistent calculation

     Convergence has been achieved 


     Representation #  2 mode #   2

     Self-consistent Calculation

      iter #   1 total cpu time :    74.5 secs   av.it.:   5.9
      thresh= 1.000E-02 alpha_mix =  0.700 |ddv_scf|^2 =  1.884E-05

      iter #   2 total cpu time :    75.8 secs   av.it.:  10.4
      thresh= 4.341E-04 alpha_mix =  0.700 |ddv_scf|^2 =  5.451E-05

      iter #   3 total cpu time :    77.0 secs   av.it.:   9.0
      thresh= 7.383E-04 alpha_mix =  0.700 |ddv_scf|^2 =  1.260E-07

      iter #   4 total cpu time :    78.3 secs   av.it.:  10.2
      thresh= 3.549E-05 alpha_mix =  0.700 |ddv_scf|^2 =  4.186E-09

      iter #   5 total cpu time :    79.6 secs   av.it.:  10.4
      thresh= 6.470E-06 alpha_mix =  0.700 |ddv_scf|^2 =  8.535E-10

      iter #   6 total cpu time :    80.9 secs   av.it.:  10.3
      thresh= 2.921E-06 alpha_mix =  0.700 |ddv_scf|^2 =  8.799E-12

      iter #   7 total cpu time :    82.2 secs   av.it.:  10.6
      thresh= 2.966E-07 alpha_mix =  0.700 |ddv_scf|^2 =  3.094E-13

     End of self-consistent calculation

     Convergence has been achieved 


     Representation #  3 mode #   3

     Self-consistent Calculation

      iter #   1 total cpu time :    83.3 secs   av.it.:   5.7
      thresh= 1.000E-02 alpha_mix =  0.700 |ddv_scf|^2 =  1.477E-05

      iter #   2 total cpu time :    84.6 secs   av.it.:  10.4
      thresh= 3.843E-04 alpha_mix =  0.700 |ddv_scf|^2 =  4.013E-05

      iter #   3 total cpu time :    85.8 secs   av.it.:   9.0
      thresh= 6.335E-04 alpha_mix =  0.700 |ddv_scf|^2 =  2.202E-07

      iter #   4 total cpu time :    87.0 secs   av.it.:  10.0
      thresh= 4.693E-05 alpha_mix =  0.700 |ddv_scf|^2 =  4.266E-09

      iter #   5 total cpu time :    88.3 secs   av.it.:  10.4
      thresh= 6.531E-06 alpha_mix =  0.700 |ddv_scf|^2 =  8.324E-10

      iter #   6 total cpu time :    89.6 secs   av.it.:  10.3
      thresh= 2.885E-06 alpha_mix =  0.700 |ddv_scf|^2 =  6.146E-12

      iter #   7 total cpu time :    90.9 secs   av.it.:  10.5
      thresh= 2.479E-07 alpha_mix =  0.700 |ddv_scf|^2 =  1.792E-13

     End of self-consistent calculation

     Convergence has been achieved 


     Representation #  4 mode #   4

     Self-consistent Calculation

      iter #   1 total cpu time :    91.9 secs   av.it.:   5.5
      thresh= 1.000E-02 alpha_mix =  0.700 |ddv_scf|^2 =  6.433E-06

      iter #   2 total cpu time :    93.2 secs   av.it.:  10.7
      thresh= 2.536E-04 alpha_mix =  0.700 |ddv_scf|^2 =  1.360E-05

      iter #   3 total cpu time :    94.4 secs   av.it.:   9.5
      thresh= 3.688E-04 alpha_mix =  0.700 |ddv_scf|^2 =  2.945E-07

      iter #   4 total cpu time :    95.7 secs   av.it.:   9.8
      thresh= 5.426E-05 alpha_mix =  0.700 |ddv_scf|^2 =  3.656E-09

      iter #   5 total cpu time :    97.2 secs   av.it.:  10.5
      thresh= 6.046E-06 alpha_mix =  0.700 |ddv_scf|^2 =  6.839E-10

      iter #   6 total cpu time :    98.5 secs   av.it.:  10.4
      thresh= 2.615E-06 alpha_mix =  0.700 |ddv_scf|^2 =  4.038E-12

      iter #   7 total cpu time :    99.8 secs   av.it.:  10.7
      thresh= 2.009E-07 alpha_mix =  0.700 |ddv_scf|^2 =  1.821E-13

     End of self-consistent calculation

     Convergence has been achieved 


     Representation #  5 mode #   5

     Self-consistent Calculation

      iter #   1 total cpu time :   100.8 secs   av.it.:   5.2
      thresh= 1.000E-02 alpha_mix =  0.700 |ddv_scf|^2 =  6.662E-07

      iter #   2 total cpu time :   102.1 secs   av.it.:  10.4
      thresh= 8.162E-05 alpha_mix =  0.700 |ddv_scf|^2 =  1.086E-07

      iter #   3 total cpu time :   103.4 secs   av.it.:  10.1
      thresh= 3.296E-05 alpha_mix =  0.700 |ddv_scf|^2 =  1.450E-09

      iter #   4 total cpu time :   104.7 secs   av.it.:   9.6
      thresh= 3.807E-06 alpha_mix =  0.700 |ddv_scf|^2 =  3.375E-12

      iter #   5 total cpu time :   105.9 secs   av.it.:  10.0
      thresh= 1.837E-07 alpha_mix =  0.700 |ddv_scf|^2 =  9.461E-14

     End of self-consistent calculation

     Convergence has been achieved 


     Representation #  6 mode #   6

     Self-consistent Calculation

      iter #   1 total cpu time :   107.0 secs   av.it.:   5.2
      thresh= 1.000E-02 alpha_mix =  0.700 |ddv_scf|^2 =  6.662E-07

      iter #   2 total cpu time :   108.2 secs   av.it.:  10.4
[...]
        k(   59) = (  -0.8750000   0.1250000  -0.1250000), wk =   0.0625000
        k(   60) = (  -1.3750000  -0.8750000  -0.1250000), wk =   0.0000000
        k(   61) = (  -1.1250000   0.3750000  -0.3750000), wk =   0.0625000
        k(   62) = (  -1.6250000  -0.6250000  -0.3750000), wk =   0.0000000
        k(   63) = (  -0.3750000   0.3750000   1.1250000), wk =   0.0625000
        k(   64) = (  -0.8750000  -0.6250000   1.1250000), wk =   0.0000000

     Dense  grid:    17153 G-vectors     FFT dimensions: (  36,  36,  36)

     Smooth grid:     6081 G-vectors     FFT dimensions: (  25,  25,  25)

     Estimated max dynamical RAM per process >       1.51MB

     Estimated total allocated dynamical RAM >       6.06MB

     The potential is recalculated from file :
     ./_ph0/silicon.10.312.save/charge-density.dat

     Starting wfc are    8 atomic wfcs

     Band Structure Calculation
     Davidson diagonalization with overlap

     ethr =  1.25E-10,  avg # of iterations = 12.1

     total cpu time spent up to now is       10.5 secs

     End of band structure calculation

          k =-0.1250 0.1250 0.1250 (   764 PWs)   bands (ev):

    -5.6150   4.4497   5.7588   5.7588

          k =-0.6250-0.8750 0.1250 (   754 PWs)   bands (ev):

    -2.3981  -0.8511   2.0475   3.1305

          k =-0.3750 0.3750-0.1250 (   767 PWs)   bands (ev):

    -4.5829   1.4477   3.7631   5.2772

          k =-0.8750-0.6250-0.1250 (   754 PWs)   bands (ev):

    -2.3981  -0.8511   2.0475   3.1305

          k = 0.3750-0.3750 0.6250 (   760 PWs)   bands (ev):

    -3.4356  -0.6427   3.7867   4.5012

          k =-0.1250-1.3750 0.6250 (   763 PWs)   bands (ev):

    -2.9375  -0.5518   2.1083   4.1823

          k = 0.1250-0.1250 0.3750 (   766 PWs)   bands (ev):

    -5.0844   2.8311   4.7450   4.8124

          k =-0.3750-1.1250 0.3750 (   763 PWs)   bands (ev):

    -2.9375  -0.5518   2.1083   4.1823

          k =-0.1250 0.6250 0.1250 (   762 PWs)   bands (ev):

    -4.0478   1.1189   3.4114   3.8667

          k =-0.6250-0.3750 0.1250 (   766 PWs)   bands (ev):

    -3.6295   0.2381   2.7673   4.1425

          k = 0.6250-0.1250 0.8750 (   754 PWs)   bands (ev):

    -2.3981  -0.8511   2.0475   3.1305

          k = 0.1250-1.1250 0.8750 (   762 PWs)   bands (ev):

    -2.5682  -0.7525   2.6614   3.3977

          k = 0.3750 0.1250 0.6250 (   766 PWs)   bands (ev):

    -3.6295   0.2381   2.7673   4.1425

          k =-0.1250-0.8750 0.6250 (   754 PWs)   bands (ev):

    -2.3981  -0.8511   2.0475   3.1305

          k =-0.1250-0.8750 0.1250 (   762 PWs)   bands (ev):

    -2.5682  -0.7525   2.6614   3.3977

          k =-0.6250-1.8750 0.1250 (   762 PWs)   bands (ev):

    -4.0478   1.1189   3.4114   3.8667

          k =-0.3750 0.3750 0.3750 (   763 PWs)   bands (ev):

    -4.1472   0.1488   4.9687   4.9687

          k =-0.8750-0.6250 0.3750 (   766 PWs)   bands (ev):

    -3.6295   0.2381   2.7673   4.1425

          k = 0.3750-0.3750 1.1250 (   763 PWs)   bands (ev):

    -2.9375  -0.5518   2.1083   4.1823

          k =-0.1250-1.3750 1.1250 (   754 PWs)   bands (ev):

    -2.3981  -0.8511   2.0475   3.1305

          k = 0.1250-0.3750 0.3750 (   767 PWs)   bands (ev):

    -4.5829   1.4477   3.7631   5.2772

          k =-0.3750-1.3750 0.3750 (   760 PWs)   bands (ev):

    -3.4356  -0.6427   3.7867   4.5012

          k = 0.3750-0.3750-0.1250 (   767 PWs)   bands (ev):

    -4.5829   1.4477   3.7631   5.2772

          k =-0.1250-1.3750-0.1250 (   762 PWs)   bands (ev):

    -4.0478   1.1189   3.4114   3.8667

          k =-0.6250 0.3750-0.3750 (   760 PWs)   bands (ev):

    -3.4356  -0.6427   3.7867   4.5012

          k =-1.1250-0.6250-0.3750 (   766 PWs)   bands (ev):

    -3.6295   0.2381   2.7673   4.1425

          k =-0.3750 0.3750 0.6250 (   760 PWs)   bands (ev):

    -3.4356  -0.6427   3.7867   4.5012

          k =-0.8750-0.6250 0.6250 (   767 PWs)   bands (ev):

    -4.5829   1.4477   3.7631   5.2772

          k =-0.3750 0.1250-0.1250 (   766 PWs)   bands (ev):

    -5.0844   2.8311   4.7450   4.8124

          k =-0.8750-0.8750-0.1250 (   762 PWs)   bands (ev):

    -2.5682  -0.7525   2.6614   3.3977

          k =-0.1250 0.1250 0.3750 (   766 PWs)   bands (ev):

    -5.0844   2.8311   4.7450   4.8124

          k =-0.6250-0.8750 0.3750 (   766 PWs)   bands (ev):

    -3.6295   0.2381   2.7673   4.1425

          k = 0.1250 0.6250-0.1250 (   762 PWs)   bands (ev):

    -4.0478   1.1189   3.4114   3.8667

          k =-0.3750-0.3750-0.1250 (   767 PWs)   bands (ev):

    -4.5829   1.4477   3.7631   5.2772

          k = 0.6250 0.1250-0.1250 (   762 PWs)   bands (ev):

    -4.0478   1.1189   3.4114   3.8667

          k = 0.1250-0.8750-0.1250 (   762 PWs)   bands (ev):

    -2.5682  -0.7525   2.6614   3.3977

          k =-0.8750 0.1250-0.6250 (   754 PWs)   bands (ev):

    -2.3981  -0.8511   2.0475   3.1305

          k =-1.3750-0.8750-0.6250 (   767 PWs)   bands (ev):

    -4.5829   1.4477   3.7631   5.2772

          k = 0.8750-0.1250 0.6250 (   754 PWs)   bands (ev):

    -2.3981  -0.8511   2.0475   3.1305

          k = 0.3750-1.1250 0.6250 (   766 PWs)   bands (ev):

    -3.6295   0.2381   2.7673   4.1425

          k =-0.6250 0.1250 0.8750 (   754 PWs)   bands (ev):

    -2.3981  -0.8511   2.0475   3.1305

          k =-1.1250-0.8750 0.8750 (   764 PWs)   bands (ev):

    -5.6150   4.4497   5.7588   5.7588

          k =-0.1250 0.8750 0.6250 (   754 PWs)   bands (ev):

    -2.3981  -0.8511   2.0475   3.1305

          k =-0.6250-0.1250 0.6250 (   763 PWs)   bands (ev):

    -2.9375  -0.5518   2.1083   4.1823

          k = 0.1250 0.8750-0.6250 (   754 PWs)   bands (ev):

    -2.3981  -0.8511   2.0475   3.1305

          k =-0.3750-0.1250-0.6250 (   766 PWs)   bands (ev):

    -3.6295   0.2381   2.7673   4.1425

          k =-0.6250-0.1250-0.3750 (   766 PWs)   bands (ev):

    -3.6295   0.2381   2.7673   4.1425

          k =-1.1250-1.1250-0.3750 (   762 PWs)   bands (ev):

    -4.0478   1.1189   3.4114   3.8667

          k = 0.6250 0.1250 0.3750 (   766 PWs)   bands (ev):

    -3.6295   0.2381   2.7673   4.1425

          k = 0.1250-0.8750 0.3750 (   754 PWs)   bands (ev):

    -2.3981  -0.8511   2.0475   3.1305

          k =-0.3750-0.1250 0.6250 (   766 PWs)   bands (ev):

    -3.6295   0.2381   2.7673   4.1425

          k =-0.8750-1.1250 0.6250 (   766 PWs)   bands (ev):

    -5.0844   2.8311   4.7450   4.8124

          k = 0.1250 0.6250 0.3750 (   766 PWs)   bands (ev):

    -3.6295   0.2381   2.7673   4.1425

          k =-0.3750-0.3750 0.3750 (   763 PWs)   bands (ev):

    -4.1472   0.1488   4.9687   4.9687

          k =-0.1250 0.6250-0.3750 (   766 PWs)   bands (ev):

    -3.6295   0.2381   2.7673   4.1425

          k =-0.6250-0.3750-0.3750 (   760 PWs)   bands (ev):

    -3.4356  -0.6427   3.7867   4.5012

          k = 0.1250-0.8750-0.1250 (   762 PWs)   bands (ev):

    -2.5682  -0.7525   2.6614   3.3977

          k =-0.3750-1.8750-0.1250 (   766 PWs)   bands (ev):

    -5.0844   2.8311   4.7450   4.8124

          k =-0.8750 0.1250-0.1250 (   762 PWs)   bands (ev):

    -2.5682  -0.7525   2.6614   3.3977

          k =-1.3750-0.8750-0.1250 (   754 PWs)   bands (ev):

    -2.3981  -0.8511   2.0475   3.1305

          k =-1.1250 0.3750-0.3750 (   763 PWs)   bands (ev):

    -2.9375  -0.5518   2.1083   4.1823

          k =-1.6250-0.6250-0.3750 (   760 PWs)   bands (ev):

    -3.4356  -0.6427   3.7867   4.5012

          k =-0.3750 0.3750 1.1250 (   763 PWs)   bands (ev):

    -2.9375  -0.5518   2.1083   4.1823

          k =-0.8750-0.6250 1.1250 (   766 PWs)   bands (ev):

    -5.0844   2.8311   4.7450   4.8124

     highest occupied level (ev):     5.7588

     Writing output data file silicon.10.312.save

                                                                                

     bravais-lattice index     =            2
     lattice parameter (alat)  =      10.3120  a.u.
     unit-cell volume          =     274.1377 (a.u.)^3
     number of atoms/cell      =            2
     number of atomic types    =            1
     kinetic-energy cut-off    =      30.0000  Ry
     charge density cut-off    =     240.0000  Ry
     convergence threshold     =      1.0E-12
     beta                      =       0.7000
     number of iterations used =            4
     Exchange-correlation      = SLA  PW   PBE  PBE ( 1  4  3  4 0 0)


     celldm(1)=   10.31200  celldm(2)=    0.00000  celldm(3)=    0.00000
     celldm(4)=    0.00000  celldm(5)=    0.00000  celldm(6)=    0.00000

     crystal axes: (cart. coord. in units of alat)
               a(1) = ( -0.5000  0.0000  0.5000 )  
               a(2) = (  0.0000  0.5000  0.5000 )  
               a(3) = ( -0.5000  0.5000  0.0000 )  

     reciprocal axes: (cart. coord. in units 2 pi/alat)
               b(1) = ( -1.0000 -1.0000  1.0000 )  
               b(2) = (  1.0000  1.0000  1.0000 )  
               b(3) = ( -1.0000  1.0000 -1.0000 )  


     Atoms inside the unit cell: 

     Cartesian axes

     site n.  atom      mass           positions (alat units)
        1     Si  28.0860   tau(    1) = (    0.00000    0.00000    0.00000  )
        2     Si  28.0860   tau(    2) = (    0.25000    0.25000    0.25000  )

     Computing dynamical matrix for 
                    q = (  -0.5000000  -1.0000000   0.0000000 )

      8 Sym.Ops. (no q -> -q+G )


     G cutoff =  646.4535  (   4288 G-vectors)     FFT grid: ( 36, 36, 36)
     G cutoff =  323.2268  (   1520 G-vectors)  smooth grid: ( 25, 25, 25)
     number of k points=    64

     PseudoPot. # 1 for Si read from file:
     /home/s1333534/quantum_espresso/qe-6.1/pseudo/si_pbe_v1.uspp.F.UPF.txt
     MD5 check sum: a056efeee980c13900f22a371efd63c1
     Pseudo is Ultrasoft + core correction, Zval =  4.0
     Generated by new atomic code, or converted to UPF format
     Using radial grid of  899 points,  6 beta functions with: 
                l(1) =   0
                l(2) =   0
                l(3) =   1
                l(4) =   1
                l(5) =   2
                l(6) =   2
     Q(r) pseudized with  8 coefficients,  rinner =    0.900   0.900   0.900
                                                       0.900   0.900


     Atomic displacements:
     There are   3 irreducible representations

     Representation     1      2 modes -  To be done

     Representation     2      2 modes -  To be done

     Representation     3      2 modes -  To be done



     Alpha used in Ewald sum =   2.5000
     PHONON       :  2m 2.99s CPU     2m32.22s WALL



     Representation #  1 modes #   1  2

     Self-consistent Calculation

      iter #   1 total cpu time :   152.9 secs   av.it.:   5.7
      thresh= 1.000E-02 alpha_mix =  0.700 |ddv_scf|^2 =  1.088E-06

      iter #   2 total cpu time :   153.7 secs   av.it.:  11.6
      thresh= 1.043E-04 alpha_mix =  0.700 |ddv_scf|^2 =  6.166E-07

      iter #   3 total cpu time :   154.6 secs   av.it.:  11.1
      thresh= 7.852E-05 alpha_mix =  0.700 |ddv_scf|^2 =  5.906E-10

      iter #   4 total cpu time :   155.4 secs   av.it.:  11.0
      thresh= 2.430E-06 alpha_mix =  0.700 |ddv_scf|^2 =  2.622E-12

      iter #   5 total cpu time :   156.2 secs   av.it.:  11.1
      thresh= 1.619E-07 alpha_mix =  0.700 |ddv_scf|^2 =  6.926E-14

     End of self-consistent calculation

     Convergence has been achieved 


     Representation #  2 modes #   3  4

     Self-consistent Calculation

      iter #   1 total cpu time :   156.9 secs   av.it.:   5.6
      thresh= 1.000E-02 alpha_mix =  0.700 |ddv_scf|^2 =  1.685E-06

      iter #   2 total cpu time :   157.7 secs   av.it.:  11.6
      thresh= 1.298E-04 alpha_mix =  0.700 |ddv_scf|^2 =  2.272E-06

      iter #   3 total cpu time :   158.5 secs   av.it.:  10.9
      thresh= 1.507E-04 alpha_mix =  0.700 |ddv_scf|^2 =  6.974E-10

      iter #   4 total cpu time :   159.3 secs   av.it.:  11.0
      thresh= 2.641E-06 alpha_mix =  0.700 |ddv_scf|^2 =  1.046E-11

      iter #   5 total cpu time :   160.1 secs   av.it.:  11.1
      thresh= 3.234E-07 alpha_mix =  0.700 |ddv_scf|^2 =  1.769E-13

     End of self-consistent calculation

     Convergence has been achieved 


     Representation #  3 modes #   5  6

     Self-consistent Calculation

      iter #   1 total cpu time :   160.9 secs   av.it.:   5.3
      thresh= 1.000E-02 alpha_mix =  0.700 |ddv_scf|^2 =  4.420E-07

      iter #   2 total cpu time :   161.7 secs   av.it.:  11.6
      thresh= 6.648E-05 alpha_mix =  0.700 |ddv_scf|^2 =  2.584E-07

      iter #   3 total cpu time :   162.6 secs   av.it.:  11.1
      thresh= 5.083E-05 alpha_mix =  0.700 |ddv_scf|^2 =  5.136E-10

      iter #   4 total cpu time :   163.4 secs   av.it.:  11.0
      thresh= 2.266E-06 alpha_mix =  0.700 |ddv_scf|^2 =  5.986E-12

      iter #   5 total cpu time :   164.1 secs   av.it.:  11.1
      thresh= 2.447E-07 alpha_mix =  0.700 |ddv_scf|^2 =  8.334E-14

     End of self-consistent calculation

     Convergence has been achieved 

     Number of q in the star =    6
     List of q in the star:
          1  -0.500000000  -1.000000000   0.000000000
          2   0.000000000   1.000000000   0.500000000
          3   0.000000000  -1.000000000  -0.500000000
          4   0.500000000   1.000000000   0.000000000
          5  -1.000000000  -0.500000000   0.000000000
          6   0.000000000  -0.500000000  -1.000000000

     Diagonalizing the dynamical matrix

     q = (   -0.500000000  -1.000000000   0.000000000 ) 

 **************************************************************************
     freq (    1) =       6.002589 [THz] =     200.224827 [cm-1]
     freq (    2) =       6.002589 [THz] =     200.224827 [cm-1]
     freq (    3) =      10.400261 [THz] =     346.915365 [cm-1]
     freq (    4) =      10.400261 [THz] =     346.915365 [cm-1]
     freq (    5) =      13.682442 [THz] =     456.397135 [cm-1]
     freq (    6) =      13.682442 [THz] =     456.397135 [cm-1]
 **************************************************************************

     init_run     :      1.26s CPU      1.30s WALL (       7 calls)
     electrons    :      7.22s CPU      7.79s WALL (       7 calls)

     Called by init_run:
     wfcinit      :      0.00s CPU      0.02s WALL (       7 calls)
     potinit      :      0.07s CPU      0.09s WALL (       7 calls)

     Called by electrons:
     c_bands      :      7.22s CPU      7.79s WALL (       7 calls)
     v_of_rho     :      0.07s CPU      0.07s WALL (       8 calls)
     newd         :      0.12s CPU      0.12s WALL (       8 calls)

     Called by c_bands:
     init_us_2    :      1.63s CPU      1.57s WALL (   16040 calls)
     cegterg      :      6.04s CPU      6.50s WALL (     796 calls)

     Called by sum_band:

     Called by *egterg:
     h_psi        :     68.87s CPU     73.73s WALL (  154489 calls)
     s_psi        :      5.77s CPU      6.99s WALL (  311380 calls)
     g_psi        :      0.05s CPU      0.07s WALL (    9666 calls)
     cdiaghg      :      0.56s CPU      0.56s WALL (   10462 calls)

     Called by h_psi:
     h_psi:pot    :     68.44s CPU     73.20s WALL (  154489 calls)
     h_psi:calbec :      3.49s CPU      4.03s WALL (  154489 calls)
     vloc_psi     :     60.28s CPU     65.02s WALL (  154489 calls)
     add_vuspsi   :      4.33s CPU      3.68s WALL (  154489 calls)

     General routines
     calbec       :      8.15s CPU      8.56s WALL (  345832 calls)
     fft          :      1.32s CPU      1.39s WALL (    5265 calls)
     ffts         :      0.21s CPU      0.22s WALL (    3320 calls)
     fftw         :     63.20s CPU     67.40s WALL ( 1384024 calls)
     interpolate  :      0.21s CPU      0.23s WALL (     572 calls)
     davcio       :      0.34s CPU      1.04s WALL (   69876 calls)

     Parallel routines
     fft_scatter  :     15.66s CPU     18.91s WALL ( 1392609 calls)

     PHONON       :  2m12.20s CPU     2m44.68s WALL

     INITIALIZATION: 
     phq_setup    :      0.22s CPU      0.36s WALL (       8 calls)
     phq_init     :      6.84s CPU      7.14s WALL (       8 calls)

     phq_init     :      6.84s CPU      7.14s WALL (       8 calls)
     set_drhoc    :      1.82s CPU      1.82s WALL (      24 calls)
     init_vloc    :      0.03s CPU      0.03s WALL (       8 calls)
     init_us_1    :      0.99s CPU      0.99s WALL (       8 calls)
     newd         :      0.12s CPU      0.12s WALL (       8 calls)
     dvanqq       :      1.17s CPU      1.19s WALL (       8 calls)
     drho         :      2.58s CPU      2.66s WALL (       8 calls)

     DYNAMICAL MATRIX:
     dynmat0      :      1.72s CPU      1.83s WALL (       8 calls)
     phqscf       :    112.09s CPU    139.27s WALL (       8 calls)
     dynmatrix    :      0.01s CPU      0.20s WALL (       8 calls)

     phqscf       :    112.09s CPU    139.27s WALL (       8 calls)
     solve_linter :    111.22s CPU    136.40s WALL (      32 calls)
     drhodv       :      0.58s CPU      0.61s WALL (      32 calls)

     dynmat0      :      1.72s CPU      1.83s WALL (       8 calls)
     dynmat_us    :      0.39s CPU      0.39s WALL (       8 calls)
     d2ionq       :      0.04s CPU      0.04s WALL (       8 calls)
     dynmatcc     :      1.28s CPU      1.29s WALL (       8 calls)

     dynmat_us    :      0.39s CPU      0.39s WALL (       8 calls)
     addusdynmat  :      0.00s CPU      0.00s WALL (       8 calls)

     phqscf       :    112.09s CPU    139.27s WALL (       8 calls)
     solve_linter :    111.22s CPU    136.40s WALL (      32 calls)

     solve_linter :    111.22s CPU    136.40s WALL (      32 calls)
     dvqpsi_us    :      2.11s CPU      2.28s WALL (    2508 calls)
     ortho        :      0.91s CPU      1.06s WALL (   13630 calls)
     cgsolve      :     76.54s CPU     83.16s WALL (   13630 calls)
     incdrhoscf   :      6.31s CPU      6.86s WALL (   13630 calls)
     addusddens   :      7.08s CPU      7.14s WALL (     202 calls)
     vpsifft      :      4.48s CPU      4.88s WALL (   11002 calls)
     dv_of_drho   :      1.26s CPU      1.31s WALL (     256 calls)
     mix_pot      :      0.33s CPU      9.35s WALL (     175 calls)
     psymdvscf    :      4.19s CPU      4.26s WALL (     170 calls)
     newdq        :      7.76s CPU      7.78s WALL (     175 calls)
     adddvscf     :      0.44s CPU      0.43s WALL (   11122 calls)
     drhodvus     :      0.01s CPU      0.02s WALL (      32 calls)

     dvqpsi_us    :      2.11s CPU      2.28s WALL (    2508 calls)
     dvqpsi_us_on :      0.91s CPU      0.95s WALL (    2508 calls)

     cgsolve      :     76.54s CPU     83.16s WALL (   13630 calls)
     ch_psi       :     75.41s CPU     81.36s WALL (  143231 calls)

     ch_psi       :     75.41s CPU     81.36s WALL (  143231 calls)
     h_psi        :     68.87s CPU     73.73s WALL (  154489 calls)
     last         :      9.07s CPU      9.22s WALL (  143231 calls)

     h_psi        :     68.87s CPU     73.73s WALL (  154489 calls)
     add_vuspsi   :      4.33s CPU      3.68s WALL (  154489 calls)

     incdrhoscf   :      6.31s CPU      6.86s WALL (   13630 calls)
     addusdbec    :      0.49s CPU      0.53s WALL (   16078 calls)

     drhodvus     :      0.01s CPU      0.02s WALL (      32 calls)

      General routines
     calbec       :      8.15s CPU      8.56s WALL (  345832 calls)
     fft          :      1.32s CPU      1.39s WALL (    5265 calls)
     ffts         :      0.21s CPU      0.22s WALL (    3320 calls)
     fftw         :     63.20s CPU     67.40s WALL ( 1384024 calls)
     davcio       :      0.34s CPU      1.04s WALL (   69876 calls)
     write_rec    :      0.23s CPU     10.38s WALL (     207 calls)


     PHONON       :  2m12.20s CPU     2m44.68s WALL


   This run was terminated on:  15:31:36  10Nov2017            

=------------------------------------------------------------------------------=
   JOB DONE.
=------------------------------------------------------------------------------=
