
     Program PWSCF v.6.1 (svn rev. 13369) starts on 10Nov2017 at 12:30:12 

     This program is part of the open-source Quantum ESPRESSO suite
     for quantum simulation of materials; please cite
         "P. Giannozzi et al., J. Phys.:Condens. Matter 21 395502 (2009);
          URL http://www.quantum-espresso.org", 
     in publications or presentations arising from this work. More details at
     http://www.quantum-espresso.org/quote

     Parallel version (MPI), running on     4 processors
     R & G space division:  proc/nbgrp/npool/nimage =       4
     Waiting for input...
     Reading input from standard input
     Message from routine read_cards :
     DEPRECATED: no units specified in ATOMIC_POSITIONS card
     Message from routine read_cards :
     ATOMIC_POSITIONS: units set to alat

     Current dimensions of program PWSCF are:
     Max number of different atomic species (ntypx) = 10
     Max number of k-points (npk) =  40000
     Max angular momentum in pseudopotentials (lmaxx) =  3

     Subspace diagonalization in iterative solution of the eigenvalue problem:
     a serial algorithm will be used


     Parallelization info
     --------------------
     sticks:   dense  smooth     PW     G-vecs:    dense   smooth      PW
     Min         406     201     63                10784     3771     670
     Max         407     202     64                10787     3774     673
     Sum        1627     805    253                43143    15089    2685



     bravais-lattice index     =            2
     lattice parameter (alat)  =      10.3330  a.u.
     unit-cell volume          =     275.8159 (a.u.)^3
     number of atoms/cell      =            2
     number of atomic types    =            1
     number of electrons       =         8.00
     number of Kohn-Sham states=            4
     kinetic-energy cutoff     =      55.0000  Ry
     charge density cutoff     =     440.0000  Ry
     convergence threshold     =      1.0E-08
     mixing beta               =       0.7000
     number of iterations used =            8  plain     mixing
     Exchange-correlation      = SLA  PW   PBE  PBE ( 1  4  3  4 0 0)

     celldm(1)=  10.333000  celldm(2)=   0.000000  celldm(3)=   0.000000
     celldm(4)=   0.000000  celldm(5)=   0.000000  celldm(6)=   0.000000

     crystal axes: (cart. coord. in units of alat)
               a(1) = (  -0.500000   0.000000   0.500000 )  
               a(2) = (   0.000000   0.500000   0.500000 )  
               a(3) = (  -0.500000   0.500000   0.000000 )  

     reciprocal axes: (cart. coord. in units 2 pi/alat)
               b(1) = ( -1.000000 -1.000000  1.000000 )  
               b(2) = (  1.000000  1.000000  1.000000 )  
               b(3) = ( -1.000000  1.000000 -1.000000 )  


     PseudoPot. # 1 for Si read from file:
     /home/max/quantum_espresso/qe-6.1/pseudo/si_pbe_v1.uspp.F.UPF.txt
     MD5 check sum: a056efeee980c13900f22a371efd63c1
     Pseudo is Ultrasoft + core correction, Zval =  4.0
     Generated by new atomic code, or converted to UPF format
     Using radial grid of  899 points,  6 beta functions with: 
                l(1) =   0
                l(2) =   0
                l(3) =   1
                l(4) =   1
                l(5) =   2
                l(6) =   2
     Q(r) pseudized with  8 coefficients,  rinner =    0.900   0.900   0.900
                                                       0.900   0.900

     atomic species   valence    mass     pseudopotential
        Si             4.00    28.08600     Si( 1.00)

     24 Sym. Ops. (no inversion) found
          (note: 24 additional sym.ops. were found but ignored
           their fractional translations are incommensurate with FFT grid)


   Cartesian axes

     site n.     atom                  positions (alat units)
         1           Si  tau(   1) = (   0.0000000   0.0000000   0.0000000  )
         2           Si  tau(   2) = (   0.2500000   0.2500000   0.2500000  )

     number of k points=    28
                       cart. coord. in units 2pi/alat
        k(    1) = (  -0.0833333   0.0833333   0.0833333), wk =   0.0185185
        k(    2) = (  -0.2500000   0.2500000  -0.0833333), wk =   0.0555556
        k(    3) = (  -0.4166667   0.4166667  -0.2500000), wk =   0.0555556
        k(    4) = (   0.4166667  -0.4166667   0.5833333), wk =   0.0555556
        k(    5) = (   0.2500000  -0.2500000   0.4166667), wk =   0.0555556
        k(    6) = (   0.0833333  -0.0833333   0.2500000), wk =   0.0555556
        k(    7) = (  -0.0833333   0.4166667   0.0833333), wk =   0.0555556
        k(    8) = (  -0.2500000   0.5833333  -0.0833333), wk =   0.1111111
        k(    9) = (   0.5833333  -0.2500000   0.7500000), wk =   0.1111111
        k(   10) = (   0.4166667  -0.0833333   0.5833333), wk =   0.1111111
        k(   11) = (   0.2500000   0.0833333   0.4166667), wk =   0.1111111
        k(   12) = (  -0.0833333   0.7500000   0.0833333), wk =   0.0555556
        k(   13) = (   0.7500000  -0.0833333   0.9166667), wk =   0.1111111
        k(   14) = (   0.5833333   0.0833333   0.7500000), wk =   0.1111111
        k(   15) = (   0.4166667   0.2500000   0.5833333), wk =   0.1111111
        k(   16) = (  -0.0833333  -0.9166667   0.0833333), wk =   0.0555556
        k(   17) = (  -0.2500000  -0.7500000  -0.0833333), wk =   0.1111111
        k(   18) = (  -0.0833333  -0.5833333   0.0833333), wk =   0.0555556
        k(   19) = (  -0.2500000   0.2500000   0.2500000), wk =   0.0185185
        k(   20) = (  -0.4166667   0.4166667   0.0833333), wk =   0.0555556
        k(   21) = (   0.4166667  -0.4166667   0.9166667), wk =   0.0555556
        k(   22) = (   0.2500000  -0.2500000   0.7500000), wk =   0.0555556
        k(   23) = (  -0.2500000   0.5833333   0.2500000), wk =   0.0555556
        k(   24) = (   0.5833333  -0.2500000   1.0833333), wk =   0.1111111
        k(   25) = (   0.4166667  -0.0833333   0.9166667), wk =   0.1111111
        k(   26) = (  -0.2500000  -1.0833333   0.2500000), wk =   0.0555556
        k(   27) = (  -0.4166667   0.4166667   0.4166667), wk =   0.0185185
        k(   28) = (   0.4166667  -0.4166667   1.2500000), wk =   0.0555556

     Dense  grid:    43143 G-vectors     FFT dimensions: (  50,  50,  50)

     Smooth grid:    15089 G-vectors     FFT dimensions: (  36,  36,  36)

     Estimated max dynamical RAM per process >       7.84MB

     Estimated total allocated dynamical RAM >      31.37MB

     Initial potential from superposition of free atoms

     starting charge    7.99866, renormalised to    8.00000
     Starting wfc are    8 randomized atomic wfcs

     total cpu time spent up to now is        2.0 secs

     per-process dynamical memory:    13.9 Mb

     Self-consistent Calculation

     iteration #  1     ecut=    55.00 Ry     beta=0.70
     Davidson diagonalization with overlap
     ethr =  1.00E-02,  avg # of iterations =  2.0

     Threshold (ethr) on eigenvalues was too large:
     Diagonalizing with lowered threshold

     Davidson diagonalization with overlap
     ethr =  6.79E-04,  avg # of iterations =  1.0

     total cpu time spent up to now is        4.6 secs

     total energy              =     -19.19136908 Ry
     Harris-Foulkes estimate   =     -19.20381012 Ry
     estimated scf accuracy    <       0.05359646 Ry

     iteration #  2     ecut=    55.00 Ry     beta=0.70
     Davidson diagonalization with overlap
     ethr =  6.70E-04,  avg # of iterations =  1.0

     total cpu time spent up to now is        6.0 secs

     total energy              =     -19.19311272 Ry
     Harris-Foulkes estimate   =     -19.19328529 Ry
     estimated scf accuracy    <       0.00246046 Ry

     iteration #  3     ecut=    55.00 Ry     beta=0.70
     Davidson diagonalization with overlap
     ethr =  3.08E-05,  avg # of iterations =  2.1

     total cpu time spent up to now is        6.8 secs

     total energy              =     -19.19344495 Ry
     Harris-Foulkes estimate   =     -19.19345751 Ry
     estimated scf accuracy    <       0.00004146 Ry

     iteration #  4     ecut=    55.00 Ry     beta=0.70
     Davidson diagonalization with overlap
     ethr =  5.18E-07,  avg # of iterations =  3.7

     total cpu time spent up to now is        8.6 secs

     total energy              =     -19.19348651 Ry
     Harris-Foulkes estimate   =     -19.19348731 Ry
     estimated scf accuracy    <       0.00000304 Ry

     iteration #  5     ecut=    55.00 Ry     beta=0.70
     Davidson diagonalization with overlap
     ethr =  3.80E-08,  avg # of iterations =  2.0

     total cpu time spent up to now is       10.2 secs

     End of self-consistent calculation

          k =-0.0833 0.0833 0.0833 (  1898 PWs)   bands (ev):

    -5.7495   5.1209   5.8389   5.8389

          k =-0.2500 0.2500-0.0833 (  1910 PWs)   bands (ev):

    -5.2800   3.0546   4.6220   5.6296

          k =-0.4167 0.4167-0.2500 (  1901 PWs)   bands (ev):

    -4.2058   0.3299   4.1592   5.0012

          k = 0.4167-0.4167 0.5833 (  1898 PWs)   bands (ev):

    -3.5225  -0.7938   4.2221   4.6268

          k = 0.2500-0.2500 0.4167 (  1897 PWs)   bands (ev):

    -4.6103   1.1641   4.6879   4.7144

          k = 0.0833-0.0833 0.2500 (  1907 PWs)   bands (ev):

    -5.5124   4.0548   5.2040   5.3822

          k =-0.0833 0.4167 0.0833 (  1912 PWs)   bands (ev):

    -5.0423   2.8578   4.4658   4.4848

          k =-0.2500 0.5833-0.0833 (  1908 PWs)   bands (ev):

    -4.1461   1.0383   3.1699   4.1025

          k = 0.5833-0.2500 0.7500 (  1891 PWs)   bands (ev):

    -3.0517  -0.6796   2.5723   3.8800

          k = 0.4167-0.0833 0.5833 (  1898 PWs)   bands (ev):

    -3.7588   0.3575   2.5367   4.3574

          k = 0.2500 0.0833 0.4167 (  1913 PWs)   bands (ev):

    -4.8205   2.0366   3.8561   5.0130

          k =-0.0833 0.7500 0.0833 (  1917 PWs)   bands (ev):

    -3.4445   0.2133   3.1371   3.4696

          k = 0.7500-0.0833 0.9167 (  1895 PWs)   bands (ev):

    -2.2684  -1.1093   2.3118   3.0717

          k = 0.5833 0.0833 0.7500 (  1895 PWs)   bands (ev):

    -2.6376  -0.7712   1.8349   3.6084

          k = 0.4167 0.2500 0.5833 (  1910 PWs)   bands (ev):

    -3.6503  -0.3058   3.4564   4.4529

          k =-0.0833-0.9167 0.0833 (  1901 PWs)   bands (ev):

    -2.3569  -1.1164   2.8718   3.2570

          k =-0.2500-0.7500-0.0833 (  1897 PWs)   bands (ev):

    -3.2796  -0.0056   2.6254   3.4072

          k =-0.0833-0.5833 0.0833 (  1907 PWs)   bands (ev):

    -4.3479   1.5642   3.6723   3.8864

          k =-0.2500 0.2500 0.2500 (  1910 PWs)   bands (ev):

    -5.0541   2.0909   5.2331   5.2331

          k =-0.4167 0.4167 0.0833 (  1902 PWs)   bands (ev):

    -4.3856   1.1591   3.1340   5.0650

          k = 0.4167-0.4167 0.9167 (  1900 PWs)   bands (ev):

    -3.2272  -0.2687   2.0464   4.2915

          k = 0.2500-0.2500 0.7500 (  1903 PWs)   bands (ev):

    -3.1749  -0.3473   2.5151   3.8174

          k =-0.2500 0.5833 0.2500 (  1903 PWs)   bands (ev):

    -3.9687   0.3645   3.5845   4.1852

          k = 0.5833-0.2500 1.0833 (  1891 PWs)   bands (ev):

    -2.9833  -0.3863   2.1459   3.4066

          k = 0.4167-0.0833 0.9167 (  1897 PWs)   bands (ev):

    -2.1660  -1.1170   1.9887   2.7513

          k =-0.2500-1.0833 0.2500 (  1890 PWs)   bands (ev):

    -2.3739  -1.0199   1.8643   3.6256

          k =-0.4167 0.4167 0.4167 (  1904 PWs)   bands (ev):

    -3.8837  -0.3999   4.8483   4.8483

          k = 0.4167-0.4167 1.2500 (  1900 PWs)   bands (ev):

    -3.2901  -0.7025   3.0379   4.4161

     highest occupied level (ev):     5.8389

!    total energy              =     -19.19348689 Ry
     Harris-Foulkes estimate   =     -19.19348689 Ry
     estimated scf accuracy    <          6.7E-09 Ry

     The total energy is the sum of the following terms:

     one-electron contribution =       4.95157490 Ry
     hartree contribution      =       1.13381488 Ry
     xc contribution           =      -8.59664136 Ry
     ewald contribution        =     -16.68223531 Ry

     convergence has been achieved in   5 iterations


     Computing stress (Cartesian axis) and pressure

          total   stress  (Ry/bohr**3)                   (kbar)     P=   -0.23
  -0.00000154   0.00000000  -0.00000000         -0.23      0.00     -0.00
   0.00000000  -0.00000154   0.00000000          0.00     -0.23      0.00
  -0.00000000   0.00000000  -0.00000154         -0.00      0.00     -0.23


     Writing output data file silicon.55.save

     init_run     :      0.89s CPU      1.84s WALL (       1 calls)
     electrons    :      4.58s CPU      8.25s WALL (       1 calls)
     stress       :      0.85s CPU      1.35s WALL (       1 calls)

     Called by init_run:
     wfcinit      :      0.33s CPU      1.03s WALL (       1 calls)
     potinit      :      0.06s CPU      0.09s WALL (       1 calls)

     Called by electrons:
     c_bands      :      2.88s CPU      5.23s WALL (       6 calls)
     sum_band     :      1.08s CPU      2.09s WALL (       6 calls)
     v_of_rho     :      0.25s CPU      0.43s WALL (       6 calls)
     newd         :      0.39s CPU      0.52s WALL (       6 calls)
     mix_rho      :      0.02s CPU      0.05s WALL (       6 calls)

     Called by c_bands:
     init_us_2    :      0.13s CPU      0.15s WALL (     392 calls)
     cegterg      :      2.60s CPU      4.87s WALL (     168 calls)

     Called by sum_band:
     sum_band:bec :      0.00s CPU      0.00s WALL (     168 calls)
     addusdens    :      0.39s CPU      0.68s WALL (       6 calls)

     Called by *egterg:
     h_psi        :      2.49s CPU      4.94s WALL (     526 calls)
     s_psi        :      0.10s CPU      0.11s WALL (     526 calls)
     g_psi        :      0.01s CPU      0.01s WALL (     330 calls)
     cdiaghg      :      0.07s CPU      0.15s WALL (     470 calls)

     Called by h_psi:
     h_psi:pot    :      2.48s CPU      4.94s WALL (     526 calls)
     h_psi:calbec :      0.22s CPU      0.43s WALL (     526 calls)
     vloc_psi     :      2.16s CPU      4.38s WALL (     526 calls)
     add_vuspsi   :      0.10s CPU      0.12s WALL (     526 calls)

     General routines
     calbec       :      0.34s CPU      0.73s WALL (     722 calls)
     fft          :      0.27s CPU      0.51s WALL (     110 calls)
     ffts         :      0.01s CPU      0.03s WALL (      12 calls)
     fftw         :      2.34s CPU      5.05s WALL (    4624 calls)
     interpolate  :      0.04s CPU      0.06s WALL (      12 calls)
     davcio       :      0.00s CPU      0.00s WALL (      28 calls)

     Parallel routines
     fft_scatter  :      1.30s CPU      4.01s WALL (    4746 calls)

     PWSCF        :     6.57s CPU        11.82s WALL


   This run was terminated on:  12:30:24  10Nov2017            

=------------------------------------------------------------------------------=
   JOB DONE.
=------------------------------------------------------------------------------=
