
     Program PWSCF v.6.1 (svn rev. 13369) starts on 10Nov2017 at 10: 3:41 

     This program is part of the open-source Quantum ESPRESSO suite
     for quantum simulation of materials; please cite
         "P. Giannozzi et al., J. Phys.:Condens. Matter 21 395502 (2009);
          URL http://www.quantum-espresso.org", 
     in publications or presentations arising from this work. More details at
     http://www.quantum-espresso.org/quote

     Parallel version (MPI), running on     4 processors
     R & G space division:  proc/nbgrp/npool/nimage =       4
     Waiting for input...
     Reading input from standard input
     Message from routine read_cards :
     DEPRECATED: no units specified in ATOMIC_POSITIONS card
     Message from routine read_cards :
     ATOMIC_POSITIONS: units set to alat

     Current dimensions of program PWSCF are:
     Max number of different atomic species (ntypx) = 10
     Max number of k-points (npk) =  40000
     Max angular momentum in pseudopotentials (lmaxx) =  3

     Subspace diagonalization in iterative solution of the eigenvalue problem:
     a serial algorithm will be used


     Parallelization info
     --------------------
     sticks:   dense  smooth     PW     G-vecs:    dense   smooth      PW
     Min         133      66     22                 2024      722     152
     Max         134      67     23                 2025      724     153
     Sum         535     265     91                 8099     2891     609



     bravais-lattice index     =            2
     lattice parameter (alat)  =      10.4030  a.u.
     unit-cell volume          =     281.4594 (a.u.)^3
     number of atoms/cell      =            2
     number of atomic types    =            1
     number of electrons       =         8.00
     number of Kohn-Sham states=            4
     kinetic-energy cutoff     =      18.0000  Ry
     charge density cutoff     =     144.0000  Ry
     convergence threshold     =      1.0E-08
     mixing beta               =       0.7000
     number of iterations used =            8  plain     mixing
     Exchange-correlation      = SLA  PW   PBE  PBE ( 1  4  3  4 0 0)

     celldm(1)=  10.403000  celldm(2)=   0.000000  celldm(3)=   0.000000
     celldm(4)=   0.000000  celldm(5)=   0.000000  celldm(6)=   0.000000

     crystal axes: (cart. coord. in units of alat)
               a(1) = (  -0.500000   0.000000   0.500000 )  
               a(2) = (   0.000000   0.500000   0.500000 )  
               a(3) = (  -0.500000   0.500000   0.000000 )  

     reciprocal axes: (cart. coord. in units 2 pi/alat)
               b(1) = ( -1.000000 -1.000000  1.000000 )  
               b(2) = (  1.000000  1.000000  1.000000 )  
               b(3) = ( -1.000000  1.000000 -1.000000 )  


     PseudoPot. # 1 for Si read from file:
     /home/max/quantum_espresso/qe-6.1/pseudo/si_pbe_v1.uspp.F.UPF.txt
     MD5 check sum: a056efeee980c13900f22a371efd63c1
     Pseudo is Ultrasoft + core correction, Zval =  4.0
     Generated by new atomic code, or converted to UPF format
     Using radial grid of  899 points,  6 beta functions with: 
                l(1) =   0
                l(2) =   0
                l(3) =   1
                l(4) =   1
                l(5) =   2
                l(6) =   2
     Q(r) pseudized with  8 coefficients,  rinner =    0.900   0.900   0.900
                                                       0.900   0.900

     atomic species   valence    mass     pseudopotential
        Si             4.00    28.08600     Si( 1.00)

     24 Sym. Ops. (no inversion) found
          (note: 24 additional sym.ops. were found but ignored
           their fractional translations are incommensurate with FFT grid)


   Cartesian axes

     site n.     atom                  positions (alat units)
         1           Si  tau(   1) = (   0.0000000   0.0000000   0.0000000  )
         2           Si  tau(   2) = (   0.2500000   0.2500000   0.2500000  )

     number of k points=    60
                       cart. coord. in units 2pi/alat
        k(    1) = (  -0.0625000   0.0625000   0.0625000), wk =   0.0078125
        k(    2) = (  -0.1875000   0.1875000  -0.0625000), wk =   0.0234375
        k(    3) = (  -0.3125000   0.3125000  -0.1875000), wk =   0.0234375
        k(    4) = (  -0.4375000   0.4375000  -0.3125000), wk =   0.0234375
        k(    5) = (   0.4375000  -0.4375000   0.5625000), wk =   0.0234375
        k(    6) = (   0.3125000  -0.3125000   0.4375000), wk =   0.0234375
        k(    7) = (   0.1875000  -0.1875000   0.3125000), wk =   0.0234375
        k(    8) = (   0.0625000  -0.0625000   0.1875000), wk =   0.0234375
        k(    9) = (  -0.0625000   0.3125000   0.0625000), wk =   0.0234375
        k(   10) = (  -0.1875000   0.4375000  -0.0625000), wk =   0.0468750
        k(   11) = (  -0.3125000   0.5625000  -0.1875000), wk =   0.0468750
        k(   12) = (   0.5625000  -0.3125000   0.6875000), wk =   0.0468750
        k(   13) = (   0.4375000  -0.1875000   0.5625000), wk =   0.0468750
        k(   14) = (   0.3125000  -0.0625000   0.4375000), wk =   0.0468750
        k(   15) = (   0.1875000   0.0625000   0.3125000), wk =   0.0468750
        k(   16) = (  -0.0625000   0.5625000   0.0625000), wk =   0.0234375
        k(   17) = (  -0.1875000   0.6875000  -0.0625000), wk =   0.0468750
        k(   18) = (   0.6875000  -0.1875000   0.8125000), wk =   0.0468750
        k(   19) = (   0.5625000  -0.0625000   0.6875000), wk =   0.0468750
        k(   20) = (   0.4375000   0.0625000   0.5625000), wk =   0.0468750
        k(   21) = (   0.3125000   0.1875000   0.4375000), wk =   0.0468750
        k(   22) = (  -0.0625000   0.8125000   0.0625000), wk =   0.0234375
        k(   23) = (   0.8125000  -0.0625000   0.9375000), wk =   0.0468750
        k(   24) = (   0.6875000   0.0625000   0.8125000), wk =   0.0468750
        k(   25) = (   0.5625000   0.1875000   0.6875000), wk =   0.0468750
        k(   26) = (   0.4375000   0.3125000   0.5625000), wk =   0.0468750
        k(   27) = (  -0.0625000  -0.9375000   0.0625000), wk =   0.0234375
        k(   28) = (  -0.1875000  -0.8125000  -0.0625000), wk =   0.0468750
        k(   29) = (  -0.3125000  -0.6875000  -0.1875000), wk =   0.0468750
        k(   30) = (  -0.0625000  -0.6875000   0.0625000), wk =   0.0234375
        k(   31) = (  -0.1875000  -0.5625000  -0.0625000), wk =   0.0468750
        k(   32) = (  -0.0625000  -0.4375000   0.0625000), wk =   0.0234375
        k(   33) = (  -0.1875000   0.1875000   0.1875000), wk =   0.0078125
        k(   34) = (  -0.3125000   0.3125000   0.0625000), wk =   0.0234375
        k(   35) = (  -0.4375000   0.4375000  -0.0625000), wk =   0.0234375
        k(   36) = (   0.4375000  -0.4375000   0.8125000), wk =   0.0234375
        k(   37) = (   0.3125000  -0.3125000   0.6875000), wk =   0.0234375
        k(   38) = (   0.1875000  -0.1875000   0.5625000), wk =   0.0234375
        k(   39) = (  -0.1875000   0.4375000   0.1875000), wk =   0.0234375
        k(   40) = (  -0.3125000   0.5625000   0.0625000), wk =   0.0468750
        k(   41) = (   0.5625000  -0.3125000   0.9375000), wk =   0.0468750
        k(   42) = (   0.4375000  -0.1875000   0.8125000), wk =   0.0468750
        k(   43) = (   0.3125000  -0.0625000   0.6875000), wk =   0.0468750
        k(   44) = (  -0.1875000   0.6875000   0.1875000), wk =   0.0234375
        k(   45) = (   0.6875000  -0.1875000   1.0625000), wk =   0.0468750
        k(   46) = (   0.5625000  -0.0625000   0.9375000), wk =   0.0468750
        k(   47) = (   0.4375000   0.0625000   0.8125000), wk =   0.0468750
        k(   48) = (  -0.1875000  -1.0625000   0.1875000), wk =   0.0234375
        k(   49) = (  -0.3125000  -0.9375000   0.0625000), wk =   0.0468750
        k(   50) = (  -0.1875000  -0.8125000   0.1875000), wk =   0.0234375
        k(   51) = (  -0.3125000   0.3125000   0.3125000), wk =   0.0078125
        k(   52) = (  -0.4375000   0.4375000   0.1875000), wk =   0.0234375
        k(   53) = (   0.4375000  -0.4375000   1.0625000), wk =   0.0234375
        k(   54) = (   0.3125000  -0.3125000   0.9375000), wk =   0.0234375
        k(   55) = (  -0.3125000   0.5625000   0.3125000), wk =   0.0234375
        k(   56) = (   0.5625000  -0.3125000   1.1875000), wk =   0.0468750
        k(   57) = (   0.4375000  -0.1875000   1.0625000), wk =   0.0468750
        k(   58) = (  -0.3125000  -1.1875000   0.3125000), wk =   0.0234375
        k(   59) = (  -0.4375000   0.4375000   0.4375000), wk =   0.0078125
        k(   60) = (   0.4375000  -0.4375000   1.3125000), wk =   0.0234375

     Dense  grid:     8099 G-vectors     FFT dimensions: (  30,  30,  30)

     Smooth grid:     2891 G-vectors     FFT dimensions: (  20,  20,  20)

     Estimated max dynamical RAM per process >       1.73MB

     Estimated total allocated dynamical RAM >       6.94MB

     Initial potential from superposition of free atoms

     starting charge    7.99866, renormalised to    8.00000
     Starting wfc are    8 randomized atomic wfcs

     total cpu time spent up to now is        0.6 secs

     per-process dynamical memory:     8.6 Mb

     Self-consistent Calculation

     iteration #  1     ecut=    18.00 Ry     beta=0.70
     Davidson diagonalization with overlap
     ethr =  1.00E-02,  avg # of iterations =  2.0

     Threshold (ethr) on eigenvalues was too large:
     Diagonalizing with lowered threshold

     Davidson diagonalization with overlap
     ethr =  6.53E-04,  avg # of iterations =  1.0

     total cpu time spent up to now is        0.9 secs

     total energy              =     -19.18911171 Ry
     Harris-Foulkes estimate   =     -19.20071218 Ry
     estimated scf accuracy    <       0.05199848 Ry

     iteration #  2     ecut=    18.00 Ry     beta=0.70
     Davidson diagonalization with overlap
     ethr =  6.50E-04,  avg # of iterations =  1.0

     total cpu time spent up to now is        1.1 secs

     total energy              =     -19.19069840 Ry
     Harris-Foulkes estimate   =     -19.19086843 Ry
     estimated scf accuracy    <       0.00245406 Ry

     iteration #  3     ecut=    18.00 Ry     beta=0.70
     Davidson diagonalization with overlap
     ethr =  3.07E-05,  avg # of iterations =  1.9

     total cpu time spent up to now is        1.3 secs

     total energy              =     -19.19096085 Ry
     Harris-Foulkes estimate   =     -19.19097291 Ry
     estimated scf accuracy    <       0.00003859 Ry

     iteration #  4     ecut=    18.00 Ry     beta=0.70
     Davidson diagonalization with overlap
     ethr =  4.82E-07,  avg # of iterations =  2.8

     total cpu time spent up to now is        1.5 secs

     total energy              =     -19.19098418 Ry
     Harris-Foulkes estimate   =     -19.19098463 Ry
     estimated scf accuracy    <       0.00000197 Ry

     iteration #  5     ecut=    18.00 Ry     beta=0.70
     Davidson diagonalization with overlap
     ethr =  2.47E-08,  avg # of iterations =  2.2

     total cpu time spent up to now is        1.7 secs

     total energy              =     -19.19098461 Ry
     Harris-Foulkes estimate   =     -19.19098462 Ry
     estimated scf accuracy    <       0.00000005 Ry

     iteration #  6     ecut=    18.00 Ry     beta=0.70
     Davidson diagonalization with overlap
     ethr =  5.76E-10,  avg # of iterations =  2.8

     total cpu time spent up to now is        1.9 secs

     End of self-consistent calculation

          k =-0.0625 0.0625 0.0625 (   338 PWs)   bands (ev):

    -5.8559   5.2437   5.6959   5.6959

          k =-0.1875 0.1875-0.0625 (   355 PWs)   bands (ev):

    -5.5950   3.7492   4.9105   5.5782

          k =-0.3125 0.3125-0.1875 (   356 PWs)   bands (ev):

    -4.9640   1.5691   4.4293   5.1258

          k =-0.4375 0.4375-0.3125 (   360 PWs)   bands (ev):

    -4.0878  -0.2716   4.2140   4.7275

          k = 0.4375-0.4375 0.5625 (   364 PWs)   bands (ev):

    -3.6561  -0.9510   4.2605   4.5153

          k = 0.3125-0.3125 0.4375 (   357 PWs)   bands (ev):

    -4.3871   0.2718   4.5375   4.5403

          k = 0.1875-0.1875 0.3125 (   357 PWs)   bands (ev):

    -5.2113   2.2831   4.8100   4.9955

          k = 0.0625-0.0625 0.1875 (   346 PWs)   bands (ev):

    -5.7246   4.4918   5.2820   5.4308

          k =-0.0625 0.3125 0.0625 (   354 PWs)   bands (ev):

    -5.4629   3.5970   4.7381   4.8125

          k =-0.1875 0.4375-0.0625 (   357 PWs)   bands (ev):

    -4.9515   2.1216   3.7907   4.5601

          k =-0.3125 0.5625-0.1875 (   364 PWs)   bands (ev):

    -4.1295   0.3116   3.2978   4.1623

          k = 0.5625-0.3125 0.6875 (   368 PWs)   bands (ev):

    -3.3933  -0.8614   3.0122   4.0724

          k = 0.4375-0.1875 0.5625 (   364 PWs)   bands (ev):

    -3.8350  -0.1929   2.9451   4.3485

          k = 0.3125-0.0625 0.4375 (   361 PWs)   bands (ev):

    -4.7103   1.4877   3.2491   4.8422

          k = 0.1875 0.0625 0.3125 (   359 PWs)   bands (ev):

    -5.3362   2.9406   4.3474   5.2055

          k =-0.0625 0.5625 0.0625 (   357 PWs)   bands (ev):

    -4.5603   1.6118   3.6522   3.7706

          k =-0.1875 0.6875-0.0625 (   359 PWs)   bands (ev):

    -3.8272   0.4008   2.8873   3.4334

          k = 0.6875-0.1875 0.8125 (   367 PWs)   bands (ev):

    -2.9561  -0.7635   2.0692   3.4024

          k = 0.5625-0.0625 0.6875 (   369 PWs)   bands (ev):

    -3.0271  -0.6713   1.7283   3.7369

          k = 0.4375 0.0625 0.5625 (   365 PWs)   bands (ev):

    -3.8977   0.2661   2.3128   4.3059

          k = 0.3125 0.1875 0.4375 (   361 PWs)   bands (ev):

    -4.6004   0.9074   3.8963   4.7446

          k =-0.0625 0.8125 0.0625 (   364 PWs)   bands (ev):

    -3.1887  -0.4459   2.9810   3.1900

          k = 0.8125-0.0625 0.9375 (   363 PWs)   bands (ev):

    -2.3024  -1.4130   2.4423   2.9552

          k = 0.6875 0.0625 0.8125 (   369 PWs)   bands (ev):

    -2.4031  -1.2477   1.7362   3.2622

          k = 0.5625 0.1875 0.6875 (   367 PWs)   bands (ev):

    -3.1429  -0.8275   2.2589   3.8476

          k = 0.4375 0.3125 0.5625 (   365 PWs)   bands (ev):

    -3.7357  -0.6662   3.7205   4.4182

          k =-0.0625-0.9375 0.0625 (   362 PWs)   bands (ev):

    -2.3511  -1.4288   2.8465   3.0714

          k =-0.1875-0.8125-0.0625 (   361 PWs)   bands (ev):

    -3.1061  -0.5082   2.5947   3.1113

          k =-0.3125-0.6875-0.1875 (   364 PWs)   bands (ev):

    -3.5689  -0.2345   2.6446   3.6949

          k =-0.0625-0.6875 0.0625 (   358 PWs)   bands (ev):

    -3.9293   0.5780   3.2501   3.4250

          k =-0.1875-0.5625-0.0625 (   356 PWs)   bands (ev):

    -4.4460   1.2802   3.2951   3.9283

          k =-0.0625-0.4375 0.0625 (   353 PWs)   bands (ev):

    -5.0734   2.6281   4.1822   4.2160

          k =-0.1875 0.1875 0.1875 (   359 PWs)   bands (ev):

    -5.4665   3.0414   5.2643   5.2643

          k =-0.3125 0.3125 0.0625 (   362 PWs)   bands (ev):

    -5.0840   2.2059   3.7888   5.2786

          k =-0.4375 0.4375-0.0625 (   362 PWs)   bands (ev):

    -4.3555   0.8591   2.7340   4.7859

          k = 0.4375-0.4375 0.8125 (   367 PWs)   bands (ev):

    -3.4870  -0.5882   2.5765   4.2683

          k = 0.3125-0.3125 0.6875 (   368 PWs)   bands (ev):

    -3.4718  -0.6161   2.8662   3.9587

          k = 0.1875-0.1875 0.5625 (   358 PWs)   bands (ev):

    -4.3383   0.8559   3.4668   3.9371

          k =-0.1875 0.4375 0.1875 (   362 PWs)   bands (ev):

    -4.8334   1.5562   4.2710   4.3461

          k =-0.3125 0.5625 0.0625 (   361 PWs)   bands (ev):

    -4.2221   0.7885   2.7894   4.1540

          k = 0.5625-0.3125 0.9375 (   367 PWs)   bands (ev):

    -3.3547  -0.2949   2.0216   3.6030

          k = 0.4375-0.1875 0.8125 (   369 PWs)   bands (ev):

    -2.8818  -0.8903   2.0208   3.2996

          k = 0.3125-0.0625 0.6875 (   365 PWs)   bands (ev):

    -3.6307   0.0856   2.4360   3.4734

          k =-0.1875 0.6875 0.1875 (   362 PWs)   bands (ev):

    -3.7368   0.1449   2.7590   3.6136

          k = 0.6875-0.1875 1.0625 (   363 PWs)   bands (ev):

    -2.9532  -0.6448   2.2011   2.9519

          k = 0.5625-0.0625 0.9375 (   370 PWs)   bands (ev):

    -2.1678  -1.3863   1.8946   2.4654

          k = 0.4375 0.0625 0.8125 (   367 PWs)   bands (ev):

    -2.7553  -0.8462   1.8840   2.9278

          k =-0.1875-1.0625 0.1875 (   364 PWs)   bands (ev):

    -2.3251  -1.3624   1.9956   3.2786

          k =-0.3125-0.9375 0.0625 (   366 PWs)   bands (ev):

    -2.2270  -1.3945   2.0870   2.6724

          k =-0.1875-0.8125 0.1875 (   362 PWs)   bands (ev):

    -3.0477  -0.6058   2.2527   3.3915

          k =-0.3125 0.3125 0.3125 (   359 PWs)   bands (ev):

    -4.7291   0.8825   4.8580   4.8580

          k =-0.4375 0.4375 0.1875 (   362 PWs)   bands (ev):

    -4.2618   0.3118   3.4231   4.7712

          k = 0.4375-0.4375 1.0625 (   367 PWs)   bands (ev):

    -3.4899  -0.2272   1.9431   4.2060

          k = 0.3125-0.3125 0.9375 (   366 PWs)   bands (ev):

    -2.6907  -0.9975   1.6179   3.6731

          k =-0.3125 0.5625 0.3125 (   368 PWs)   bands (ev):

    -3.9568  -0.2327   3.7456   4.2233

          k = 0.5625-0.3125 1.1875 (   368 PWs)   bands (ev):

    -3.3530  -0.5946   2.4736   3.7631

          k = 0.4375-0.1875 1.0625 (   370 PWs)   bands (ev):

    -2.5555  -1.0654   1.7079   3.0696

          k =-0.3125-1.1875 0.3125 (   363 PWs)   bands (ev):

    -3.0040  -0.8716   2.0958   3.7707

          k =-0.4375 0.4375 0.4375 (   356 PWs)   bands (ev):

    -3.8657  -0.7214   4.6405   4.6405

          k = 0.4375-0.4375 1.3125 (   365 PWs)   bands (ev):

    -3.5250  -0.8968   3.4375   4.3799

     highest occupied level (ev):     5.6959

!    total energy              =     -19.19098463 Ry
     Harris-Foulkes estimate   =     -19.19098463 Ry
     estimated scf accuracy    <          6.5E-09 Ry

     The total energy is the sum of the following terms:

     one-electron contribution =       4.79992539 Ry
     hartree contribution      =       1.15108426 Ry
     xc contribution           =      -8.57201084 Ry
     ewald contribution        =     -16.56998345 Ry

     convergence has been achieved in   6 iterations

     Writing output data file silicon.10.403.save

     init_run     :      0.32s CPU      0.52s WALL (       1 calls)
     electrons    :      1.16s CPU      1.29s WALL (       1 calls)

     Called by init_run:
     wfcinit      :      0.11s CPU      0.14s WALL (       1 calls)
     potinit      :      0.01s CPU      0.02s WALL (       1 calls)

     Called by electrons:
     c_bands      :      0.81s CPU      0.91s WALL (       7 calls)
     sum_band     :      0.21s CPU      0.23s WALL (       7 calls)
     v_of_rho     :      0.06s CPU      0.07s WALL (       7 calls)
     newd         :      0.07s CPU      0.09s WALL (       7 calls)
     mix_rho      :      0.00s CPU      0.00s WALL (       7 calls)

     Called by c_bands:
     init_us_2    :      0.06s CPU      0.06s WALL (     900 calls)
     cegterg      :      0.68s CPU      0.76s WALL (     420 calls)

     Called by sum_band:
     sum_band:bec :      0.00s CPU      0.01s WALL (     420 calls)
     addusdens    :      0.08s CPU      0.08s WALL (       7 calls)

     Called by *egterg:
     h_psi        :      0.52s CPU      0.58s WALL (    1301 calls)
     s_psi        :      0.06s CPU      0.06s WALL (    1301 calls)
     g_psi        :      0.00s CPU      0.00s WALL (     821 calls)
     cdiaghg      :      0.07s CPU      0.09s WALL (    1181 calls)

     Called by h_psi:
     h_psi:pot    :      0.51s CPU      0.58s WALL (    1301 calls)
     h_psi:calbec :      0.08s CPU      0.09s WALL (    1301 calls)
     vloc_psi     :      0.38s CPU      0.42s WALL (    1301 calls)
     add_vuspsi   :      0.06s CPU      0.06s WALL (    1301 calls)

     General routines
     calbec       :      0.10s CPU      0.12s WALL (    1721 calls)
     fft          :      0.06s CPU      0.07s WALL (     112 calls)
     ffts         :      0.00s CPU      0.00s WALL (      14 calls)
     fftw         :      0.35s CPU      0.40s WALL (   11626 calls)
     interpolate  :      0.01s CPU      0.01s WALL (      14 calls)
     davcio       :      0.00s CPU      0.00s WALL (      60 calls)

     Parallel routines
     fft_scatter  :      0.20s CPU      0.24s WALL (   11752 calls)

     PWSCF        :     1.74s CPU         2.09s WALL


   This run was terminated on:  10: 3:43  10Nov2017            

=------------------------------------------------------------------------------=
   JOB DONE.
=------------------------------------------------------------------------------=
