
     Program PWSCF v.6.1 (svn rev. 13369) starts on 10Nov2017 at 10: 3:15 

     This program is part of the open-source Quantum ESPRESSO suite
     for quantum simulation of materials; please cite
         "P. Giannozzi et al., J. Phys.:Condens. Matter 21 395502 (2009);
          URL http://www.quantum-espresso.org", 
     in publications or presentations arising from this work. More details at
     http://www.quantum-espresso.org/quote

     Parallel version (MPI), running on     4 processors
     R & G space division:  proc/nbgrp/npool/nimage =       4
     Waiting for input...
     Reading input from standard input
     Message from routine read_cards :
     DEPRECATED: no units specified in ATOMIC_POSITIONS card
     Message from routine read_cards :
     ATOMIC_POSITIONS: units set to alat

     Current dimensions of program PWSCF are:
     Max number of different atomic species (ntypx) = 10
     Max number of k-points (npk) =  40000
     Max angular momentum in pseudopotentials (lmaxx) =  3

     Subspace diagonalization in iterative solution of the eigenvalue problem:
     a serial algorithm will be used


     Parallelization info
     --------------------
     sticks:   dense  smooth     PW     G-vecs:    dense   smooth      PW
     Min         133      66     22                 2024      722     152
     Max         134      67     23                 2025      724     153
     Sum         535     265     91                 8099     2891     609



     bravais-lattice index     =            2
     lattice parameter (alat)  =      10.3930  a.u.
     unit-cell volume          =     280.6485 (a.u.)^3
     number of atoms/cell      =            2
     number of atomic types    =            1
     number of electrons       =         8.00
     number of Kohn-Sham states=            4
     kinetic-energy cutoff     =      18.0000  Ry
     charge density cutoff     =     144.0000  Ry
     convergence threshold     =      1.0E-08
     mixing beta               =       0.7000
     number of iterations used =            8  plain     mixing
     Exchange-correlation      = SLA  PW   PBE  PBE ( 1  4  3  4 0 0)

     celldm(1)=  10.393000  celldm(2)=   0.000000  celldm(3)=   0.000000
     celldm(4)=   0.000000  celldm(5)=   0.000000  celldm(6)=   0.000000

     crystal axes: (cart. coord. in units of alat)
               a(1) = (  -0.500000   0.000000   0.500000 )  
               a(2) = (   0.000000   0.500000   0.500000 )  
               a(3) = (  -0.500000   0.500000   0.000000 )  

     reciprocal axes: (cart. coord. in units 2 pi/alat)
               b(1) = ( -1.000000 -1.000000  1.000000 )  
               b(2) = (  1.000000  1.000000  1.000000 )  
               b(3) = ( -1.000000  1.000000 -1.000000 )  


     PseudoPot. # 1 for Si read from file:
     /home/max/quantum_espresso/qe-6.1/pseudo/si_pbe_v1.uspp.F.UPF.txt
     MD5 check sum: a056efeee980c13900f22a371efd63c1
     Pseudo is Ultrasoft + core correction, Zval =  4.0
     Generated by new atomic code, or converted to UPF format
     Using radial grid of  899 points,  6 beta functions with: 
                l(1) =   0
                l(2) =   0
                l(3) =   1
                l(4) =   1
                l(5) =   2
                l(6) =   2
     Q(r) pseudized with  8 coefficients,  rinner =    0.900   0.900   0.900
                                                       0.900   0.900

     atomic species   valence    mass     pseudopotential
        Si             4.00    28.08600     Si( 1.00)

     24 Sym. Ops. (no inversion) found
          (note: 24 additional sym.ops. were found but ignored
           their fractional translations are incommensurate with FFT grid)


   Cartesian axes

     site n.     atom                  positions (alat units)
         1           Si  tau(   1) = (   0.0000000   0.0000000   0.0000000  )
         2           Si  tau(   2) = (   0.2500000   0.2500000   0.2500000  )

     number of k points=    60
                       cart. coord. in units 2pi/alat
        k(    1) = (  -0.0625000   0.0625000   0.0625000), wk =   0.0078125
        k(    2) = (  -0.1875000   0.1875000  -0.0625000), wk =   0.0234375
        k(    3) = (  -0.3125000   0.3125000  -0.1875000), wk =   0.0234375
        k(    4) = (  -0.4375000   0.4375000  -0.3125000), wk =   0.0234375
        k(    5) = (   0.4375000  -0.4375000   0.5625000), wk =   0.0234375
        k(    6) = (   0.3125000  -0.3125000   0.4375000), wk =   0.0234375
        k(    7) = (   0.1875000  -0.1875000   0.3125000), wk =   0.0234375
        k(    8) = (   0.0625000  -0.0625000   0.1875000), wk =   0.0234375
        k(    9) = (  -0.0625000   0.3125000   0.0625000), wk =   0.0234375
        k(   10) = (  -0.1875000   0.4375000  -0.0625000), wk =   0.0468750
        k(   11) = (  -0.3125000   0.5625000  -0.1875000), wk =   0.0468750
        k(   12) = (   0.5625000  -0.3125000   0.6875000), wk =   0.0468750
        k(   13) = (   0.4375000  -0.1875000   0.5625000), wk =   0.0468750
        k(   14) = (   0.3125000  -0.0625000   0.4375000), wk =   0.0468750
        k(   15) = (   0.1875000   0.0625000   0.3125000), wk =   0.0468750
        k(   16) = (  -0.0625000   0.5625000   0.0625000), wk =   0.0234375
        k(   17) = (  -0.1875000   0.6875000  -0.0625000), wk =   0.0468750
        k(   18) = (   0.6875000  -0.1875000   0.8125000), wk =   0.0468750
        k(   19) = (   0.5625000  -0.0625000   0.6875000), wk =   0.0468750
        k(   20) = (   0.4375000   0.0625000   0.5625000), wk =   0.0468750
        k(   21) = (   0.3125000   0.1875000   0.4375000), wk =   0.0468750
        k(   22) = (  -0.0625000   0.8125000   0.0625000), wk =   0.0234375
        k(   23) = (   0.8125000  -0.0625000   0.9375000), wk =   0.0468750
        k(   24) = (   0.6875000   0.0625000   0.8125000), wk =   0.0468750
        k(   25) = (   0.5625000   0.1875000   0.6875000), wk =   0.0468750
        k(   26) = (   0.4375000   0.3125000   0.5625000), wk =   0.0468750
        k(   27) = (  -0.0625000  -0.9375000   0.0625000), wk =   0.0234375
        k(   28) = (  -0.1875000  -0.8125000  -0.0625000), wk =   0.0468750
        k(   29) = (  -0.3125000  -0.6875000  -0.1875000), wk =   0.0468750
        k(   30) = (  -0.0625000  -0.6875000   0.0625000), wk =   0.0234375
        k(   31) = (  -0.1875000  -0.5625000  -0.0625000), wk =   0.0468750
        k(   32) = (  -0.0625000  -0.4375000   0.0625000), wk =   0.0234375
        k(   33) = (  -0.1875000   0.1875000   0.1875000), wk =   0.0078125
        k(   34) = (  -0.3125000   0.3125000   0.0625000), wk =   0.0234375
        k(   35) = (  -0.4375000   0.4375000  -0.0625000), wk =   0.0234375
        k(   36) = (   0.4375000  -0.4375000   0.8125000), wk =   0.0234375
        k(   37) = (   0.3125000  -0.3125000   0.6875000), wk =   0.0234375
        k(   38) = (   0.1875000  -0.1875000   0.5625000), wk =   0.0234375
        k(   39) = (  -0.1875000   0.4375000   0.1875000), wk =   0.0234375
        k(   40) = (  -0.3125000   0.5625000   0.0625000), wk =   0.0468750
        k(   41) = (   0.5625000  -0.3125000   0.9375000), wk =   0.0468750
        k(   42) = (   0.4375000  -0.1875000   0.8125000), wk =   0.0468750
        k(   43) = (   0.3125000  -0.0625000   0.6875000), wk =   0.0468750
        k(   44) = (  -0.1875000   0.6875000   0.1875000), wk =   0.0234375
        k(   45) = (   0.6875000  -0.1875000   1.0625000), wk =   0.0468750
        k(   46) = (   0.5625000  -0.0625000   0.9375000), wk =   0.0468750
        k(   47) = (   0.4375000   0.0625000   0.8125000), wk =   0.0468750
        k(   48) = (  -0.1875000  -1.0625000   0.1875000), wk =   0.0234375
        k(   49) = (  -0.3125000  -0.9375000   0.0625000), wk =   0.0468750
        k(   50) = (  -0.1875000  -0.8125000   0.1875000), wk =   0.0234375
        k(   51) = (  -0.3125000   0.3125000   0.3125000), wk =   0.0078125
        k(   52) = (  -0.4375000   0.4375000   0.1875000), wk =   0.0234375
        k(   53) = (   0.4375000  -0.4375000   1.0625000), wk =   0.0234375
        k(   54) = (   0.3125000  -0.3125000   0.9375000), wk =   0.0234375
        k(   55) = (  -0.3125000   0.5625000   0.3125000), wk =   0.0234375
        k(   56) = (   0.5625000  -0.3125000   1.1875000), wk =   0.0468750
        k(   57) = (   0.4375000  -0.1875000   1.0625000), wk =   0.0468750
        k(   58) = (  -0.3125000  -1.1875000   0.3125000), wk =   0.0234375
        k(   59) = (  -0.4375000   0.4375000   0.4375000), wk =   0.0078125
        k(   60) = (   0.4375000  -0.4375000   1.3125000), wk =   0.0234375

     Dense  grid:     8099 G-vectors     FFT dimensions: (  30,  30,  30)

     Smooth grid:     2891 G-vectors     FFT dimensions: (  20,  20,  20)

     Estimated max dynamical RAM per process >       1.73MB

     Estimated total allocated dynamical RAM >       6.94MB

     Initial potential from superposition of free atoms

     starting charge    7.99866, renormalised to    8.00000
     Starting wfc are    8 randomized atomic wfcs

     total cpu time spent up to now is        0.6 secs

     per-process dynamical memory:     8.6 Mb

     Self-consistent Calculation

     iteration #  1     ecut=    18.00 Ry     beta=0.70
     Davidson diagonalization with overlap
     ethr =  1.00E-02,  avg # of iterations =  2.0

     Threshold (ethr) on eigenvalues was too large:
     Diagonalizing with lowered threshold

     Davidson diagonalization with overlap
     ethr =  6.56E-04,  avg # of iterations =  1.0

     total cpu time spent up to now is        1.1 secs

     total energy              =     -19.18916145 Ry
     Harris-Foulkes estimate   =     -19.20087626 Ry
     estimated scf accuracy    <       0.05224797 Ry

     iteration #  2     ecut=    18.00 Ry     beta=0.70
     Davidson diagonalization with overlap
     ethr =  6.53E-04,  avg # of iterations =  1.0

     total cpu time spent up to now is        1.3 secs

     total energy              =     -19.19077351 Ry
     Harris-Foulkes estimate   =     -19.19094307 Ry
     estimated scf accuracy    <       0.00245345 Ry

     iteration #  3     ecut=    18.00 Ry     beta=0.70
     Davidson diagonalization with overlap
     ethr =  3.07E-05,  avg # of iterations =  1.9

     total cpu time spent up to now is        1.5 secs

     total energy              =     -19.19104010 Ry
     Harris-Foulkes estimate   =     -19.19105248 Ry
     estimated scf accuracy    <       0.00003903 Ry

     iteration #  4     ecut=    18.00 Ry     beta=0.70
     Davidson diagonalization with overlap
     ethr =  4.88E-07,  avg # of iterations =  2.8

     total cpu time spent up to now is        1.7 secs

     total energy              =     -19.19106382 Ry
     Harris-Foulkes estimate   =     -19.19106431 Ry
     estimated scf accuracy    <       0.00000213 Ry

     iteration #  5     ecut=    18.00 Ry     beta=0.70
     Davidson diagonalization with overlap
     ethr =  2.67E-08,  avg # of iterations =  2.2

     total cpu time spent up to now is        1.9 secs

     total energy              =     -19.19106427 Ry
     Harris-Foulkes estimate   =     -19.19106428 Ry
     estimated scf accuracy    <       0.00000005 Ry

     iteration #  6     ecut=    18.00 Ry     beta=0.70
     Davidson diagonalization with overlap
     ethr =  6.41E-10,  avg # of iterations =  2.7

     total cpu time spent up to now is        2.1 secs

     End of self-consistent calculation

          k =-0.0625 0.0625 0.0625 (   338 PWs)   bands (ev):

    -5.8460   5.2731   5.7247   5.7247

          k =-0.1875 0.1875-0.0625 (   353 PWs)   bands (ev):

    -5.5844   3.7781   4.9369   5.6070

          k =-0.3125 0.3125-0.1875 (   356 PWs)   bands (ev):

    -4.9518   1.5928   4.4550   5.1535

          k =-0.4375 0.4375-0.3125 (   360 PWs)   bands (ev):

    -4.0728  -0.2527   4.2396   4.7542

          k = 0.4375-0.4375 0.5625 (   360 PWs)   bands (ev):

    -3.6389  -0.9343   4.2866   4.5414

          k = 0.3125-0.3125 0.4375 (   357 PWs)   bands (ev):

    -4.3732   0.2922   4.5633   4.5671

          k = 0.1875-0.1875 0.3125 (   357 PWs)   bands (ev):

    -5.1998   2.3084   4.8362   5.0233

          k = 0.0625-0.0625 0.1875 (   344 PWs)   bands (ev):

    -5.7144   4.5221   5.3093   5.4595

          k =-0.0625 0.3125 0.0625 (   354 PWs)   bands (ev):

    -5.4520   3.6269   4.7638   4.8394

          k =-0.1875 0.4375-0.0625 (   357 PWs)   bands (ev):

    -4.9393   2.1488   3.8141   4.5863

          k =-0.3125 0.5625-0.1875 (   361 PWs)   bands (ev):

    -4.1147   0.3340   3.3211   4.1871

          k = 0.5625-0.3125 0.6875 (   365 PWs)   bands (ev):

    -3.3755  -0.8434   3.0353   4.0968

          k = 0.4375-0.1875 0.5625 (   363 PWs)   bands (ev):

    -3.8194  -0.1725   2.9675   4.3739

          k = 0.3125-0.0625 0.4375 (   359 PWs)   bands (ev):

    -4.6972   1.5131   3.2710   4.8691

          k = 0.1875 0.0625 0.3125 (   355 PWs)   bands (ev):

    -5.3248   2.9685   4.3724   5.2337

          k =-0.0625 0.5625 0.0625 (   355 PWs)   bands (ev):

    -4.5470   1.6400   3.6752   3.7939

          k =-0.1875 0.6875-0.0625 (   357 PWs)   bands (ev):

    -3.8120   0.4265   2.9079   3.4558

          k = 0.6875-0.1875 0.8125 (   365 PWs)   bands (ev):

    -2.9378  -0.7417   2.0874   3.4246

          k = 0.5625-0.0625 0.6875 (   367 PWs)   bands (ev):

    -3.0087  -0.6493   1.7452   3.7602

          k = 0.4375 0.0625 0.5625 (   362 PWs)   bands (ev):

    -3.8825   0.2898   2.3320   4.3313

          k = 0.3125 0.1875 0.4375 (   358 PWs)   bands (ev):

    -4.5869   0.9299   3.9210   4.7713

          k =-0.0625 0.8125 0.0625 (   362 PWs)   bands (ev):

    -3.1718  -0.4218   3.0021   3.2120

          k = 0.8125-0.0625 0.9375 (   363 PWs)   bands (ev):

    -2.2832  -1.3915   2.4612   2.9761

          k = 0.6875 0.0625 0.8125 (   368 PWs)   bands (ev):

    -2.3833  -1.2262   1.7526   3.2841

          k = 0.5625 0.1875 0.6875 (   365 PWs)   bands (ev):

    -3.1246  -0.8080   2.2789   3.8712

          k = 0.4375 0.3125 0.5625 (   365 PWs)   bands (ev):

    -3.7194  -0.6483   3.7454   4.4438

          k =-0.0625-0.9375 0.0625 (   358 PWs)   bands (ev):

    -2.3317  -1.4071   2.8674   3.0931

          k =-0.1875-0.8125-0.0625 (   359 PWs)   bands (ev):

    -3.0890  -0.4842   2.6142   3.1327

          k =-0.3125-0.6875-0.1875 (   364 PWs)   bands (ev):

    -3.5527  -0.2127   2.6656   3.7179

          k =-0.0625-0.6875 0.0625 (   358 PWs)   bands (ev):

    -3.9145   0.6041   3.2718   3.4474

          k =-0.1875-0.5625-0.0625 (   356 PWs)   bands (ev):

    -4.4325   1.3068   3.3170   3.9522

          k =-0.0625-0.4375 0.0625 (   351 PWs)   bands (ev):

    -5.0614   2.6578   4.2070   4.2405

          k =-0.1875 0.1875 0.1875 (   359 PWs)   bands (ev):

    -5.4556   3.0679   5.2919   5.2919

          k =-0.3125 0.3125 0.0625 (   360 PWs)   bands (ev):

    -5.0720   2.2325   3.8121   5.3067

          k =-0.4375 0.4375-0.0625 (   361 PWs)   bands (ev):

    -4.3415   0.8834   2.7544   4.8126

          k = 0.4375-0.4375 0.8125 (   367 PWs)   bands (ev):

    -3.4702  -0.5687   2.5977   4.2935

          k = 0.3125-0.3125 0.6875 (   365 PWs)   bands (ev):

    -3.4549  -0.5965   2.8886   3.9833

          k = 0.1875-0.1875 0.5625 (   358 PWs)   bands (ev):

    -4.3244   0.8801   3.4905   3.9610

          k =-0.1875 0.4375 0.1875 (   362 PWs)   bands (ev):

    -4.8208   1.5808   4.2973   4.3711

          k =-0.3125 0.5625 0.0625 (   360 PWs)   bands (ev):

    -4.2078   0.8134   2.8100   4.1786

          k = 0.5625-0.3125 0.9375 (   364 PWs)   bands (ev):

    -3.3376  -0.2716   2.0396   3.6256

          k = 0.4375-0.1875 0.8125 (   368 PWs)   bands (ev):

    -2.8633  -0.8694   2.0394   3.3211

          k = 0.3125-0.0625 0.6875 (   362 PWs)   bands (ev):

    -3.6148   0.1102   2.4554   3.4955

          k =-0.1875 0.6875 0.1875 (   360 PWs)   bands (ev):

    -3.7213   0.1691   2.7800   3.6368

          k = 0.6875-0.1875 1.0625 (   360 PWs)   bands (ev):

    -2.9350  -0.6215   2.2194   2.9722

          k = 0.5625-0.0625 0.9375 (   370 PWs)   bands (ev):

    -2.1475  -1.3645   1.9113   2.4839

          k = 0.4375 0.0625 0.8125 (   367 PWs)   bands (ev):

    -2.7367  -0.8237   1.9011   2.9479

          k =-0.1875-1.0625 0.1875 (   364 PWs)   bands (ev):

    -2.3056  -1.3410   2.0128   3.3009

          k =-0.3125-0.9375 0.0625 (   366 PWs)   bands (ev):

    -2.2072  -1.3728   2.1044   2.6919

          k =-0.1875-0.8125 0.1875 (   362 PWs)   bands (ev):

    -3.0303  -0.5827   2.2710   3.4140

          k =-0.3125 0.3125 0.3125 (   359 PWs)   bands (ev):

    -4.7161   0.9042   4.8848   4.8848

          k =-0.4375 0.4375 0.1875 (   360 PWs)   bands (ev):

    -4.2473   0.3330   3.4466   4.7980

          k = 0.4375-0.4375 1.0625 (   367 PWs)   bands (ev):

    -3.4733  -0.2048   1.9609   4.2310

          k = 0.3125-0.3125 0.9375 (   364 PWs)   bands (ev):

    -2.6715  -0.9759   1.6343   3.6965

          k =-0.3125 0.5625 0.3125 (   366 PWs)   bands (ev):

    -3.9415  -0.2130   3.7709   4.2483

          k = 0.5625-0.3125 1.1875 (   367 PWs)   bands (ev):

    -3.3359  -0.5743   2.4944   3.7861

          k = 0.4375-0.1875 1.0625 (   370 PWs)   bands (ev):

    -2.5361  -1.0437   1.7243   3.0904

          k =-0.3125-1.1875 0.3125 (   363 PWs)   bands (ev):

    -2.9857  -0.8515   2.1147   3.7943

          k =-0.4375 0.4375 0.4375 (   356 PWs)   bands (ev):

    -3.8498  -0.7042   4.6670   4.6670

          k = 0.4375-0.4375 1.3125 (   365 PWs)   bands (ev):

    -3.5079  -0.8796   3.4616   4.4054

     highest occupied level (ev):     5.7247

!    total energy              =     -19.19106429 Ry
     Harris-Foulkes estimate   =     -19.19106430 Ry
     estimated scf accuracy    <          8.0E-09 Ry

     The total energy is the sum of the following terms:

     one-electron contribution =       4.82169509 Ry
     hartree contribution      =       1.14852364 Ry
     xc contribution           =      -8.57535616 Ry
     ewald contribution        =     -16.58592685 Ry

     convergence has been achieved in   6 iterations

     Writing output data file silicon.10.393.save

     init_run     :      0.31s CPU      0.53s WALL (       1 calls)
     electrons    :      1.09s CPU      1.45s WALL (       1 calls)

     Called by init_run:
     wfcinit      :      0.08s CPU      0.18s WALL (       1 calls)
     potinit      :      0.02s CPU      0.04s WALL (       1 calls)

     Called by electrons:
     c_bands      :      0.76s CPU      1.07s WALL (       7 calls)
     sum_band     :      0.19s CPU      0.23s WALL (       7 calls)
     v_of_rho     :      0.07s CPU      0.08s WALL (       7 calls)
     newd         :      0.09s CPU      0.12s WALL (       7 calls)
     mix_rho      :      0.00s CPU      0.01s WALL (       7 calls)

     Called by c_bands:
     init_us_2    :      0.06s CPU      0.07s WALL (     900 calls)
     cegterg      :      0.63s CPU      0.89s WALL (     420 calls)

     Called by sum_band:
     sum_band:bec :      0.00s CPU      0.01s WALL (     420 calls)
     addusdens    :      0.07s CPU      0.09s WALL (       7 calls)

     Called by *egterg:
     h_psi        :      0.48s CPU      0.75s WALL (    1296 calls)
     s_psi        :      0.05s CPU      0.06s WALL (    1296 calls)
     g_psi        :      0.00s CPU      0.00s WALL (     816 calls)
     cdiaghg      :      0.07s CPU      0.09s WALL (    1176 calls)

     Called by h_psi:
     h_psi:pot    :      0.47s CPU      0.74s WALL (    1296 calls)
     h_psi:calbec :      0.08s CPU      0.12s WALL (    1296 calls)
     vloc_psi     :      0.34s CPU      0.55s WALL (    1296 calls)
     add_vuspsi   :      0.05s CPU      0.07s WALL (    1296 calls)

     General routines
     calbec       :      0.10s CPU      0.14s WALL (    1716 calls)
     fft          :      0.07s CPU      0.11s WALL (     112 calls)
     ffts         :      0.00s CPU      0.00s WALL (      14 calls)
     fftw         :      0.32s CPU      0.52s WALL (   11606 calls)
     interpolate  :      0.01s CPU      0.01s WALL (      14 calls)
     davcio       :      0.00s CPU      0.00s WALL (      60 calls)

     Parallel routines
     fft_scatter  :      0.19s CPU      0.39s WALL (   11732 calls)

     PWSCF        :     1.67s CPU         2.30s WALL


   This run was terminated on:  10: 3:17  10Nov2017            

=------------------------------------------------------------------------------=
   JOB DONE.
=------------------------------------------------------------------------------=
