
     Program PWSCF v.6.1 (svn rev. 13369) starts on 10Nov2017 at 10:28:23 

     This program is part of the open-source Quantum ESPRESSO suite
     for quantum simulation of materials; please cite
         "P. Giannozzi et al., J. Phys.:Condens. Matter 21 395502 (2009);
          URL http://www.quantum-espresso.org", 
     in publications or presentations arising from this work. More details at
     http://www.quantum-espresso.org/quote

     Parallel version (MPI), running on     4 processors
     R & G space division:  proc/nbgrp/npool/nimage =       4
     Waiting for input...
     Reading input from standard input
     Message from routine read_cards :
     DEPRECATED: no units specified in ATOMIC_POSITIONS card
     Message from routine read_cards :
     ATOMIC_POSITIONS: units set to alat

     Current dimensions of program PWSCF are:
     Max number of different atomic species (ntypx) = 10
     Max number of k-points (npk) =  40000
     Max angular momentum in pseudopotentials (lmaxx) =  3

     Subspace diagonalization in iterative solution of the eigenvalue problem:
     a serial algorithm will be used


     Parallelization info
     --------------------
     sticks:   dense  smooth     PW     G-vecs:    dense   smooth      PW
     Min         214     108     37                 4156     1489     284
     Max         217     109     38                 4157     1492     285
     Sum         859     433    151                16625     5961    1139



     bravais-lattice index     =            2
     lattice parameter (alat)  =      10.2100  a.u.
     unit-cell volume          =     266.0831 (a.u.)^3
     number of atoms/cell      =            2
     number of atomic types    =            1
     number of electrons       =         8.00
     number of Kohn-Sham states=            4
     kinetic-energy cutoff     =      30.0000  Ry
     charge density cutoff     =     240.0000  Ry
     convergence threshold     =      1.0E-08
     mixing beta               =       0.7000
     number of iterations used =            8  plain     mixing
     Exchange-correlation      = SLA  PW   PBE  PBE ( 1  4  3  4 0 0)

     celldm(1)=  10.210000  celldm(2)=   0.000000  celldm(3)=   0.000000
     celldm(4)=   0.000000  celldm(5)=   0.000000  celldm(6)=   0.000000

     crystal axes: (cart. coord. in units of alat)
               a(1) = (  -0.500000   0.000000   0.500000 )  
               a(2) = (   0.000000   0.500000   0.500000 )  
               a(3) = (  -0.500000   0.500000   0.000000 )  

     reciprocal axes: (cart. coord. in units 2 pi/alat)
               b(1) = ( -1.000000 -1.000000  1.000000 )  
               b(2) = (  1.000000  1.000000  1.000000 )  
               b(3) = ( -1.000000  1.000000 -1.000000 )  


     PseudoPot. # 1 for Si read from file:
     /home/max/quantum_espresso/qe-6.1/pseudo/si_pbe_v1.uspp.F.UPF.txt
     MD5 check sum: a056efeee980c13900f22a371efd63c1
     Pseudo is Ultrasoft + core correction, Zval =  4.0
     Generated by new atomic code, or converted to UPF format
     Using radial grid of  899 points,  6 beta functions with: 
                l(1) =   0
                l(2) =   0
                l(3) =   1
                l(4) =   1
                l(5) =   2
                l(6) =   2
     Q(r) pseudized with  8 coefficients,  rinner =    0.900   0.900   0.900
                                                       0.900   0.900

     atomic species   valence    mass     pseudopotential
        Si             4.00    28.08600     Si( 1.00)

     48 Sym. Ops., with inversion, found (24 have fractional translation)



   Cartesian axes

     site n.     atom                  positions (alat units)
         1           Si  tau(   1) = (   0.0000000   0.0000000   0.0000000  )
         2           Si  tau(   2) = (   0.2500000   0.2500000   0.2500000  )

     number of k points=    28
                       cart. coord. in units 2pi/alat
        k(    1) = (  -0.0833333   0.0833333   0.0833333), wk =   0.0185185
        k(    2) = (  -0.2500000   0.2500000  -0.0833333), wk =   0.0555556
        k(    3) = (  -0.4166667   0.4166667  -0.2500000), wk =   0.0555556
        k(    4) = (   0.4166667  -0.4166667   0.5833333), wk =   0.0555556
        k(    5) = (   0.2500000  -0.2500000   0.4166667), wk =   0.0555556
        k(    6) = (   0.0833333  -0.0833333   0.2500000), wk =   0.0555556
        k(    7) = (  -0.0833333   0.4166667   0.0833333), wk =   0.0555556
        k(    8) = (  -0.2500000   0.5833333  -0.0833333), wk =   0.1111111
        k(    9) = (   0.5833333  -0.2500000   0.7500000), wk =   0.1111111
        k(   10) = (   0.4166667  -0.0833333   0.5833333), wk =   0.1111111
        k(   11) = (   0.2500000   0.0833333   0.4166667), wk =   0.1111111
        k(   12) = (  -0.0833333   0.7500000   0.0833333), wk =   0.0555556
        k(   13) = (   0.7500000  -0.0833333   0.9166667), wk =   0.1111111
        k(   14) = (   0.5833333   0.0833333   0.7500000), wk =   0.1111111
        k(   15) = (   0.4166667   0.2500000   0.5833333), wk =   0.1111111
        k(   16) = (  -0.0833333  -0.9166667   0.0833333), wk =   0.0555556
        k(   17) = (  -0.2500000  -0.7500000  -0.0833333), wk =   0.1111111
        k(   18) = (  -0.0833333  -0.5833333   0.0833333), wk =   0.0555556
        k(   19) = (  -0.2500000   0.2500000   0.2500000), wk =   0.0185185
        k(   20) = (  -0.4166667   0.4166667   0.0833333), wk =   0.0555556
        k(   21) = (   0.4166667  -0.4166667   0.9166667), wk =   0.0555556
        k(   22) = (   0.2500000  -0.2500000   0.7500000), wk =   0.0555556
        k(   23) = (  -0.2500000   0.5833333   0.2500000), wk =   0.0555556
        k(   24) = (   0.5833333  -0.2500000   1.0833333), wk =   0.1111111
        k(   25) = (   0.4166667  -0.0833333   0.9166667), wk =   0.1111111
        k(   26) = (  -0.2500000  -1.0833333   0.2500000), wk =   0.0555556
        k(   27) = (  -0.4166667   0.4166667   0.4166667), wk =   0.0185185
        k(   28) = (   0.4166667  -0.4166667   1.2500000), wk =   0.0555556

     Dense  grid:    16625 G-vectors     FFT dimensions: (  36,  36,  36)

     Smooth grid:     5961 G-vectors     FFT dimensions: (  25,  25,  25)

     Estimated max dynamical RAM per process >       2.97MB

     Estimated total allocated dynamical RAM >      11.89MB

     Initial potential from superposition of free atoms

     starting charge    7.99866, renormalised to    8.00000
     Starting wfc are    8 randomized atomic wfcs

     total cpu time spent up to now is        0.9 secs

     per-process dynamical memory:     9.8 Mb

     Self-consistent Calculation

     iteration #  1     ecut=    30.00 Ry     beta=0.70
     Davidson diagonalization with overlap
     ethr =  1.00E-02,  avg # of iterations =  2.0

     Threshold (ethr) on eigenvalues was too large:
     Diagonalizing with lowered threshold

     Davidson diagonalization with overlap
     ethr =  7.18E-04,  avg # of iterations =  1.0

     total cpu time spent up to now is        1.3 secs

     total energy              =     -19.18985214 Ry
     Harris-Foulkes estimate   =     -19.20380958 Ry
     estimated scf accuracy    <       0.05685114 Ry

     iteration #  2     ecut=    30.00 Ry     beta=0.70
     Davidson diagonalization with overlap
     ethr =  7.11E-04,  avg # of iterations =  1.0

     total cpu time spent up to now is        1.5 secs

     total energy              =     -19.19186142 Ry
     Harris-Foulkes estimate   =     -19.19202994 Ry
     estimated scf accuracy    <       0.00243947 Ry

     iteration #  3     ecut=    30.00 Ry     beta=0.70
     Davidson diagonalization with overlap
     ethr =  3.05E-05,  avg # of iterations =  2.2

     total cpu time spent up to now is        1.7 secs

     total energy              =     -19.19222555 Ry
     Harris-Foulkes estimate   =     -19.19224088 Ry
     estimated scf accuracy    <       0.00004811 Ry

     iteration #  4     ecut=    30.00 Ry     beta=0.70
     Davidson diagonalization with overlap
     ethr =  6.01E-07,  avg # of iterations =  3.4

     total cpu time spent up to now is        2.0 secs

     total energy              =     -19.19226738 Ry
     Harris-Foulkes estimate   =     -19.19226870 Ry
     estimated scf accuracy    <       0.00000434 Ry

     iteration #  5     ecut=    30.00 Ry     beta=0.70
     Davidson diagonalization with overlap
     ethr =  5.42E-08,  avg # of iterations =  2.0

     total cpu time spent up to now is        2.5 secs

     total energy              =     -19.19226794 Ry
     Harris-Foulkes estimate   =     -19.19226794 Ry
     estimated scf accuracy    <       0.00000001 Ry

     iteration #  6     ecut=    30.00 Ry     beta=0.70
     Davidson diagonalization with overlap
     ethr =  1.71E-10,  avg # of iterations =  4.0

     total cpu time spent up to now is        3.1 secs

     End of self-consistent calculation

          k =-0.0833 0.0833 0.0833 (   731 PWs)   bands (ev):

    -5.6192   5.4949   6.2079   6.2079

          k =-0.2500 0.2500-0.0833 (   743 PWs)   bands (ev):

    -5.1346   3.3981   4.9485   5.9974

          k =-0.4167 0.4167-0.2500 (   745 PWs)   bands (ev):

    -4.0215   0.5896   4.4838   5.3496

          k = 0.4167-0.4167 0.5833 (   743 PWs)   bands (ev):

    -3.3047  -0.5798   4.5557   4.9608

          k = 0.2500-0.2500 0.4167 (   746 PWs)   bands (ev):

    -4.4418   1.4512   5.0184   5.0638

          k = 0.0833-0.0833 0.2500 (   734 PWs)   bands (ev):

    -5.3746   4.4239   5.5469   5.7469

          k =-0.0833 0.4167 0.0833 (   738 PWs)   bands (ev):

    -4.8895   3.2252   4.7956   4.8034

          k =-0.2500 0.5833-0.0833 (   739 PWs)   bands (ev):

    -3.9630   1.3613   3.4473   4.4114

          k = 0.5833-0.2500 0.7500 (   736 PWs)   bands (ev):

    -2.8202  -0.4320   2.8421   4.1775

          k = 0.4167-0.0833 0.5833 (   740 PWs)   bands (ev):

    -3.5600   0.6528   2.7912   4.6763

          k = 0.2500 0.0833 0.4167 (   737 PWs)   bands (ev):

    -4.6599   2.3666   4.1581   5.3620

          k =-0.0833 0.7500 0.0833 (   738 PWs)   bands (ev):

    -3.2401   0.5342   3.4072   3.7576

          k = 0.7500-0.0833 0.9167 (   737 PWs)   bands (ev):

    -2.0206  -0.8266   2.5427   3.3389

          k = 0.5833 0.0833 0.7500 (   732 PWs)   bands (ev):

    -2.3931  -0.4959   2.0519   3.8958

          k = 0.4167 0.2500 0.5833 (   739 PWs)   bands (ev):

    -3.4434  -0.0612   3.7639   4.7774

          k =-0.0833-0.9167 0.0833 (   740 PWs)   bands (ev):

    -2.1167  -0.8360   3.1321   3.5389

          k =-0.2500-0.7500-0.0833 (   740 PWs)   bands (ev):

    -3.0670   0.3049   2.8754   3.6853

          k =-0.0833-0.5833 0.0833 (   734 PWs)   bands (ev):

    -4.1728   1.9174   3.9649   4.1867

          k =-0.2500 0.2500 0.2500 (   751 PWs)   bands (ev):

    -4.9010   2.3991   5.5843   5.5843

          k =-0.4167 0.4167 0.0833 (   744 PWs)   bands (ev):

    -4.2096   1.4662   3.4112   5.4140

          k = 0.4167-0.4167 0.9167 (   736 PWs)   bands (ev):

    -3.0063   0.0102   2.2792   4.6106

          k = 0.2500-0.2500 0.7500 (   739 PWs)   bands (ev):

    -2.9543  -0.0698   2.7715   4.1182

          k =-0.2500 0.5833 0.2500 (   738 PWs)   bands (ev):

    -3.7774   0.6417   3.8964   4.4982

          k = 0.5833-0.2500 1.0833 (   736 PWs)   bands (ev):

    -2.7558  -0.0956   2.3797   3.6805

          k = 0.4167-0.0833 0.9167 (   735 PWs)   bands (ev):

    -1.9084  -0.8344   2.2050   2.9971

          k =-0.2500-1.0833 0.2500 (   732 PWs)   bands (ev):

    -2.1220  -0.7449   2.0764   3.9202

          k =-0.4167 0.4167 0.4167 (   745 PWs)   bands (ev):

    -3.6838  -0.1713   5.1917   5.1917

          k = 0.4167-0.4167 1.2500 (   741 PWs)   bands (ev):

    -3.0654  -0.4721   3.3292   4.7406

     highest occupied level (ev):     6.2079

!    total energy              =     -19.19226798 Ry
     Harris-Foulkes estimate   =     -19.19226798 Ry
     estimated scf accuracy    <          9.2E-10 Ry

     The total energy is the sum of the following terms:

     one-electron contribution =       5.22827189 Ry
     hartree contribution      =       1.10233056 Ry
     xc contribution           =      -8.63966402 Ry
     ewald contribution        =     -16.88320641 Ry

     convergence has been achieved in   6 iterations

     Writing output data file silicon.10.21.save

     init_run     :      0.36s CPU      0.76s WALL (       1 calls)
     electrons    :      1.43s CPU      2.19s WALL (       1 calls)

     Called by init_run:
     wfcinit      :      0.07s CPU      0.14s WALL (       1 calls)
     potinit      :      0.02s CPU      0.06s WALL (       1 calls)

     Called by electrons:
     c_bands      :      0.90s CPU      1.39s WALL (       7 calls)
     sum_band     :      0.31s CPU      0.50s WALL (       7 calls)
     v_of_rho     :      0.09s CPU      0.13s WALL (       7 calls)
     newd         :      0.13s CPU      0.22s WALL (       7 calls)
     mix_rho      :      0.01s CPU      0.01s WALL (       7 calls)

     Called by c_bands:
     init_us_2    :      0.05s CPU      0.06s WALL (     420 calls)
     cegterg      :      0.78s CPU      1.21s WALL (     196 calls)

     Called by sum_band:
     sum_band:bec :      0.00s CPU      0.00s WALL (     196 calls)
     addusdens    :      0.15s CPU      0.19s WALL (       7 calls)

     Called by *egterg:
     h_psi        :      0.65s CPU      1.02s WALL (     661 calls)
     s_psi        :      0.05s CPU      0.06s WALL (     661 calls)
     g_psi        :      0.00s CPU      0.00s WALL (     437 calls)
     cdiaghg      :      0.05s CPU      0.08s WALL (     605 calls)

     Called by h_psi:
     h_psi:pot    :      0.65s CPU      1.02s WALL (     661 calls)
     h_psi:calbec :      0.07s CPU      0.13s WALL (     661 calls)
     vloc_psi     :      0.52s CPU      0.83s WALL (     661 calls)
     add_vuspsi   :      0.05s CPU      0.06s WALL (     661 calls)

     General routines
     calbec       :      0.09s CPU      0.15s WALL (     857 calls)
     fft          :      0.06s CPU      0.16s WALL (     112 calls)
     ffts         :      0.00s CPU      0.00s WALL (      14 calls)
     fftw         :      0.53s CPU      0.94s WALL (    5704 calls)
     interpolate  :      0.01s CPU      0.02s WALL (      14 calls)
     davcio       :      0.00s CPU      0.00s WALL (      28 calls)

     Parallel routines
     fft_scatter  :      0.25s CPU      0.70s WALL (    5830 calls)

     PWSCF        :     1.99s CPU         3.19s WALL


   This run was terminated on:  10:28:26  10Nov2017            

=------------------------------------------------------------------------------=
   JOB DONE.
=------------------------------------------------------------------------------=
