
     Program PHONON v.6.1 (svn rev. 13369) starts on 10Nov2017 at 15:34:18 

     This program is part of the open-source Quantum ESPRESSO suite
     for quantum simulation of materials; please cite
         "P. Giannozzi et al., J. Phys.:Condens. Matter 21 395502 (2009);
          URL http://www.quantum-espresso.org", 
     in publications or presentations arising from this work. More details at
     http://www.quantum-espresso.org/quote

     Parallel version (MPI), running on     4 processors
     R & G space division:  proc/nbgrp/npool/nimage =       4

     Reading data from directory:
     ./silicon.10.362.save

   Info: using nr1, nr2, nr3 values from input

   Info: using nr1, nr2, nr3 values from input

     IMPORTANT: XC functional enforced from input :
     Exchange-correlation      = SLA  PW   PBE  PBE ( 1  4  3  4 0 0)
     Any further DFT definition will be discarded
     Please, verify this is what you really want


     Parallelization info
     --------------------
     sticks:   dense  smooth     PW     G-vecs:    dense   smooth      PW
     Min         222     109     37                 4369     1545     284
     Max         223     110     38                 4370     1546     285
     Sum         889     439    151                17477     6183    1139



     Dynamical matrices for ( 4, 4, 4)  uniform grid of q-points
     (   8q-points):
       N         xq(1)         xq(2)         xq(3) 
       1   0.000000000   0.000000000   0.000000000
       2  -0.250000000   0.250000000  -0.250000000
       3   0.500000000  -0.500000000   0.500000000
       4   0.000000000   0.500000000   0.000000000
       5   0.750000000  -0.250000000   0.750000000
       6   0.500000000   0.000000000   0.500000000
       7   0.000000000  -1.000000000   0.000000000
       8  -0.500000000  -1.000000000   0.000000000

     Calculation of q =    0.0000000   0.0000000   0.0000000

                                                                                

     bravais-lattice index     =            2
     lattice parameter (alat)  =      10.3620  a.u.
     unit-cell volume          =     278.1447 (a.u.)^3
     number of atoms/cell      =            2
     number of atomic types    =            1
     kinetic-energy cut-off    =      30.0000  Ry
     charge density cut-off    =     240.0000  Ry
     convergence threshold     =      1.0E-12
     beta                      =       0.7000
     number of iterations used =            4
     Exchange-correlation      = SLA  PW   PBE  PBE ( 1  4  3  4 0 0)


     celldm(1)=   10.36200  celldm(2)=    0.00000  celldm(3)=    0.00000
     celldm(4)=    0.00000  celldm(5)=    0.00000  celldm(6)=    0.00000

     crystal axes: (cart. coord. in units of alat)
               a(1) = ( -0.5000  0.0000  0.5000 )  
               a(2) = (  0.0000  0.5000  0.5000 )  
               a(3) = ( -0.5000  0.5000  0.0000 )  

     reciprocal axes: (cart. coord. in units 2 pi/alat)
               b(1) = ( -1.0000 -1.0000  1.0000 )  
               b(2) = (  1.0000  1.0000  1.0000 )  
               b(3) = ( -1.0000  1.0000 -1.0000 )  


     Atoms inside the unit cell: 

     Cartesian axes

     site n.  atom      mass           positions (alat units)
        1     Si  28.0860   tau(    1) = (    0.00000    0.00000    0.00000  )
        2     Si  28.0860   tau(    2) = (    0.25000    0.25000    0.25000  )

     Computing dynamical matrix for 
                    q = (   0.0000000   0.0000000   0.0000000 )

     49 Sym.Ops. (with q -> -q+G )


     G cutoff =  652.7377  (   4369 G-vectors)     FFT grid: ( 40, 40, 40)
     G cutoff =  326.3688  (   1546 G-vectors)  smooth grid: ( 25, 25, 25)
     number of k points=    10

     PseudoPot. # 1 for Si read from file:
     /home/s1333534/quantum_espresso/qe-6.1/pseudo/si_pbe_v1.uspp.F.UPF.txt
     MD5 check sum: a056efeee980c13900f22a371efd63c1
     Pseudo is Ultrasoft + core correction, Zval =  4.0
     Generated by new atomic code, or converted to UPF format
     Using radial grid of  899 points,  6 beta functions with: 
                l(1) =   0
                l(2) =   0
                l(3) =   1
                l(4) =   1
                l(5) =   2
                l(6) =   2
     Q(r) pseudized with  8 coefficients,  rinner =    0.900   0.900   0.900
                                                       0.900   0.900

     Mode symmetry, O_h (m-3m)  point group:


     Electric field:
     Dielectric constant
     Born effective charges in two ways 


     Atomic displacements:
     There are   2 irreducible representations

     Representation     1      3 modes -T_2g G_25' G_5+  To be done

     Representation     2      3 modes -T_1u G_15  G_4-  To be done



     Alpha used in Ewald sum =   2.5000
     PHONON       :     0.97s CPU         1.27s WALL


     Electric Fields Calculation

      iter #   1 total cpu time :     2.6 secs   av.it.:   5.7
      thresh= 1.000E-02 alpha_mix =  0.700 |ddv_scf|^2 =  9.666E-08

      iter #   2 total cpu time :     3.4 secs   av.it.:  11.9
      thresh= 3.109E-05 alpha_mix =  0.700 |ddv_scf|^2 =  5.765E-09

      iter #   3 total cpu time :     4.2 secs   av.it.:  11.7
      thresh= 7.593E-06 alpha_mix =  0.700 |ddv_scf|^2 =  3.892E-10

      iter #   4 total cpu time :     4.9 secs   av.it.:  10.6
      thresh= 1.973E-06 alpha_mix =  0.700 |ddv_scf|^2 =  2.611E-12

      iter #   5 total cpu time :     5.6 secs   av.it.:  11.2
      thresh= 1.616E-07 alpha_mix =  0.700 |ddv_scf|^2 =  2.611E-15

     End of electric fields calculation

          Dielectric constant in cartesian axis 

          (      14.022359148      -0.000000000      -0.000000000 )
          (      -0.000000000      14.022359148      -0.000000000 )
          (      -0.000000000      -0.000000000      14.022359148 )

          Effective charges (d Force / dE) in cartesian axis

           atom      1   Si 
      Ex  (       -0.03751        0.00000       -0.00000 )
      Ey  (        0.00000       -0.03751       -0.00000 )
      Ez  (       -0.00000       -0.00000       -0.03751 )
           atom      2   Si 
      Ex  (       -0.03751       -0.00000       -0.00000 )
      Ey  (       -0.00000       -0.03751        0.00000 )
      Ez  (       -0.00000        0.00000       -0.03751 )


     Representation #  1 modes #   1  2  3

     Self-consistent Calculation

      iter #   1 total cpu time :     7.0 secs   av.it.:   5.1
      thresh= 1.000E-02 alpha_mix =  0.700 |ddv_scf|^2 =  1.712E-08

      iter #   2 total cpu time :     7.8 secs   av.it.:  11.8
      thresh= 1.308E-05 alpha_mix =  0.700 |ddv_scf|^2 =  6.992E-10

      iter #   3 total cpu time :     8.9 secs   av.it.:  11.3
      thresh= 2.644E-06 alpha_mix =  0.700 |ddv_scf|^2 =  4.754E-11

      iter #   4 total cpu time :     9.5 secs   av.it.:  10.4
      thresh= 6.895E-07 alpha_mix =  0.700 |ddv_scf|^2 =  1.179E-13

     End of self-consistent calculation

     Convergence has been achieved 


     Representation #  2 modes #   4  5  6

     Self-consistent Calculation

      iter #   1 total cpu time :    10.7 secs   av.it.:   5.2
      thresh= 1.000E-02 alpha_mix =  0.700 |ddv_scf|^2 =  1.349E-08

      iter #   2 total cpu time :    11.7 secs   av.it.:  11.8
      thresh= 1.161E-05 alpha_mix =  0.700 |ddv_scf|^2 =  7.921E-10

      iter #   3 total cpu time :    12.5 secs   av.it.:  11.4
      thresh= 2.814E-06 alpha_mix =  0.700 |ddv_scf|^2 =  4.921E-11

      iter #   4 total cpu time :    13.5 secs   av.it.:  11.5
      thresh= 7.015E-07 alpha_mix =  0.700 |ddv_scf|^2 =  1.926E-13

     End of self-consistent calculation

     Convergence has been achieved 

     Number of q in the star =    1
     List of q in the star:
          1   0.000000000   0.000000000   0.000000000

          Dielectric constant in cartesian axis 

          (      14.022359148      -0.000000000      -0.000000000 )
          (      -0.000000000      14.022359148      -0.000000000 )
          (      -0.000000000      -0.000000000      14.022359148 )

          Effective charges (d Force / dE) in cartesian axis

           atom      1   Si 
      Ex  (       -0.03751        0.00000       -0.00000 )
      Ey  (        0.00000       -0.03751       -0.00000 )
      Ez  (       -0.00000       -0.00000       -0.03751 )
           atom      2   Si 
      Ex  (       -0.03751       -0.00000       -0.00000 )
      Ey  (       -0.00000       -0.03751        0.00000 )
      Ez  (       -0.00000        0.00000       -0.03751 )

          Effective charges (d P / du) in cartesian axis 

           atom      1   Si 
      Px  (       -0.07237       -0.00000       -0.00000 )
      Py  (       -0.00000       -0.07237        0.00000 )
      Pz  (       -0.00000        0.00000       -0.07237 )
           atom      2   Si 
      Px  (       -0.07237        0.00000       -0.00000 )
      Py  (        0.00000       -0.07237        0.00000 )
      Pz  (       -0.00000        0.00000       -0.07237 )

     Diagonalizing the dynamical matrix

     q = (    0.000000000   0.000000000   0.000000000 ) 

 **************************************************************************
     freq (    1) =      -0.433383 [THz] =     -14.456088 [cm-1]
     freq (    2) =      -0.433383 [THz] =     -14.456088 [cm-1]
     freq (    3) =      -0.433383 [THz] =     -14.456088 [cm-1]
     freq (    4) =      14.946808 [THz] =     498.571837 [cm-1]
     freq (    5) =      14.946808 [THz] =     498.571837 [cm-1]
     freq (    6) =      14.946808 [THz] =     498.571837 [cm-1]
 **************************************************************************

     Mode symmetry, O_h (m-3m)  point group:

     freq (  1 -  3) =        -14.5  [cm-1]   --> T_1u G_15  G_4- I  
     freq (  4 -  6) =        498.6  [cm-1]   --> T_2g G_25' G_5+ R  

     Calculation of q =   -0.2500000   0.2500000  -0.2500000

   Info: using nr1, nr2, nr3 values from input

   Info: using nr1, nr2, nr3 values from input

     Parallelization info
     --------------------
     sticks:   dense  smooth     PW     G-vecs:    dense   smooth      PW
     Min         222     109     37                 4369     1545     309
     Max         223     110     38                 4370     1546     312
     Sum         889     439    151                17477     6183    1243



     bravais-lattice index     =            2
     lattice parameter (alat)  =      10.3620  a.u.
     unit-cell volume          =     278.1447 (a.u.)^3
     number of atoms/cell      =            2
     number of atomic types    =            1
     number of electrons       =         8.00
     number of Kohn-Sham states=            4
     kinetic-energy cutoff     =      30.0000  Ry
     charge density cutoff     =     240.0000  Ry
     Exchange-correlation      = SLA  PW   PBE  PBE ( 1  4  3  4 0 0)

     celldm(1)=  10.362000  celldm(2)=   0.000000  celldm(3)=   0.000000
     celldm(4)=   0.000000  celldm(5)=   0.000000  celldm(6)=   0.000000

     crystal axes: (cart. coord. in units of alat)
               a(1) = (  -0.500000   0.000000   0.500000 )  
               a(2) = (   0.000000   0.500000   0.500000 )  
               a(3) = (  -0.500000   0.500000   0.000000 )  

     reciprocal axes: (cart. coord. in units 2 pi/alat)
               b(1) = ( -1.000000 -1.000000  1.000000 )  
               b(2) = (  1.000000  1.000000  1.000000 )  
               b(3) = ( -1.000000  1.000000 -1.000000 )  


     PseudoPot. # 1 for Si read from file:
     /home/s1333534/quantum_espresso/qe-6.1/pseudo/si_pbe_v1.uspp.F.UPF.txt
     MD5 check sum: a056efeee980c13900f22a371efd63c1
     Pseudo is Ultrasoft + core correction, Zval =  4.0
     Generated by new atomic code, or converted to UPF format
     Using radial grid of  899 points,  6 beta functions with: 
                l(1) =   0
                l(2) =   0
                l(3) =   1
                l(4) =   1
                l(5) =   2
                l(6) =   2
     Q(r) pseudized with  8 coefficients,  rinner =    0.900   0.900   0.900
                                                       0.900   0.900

     atomic species   valence    mass     pseudopotential
        Si             4.00    28.08600     Si( 1.00)

     48 Sym. Ops., with inversion, found



   Cartesian axes

     site n.     atom                  positions (alat units)
         1           Si  tau(   1) = (   0.0000000   0.0000000   0.0000000  )
         2           Si  tau(   2) = (   0.2500000   0.2500000   0.2500000  )

     number of k points=   120

     Number of k-points >= 100: set verbosity='high' to print them.

     Dense  grid:    17477 G-vectors     FFT dimensions: (  40,  40,  40)

     Smooth grid:     6183 G-vectors     FFT dimensions: (  25,  25,  25)

     Estimated max dynamical RAM per process >       1.79MB

     Estimated total allocated dynamical RAM >       7.17MB

     The potential is recalculated from file :
     ./_ph0/silicon.10.362.save/charge-density.dat

     Starting wfc are    8 atomic wfcs

     Band Structure Calculation
     Davidson diagonalization with overlap

     ethr =  1.25E-10,  avg # of iterations = 12.2

     total cpu time spent up to now is        1.4 secs

     End of band structure calculation

     Number of k-points >= 100: set verbosity='high' to print the bands.

     highest occupied level (ev):     5.6146

     Writing output data file silicon.10.362.save

                                                                                

     bravais-lattice index     =            2
     lattice parameter (alat)  =      10.3620  a.u.
     unit-cell volume          =     278.1447 (a.u.)^3
     number of atoms/cell      =            2
     number of atomic types    =            1
     kinetic-energy cut-off    =      30.0000  Ry
     charge density cut-off    =     240.0000  Ry
     convergence threshold     =      1.0E-12
     beta                      =       0.7000
     number of iterations used =            4
     Exchange-correlation      = SLA  PW   PBE  PBE ( 1  4  3  4 0 0)


     celldm(1)=   10.36200  celldm(2)=    0.00000  celldm(3)=    0.00000
     celldm(4)=    0.00000  celldm(5)=    0.00000  celldm(6)=    0.00000

     crystal axes: (cart. coord. in units of alat)
               a(1) = ( -0.5000  0.0000  0.5000 )  
               a(2) = (  0.0000  0.5000  0.5000 )  
               a(3) = ( -0.5000  0.5000  0.0000 )  

     reciprocal axes: (cart. coord. in units 2 pi/alat)
               b(1) = ( -1.0000 -1.0000  1.0000 )  
               b(2) = (  1.0000  1.0000  1.0000 )  
               b(3) = ( -1.0000  1.0000 -1.0000 )  


     Atoms inside the unit cell: 

     Cartesian axes

     site n.  atom      mass           positions (alat units)
        1     Si  28.0860   tau(    1) = (    0.00000    0.00000    0.00000  )
        2     Si  28.0860   tau(    2) = (    0.25000    0.25000    0.25000  )

     Computing dynamical matrix for 
                    q = (  -0.2500000   0.2500000  -0.2500000 )

      6 Sym.Ops. (no q -> -q+G )


     G cutoff =  652.7377  (   4369 G-vectors)     FFT grid: ( 40, 40, 40)
     G cutoff =  326.3688  (   1546 G-vectors)  smooth grid: ( 25, 25, 25)
     number of k points=   120

     PseudoPot. # 1 for Si read from file:
     /home/s1333534/quantum_espresso/qe-6.1/pseudo/si_pbe_v1.uspp.F.UPF.txt
     MD5 check sum: a056efeee980c13900f22a371efd63c1
     Pseudo is Ultrasoft + core correction, Zval =  4.0
     Generated by new atomic code, or converted to UPF format
     Using radial grid of  899 points,  6 beta functions with: 
                l(1) =   0
                l(2) =   0
                l(3) =   1
                l(4) =   1
                l(5) =   2
                l(6) =   2
     Q(r) pseudized with  8 coefficients,  rinner =    0.900   0.900   0.900
                                                       0.900   0.900

     Mode symmetry, C_3v (3m)   point group:


     Atomic displacements:
     There are   4 irreducible representations

     Representation     1      1 modes -A_1  L_1  To be done

     Representation     2      1 modes -A_1  L_1  To be done

     Representation     3      2 modes -E    L_3  To be done

     Representation     4      2 modes -E    L_3  To be done



     Alpha used in Ewald sum =   2.5000
     PHONON       :    12.24s CPU        17.07s WALL



     Representation #  1 mode #   1

     Self-consistent Calculation

      iter #   1 total cpu time :    17.6 secs   av.it.:   5.9
      thresh= 1.000E-02 alpha_mix =  0.700 |ddv_scf|^2 =  3.083E-04

      iter #   2 total cpu time :    18.2 secs   av.it.:   9.2
      thresh= 1.756E-03 alpha_mix =  0.700 |ddv_scf|^2 =  4.713E-03

      iter #   3 total cpu time :    18.8 secs   av.it.:   7.1
      thresh= 6.865E-03 alpha_mix =  0.700 |ddv_scf|^2 =  1.956E-07

      iter #   4 total cpu time :    19.5 secs   av.it.:   9.7
      thresh= 4.423E-05 alpha_mix =  0.700 |ddv_scf|^2 =  1.309E-08

      iter #   5 total cpu time :    20.2 secs   av.it.:   9.8
      thresh= 1.144E-05 alpha_mix =  0.700 |ddv_scf|^2 =  2.399E-10

      iter #   6 total cpu time :    20.9 secs   av.it.:   9.9
      thresh= 1.549E-06 alpha_mix =  0.700 |ddv_scf|^2 =  6.226E-10

      iter #   7 total cpu time :    21.5 secs   av.it.:   7.8
      thresh= 2.495E-06 alpha_mix =  0.700 |ddv_scf|^2 =  3.874E-11

      iter #   8 total cpu time :    22.1 secs   av.it.:   9.4
      thresh= 6.224E-07 alpha_mix =  0.700 |ddv_scf|^2 =  3.929E-13

     End of self-consistent calculation

     Convergence has been achieved 


     Representation #  2 mode #   2

     Self-consistent Calculation

      iter #   1 total cpu time :    22.7 secs   av.it.:   5.9
      thresh= 1.000E-02 alpha_mix =  0.700 |ddv_scf|^2 =  3.083E-04

      iter #   2 total cpu time :    23.3 secs   av.it.:   9.2
      thresh= 1.756E-03 alpha_mix =  0.700 |ddv_scf|^2 =  4.713E-03

      iter #   3 total cpu time :    23.9 secs   av.it.:   7.1
      thresh= 6.865E-03 alpha_mix =  0.700 |ddv_scf|^2 =  1.956E-07

      iter #   4 total cpu time :    24.5 secs   av.it.:   9.7
      thresh= 4.423E-05 alpha_mix =  0.700 |ddv_scf|^2 =  1.309E-08

      iter #   5 total cpu time :    25.2 secs   av.it.:   9.8
      thresh= 1.144E-05 alpha_mix =  0.700 |ddv_scf|^2 =  2.399E-10

      iter #   6 total cpu time :    25.8 secs   av.it.:   9.9
      thresh= 1.549E-06 alpha_mix =  0.700 |ddv_scf|^2 =  6.226E-10

      iter #   7 total cpu time :    26.5 secs   av.it.:   7.8
      thresh= 2.495E-06 alpha_mix =  0.700 |ddv_scf|^2 =  3.874E-11

      iter #   8 total cpu time :    27.1 secs   av.it.:   9.4
      thresh= 6.224E-07 alpha_mix =  0.700 |ddv_scf|^2 =  3.929E-13

     End of self-consistent calculation

     Convergence has been achieved 


     Representation #  3 modes #   3  4

     Self-consistent Calculation

      iter #   1 total cpu time :    28.2 secs   av.it.:   5.2
      thresh= 1.000E-02 alpha_mix =  0.700 |ddv_scf|^2 =  4.810E-08

      iter #   2 total cpu time :    29.8 secs   av.it.:  11.7
      thresh= 2.193E-05 alpha_mix =  0.700 |ddv_scf|^2 =  3.090E-09

      iter #   3 total cpu time :    31.0 secs   av.it.:  11.2
      thresh= 5.559E-06 alpha_mix =  0.700 |ddv_scf|^2 =  1.632E-10

      iter #   4 total cpu time :    32.2 secs   av.it.:  11.1
      thresh= 1.277E-06 alpha_mix =  0.700 |ddv_scf|^2 =  6.302E-13

     End of self-consistent calculation

     Convergence has been achieved 


     Representation #  4 modes #   5  6

     Self-consistent Calculation

      iter #   1 total cpu time :    33.2 secs   av.it.:   5.2
      thresh= 1.000E-02 alpha_mix =  0.700 |ddv_scf|^2 =  4.811E-08

      iter #   2 total cpu time :    34.7 secs   av.it.:  11.7
      thresh= 2.193E-05 alpha_mix =  0.700 |ddv_scf|^2 =  3.091E-09

      iter #   3 total cpu time :    36.0 secs   av.it.:  11.4
      thresh= 5.560E-06 alpha_mix =  0.700 |ddv_scf|^2 =  1.631E-10

      iter #   4 total cpu time :    37.2 secs   av.it.:  11.2
      thresh= 1.277E-06 alpha_mix =  0.700 |ddv_scf|^2 =  6.335E-13

     End of self-consistent calculation

     Convergence has been achieved 

     Number of q in the star =    8
     List of q in the star:
          1  -0.250000000   0.250000000  -0.250000000
          2   0.250000000  -0.250000000  -0.250000000
          3   0.250000000  -0.250000000   0.250000000
          4   0.250000000   0.250000000   0.250000000
          5  -0.250000000  -0.250000000  -0.250000000
          6  -0.250000000  -0.250000000   0.250000000
          7  -0.250000000   0.250000000   0.250000000
          8   0.250000000   0.250000000  -0.250000000

     Diagonalizing the dynamical matrix

     q = (   -0.250000000   0.250000000  -0.250000000 ) 

 **************************************************************************
     freq (    1) =       2.804149 [THz] =      93.536329 [cm-1]
     freq (    2) =       2.804149 [THz] =      93.536329 [cm-1]
     freq (    3) =       6.674606 [THz] =     222.640907 [cm-1]
     freq (    4) =      14.101547 [THz] =     470.376986 [cm-1]
     freq (    5) =      14.358858 [THz] =     478.959940 [cm-1]
     freq (    6) =      14.358858 [THz] =     478.959940 [cm-1]
 **************************************************************************

     Mode symmetry, C_3v (3m)   point group:

     freq (  1 -  2) =         93.5  [cm-1]   --> E    L_3           
     freq (  3 -  3) =        222.6  [cm-1]   --> A_1  L_1           
     freq (  4 -  4) =        470.4  [cm-1]   --> A_1  L_1           
     freq (  5 -  6) =        479.0  [cm-1]   --> E    L_3           

     Calculation of q =    0.5000000  -0.5000000   0.5000000

   Info: using nr1, nr2, nr3 values from input

   Info: using nr1, nr2, nr3 values from input

     Parallelization info
     --------------------
     sticks:   dense  smooth     PW     G-vecs:    dense   smooth      PW
     Min         222     109     40                 4369     1545     351
     Max         223     110     41                 4370     1546     354
     Sum         889     439    163                17477     6183    1411



     bravais-lattice index     =            2
     lattice parameter (alat)  =      10.3620  a.u.
     unit-cell volume          =     278.1447 (a.u.)^3
     number of atoms/cell      =            2
     number of atomic types    =            1
     number of electrons       =         8.00
     number of Kohn-Sham states=            4
     kinetic-energy cutoff     =      30.0000  Ry
     charge density cutoff     =     240.0000  Ry
     Exchange-correlation      = SLA  PW   PBE  PBE ( 1  4  3  4 0 0)

     celldm(1)=  10.362000  celldm(2)=   0.000000  celldm(3)=   0.000000
     celldm(4)=   0.000000  celldm(5)=   0.000000  celldm(6)=   0.000000

     crystal axes: (cart. coord. in units of alat)
               a(1) = (  -0.500000   0.000000   0.500000 )  
               a(2) = (   0.000000   0.500000   0.500000 )  
               a(3) = (  -0.500000   0.500000   0.000000 )  

     reciprocal axes: (cart. coord. in units 2 pi/alat)
               b(1) = ( -1.000000 -1.000000  1.000000 )  
               b(2) = (  1.000000  1.000000  1.000000 )  
               b(3) = ( -1.000000  1.000000 -1.000000 )  


     PseudoPot. # 1 for Si read from file:
     /home/s1333534/quantum_espresso/qe-6.1/pseudo/si_pbe_v1.uspp.F.UPF.txt
     MD5 check sum: a056efeee980c13900f22a371efd63c1
     Pseudo is Ultrasoft + core correction, Zval =  4.0
     Generated by new atomic code, or converted to UPF format
     Using radial grid of  899 points,  6 beta functions with: 
                l(1) =   0
                l(2) =   0
                l(3) =   1
                l(4) =   1
                l(5) =   2
                l(6) =   2
     Q(r) pseudized with  8 coefficients,  rinner =    0.900   0.900   0.900
                                                       0.900   0.900

     atomic species   valence    mass     pseudopotential
        Si             4.00    28.08600     Si( 1.00)

     48 Sym. Ops., with inversion, found



   Cartesian axes

     site n.     atom                  positions (alat units)
         1           Si  tau(   1) = (   0.0000000   0.0000000   0.0000000  )
         2           Si  tau(   2) = (   0.2500000   0.2500000   0.2500000  )

     number of k points=    60
                       cart. coord. in units 2pi/alat
        k(    1) = (  -0.1250000   0.1250000   0.1250000), wk =   0.0468750
        k(    2) = (   0.3750000  -0.3750000   0.6250000), wk =   0.0000000
        k(    3) = (  -0.3750000   0.3750000  -0.1250000), wk =   0.0468750
        k(    4) = (   0.1250000  -0.1250000   0.3750000), wk =   0.0000000
        k(    5) = (   0.3750000  -0.3750000   0.6250000), wk =   0.0468750
        k(    6) = (   0.8750000  -0.8750000   1.1250000), wk =   0.0000000
        k(    7) = (   0.1250000  -0.1250000   0.3750000), wk =   0.0468750
        k(    8) = (   0.6250000  -0.6250000   0.8750000), wk =   0.0000000
        k(    9) = (  -0.1250000   0.6250000   0.1250000), wk =   0.0937500
        k(   10) = (   0.3750000   0.1250000   0.6250000), wk =   0.0000000
        k(   11) = (   0.6250000  -0.1250000   0.8750000), wk =   0.0937500
        k(   12) = (   1.1250000  -0.6250000   1.3750000), wk =   0.0000000
        k(   13) = (   0.3750000   0.1250000   0.6250000), wk =   0.0937500
        k(   14) = (   0.8750000  -0.3750000   1.1250000), wk =   0.0000000
        k(   15) = (  -0.1250000  -0.8750000   0.1250000), wk =   0.0937500
        k(   16) = (   0.3750000  -1.3750000   0.6250000), wk =   0.0000000
        k(   17) = (  -0.3750000   0.3750000   0.3750000), wk =   0.0468750
        k(   18) = (   0.1250000  -0.1250000   0.8750000), wk =   0.0000000
        k(   19) = (   0.3750000  -0.3750000   1.1250000), wk =   0.0468750
        k(   20) = (   0.8750000  -0.8750000   1.6250000), wk =   0.0000000
        k(   21) = (   0.1250000  -0.1250000   0.1250000), wk =   0.0156250
        k(   22) = (   0.6250000  -0.6250000   0.6250000), wk =   0.0000000
        k(   23) = (  -0.3750000  -0.3750000  -0.1250000), wk =   0.0937500
        k(   24) = (   0.1250000  -0.8750000   0.3750000), wk =   0.0000000
        k(   25) = (  -0.1250000  -0.3750000   0.3750000), wk =   0.0468750
        k(   26) = (   0.3750000  -0.8750000   0.8750000), wk =   0.0000000
        k(   27) = (   0.3750000   0.3750000   0.6250000), wk =   0.0937500
        k(   28) = (   0.8750000  -0.1250000   1.1250000), wk =   0.0000000
        k(   29) = (   0.6250000   0.3750000  -0.3750000), wk =   0.0468750
        k(   30) = (   1.1250000  -0.1250000   0.1250000), wk =   0.0000000
        k(   31) = (   0.1250000   0.1250000   0.3750000), wk =   0.0937500
        k(   32) = (   0.6250000  -0.3750000   0.8750000), wk =   0.0000000
        k(   33) = (   0.3750000   0.1250000  -0.1250000), wk =   0.0468750
        k(   34) = (   0.8750000  -0.3750000   0.3750000), wk =   0.0000000
        k(   35) = (  -0.1250000  -0.6250000  -0.1250000), wk =   0.0468750
        k(   36) = (   0.3750000  -1.1250000   0.3750000), wk =   0.0000000
        k(   37) = (   0.1250000  -0.6250000   0.1250000), wk =   0.0468750
        k(   38) = (   0.6250000  -1.1250000   0.6250000), wk =   0.0000000
        k(   39) = (   0.6250000   0.1250000   0.8750000), wk =   0.0937500
        k(   40) = (   1.1250000  -0.3750000   1.3750000), wk =   0.0000000
        k(   41) = (  -0.8750000   0.1250000   0.6250000), wk =   0.0937500
        k(   42) = (  -0.3750000  -0.3750000   1.1250000), wk =   0.0000000
        k(   43) = (   0.8750000   0.1250000  -0.6250000), wk =   0.0937500
        k(   44) = (   1.3750000  -0.3750000  -0.1250000), wk =   0.0000000
        k(   45) = (   0.3750000  -0.1250000   0.6250000), wk =   0.0937500
        k(   46) = (   0.8750000  -0.6250000   1.1250000), wk =   0.0000000
        k(   47) = (  -0.6250000  -0.1250000   0.3750000), wk =   0.0937500
        k(   48) = (  -0.1250000  -0.6250000   0.8750000), wk =   0.0000000
        k(   49) = (   0.6250000  -0.1250000  -0.3750000), wk =   0.0937500
        k(   50) = (   1.1250000  -0.6250000   0.1250000), wk =   0.0000000
        k(   51) = (  -0.1250000   0.8750000  -0.1250000), wk =   0.0468750
        k(   52) = (   0.3750000   0.3750000   0.3750000), wk =   0.0000000
        k(   53) = (   0.1250000   0.8750000   0.1250000), wk =   0.0468750
        k(   54) = (   0.6250000   0.3750000   0.6250000), wk =   0.0000000
        k(   55) = (   0.3750000  -0.3750000   0.3750000), wk =   0.0156250
        k(   56) = (   0.8750000  -0.8750000   0.8750000), wk =   0.0000000
        k(   57) = (   0.3750000   0.3750000   1.1250000), wk =   0.0937500
        k(   58) = (   0.8750000  -0.1250000   1.6250000), wk =   0.0000000
        k(   59) = (   1.1250000   0.3750000  -0.3750000), wk =   0.0468750
        k(   60) = (   1.6250000  -0.1250000   0.1250000), wk =   0.0000000

     Dense  grid:    17477 G-vectors     FFT dimensions: (  40,  40,  40)

     Smooth grid:     6183 G-vectors     FFT dimensions: (  25,  25,  25)

     Estimated max dynamical RAM per process >       1.79MB

     Estimated total allocated dynamical RAM >       7.17MB

     The potential is recalculated from file :
     ./_ph0/silicon.10.362.save/charge-density.dat

     Starting wfc are    8 atomic wfcs

     Band Structure Calculation
     Davidson diagonalization with overlap

     ethr =  1.25E-10,  avg # of iterations = 12.2

     total cpu time spent up to now is        2.4 secs

     End of band structure calculation

          k =-0.1250 0.1250 0.1250 (   779 PWs)   bands (ev):

    -5.6679   4.3049   5.6146   5.6146

          k = 0.3750-0.3750 0.6250 (   773 PWs)   bands (ev):

    -3.5217  -0.7322   3.6603   4.3724

          k =-0.3750 0.3750-0.1250 (   781 PWs)   bands (ev):

    -4.6495   1.3269   3.6435   5.1367

          k = 0.1250-0.1250 0.3750 (   781 PWs)   bands (ev):

    -5.1441   2.6928   4.6158   4.6749

          k = 0.3750-0.3750 0.6250 (   773 PWs)   bands (ev):

    -3.5217  -0.7322   3.6603   4.3724

          k = 0.8750-0.8750 1.1250 (   779 PWs)   bands (ev):

    -5.6679   4.3049   5.6146   5.6146

          k = 0.1250-0.1250 0.3750 (   781 PWs)   bands (ev):

    -5.1441   2.6928   4.6158   4.6749

          k = 0.6250-0.6250 0.8750 (   781 PWs)   bands (ev):

    -4.6495   1.3269   3.6435   5.1367

          k =-0.1250 0.6250 0.1250 (   775 PWs)   bands (ev):

    -4.1209   0.9855   3.2997   3.7485

          k = 0.3750 0.1250 0.6250 (   775 PWs)   bands (ev):

    -3.7096   0.1238   2.6616   4.0212

          k = 0.6250-0.1250 0.8750 (   762 PWs)   bands (ev):

    -2.4964  -0.9635   1.9600   3.0267

          k = 1.1250-0.6250 1.3750 (   781 PWs)   bands (ev):

    -4.6495   1.3269   3.6435   5.1367

          k = 0.3750 0.1250 0.6250 (   775 PWs)   bands (ev):

    -3.7096   0.1238   2.6616   4.0212

          k = 0.8750-0.3750 1.1250 (   775 PWs)   bands (ev):

    -4.1209   0.9855   3.2997   3.7485

          k =-0.1250-0.8750 0.1250 (   766 PWs)   bands (ev):

    -2.6607  -0.8680   2.5639   3.2850

          k = 0.3750-1.3750 0.6250 (   773 PWs)   bands (ev):

    -3.5217  -0.7322   3.6603   4.3724

          k =-0.3750 0.3750 0.3750 (   769 PWs)   bands (ev):

    -4.2209   0.0501   4.8323   4.8323

          k = 0.1250-0.1250 0.8750 (   766 PWs)   bands (ev):

    -2.6607  -0.8680   2.5639   3.2850

          k = 0.3750-0.3750 1.1250 (   773 PWs)   bands (ev):

    -3.0297  -0.6566   2.0147   4.0584

          k = 0.8750-0.8750 1.6250 (   775 PWs)   bands (ev):

    -4.1209   0.9855   3.2997   3.7485

          k = 0.1250-0.1250 0.1250 (   779 PWs)   bands (ev):

    -5.6679   4.3049   5.6146   5.6146

          k = 0.6250-0.6250 0.6250 (   769 PWs)   bands (ev):

    -4.2209   0.0501   4.8323   4.8323

          k =-0.3750-0.3750-0.1250 (   781 PWs)   bands (ev):

    -4.6495   1.3269   3.6435   5.1367

          k = 0.1250-0.8750 0.3750 (   762 PWs)   bands (ev):

    -2.4964  -0.9635   1.9600   3.0267

          k =-0.1250-0.3750 0.3750 (   781 PWs)   bands (ev):

    -4.6495   1.3269   3.6435   5.1367

          k = 0.3750-0.8750 0.8750 (   775 PWs)   bands (ev):

    -4.1209   0.9855   3.2997   3.7485

          k = 0.3750 0.3750 0.6250 (   773 PWs)   bands (ev):

    -3.5217  -0.7322   3.6603   4.3724

          k = 0.8750-0.1250 1.1250 (   766 PWs)   bands (ev):

    -2.6607  -0.8680   2.5639   3.2850

          k = 0.6250 0.3750-0.3750 (   773 PWs)   bands (ev):

    -3.5217  -0.7322   3.6603   4.3724

          k = 1.1250-0.1250 0.1250 (   766 PWs)   bands (ev):

    -2.6607  -0.8680   2.5639   3.2850

          k = 0.1250 0.1250 0.3750 (   781 PWs)   bands (ev):

    -5.1441   2.6928   4.6158   4.6749

          k = 0.6250-0.3750 0.8750 (   775 PWs)   bands (ev):

    -3.7096   0.1238   2.6616   4.0212

          k = 0.3750 0.1250-0.1250 (   781 PWs)   bands (ev):

    -5.1441   2.6928   4.6158   4.6749

          k = 0.8750-0.3750 0.3750 (   773 PWs)   bands (ev):

    -3.0297  -0.6566   2.0147   4.0584

          k =-0.1250-0.6250-0.1250 (   775 PWs)   bands (ev):

    -4.1209   0.9855   3.2997   3.7485

          k = 0.3750-1.1250 0.3750 (   773 PWs)   bands (ev):

    -3.0297  -0.6566   2.0147   4.0584

          k = 0.1250-0.6250 0.1250 (   775 PWs)   bands (ev):

    -4.1209   0.9855   3.2997   3.7485

          k = 0.6250-1.1250 0.6250 (   781 PWs)   bands (ev):

    -4.6495   1.3269   3.6435   5.1367

          k = 0.6250 0.1250 0.8750 (   762 PWs)   bands (ev):

    -2.4964  -0.9635   1.9600   3.0267

          k = 1.1250-0.3750 1.3750 (   775 PWs)   bands (ev):

    -3.7096   0.1238   2.6616   4.0212

          k =-0.8750 0.1250 0.6250 (   762 PWs)   bands (ev):

    -2.4964  -0.9635   1.9600   3.0267

          k =-0.3750-0.3750 1.1250 (   773 PWs)   bands (ev):

    -3.0297  -0.6566   2.0147   4.0584

          k = 0.8750 0.1250-0.6250 (   762 PWs)   bands (ev):

    -2.4964  -0.9635   1.9600   3.0267

          k = 1.3750-0.3750-0.1250 (   775 PWs)   bands (ev):

    -3.7096   0.1238   2.6616   4.0212

          k = 0.3750-0.1250 0.6250 (   775 PWs)   bands (ev):

    -3.7096   0.1238   2.6616   4.0212

          k = 0.8750-0.6250 1.1250 (   781 PWs)   bands (ev):

    -5.1441   2.6928   4.6158   4.6749

          k =-0.6250-0.1250 0.3750 (   775 PWs)   bands (ev):

    -3.7096   0.1238   2.6616   4.0212

          k =-0.1250-0.6250 0.8750 (   762 PWs)   bands (ev):

    -2.4964  -0.9635   1.9600   3.0267

          k = 0.6250-0.1250-0.3750 (   775 PWs)   bands (ev):

    -3.7096   0.1238   2.6616   4.0212

          k = 1.1250-0.6250 0.1250 (   762 PWs)   bands (ev):

    -2.4964  -0.9635   1.9600   3.0267

          k =-0.1250 0.8750-0.1250 (   766 PWs)   bands (ev):

    -2.6607  -0.8680   2.5639   3.2850

          k = 0.3750 0.3750 0.3750 (   769 PWs)   bands (ev):

    -4.2209   0.0501   4.8323   4.8323

          k = 0.1250 0.8750 0.1250 (   766 PWs)   bands (ev):

    -2.6607  -0.8680   2.5639   3.2850

          k = 0.6250 0.3750 0.6250 (   773 PWs)   bands (ev):

    -3.5217  -0.7322   3.6603   4.3724

          k = 0.3750-0.3750 0.3750 (   769 PWs)   bands (ev):

    -4.2209   0.0501   4.8323   4.8323

          k = 0.8750-0.8750 0.8750 (   779 PWs)   bands (ev):

    -5.6679   4.3049   5.6146   5.6146

          k = 0.3750 0.3750 1.1250 (   773 PWs)   bands (ev):

    -3.0297  -0.6566   2.0147   4.0584

          k = 0.8750-0.1250 1.6250 (   762 PWs)   bands (ev):

    -2.4964  -0.9635   1.9600   3.0267

          k = 1.1250 0.3750-0.3750 (   773 PWs)   bands (ev):

    -3.0297  -0.6566   2.0147   4.0584

          k = 1.6250-0.1250 0.1250 (   781 PWs)   bands (ev):

    -5.1441   2.6928   4.6158   4.6749

     highest occupied level (ev):     5.6146

     Writing output data file silicon.10.362.save

                                                                                

     bravais-lattice index     =            2
     lattice parameter (alat)  =      10.3620  a.u.
     unit-cell volume          =     278.1447 (a.u.)^3
     number of atoms/cell      =            2
     number of atomic types    =            1
     kinetic-energy cut-off    =      30.0000  Ry
     charge density cut-off    =     240.0000  Ry
     convergence threshold     =      1.0E-12
     beta                      =       0.7000
     number of iterations used =            4
     Exchange-correlation      = SLA  PW   PBE  PBE ( 1  4  3  4 0 0)


     celldm(1)=   10.36200  celldm(2)=    0.00000  celldm(3)=    0.00000
     celldm(4)=    0.00000  celldm(5)=    0.00000  celldm(6)=    0.00000

     crystal axes: (cart. coord. in units of alat)
               a(1) = ( -0.5000  0.0000  0.5000 )  
               a(2) = (  0.0000  0.5000  0.5000 )  
               a(3) = ( -0.5000  0.5000  0.0000 )  

     reciprocal axes: (cart. coord. in units 2 pi/alat)
               b(1) = ( -1.0000 -1.0000  1.0000 )  
               b(2) = (  1.0000  1.0000  1.0000 )  
               b(3) = ( -1.0000  1.0000 -1.0000 )  


     Atoms inside the unit cell: 

     Cartesian axes

     site n.  atom      mass           positions (alat units)
        1     Si  28.0860   tau(    1) = (    0.00000    0.00000    0.00000  )
        2     Si  28.0860   tau(    2) = (    0.25000    0.25000    0.25000  )

     Computing dynamical matrix for 
                    q = (   0.5000000  -0.5000000   0.5000000 )

     13 Sym.Ops. (with q -> -q+G )


     G cutoff =  652.7377  (   4369 G-vectors)     FFT grid: ( 40, 40, 40)
     G cutoff =  326.3688  (   1546 G-vectors)  smooth grid: ( 25, 25, 25)
     number of k points=    60

     PseudoPot. # 1 for Si read from file:
     /home/s1333534/quantum_espresso/qe-6.1/pseudo/si_pbe_v1.uspp.F.UPF.txt
     MD5 check sum: a056efeee980c13900f22a371efd63c1
     Pseudo is Ultrasoft + core correction, Zval =  4.0
     Generated by new atomic code, or converted to UPF format
     Using radial grid of  899 points,  6 beta functions with: 
                l(1) =   0
                l(2) =   0
                l(3) =   1
                l(4) =   1
                l(5) =   2
                l(6) =   2
     Q(r) pseudized with  8 coefficients,  rinner =    0.900   0.900   0.900
                                                       0.900   0.900


     Atomic displacements:
     There are   4 irreducible representations

     Representation     1      1 modes -  To be done

     Representation     2      1 modes -  To be done

     Representation     3      2 modes -  To be done

     Representation     4      2 modes -  To be done



     Alpha used in Ewald sum =   2.5000
     PHONON       :    29.78s CPU        39.58s WALL



     Representation #  1 mode #   1

     Self-consistent Calculation

      iter #   1 total cpu time :    39.9 secs   av.it.:   5.0
      thresh= 1.000E-02 alpha_mix =  0.700 |ddv_scf|^2 =  3.023E-06

      iter #   2 total cpu time :    40.3 secs   av.it.:  10.1
      thresh= 1.739E-04 alpha_mix =  0.700 |ddv_scf|^2 =  2.795E-06

      iter #   3 total cpu time :    40.8 secs   av.it.:   9.4
      thresh= 1.672E-04 alpha_mix =  0.700 |ddv_scf|^2 =  1.651E-09

      iter #   4 total cpu time :    41.2 secs   av.it.:   9.6
      thresh= 4.063E-06 alpha_mix =  0.700 |ddv_scf|^2 =  1.556E-11

      iter #   5 total cpu time :    41.6 secs   av.it.:   9.5
      thresh= 3.945E-07 alpha_mix =  0.700 |ddv_scf|^2 =  2.285E-13

     End of self-consistent calculation

     Convergence has been achieved 


     Representation #  2 mode #   2

     Self-consistent Calculation

      iter #   1 total cpu time :    42.3 secs   av.it.:   6.0
      thresh= 1.000E-02 alpha_mix =  0.700 |ddv_scf|^2 =  4.296E-05

      iter #   2 total cpu time :    42.7 secs   av.it.:  10.0
      thresh= 6.555E-04 alpha_mix =  0.700 |ddv_scf|^2 =  1.340E-04

      iter #   3 total cpu time :    43.2 secs   av.it.:   8.8
      thresh= 1.158E-03 alpha_mix =  0.700 |ddv_scf|^2 =  1.020E-08

      iter #   4 total cpu time :    43.7 secs   av.it.:  10.1
      thresh= 1.010E-05 alpha_mix =  0.700 |ddv_scf|^2 =  5.153E-10

      iter #   5 total cpu time :    44.1 secs   av.it.:  10.4
      thresh= 2.270E-06 alpha_mix =  0.700 |ddv_scf|^2 =  1.516E-11

      iter #   6 total cpu time :    44.5 secs   av.it.:  10.0
      thresh= 3.893E-07 alpha_mix =  0.700 |ddv_scf|^2 =  1.124E-13

     End of self-consistent calculation

     Convergence has been achieved 


     Representation #  3 modes #   3  4

     Self-consistent Calculation

      iter #   1 total cpu time :    45.2 secs   av.it.:   5.1
      thresh= 1.000E-02 alpha_mix =  0.700 |ddv_scf|^2 =  1.951E-08

      iter #   2 total cpu time :    46.1 secs   av.it.:  11.1
      thresh= 1.397E-05 alpha_mix =  0.700 |ddv_scf|^2 =  1.147E-09

      iter #   3 total cpu time :    47.0 secs   av.it.:  10.9
      thresh= 3.387E-06 alpha_mix =  0.700 |ddv_scf|^2 =  3.884E-11

      iter #   4 total cpu time :    47.7 secs   av.it.:  10.8
      thresh= 6.232E-07 alpha_mix =  0.700 |ddv_scf|^2 =  3.175E-13

     End of self-consistent calculation

     Convergence has been achieved 


     Representation #  4 modes #   5  6

     Self-consistent Calculation

      iter #   1 total cpu time :    48.5 secs   av.it.:   5.1
      thresh= 1.000E-02 alpha_mix =  0.700 |ddv_scf|^2 =  1.002E-07

      iter #   2 total cpu time :    49.3 secs   av.it.:  11.2
      thresh= 3.165E-05 alpha_mix =  0.700 |ddv_scf|^2 =  8.049E-09

      iter #   3 total cpu time :    50.1 secs   av.it.:  11.2
      thresh= 8.971E-06 alpha_mix =  0.700 |ddv_scf|^2 =  2.109E-10

      iter #   4 total cpu time :    50.8 secs   av.it.:  10.1
      thresh= 1.452E-06 alpha_mix =  0.700 |ddv_scf|^2 =  3.865E-13

     End of self-consistent calculation

     Convergence has been achieved 

     Number of q in the star =    4
     List of q in the star:
          1   0.500000000  -0.500000000   0.500000000
          2   0.500000000   0.500000000   0.500000000
          3  -0.500000000   0.500000000   0.500000000
          4   0.500000000   0.500000000  -0.500000000

     Diagonalizing the dynamical matrix

     q = (    0.500000000  -0.500000000   0.500000000 ) 

 **************************************************************************
     freq (    1) =       3.346409 [THz] =     111.624196 [cm-1]
     freq (    2) =       3.346409 [THz] =     111.624196 [cm-1]
     freq (    3) =      11.064257 [THz] =     369.063897 [cm-1]
     freq (    4) =      11.806713 [THz] =     393.829555 [cm-1]
     freq (    5) =      14.137380 [THz] =     471.572243 [cm-1]
     freq (    6) =      14.137380 [THz] =     471.572243 [cm-1]
 **************************************************************************

     Calculation of q =    0.0000000   0.5000000   0.0000000

   Info: using nr1, nr2, nr3 values from input

   Info: using nr1, nr2, nr3 values from input

     Parallelization info
     --------------------
     sticks:   dense  smooth     PW     G-vecs:    dense   smooth      PW
     Min         222     109     40                 4369     1545     322
     Max         223     110     42                 4370     1547     323
     Sum         889     439    163                17477     6183    1291



     bravais-lattice index     =            2
     lattice parameter (alat)  =      10.3620  a.u.
     unit-cell volume          =     278.1447 (a.u.)^3
     number of atoms/cell      =            2
     number of atomic types    =            1
     number of electrons       =         8.00
     number of Kohn-Sham states=            4
     kinetic-energy cutoff     =      30.0000  Ry
     charge density cutoff     =     240.0000  Ry
     Exchange-correlation      = SLA  PW   PBE  PBE ( 1  4  3  4 0 0)

     celldm(1)=  10.362000  celldm(2)=   0.000000  celldm(3)=   0.000000
     celldm(4)=   0.000000  celldm(5)=   0.000000  celldm(6)=   0.000000

     crystal axes: (cart. coord. in units of alat)
               a(1) = (  -0.500000   0.000000   0.500000 )  
               a(2) = (   0.000000   0.500000   0.500000 )  
               a(3) = (  -0.500000   0.500000   0.000000 )  

     reciprocal axes: (cart. coord. in units 2 pi/alat)
               b(1) = ( -1.000000 -1.000000  1.000000 )  
               b(2) = (  1.000000  1.000000  1.000000 )  
               b(3) = ( -1.000000  1.000000 -1.000000 )  


     PseudoPot. # 1 for Si read from file:
     /home/s1333534/quantum_espresso/qe-6.1/pseudo/si_pbe_v1.uspp.F.UPF.txt
     MD5 check sum: a056efeee980c13900f22a371efd63c1
     Pseudo is Ultrasoft + core correction, Zval =  4.0
     Generated by new atomic code, or converted to UPF format
     Using radial grid of  899 points,  6 beta functions with: 
                l(1) =   0
                l(2) =   0
                l(3) =   1
                l(4) =   1
                l(5) =   2
                l(6) =   2
     Q(r) pseudized with  8 coefficients,  rinner =    0.900   0.900   0.900
                                                       0.900   0.900

     atomic species   valence    mass     pseudopotential
        Si             4.00    28.08600     Si( 1.00)

     48 Sym. Ops., with inversion, found



   Cartesian axes

     site n.     atom                  positions (alat units)
         1           Si  tau(   1) = (   0.0000000   0.0000000   0.0000000  )
         2           Si  tau(   2) = (   0.2500000   0.2500000   0.2500000  )

     number of k points=    80
                       cart. coord. in units 2pi/alat
        k(    1) = (  -0.1250000   0.1250000   0.1250000), wk =   0.0312500
        k(    2) = (  -0.1250000   0.6250000   0.1250000), wk =   0.0000000
        k(    3) = (  -0.3750000   0.3750000  -0.1250000), wk =   0.0625000
        k(    4) = (  -0.3750000   0.8750000  -0.1250000), wk =   0.0000000
        k(    5) = (   0.3750000  -0.3750000   0.6250000), wk =   0.0625000
        k(    6) = (   0.3750000   0.1250000   0.6250000), wk =   0.0000000
        k(    7) = (   0.1250000  -0.1250000   0.3750000), wk =   0.0625000
        k(    8) = (   0.1250000   0.3750000   0.3750000), wk =   0.0000000
        k(    9) = (  -0.1250000   0.6250000   0.1250000), wk =   0.0312500
        k(   10) = (  -0.1250000   1.1250000   0.1250000), wk =   0.0000000
        k(   11) = (   0.6250000  -0.1250000   0.8750000), wk =   0.0625000
        k(   12) = (   0.6250000   0.3750000   0.8750000), wk =   0.0000000
        k(   13) = (   0.3750000   0.1250000   0.6250000), wk =   0.0625000
        k(   14) = (   0.3750000   0.6250000   0.6250000), wk =   0.0000000
        k(   15) = (  -0.1250000  -0.8750000   0.1250000), wk =   0.0312500
        k(   16) = (  -0.1250000  -0.3750000   0.1250000), wk =   0.0000000
        k(   17) = (  -0.3750000   0.3750000   0.3750000), wk =   0.0312500
        k(   18) = (  -0.3750000   0.8750000   0.3750000), wk =   0.0000000
        k(   19) = (   0.3750000  -0.3750000   1.1250000), wk =   0.0625000
        k(   20) = (   0.3750000   0.1250000   1.1250000), wk =   0.0000000
        k(   21) = (  -0.1250000  -0.1250000   0.1250000), wk =   0.0312500
        k(   22) = (  -0.1250000   0.3750000   0.1250000), wk =   0.0000000
        k(   23) = (   0.1250000  -0.3750000   0.3750000), wk =   0.0625000
        k(   24) = (   0.1250000   0.1250000   0.3750000), wk =   0.0000000
        k(   25) = (   0.3750000  -0.1250000   0.3750000), wk =   0.0312500
        k(   26) = (   0.3750000   0.3750000   0.3750000), wk =   0.0000000
        k(   27) = (   0.3750000   0.1250000   0.3750000), wk =   0.0312500
        k(   28) = (   0.3750000   0.6250000   0.3750000), wk =   0.0000000
        k(   29) = (  -0.6250000   0.3750000  -0.3750000), wk =   0.0625000
        k(   30) = (  -0.6250000   0.8750000  -0.3750000), wk =   0.0000000
        k(   31) = (  -0.3750000   0.6250000  -0.3750000), wk =   0.0312500
        k(   32) = (  -0.3750000   1.1250000  -0.3750000), wk =   0.0000000
        k(   33) = (  -0.3750000  -0.6250000  -0.3750000), wk =   0.0312500
        k(   34) = (  -0.3750000  -0.1250000  -0.3750000), wk =   0.0000000
        k(   35) = (  -0.3750000   0.1250000  -0.1250000), wk =   0.0625000
        k(   36) = (  -0.3750000   0.6250000  -0.1250000), wk =   0.0000000
        k(   37) = (  -0.1250000   0.3750000  -0.1250000), wk =   0.0312500
        k(   38) = (  -0.1250000   0.8750000  -0.1250000), wk =   0.0000000
        k(   39) = (  -0.1250000  -0.3750000  -0.1250000), wk =   0.0312500
        k(   40) = (  -0.1250000   0.1250000  -0.1250000), wk =   0.0000000
        k(   41) = (  -0.1250000  -0.6250000   0.1250000), wk =   0.0312500
        k(   42) = (  -0.1250000  -0.1250000   0.1250000), wk =   0.0000000
        k(   43) = (   0.6250000  -0.1250000  -0.1250000), wk =   0.0625000
        k(   44) = (   0.6250000   0.3750000  -0.1250000), wk =   0.0000000
        k(   45) = (   0.6250000   0.1250000   0.1250000), wk =   0.0625000
        k(   46) = (   0.6250000   0.6250000   0.1250000), wk =   0.0000000
        k(   47) = (  -0.8750000   0.1250000  -0.6250000), wk =   0.0625000
        k(   48) = (  -0.8750000   0.6250000  -0.6250000), wk =   0.0000000
        k(   49) = (  -0.1250000   0.6250000  -0.8750000), wk =   0.0625000
        k(   50) = (  -0.1250000   1.1250000  -0.8750000), wk =   0.0000000
        k(   51) = (  -0.1250000   0.8750000  -0.6250000), wk =   0.0625000
        k(   52) = (  -0.1250000   1.3750000  -0.6250000), wk =   0.0000000
        k(   53) = (  -0.1250000  -0.8750000  -0.6250000), wk =   0.0625000
        k(   54) = (  -0.1250000  -0.3750000  -0.6250000), wk =   0.0000000
        k(   55) = (   0.8750000  -0.6250000   0.1250000), wk =   0.0625000
        k(   56) = (   0.8750000  -0.1250000   0.1250000), wk =   0.0000000
        k(   57) = (  -0.6250000  -0.1250000  -0.3750000), wk =   0.0625000
        k(   58) = (  -0.6250000   0.3750000  -0.3750000), wk =   0.0000000
        k(   59) = (   0.1250000   0.3750000  -0.6250000), wk =   0.0625000
        k(   60) = (   0.1250000   0.8750000  -0.6250000), wk =   0.0000000
        k(   61) = (   0.1250000   0.6250000  -0.3750000), wk =   0.0625000
        k(   62) = (   0.1250000   1.1250000  -0.3750000), wk =   0.0000000
        k(   63) = (   0.1250000  -0.6250000  -0.3750000), wk =   0.0625000
        k(   64) = (   0.1250000  -0.1250000  -0.3750000), wk =   0.0000000
        k(   65) = (   0.6250000  -0.3750000  -0.1250000), wk =   0.0625000
        k(   66) = (   0.6250000   0.1250000  -0.1250000), wk =   0.0000000
        k(   67) = (  -0.1250000   0.8750000   0.1250000), wk =   0.0312500
        k(   68) = (  -0.1250000   1.3750000   0.1250000), wk =   0.0000000
        k(   69) = (  -0.8750000  -0.1250000  -0.1250000), wk =   0.0625000
        k(   70) = (  -0.8750000   0.3750000  -0.1250000), wk =   0.0000000
        k(   71) = (  -0.8750000   0.1250000   0.1250000), wk =   0.0625000
        k(   72) = (  -0.8750000   0.6250000   0.1250000), wk =   0.0000000
        k(   73) = (  -0.3750000  -0.3750000   0.3750000), wk =   0.0312500
        k(   74) = (  -0.3750000   0.1250000   0.3750000), wk =   0.0000000
        k(   75) = (  -1.1250000   0.3750000  -0.3750000), wk =   0.0625000
        k(   76) = (  -1.1250000   0.8750000  -0.3750000), wk =   0.0000000
        k(   77) = (  -0.3750000   1.1250000  -0.3750000), wk =   0.0312500
        k(   78) = (  -0.3750000   1.6250000  -0.3750000), wk =   0.0000000
        k(   79) = (  -0.3750000  -1.1250000  -0.3750000), wk =   0.0312500
        k(   80) = (  -0.3750000  -0.6250000  -0.3750000), wk =   0.0000000

     Dense  grid:    17477 G-vectors     FFT dimensions: (  40,  40,  40)

     Smooth grid:     6183 G-vectors     FFT dimensions: (  25,  25,  25)

     Estimated max dynamical RAM per process >       1.79MB

     Estimated total allocated dynamical RAM >       7.17MB

     The potential is recalculated from file :
     ./_ph0/silicon.10.362.save/charge-density.dat

     Starting wfc are    8 atomic wfcs

     Band Structure Calculation
     Davidson diagonalization with overlap

     ethr =  1.25E-10,  avg # of iterations = 12.2

     total cpu time spent up to now is        3.5 secs

     End of band structure calculation

          k =-0.1250 0.1250 0.1250 (   779 PWs)   bands (ev):

    -5.6679   4.3049   5.6146   5.6146

          k =-0.1250 0.6250 0.1250 (   775 PWs)   bands (ev):

    -4.1209   0.9855   3.2997   3.7485

          k =-0.3750 0.3750-0.1250 (   781 PWs)   bands (ev):

    -4.6495   1.3269   3.6435   5.1367

          k =-0.3750 0.8750-0.1250 (   762 PWs)   bands (ev):

    -2.4964  -0.9635   1.9600   3.0267

          k = 0.3750-0.3750 0.6250 (   773 PWs)   bands (ev):

    -3.5217  -0.7322   3.6603   4.3724

          k = 0.3750 0.1250 0.6250 (   775 PWs)   bands (ev):

    -3.7096   0.1238   2.6616   4.0212

          k = 0.1250-0.1250 0.3750 (   781 PWs)   bands (ev):

    -5.1441   2.6928   4.6158   4.6749

          k = 0.1250 0.3750 0.3750 (   781 PWs)   bands (ev):

    -4.6495   1.3269   3.6435   5.1367

          k =-0.1250 0.6250 0.1250 (   775 PWs)   bands (ev):

    -4.1209   0.9855   3.2997   3.7485

          k =-0.1250 1.1250 0.1250 (   766 PWs)   bands (ev):

    -2.6607  -0.8680   2.5639   3.2850

          k = 0.6250-0.1250 0.8750 (   762 PWs)   bands (ev):

    -2.4964  -0.9635   1.9600   3.0267

          k = 0.6250 0.3750 0.8750 (   775 PWs)   bands (ev):

    -3.7096   0.1238   2.6616   4.0212

          k = 0.3750 0.1250 0.6250 (   775 PWs)   bands (ev):

    -3.7096   0.1238   2.6616   4.0212

          k = 0.3750 0.6250 0.6250 (   773 PWs)   bands (ev):

    -3.5217  -0.7322   3.6603   4.3724

          k =-0.1250-0.8750 0.1250 (   766 PWs)   bands (ev):

    -2.6607  -0.8680   2.5639   3.2850

          k =-0.1250-0.3750 0.1250 (   781 PWs)   bands (ev):

    -5.1441   2.6928   4.6158   4.6749

          k =-0.3750 0.3750 0.3750 (   769 PWs)   bands (ev):

    -4.2209   0.0501   4.8323   4.8323

          k =-0.3750 0.8750 0.3750 (   773 PWs)   bands (ev):

    -3.0297  -0.6566   2.0147   4.0584

          k = 0.3750-0.3750 1.1250 (   773 PWs)   bands (ev):

    -3.0297  -0.6566   2.0147   4.0584

          k = 0.3750 0.1250 1.1250 (   762 PWs)   bands (ev):

    -2.4964  -0.9635   1.9600   3.0267

          k =-0.1250-0.1250 0.1250 (   779 PWs)   bands (ev):

    -5.6679   4.3049   5.6146   5.6146

          k =-0.1250 0.3750 0.1250 (   781 PWs)   bands (ev):

    -5.1441   2.6928   4.6158   4.6749

          k = 0.1250-0.3750 0.3750 (   781 PWs)   bands (ev):

    -4.6495   1.3269   3.6435   5.1367

          k = 0.1250 0.1250 0.3750 (   781 PWs)   bands (ev):

    -5.1441   2.6928   4.6158   4.6749

          k = 0.3750-0.1250 0.3750 (   781 PWs)   bands (ev):

    -4.6495   1.3269   3.6435   5.1367

          k = 0.3750 0.3750 0.3750 (   769 PWs)   bands (ev):

    -4.2209   0.0501   4.8323   4.8323

          k = 0.3750 0.1250 0.3750 (   781 PWs)   bands (ev):

    -4.6495   1.3269   3.6435   5.1367

          k = 0.3750 0.6250 0.3750 (   773 PWs)   bands (ev):

    -3.5217  -0.7322   3.6603   4.3724

          k =-0.6250 0.3750-0.3750 (   773 PWs)   bands (ev):

    -3.5217  -0.7322   3.6603   4.3724

          k =-0.6250 0.8750-0.3750 (   775 PWs)   bands (ev):

    -3.7096   0.1238   2.6616   4.0212

          k =-0.3750 0.6250-0.3750 (   773 PWs)   bands (ev):

    -3.5217  -0.7322   3.6603   4.3724

          k =-0.3750 1.1250-0.3750 (   773 PWs)   bands (ev):

    -3.0297  -0.6566   2.0147   4.0584

          k =-0.3750-0.6250-0.3750 (   773 PWs)   bands (ev):

    -3.5217  -0.7322   3.6603   4.3724

          k =-0.3750-0.1250-0.3750 (   781 PWs)   bands (ev):

    -4.6495   1.3269   3.6435   5.1367

          k =-0.3750 0.1250-0.1250 (   781 PWs)   bands (ev):

    -5.1441   2.6928   4.6158   4.6749

          k =-0.3750 0.6250-0.1250 (   775 PWs)   bands (ev):

    -3.7096   0.1238   2.6616   4.0212

          k =-0.1250 0.3750-0.1250 (   781 PWs)   bands (ev):

    -5.1441   2.6928   4.6158   4.6749

          k =-0.1250 0.8750-0.1250 (   766 PWs)   bands (ev):

    -2.6607  -0.8680   2.5639   3.2850

          k =-0.1250-0.3750-0.1250 (   781 PWs)   bands (ev):

    -5.1441   2.6928   4.6158   4.6749

          k =-0.1250 0.1250-0.1250 (   779 PWs)   bands (ev):

    -5.6679   4.3049   5.6146   5.6146

          k =-0.1250-0.6250 0.1250 (   775 PWs)   bands (ev):

    -4.1209   0.9855   3.2997   3.7485

          k =-0.1250-0.1250 0.1250 (   779 PWs)   bands (ev):

    -5.6679   4.3049   5.6146   5.6146

          k = 0.6250-0.1250-0.1250 (   775 PWs)   bands (ev):

    -4.1209   0.9855   3.2997   3.7485

          k = 0.6250 0.3750-0.1250 (   775 PWs)   bands (ev):

    -3.7096   0.1238   2.6616   4.0212

          k = 0.6250 0.1250 0.1250 (   775 PWs)   bands (ev):

    -4.1209   0.9855   3.2997   3.7485

          k = 0.6250 0.6250 0.1250 (   773 PWs)   bands (ev):

    -3.0297  -0.6566   2.0147   4.0584

          k =-0.8750 0.1250-0.6250 (   762 PWs)   bands (ev):

    -2.4964  -0.9635   1.9600   3.0267

          k =-0.8750 0.6250-0.6250 (   781 PWs)   bands (ev):

    -4.6495   1.3269   3.6435   5.1367

          k =-0.1250 0.6250-0.8750 (   762 PWs)   bands (ev):

    -2.4964  -0.9635   1.9600   3.0267

          k =-0.1250 1.1250-0.8750 (   766 PWs)   bands (ev):

    -2.6607  -0.8680   2.5639   3.2850

          k =-0.1250 0.8750-0.6250 (   762 PWs)   bands (ev):

    -2.4964  -0.9635   1.9600   3.0267

          k =-0.1250 1.3750-0.6250 (   773 PWs)   bands (ev):

    -3.0297  -0.6566   2.0147   4.0584

          k =-0.1250-0.8750-0.6250 (   762 PWs)   bands (ev):

    -2.4964  -0.9635   1.9600   3.0267

          k =-0.1250-0.3750-0.6250 (   775 PWs)   bands (ev):

    -3.7096   0.1238   2.6616   4.0212

          k = 0.8750-0.6250 0.1250 (   762 PWs)   bands (ev):

    -2.4964  -0.9635   1.9600   3.0267

          k = 0.8750-0.1250 0.1250 (   766 PWs)   bands (ev):

    -2.6607  -0.8680   2.5639   3.2850

          k =-0.6250-0.1250-0.3750 (   775 PWs)   bands (ev):

    -3.7096   0.1238   2.6616   4.0212

          k =-0.6250 0.3750-0.3750 (   773 PWs)   bands (ev):

    -3.5217  -0.7322   3.6603   4.3724

          k = 0.1250 0.3750-0.6250 (   775 PWs)   bands (ev):

    -3.7096   0.1238   2.6616   4.0212

          k = 0.1250 0.8750-0.6250 (   762 PWs)   bands (ev):

    -2.4964  -0.9635   1.9600   3.0267

          k = 0.1250 0.6250-0.3750 (   775 PWs)   bands (ev):

    -3.7096   0.1238   2.6616   4.0212

          k = 0.1250 1.1250-0.3750 (   762 PWs)   bands (ev):

    -2.4964  -0.9635   1.9600   3.0267

          k = 0.1250-0.6250-0.3750 (   775 PWs)   bands (ev):

    -3.7096   0.1238   2.6616   4.0212

          k = 0.1250-0.1250-0.3750 (   781 PWs)   bands (ev):

    -5.1441   2.6928   4.6158   4.6749

          k = 0.6250-0.3750-0.1250 (   775 PWs)   bands (ev):

    -3.7096   0.1238   2.6616   4.0212

          k = 0.6250 0.1250-0.1250 (   775 PWs)   bands (ev):

    -4.1209   0.9855   3.2997   3.7485

          k =-0.1250 0.8750 0.1250 (   766 PWs)   bands (ev):

    -2.6607  -0.8680   2.5639   3.2850

          k =-0.1250 1.3750 0.1250 (   775 PWs)   bands (ev):

    -4.1209   0.9855   3.2997   3.7485

          k =-0.8750-0.1250-0.1250 (   766 PWs)   bands (ev):

    -2.6607  -0.8680   2.5639   3.2850

          k =-0.8750 0.3750-0.1250 (   762 PWs)   bands (ev):

    -2.4964  -0.9635   1.9600   3.0267

          k =-0.8750 0.1250 0.1250 (   766 PWs)   bands (ev):

    -2.6607  -0.8680   2.5639   3.2850

          k =-0.8750 0.6250 0.1250 (   762 PWs)   bands (ev):

    -2.4964  -0.9635   1.9600   3.0267

          k =-0.3750-0.3750 0.3750 (   769 PWs)   bands (ev):

    -4.2209   0.0501   4.8323   4.8323

          k =-0.3750 0.1250 0.3750 (   781 PWs)   bands (ev):

    -4.6495   1.3269   3.6435   5.1367

          k =-1.1250 0.3750-0.3750 (   773 PWs)   bands (ev):

    -3.0297  -0.6566   2.0147   4.0584

          k =-1.1250 0.8750-0.3750 (   775 PWs)   bands (ev):

    -4.1209   0.9855   3.2997   3.7485

          k =-0.3750 1.1250-0.3750 (   773 PWs)   bands (ev):

    -3.0297  -0.6566   2.0147   4.0584

          k =-0.3750 1.6250-0.3750 (   769 PWs)   bands (ev):

    -4.2209   0.0501   4.8323   4.8323

          k =-0.3750-1.1250-0.3750 (   773 PWs)   bands (ev):

    -3.0297  -0.6566   2.0147   4.0584

          k =-0.3750-0.6250-0.3750 (   773 PWs)   bands (ev):

    -3.5217  -0.7322   3.6603   4.3724

     highest occupied level (ev):     5.6146

     Writing output data file silicon.10.362.save

                                                                                

     bravais-lattice index     =            2
     lattice parameter (alat)  =      10.3620  a.u.
     unit-cell volume          =     278.1447 (a.u.)^3
     number of atoms/cell      =            2
     number of atomic types    =            1
     kinetic-energy cut-off    =      30.0000  Ry
     charge density cut-off    =     240.0000  Ry
     convergence threshold     =      1.0E-12
     beta                      =       0.7000
     number of iterations used =            4
     Exchange-correlation      = SLA  PW   PBE  PBE ( 1  4  3  4 0 0)


     celldm(1)=   10.36200  celldm(2)=    0.00000  celldm(3)=    0.00000
     celldm(4)=    0.00000  celldm(5)=    0.00000  celldm(6)=    0.00000

     crystal axes: (cart. coord. in units of alat)
               a(1) = ( -0.5000  0.0000  0.5000 )  
               a(2) = (  0.0000  0.5000  0.5000 )  
               a(3) = ( -0.5000  0.5000  0.0000 )  

     reciprocal axes: (cart. coord. in units 2 pi/alat)
               b(1) = ( -1.0000 -1.0000  1.0000 )  
               b(2) = (  1.0000  1.0000  1.0000 )  
               b(3) = ( -1.0000  1.0000 -1.0000 )  


     Atoms inside the unit cell: 

     Cartesian axes

     site n.  atom      mass           positions (alat units)
        1     Si  28.0860   tau(    1) = (    0.00000    0.00000    0.00000  )
        2     Si  28.0860   tau(    2) = (    0.25000    0.25000    0.25000  )

     Computing dynamical matrix for 
                    q = (   0.0000000   0.5000000   0.0000000 )

      8 Sym.Ops. (no q -> -q+G )


     G cutoff =  652.7377  (   4369 G-vectors)     FFT grid: ( 40, 40, 40)
     G cutoff =  326.3688  (   1545 G-vectors)  smooth grid: ( 25, 25, 25)
     number of k points=    80

     PseudoPot. # 1 for Si read from file:
     /home/s1333534/quantum_espresso/qe-6.1/pseudo/si_pbe_v1.uspp.F.UPF.txt
     MD5 check sum: a056efeee980c13900f22a371efd63c1
     Pseudo is Ultrasoft + core correction, Zval =  4.0
     Generated by new atomic code, or converted to UPF format
     Using radial grid of  899 points,  6 beta functions with: 
                l(1) =   0
                l(2) =   0
                l(3) =   1
                l(4) =   1
                l(5) =   2
                l(6) =   2
     Q(r) pseudized with  8 coefficients,  rinner =    0.900   0.900   0.900
                                                       0.900   0.900

     Mode symmetry, C_4v (4mm)  point group:


     Atomic displacements:
     There are   4 irreducible representations

     Representation     1      1 modes -A_1  G_1 D_1  To be done

     Representation     2      1 modes -B_2  G_4 D_2'  To be done

     Representation     3      2 modes -E    G_5 D_5  To be done

     Representation     4      2 modes -E    G_5 D_5  To be done



     Alpha used in Ewald sum =   2.5000
     PHONON       :    40.10s CPU        53.60s WALL



     Representation #  1 mode #   1

     Self-consistent Calculation

      iter #   1 total cpu time :    54.2 secs   av.it.:   6.2
      thresh= 1.000E-02 alpha_mix =  0.700 |ddv_scf|^2 =  3.710E-04

      iter #   2 total cpu time :    54.7 secs   av.it.:   9.5
      thresh= 1.926E-03 alpha_mix =  0.700 |ddv_scf|^2 =  4.945E-03

      iter #   3 total cpu time :    55.1 secs   av.it.:   7.5
      thresh= 7.032E-03 alpha_mix =  0.700 |ddv_scf|^2 =  7.270E-09

      iter #   4 total cpu time :    55.7 secs   av.it.:  10.3
      thresh= 8.526E-06 alpha_mix =  0.700 |ddv_scf|^2 =  7.436E-10

      iter #   5 total cpu time :    56.2 secs   av.it.:   9.8
      thresh= 2.727E-06 alpha_mix =  0.700 |ddv_scf|^2 =  7.995E-11

      iter #   6 total cpu time :    56.7 secs   av.it.:   9.5
      thresh= 8.941E-07 alpha_mix =  0.700 |ddv_scf|^2 =  2.274E-13

     End of self-consistent calculation

     Convergence has been achieved 


     Representation #  2 mode #   2

     Self-consistent Calculation

      iter #   1 total cpu time :    57.2 secs   av.it.:   5.1
      thresh= 1.000E-02 alpha_mix =  0.700 |ddv_scf|^2 =  5.890E-07

      iter #   2 total cpu time :    57.8 secs   av.it.:  10.6
      thresh= 7.675E-05 alpha_mix =  0.700 |ddv_scf|^2 =  1.638E-07

      iter #   3 total cpu time :    58.3 secs   av.it.:  10.2
      thresh= 4.047E-05 alpha_mix =  0.700 |ddv_scf|^2 =  1.680E-09

      iter #   4 total cpu time :    58.8 secs   av.it.:  10.3
      thresh= 4.099E-06 alpha_mix =  0.700 |ddv_scf|^2 =  6.723E-11

      iter #   5 total cpu time :    59.3 secs   av.it.:  10.5
      thresh= 8.199E-07 alpha_mix =  0.700 |ddv_scf|^2 =  3.874E-13

     End of self-consistent calculation

     Convergence has been achieved 


     Representation #  3 modes #   3  4

     Self-consistent Calculation

      iter #   1 total cpu time :    60.1 secs   av.it.:   5.2
      thresh= 1.000E-02 alpha_mix =  0.700 |ddv_scf|^2 =  1.043E-07

      iter #   2 total cpu time :    61.1 secs   av.it.:  11.7
      thresh= 3.229E-05 alpha_mix =  0.700 |ddv_scf|^2 =  1.439E-08

      iter #   3 total cpu time :    62.2 secs   av.it.:  11.3
      thresh= 1.200E-05 alpha_mix =  0.700 |ddv_scf|^2 =  2.422E-10

      iter #   4 total cpu time :    63.0 secs   av.it.:  10.8
      thresh= 1.556E-06 alpha_mix =  0.700 |ddv_scf|^2 =  5.750E-13

     End of self-consistent calculation

     Convergence has been achieved 


     Representation #  4 modes #   5  6

     Self-consistent Calculation

      iter #   1 total cpu time :    63.9 secs   av.it.:   5.3
      thresh= 1.000E-02 alpha_mix =  0.700 |ddv_scf|^2 =  9.555E-08

      iter #   2 total cpu time :    64.9 secs   av.it.:  11.6
      thresh= 3.091E-05 alpha_mix =  0.700 |ddv_scf|^2 =  1.285E-08

      iter #   3 total cpu time :    66.0 secs   av.it.:  11.4
      thresh= 1.133E-05 alpha_mix =  0.700 |ddv_scf|^2 =  2.475E-10

      iter #   4 total cpu time :    66.9 secs   av.it.:  11.1
      thresh= 1.573E-06 alpha_mix =  0.700 |ddv_scf|^2 =  6.143E-13

     End of self-consistent calculation

     Convergence has been achieved 

     Number of q in the star =    6
     List of q in the star:
          1   0.000000000   0.500000000   0.000000000
          2   0.000000000  -0.500000000   0.000000000
          3   0.500000000   0.000000000   0.000000000
          4   0.000000000   0.000000000   0.500000000
          5   0.000000000   0.000000000  -0.500000000
          6  -0.500000000   0.000000000   0.000000000

     Diagonalizing the dynamical matrix

     q = (    0.000000000   0.500000000   0.000000000 ) 

 **************************************************************************
     freq (    1) =       3.788737 [THz] =     126.378676 [cm-1]
     freq (    2) =       3.788737 [THz] =     126.378676 [cm-1]
     freq (    3) =       6.997942 [THz] =     233.426205 [cm-1]
     freq (    4) =      13.676660 [THz] =     456.204257 [cm-1]
     freq (    5) =      13.676660 [THz] =     456.204257 [cm-1]
     freq (    6) =      14.339760 [THz] =     478.322899 [cm-1]
 **************************************************************************

     Mode symmetry, C_4v (4mm)  point group:

     freq (  1 -  2) =        126.4  [cm-1]   --> E    G_5 D_5       
     freq (  3 -  3) =        233.4  [cm-1]   --> A_1  G_1 D_1       
     freq (  4 -  5) =        456.2  [cm-1]   --> E    G_5 D_5       
     freq (  6 -  6) =        478.3  [cm-1]   --> B_2  G_4 D_2'      

     Calculation of q =    0.7500000  -0.2500000   0.7500000

   Info: using nr1, nr2, nr3 values from input

   Info: using nr1, nr2, nr3 values from input

     Parallelization info
     --------------------
     sticks:   dense  smooth     PW     G-vecs:    dense   smooth      PW
     Min         222     109     40                 4369     1545     362
     Max         223     110     41                 4370     1546     366
     Sum         889     439    163                17477     6183    1459



     bravais-lattice index     =            2
     lattice parameter (alat)  =      10.3620  a.u.
     unit-cell volume          =     278.1447 (a.u.)^3
     number of atoms/cell      =            2
     number of atomic types    =            1
     number of electrons       =         8.00
     number of Kohn-Sham states=            4
     kinetic-energy cutoff     =      30.0000  Ry
     charge density cutoff     =     240.0000  Ry
     Exchange-correlation      = SLA  PW   PBE  PBE ( 1  4  3  4 0 0)

     celldm(1)=  10.362000  celldm(2)=   0.000000  celldm(3)=   0.000000
     celldm(4)=   0.000000  celldm(5)=   0.000000  celldm(6)=   0.000000

     crystal axes: (cart. coord. in units of alat)
               a(1) = (  -0.500000   0.000000   0.500000 )  
               a(2) = (   0.000000   0.500000   0.500000 )  
               a(3) = (  -0.500000   0.500000   0.000000 )  

     reciprocal axes: (cart. coord. in units 2 pi/alat)
               b(1) = ( -1.000000 -1.000000  1.000000 )  
               b(2) = (  1.000000  1.000000  1.000000 )  
               b(3) = ( -1.000000  1.000000 -1.000000 )  


     PseudoPot. # 1 for Si read from file:
     /home/s1333534/quantum_espresso/qe-6.1/pseudo/si_pbe_v1.uspp.F.UPF.txt
     MD5 check sum: a056efeee980c13900f22a371efd63c1
     Pseudo is Ultrasoft + core correction, Zval =  4.0
     Generated by new atomic code, or converted to UPF format
     Using radial grid of  899 points,  6 beta functions with: 
                l(1) =   0
                l(2) =   0
                l(3) =   1
                l(4) =   1
                l(5) =   2
                l(6) =   2
     Q(r) pseudized with  8 coefficients,  rinner =    0.900   0.900   0.900
                                                       0.900   0.900

     atomic species   valence    mass     pseudopotential
        Si             4.00    28.08600     Si( 1.00)

     48 Sym. Ops., with inversion, found



   Cartesian axes

     site n.     atom                  positions (alat units)
         1           Si  tau(   1) = (   0.0000000   0.0000000   0.0000000  )
         2           Si  tau(   2) = (   0.2500000   0.2500000   0.2500000  )

     number of k points=   288

     Number of k-points >= 100: set verbosity='high' to print them.

     Dense  grid:    17477 G-vectors     FFT dimensions: (  40,  40,  40)

     Smooth grid:     6183 G-vectors     FFT dimensions: (  25,  25,  25)

     Estimated max dynamical RAM per process >       1.79MB

     Estimated total allocated dynamical RAM >       7.17MB

     The potential is recalculated from file :
     ./_ph0/silicon.10.362.save/charge-density.dat

     Starting wfc are    8 atomic wfcs

     Band Structure Calculation
     Davidson diagonalization with overlap

     ethr =  1.25E-10,  avg # of iterations = 12.1

     total cpu time spent up to now is        6.8 secs

     End of band structure calculation

     Number of k-points >= 100: set verbosity='high' to print the bands.

     highest occupied level (ev):     5.6146

     Writing output data file silicon.10.362.save

                                                                                

     bravais-lattice index     =            2
     lattice parameter (alat)  =      10.3620  a.u.
     unit-cell volume          =     278.1447 (a.u.)^3
     number of atoms/cell      =            2
     number of atomic types    =            1
     kinetic-energy cut-off    =      30.0000  Ry
     charge density cut-off    =     240.0000  Ry
     convergence threshold     =      1.0E-12
     beta                      =       0.7000
     number of iterations used =            4
     Exchange-correlation      = SLA  PW   PBE  PBE ( 1  4  3  4 0 0)


     celldm(1)=   10.36200  celldm(2)=    0.00000  celldm(3)=    0.00000
     celldm(4)=    0.00000  celldm(5)=    0.00000  celldm(6)=    0.00000

     crystal axes: (cart. coord. in units of alat)
               a(1) = ( -0.5000  0.0000  0.5000 )  
               a(2) = (  0.0000  0.5000  0.5000 )  
               a(3) = ( -0.5000  0.5000  0.0000 )  

     reciprocal axes: (cart. coord. in units 2 pi/alat)
               b(1) = ( -1.0000 -1.0000  1.0000 )  
               b(2) = (  1.0000  1.0000  1.0000 )  
               b(3) = ( -1.0000  1.0000 -1.0000 )  


     Atoms inside the unit cell: 

     Cartesian axes

     site n.  atom      mass           positions (alat units)
        1     Si  28.0860   tau(    1) = (    0.00000    0.00000    0.00000  )
        2     Si  28.0860   tau(    2) = (    0.25000    0.25000    0.25000  )

     Computing dynamical matrix for 
                    q = (   0.7500000  -0.2500000   0.7500000 )

      2 Sym.Ops. (no q -> -q+G )


     G cutoff =  652.7377  (   4369 G-vectors)     FFT grid: ( 40, 40, 40)
     G cutoff =  326.3688  (   1546 G-vectors)  smooth grid: ( 25, 25, 25)
     number of k points=   288

     PseudoPot. # 1 for Si read from file:
     /home/s1333534/quantum_espresso/qe-6.1/pseudo/si_pbe_v1.uspp.F.UPF.txt
     MD5 check sum: a056efeee980c13900f22a371efd63c1
     Pseudo is Ultrasoft + core correction, Zval =  4.0
     Generated by new atomic code, or converted to UPF format
     Using radial grid of  899 points,  6 beta functions with: 
                l(1) =   0
                l(2) =   0
                l(3) =   1
                l(4) =   1
                l(5) =   2
                l(6) =   2
     Q(r) pseudized with  8 coefficients,  rinner =    0.900   0.900   0.900
                                                       0.900   0.900

     Mode symmetry, C_s (m)     point group:


     Atomic displacements:
     There are   6 irreducible representations

     Representation     1      1 modes -A'  To be done

     Representation     2      1 modes -A'  To be done

     Representation     3      1 modes -A'  To be done

     Representation     4      1 modes -A'  To be done

     Representation     5      1 modes -A''  To be done

     Representation     6      1 modes -A''  To be done



     Alpha used in Ewald sum =   2.5000
     PHONON       :  0m54.73s CPU     1m12.27s WALL



     Representation #  1 mode #   1

     Self-consistent Calculation

      iter #   1 total cpu time :    73.2 secs   av.it.:   5.6
      thresh= 1.000E-02 alpha_mix =  0.700 |ddv_scf|^2 =  7.574E-06

      iter #   2 total cpu time :    74.6 secs   av.it.:  10.7
      thresh= 2.752E-04 alpha_mix =  0.700 |ddv_scf|^2 =  2.034E-05

      iter #   3 total cpu time :    75.8 secs   av.it.:   9.4
      thresh= 4.510E-04 alpha_mix =  0.700 |ddv_scf|^2 =  1.361E-07

      iter #   4 total cpu time :    77.2 secs   av.it.:  10.1
      thresh= 3.689E-05 alpha_mix =  0.700 |ddv_scf|^2 =  2.744E-09

      iter #   5 total cpu time :    78.6 secs   av.it.:  10.6
      thresh= 5.238E-06 alpha_mix =  0.700 |ddv_scf|^2 =  4.658E-10

      iter #   6 total cpu time :    80.1 secs   av.it.:  10.6
      thresh= 2.158E-06 alpha_mix =  0.700 |ddv_scf|^2 =  7.415E-12

      iter #   7 total cpu time :    81.4 secs   av.it.:  10.8
      thresh= 2.723E-07 alpha_mix =  0.700 |ddv_scf|^2 =  2.861E-13

     End of self-consistent calculation

     Convergence has been achieved 


     Representation #  2 mode #   2

     Self-consistent Calculation

      iter #   1 total cpu time :    82.5 secs   av.it.:   5.8
      thresh= 1.000E-02 alpha_mix =  0.700 |ddv_scf|^2 =  1.354E-05

      iter #   2 total cpu time :    83.9 secs   av.it.:  10.6
      thresh= 3.680E-04 alpha_mix =  0.700 |ddv_scf|^2 =  3.940E-05

      iter #   3 total cpu time :    85.1 secs   av.it.:   9.2
      thresh= 6.277E-04 alpha_mix =  0.700 |ddv_scf|^2 =  9.297E-08

      iter #   4 total cpu time :    86.5 secs   av.it.:  10.4
      thresh= 3.049E-05 alpha_mix =  0.700 |ddv_scf|^2 =  3.103E-09

      iter #   5 total cpu time :    87.9 secs   av.it.:  10.6
      thresh= 5.571E-06 alpha_mix =  0.700 |ddv_scf|^2 =  6.315E-10

      iter #   6 total cpu time :    89.3 secs   av.it.:  10.5
      thresh= 2.513E-06 alpha_mix =  0.700 |ddv_scf|^2 =  6.620E-12

      iter #   7 total cpu time :    90.7 secs   av.it.:  10.8
      thresh= 2.573E-07 alpha_mix =  0.700 |ddv_scf|^2 =  2.386E-13

     End of self-consistent calculation

     Convergence has been achieved 


     Representation #  3 mode #   3

     Self-consistent Calculation

      iter #   1 total cpu time :    91.8 secs   av.it.:   5.7
      thresh= 1.000E-02 alpha_mix =  0.700 |ddv_scf|^2 =  1.060E-05

      iter #   2 total cpu time :    93.2 secs   av.it.:  10.7
      thresh= 3.256E-04 alpha_mix =  0.700 |ddv_scf|^2 =  2.896E-05

      iter #   3 total cpu time :    94.5 secs   av.it.:   9.2
      thresh= 5.381E-04 alpha_mix =  0.700 |ddv_scf|^2 =  1.619E-07

      iter #   4 total cpu time :    95.8 secs   av.it.:  10.1
      thresh= 4.023E-05 alpha_mix =  0.700 |ddv_scf|^2 =  3.162E-09

      iter #   5 total cpu time :    97.4 secs   av.it.:  10.7
      thresh= 5.623E-06 alpha_mix =  0.700 |ddv_scf|^2 =  6.198E-10

      iter #   6 total cpu time :    99.0 secs   av.it.:  10.5
      thresh= 2.490E-06 alpha_mix =  0.700 |ddv_scf|^2 =  4.611E-12

      iter #   7 total cpu time :   100.3 secs   av.it.:  10.7
      thresh= 2.147E-07 alpha_mix =  0.700 |ddv_scf|^2 =  1.361E-13

     End of self-consistent calculation

     Convergence has been achieved 


     Representation #  4 mode #   4

     Self-consistent Calculation

      iter #   1 total cpu time :   101.4 secs   av.it.:   5.5
      thresh= 1.000E-02 alpha_mix =  0.700 |ddv_scf|^2 =  4.635E-06

      iter #   2 total cpu time :   102.8 secs   av.it.:  10.9
      thresh= 2.153E-04 alpha_mix =  0.700 |ddv_scf|^2 =  9.879E-06

      iter #   3 total cpu time :   104.3 secs   av.it.:   9.7
      thresh= 3.143E-04 alpha_mix =  0.700 |ddv_scf|^2 =  2.137E-07

      iter #   4 total cpu time :   105.6 secs   av.it.:  10.0
      thresh= 4.622E-05 alpha_mix =  0.700 |ddv_scf|^2 =  2.711E-09

      iter #   5 total cpu time :   106.9 secs   av.it.:  10.7
      thresh= 5.206E-06 alpha_mix =  0.700 |ddv_scf|^2 =  5.067E-10

      iter #   6 total cpu time :   108.3 secs   av.it.:  10.5
      thresh= 2.251E-06 alpha_mix =  0.700 |ddv_scf|^2 =  3.109E-12

      iter #   7 total cpu time :   109.7 secs   av.it.:  10.8
      thresh= 1.763E-07 alpha_mix =  0.700 |ddv_scf|^2 =  1.457E-13

     End of self-consistent calculation

     Convergence has been achieved 


     Representation #  5 mode #   5

     Self-consistent Calculation

      iter #   1 total cpu time :   110.7 secs   av.it.:   5.2
      thresh= 1.000E-02 alpha_mix =  0.700 |ddv_scf|^2 =  4.816E-07

      iter #   2 total cpu time :   112.1 secs   av.it.:  10.4
      thresh= 6.940E-05 alpha_mix =  0.700 |ddv_scf|^2 =  7.867E-08

      iter #   3 total cpu time :   113.4 secs   av.it.:  10.2
      thresh= 2.805E-05 alpha_mix =  0.700 |ddv_scf|^2 =  1.048E-09

      iter #   4 total cpu time :   114.7 secs   av.it.:   9.8
      thresh= 3.238E-06 alpha_mix =  0.700 |ddv_scf|^2 =  2.473E-12

      iter #   5 total cpu time :   116.0 secs   av.it.:  10.3
      thresh= 1.572E-07 alpha_mix =  0.700 |ddv_scf|^2 =  7.017E-14

     End of self-consistent calculation

     Convergence has been achieved 


     Representation #  6 mode #   6

     Self-consistent Calculation

      iter #   1 total cpu time :   117.1 secs   av.it.:   5.2
      thresh= 1.000E-02 alpha_mix =  0.700 |ddv_scf|^2 =  4.816E-07

      iter #   2 total cpu time :   118.5 secs   av.it.:  10.4
[...]
        k(   59) = (  -0.8750000   0.1250000  -0.1250000), wk =   0.0625000
        k(   60) = (  -1.3750000  -0.8750000  -0.1250000), wk =   0.0000000
        k(   61) = (  -1.1250000   0.3750000  -0.3750000), wk =   0.0625000
        k(   62) = (  -1.6250000  -0.6250000  -0.3750000), wk =   0.0000000
        k(   63) = (  -0.3750000   0.3750000   1.1250000), wk =   0.0625000
        k(   64) = (  -0.8750000  -0.6250000   1.1250000), wk =   0.0000000

     Dense  grid:    17477 G-vectors     FFT dimensions: (  40,  40,  40)

     Smooth grid:     6183 G-vectors     FFT dimensions: (  25,  25,  25)

     Estimated max dynamical RAM per process >       1.79MB

     Estimated total allocated dynamical RAM >       7.17MB

     The potential is recalculated from file :
     ./_ph0/silicon.10.362.save/charge-density.dat

     Starting wfc are    8 atomic wfcs

     Band Structure Calculation
     Davidson diagonalization with overlap

     ethr =  1.25E-10,  avg # of iterations = 12.1

     total cpu time spent up to now is       10.7 secs

     End of band structure calculation

          k =-0.1250 0.1250 0.1250 (   779 PWs)   bands (ev):

    -5.6679   4.3049   5.6146   5.6146

          k =-0.6250-0.8750 0.1250 (   762 PWs)   bands (ev):

    -2.4964  -0.9635   1.9600   3.0267

          k =-0.3750 0.3750-0.1250 (   781 PWs)   bands (ev):

    -4.6495   1.3269   3.6435   5.1367

          k =-0.8750-0.6250-0.1250 (   762 PWs)   bands (ev):

    -2.4964  -0.9635   1.9600   3.0267

          k = 0.3750-0.3750 0.6250 (   773 PWs)   bands (ev):

    -3.5217  -0.7322   3.6603   4.3724

          k =-0.1250-1.3750 0.6250 (   773 PWs)   bands (ev):

    -3.0297  -0.6566   2.0147   4.0584

          k = 0.1250-0.1250 0.3750 (   781 PWs)   bands (ev):

    -5.1441   2.6928   4.6158   4.6749

          k =-0.3750-1.1250 0.3750 (   773 PWs)   bands (ev):

    -3.0297  -0.6566   2.0147   4.0584

          k =-0.1250 0.6250 0.1250 (   775 PWs)   bands (ev):

    -4.1209   0.9855   3.2997   3.7485

          k =-0.6250-0.3750 0.1250 (   775 PWs)   bands (ev):

    -3.7096   0.1238   2.6616   4.0212

          k = 0.6250-0.1250 0.8750 (   762 PWs)   bands (ev):

    -2.4964  -0.9635   1.9600   3.0267

          k = 0.1250-1.1250 0.8750 (   766 PWs)   bands (ev):

    -2.6607  -0.8680   2.5639   3.2850

          k = 0.3750 0.1250 0.6250 (   775 PWs)   bands (ev):

    -3.7096   0.1238   2.6616   4.0212

          k =-0.1250-0.8750 0.6250 (   762 PWs)   bands (ev):

    -2.4964  -0.9635   1.9600   3.0267

          k =-0.1250-0.8750 0.1250 (   766 PWs)   bands (ev):

    -2.6607  -0.8680   2.5639   3.2850

          k =-0.6250-1.8750 0.1250 (   775 PWs)   bands (ev):

    -4.1209   0.9855   3.2997   3.7485

          k =-0.3750 0.3750 0.3750 (   769 PWs)   bands (ev):

    -4.2209   0.0501   4.8323   4.8323

          k =-0.8750-0.6250 0.3750 (   775 PWs)   bands (ev):

    -3.7096   0.1238   2.6616   4.0212

          k = 0.3750-0.3750 1.1250 (   773 PWs)   bands (ev):

    -3.0297  -0.6566   2.0147   4.0584

          k =-0.1250-1.3750 1.1250 (   762 PWs)   bands (ev):

    -2.4964  -0.9635   1.9600   3.0267

          k = 0.1250-0.3750 0.3750 (   781 PWs)   bands (ev):

    -4.6495   1.3269   3.6435   5.1367

          k =-0.3750-1.3750 0.3750 (   773 PWs)   bands (ev):

    -3.5217  -0.7322   3.6603   4.3724

          k = 0.3750-0.3750-0.1250 (   781 PWs)   bands (ev):

    -4.6495   1.3269   3.6435   5.1367

          k =-0.1250-1.3750-0.1250 (   775 PWs)   bands (ev):

    -4.1209   0.9855   3.2997   3.7485

          k =-0.6250 0.3750-0.3750 (   773 PWs)   bands (ev):

    -3.5217  -0.7322   3.6603   4.3724

          k =-1.1250-0.6250-0.3750 (   775 PWs)   bands (ev):

    -3.7096   0.1238   2.6616   4.0212

          k =-0.3750 0.3750 0.6250 (   773 PWs)   bands (ev):

    -3.5217  -0.7322   3.6603   4.3724

          k =-0.8750-0.6250 0.6250 (   781 PWs)   bands (ev):

    -4.6495   1.3269   3.6435   5.1367

          k =-0.3750 0.1250-0.1250 (   781 PWs)   bands (ev):

    -5.1441   2.6928   4.6158   4.6749

          k =-0.8750-0.8750-0.1250 (   766 PWs)   bands (ev):

    -2.6607  -0.8680   2.5639   3.2850

          k =-0.1250 0.1250 0.3750 (   781 PWs)   bands (ev):

    -5.1441   2.6928   4.6158   4.6749

          k =-0.6250-0.8750 0.3750 (   775 PWs)   bands (ev):

    -3.7096   0.1238   2.6616   4.0212

          k = 0.1250 0.6250-0.1250 (   775 PWs)   bands (ev):

    -4.1209   0.9855   3.2997   3.7485

          k =-0.3750-0.3750-0.1250 (   781 PWs)   bands (ev):

    -4.6495   1.3269   3.6435   5.1367

          k = 0.6250 0.1250-0.1250 (   775 PWs)   bands (ev):

    -4.1209   0.9855   3.2997   3.7485

          k = 0.1250-0.8750-0.1250 (   766 PWs)   bands (ev):

    -2.6607  -0.8680   2.5639   3.2850

          k =-0.8750 0.1250-0.6250 (   762 PWs)   bands (ev):

    -2.4964  -0.9635   1.9600   3.0267

          k =-1.3750-0.8750-0.6250 (   781 PWs)   bands (ev):

    -4.6495   1.3269   3.6435   5.1367

          k = 0.8750-0.1250 0.6250 (   762 PWs)   bands (ev):

    -2.4964  -0.9635   1.9600   3.0267

          k = 0.3750-1.1250 0.6250 (   775 PWs)   bands (ev):

    -3.7096   0.1238   2.6616   4.0212

          k =-0.6250 0.1250 0.8750 (   762 PWs)   bands (ev):

    -2.4964  -0.9635   1.9600   3.0267

          k =-1.1250-0.8750 0.8750 (   779 PWs)   bands (ev):

    -5.6679   4.3049   5.6146   5.6146

          k =-0.1250 0.8750 0.6250 (   762 PWs)   bands (ev):

    -2.4964  -0.9635   1.9600   3.0267

          k =-0.6250-0.1250 0.6250 (   773 PWs)   bands (ev):

    -3.0297  -0.6566   2.0147   4.0584

          k = 0.1250 0.8750-0.6250 (   762 PWs)   bands (ev):

    -2.4964  -0.9635   1.9600   3.0267

          k =-0.3750-0.1250-0.6250 (   775 PWs)   bands (ev):

    -3.7096   0.1238   2.6616   4.0212

          k =-0.6250-0.1250-0.3750 (   775 PWs)   bands (ev):

    -3.7096   0.1238   2.6616   4.0212

          k =-1.1250-1.1250-0.3750 (   775 PWs)   bands (ev):

    -4.1209   0.9855   3.2997   3.7485

          k = 0.6250 0.1250 0.3750 (   775 PWs)   bands (ev):

    -3.7096   0.1238   2.6616   4.0212

          k = 0.1250-0.8750 0.3750 (   762 PWs)   bands (ev):

    -2.4964  -0.9635   1.9600   3.0267

          k =-0.3750-0.1250 0.6250 (   775 PWs)   bands (ev):

    -3.7096   0.1238   2.6616   4.0212

          k =-0.8750-1.1250 0.6250 (   781 PWs)   bands (ev):

    -5.1441   2.6928   4.6158   4.6749

          k = 0.1250 0.6250 0.3750 (   775 PWs)   bands (ev):

    -3.7096   0.1238   2.6616   4.0212

          k =-0.3750-0.3750 0.3750 (   769 PWs)   bands (ev):

    -4.2209   0.0501   4.8323   4.8323

          k =-0.1250 0.6250-0.3750 (   775 PWs)   bands (ev):

    -3.7096   0.1238   2.6616   4.0212

          k =-0.6250-0.3750-0.3750 (   773 PWs)   bands (ev):

    -3.5217  -0.7322   3.6603   4.3724

          k = 0.1250-0.8750-0.1250 (   766 PWs)   bands (ev):

    -2.6607  -0.8680   2.5639   3.2850

          k =-0.3750-1.8750-0.1250 (   781 PWs)   bands (ev):

    -5.1441   2.6928   4.6158   4.6749

          k =-0.8750 0.1250-0.1250 (   766 PWs)   bands (ev):

    -2.6607  -0.8680   2.5639   3.2850

          k =-1.3750-0.8750-0.1250 (   762 PWs)   bands (ev):

    -2.4964  -0.9635   1.9600   3.0267

          k =-1.1250 0.3750-0.3750 (   773 PWs)   bands (ev):

    -3.0297  -0.6566   2.0147   4.0584

          k =-1.6250-0.6250-0.3750 (   773 PWs)   bands (ev):

    -3.5217  -0.7322   3.6603   4.3724

          k =-0.3750 0.3750 1.1250 (   773 PWs)   bands (ev):

    -3.0297  -0.6566   2.0147   4.0584

          k =-0.8750-0.6250 1.1250 (   781 PWs)   bands (ev):

    -5.1441   2.6928   4.6158   4.6749

     highest occupied level (ev):     5.6146

     Writing output data file silicon.10.362.save

                                                                                

     bravais-lattice index     =            2
     lattice parameter (alat)  =      10.3620  a.u.
     unit-cell volume          =     278.1447 (a.u.)^3
     number of atoms/cell      =            2
     number of atomic types    =            1
     kinetic-energy cut-off    =      30.0000  Ry
     charge density cut-off    =     240.0000  Ry
     convergence threshold     =      1.0E-12
     beta                      =       0.7000
     number of iterations used =            4
     Exchange-correlation      = SLA  PW   PBE  PBE ( 1  4  3  4 0 0)


     celldm(1)=   10.36200  celldm(2)=    0.00000  celldm(3)=    0.00000
     celldm(4)=    0.00000  celldm(5)=    0.00000  celldm(6)=    0.00000

     crystal axes: (cart. coord. in units of alat)
               a(1) = ( -0.5000  0.0000  0.5000 )  
               a(2) = (  0.0000  0.5000  0.5000 )  
               a(3) = ( -0.5000  0.5000  0.0000 )  

     reciprocal axes: (cart. coord. in units 2 pi/alat)
               b(1) = ( -1.0000 -1.0000  1.0000 )  
               b(2) = (  1.0000  1.0000  1.0000 )  
               b(3) = ( -1.0000  1.0000 -1.0000 )  


     Atoms inside the unit cell: 

     Cartesian axes

     site n.  atom      mass           positions (alat units)
        1     Si  28.0860   tau(    1) = (    0.00000    0.00000    0.00000  )
        2     Si  28.0860   tau(    2) = (    0.25000    0.25000    0.25000  )

     Computing dynamical matrix for 
                    q = (  -0.5000000  -1.0000000   0.0000000 )

      8 Sym.Ops. (no q -> -q+G )


     G cutoff =  652.7377  (   4369 G-vectors)     FFT grid: ( 40, 40, 40)
     G cutoff =  326.3688  (   1546 G-vectors)  smooth grid: ( 25, 25, 25)
     number of k points=    64

     PseudoPot. # 1 for Si read from file:
     /home/s1333534/quantum_espresso/qe-6.1/pseudo/si_pbe_v1.uspp.F.UPF.txt
     MD5 check sum: a056efeee980c13900f22a371efd63c1
     Pseudo is Ultrasoft + core correction, Zval =  4.0
     Generated by new atomic code, or converted to UPF format
     Using radial grid of  899 points,  6 beta functions with: 
                l(1) =   0
                l(2) =   0
                l(3) =   1
                l(4) =   1
                l(5) =   2
                l(6) =   2
     Q(r) pseudized with  8 coefficients,  rinner =    0.900   0.900   0.900
                                                       0.900   0.900


     Atomic displacements:
     There are   3 irreducible representations

     Representation     1      2 modes -  To be done

     Representation     2      2 modes -  To be done

     Representation     3      2 modes -  To be done



     Alpha used in Ewald sum =   2.5000
     PHONON       :  2m 8.26s CPU     2m43.31s WALL



     Representation #  1 modes #   1  2

     Self-consistent Calculation

      iter #   1 total cpu time :   164.1 secs   av.it.:   5.7
      thresh= 1.000E-02 alpha_mix =  0.700 |ddv_scf|^2 =  7.816E-07

      iter #   2 total cpu time :   165.1 secs   av.it.:  11.8
      thresh= 8.841E-05 alpha_mix =  0.700 |ddv_scf|^2 =  4.418E-07

      iter #   3 total cpu time :   166.0 secs   av.it.:  11.3
      thresh= 6.646E-05 alpha_mix =  0.700 |ddv_scf|^2 =  4.274E-10

      iter #   4 total cpu time :   167.2 secs   av.it.:  11.1
      thresh= 2.067E-06 alpha_mix =  0.700 |ddv_scf|^2 =  1.928E-12

      iter #   5 total cpu time :   167.9 secs   av.it.:  11.3
      thresh= 1.389E-07 alpha_mix =  0.700 |ddv_scf|^2 =  5.072E-14

     End of self-consistent calculation

     Convergence has been achieved 


     Representation #  2 modes #   3  4

     Self-consistent Calculation

      iter #   1 total cpu time :   168.8 secs   av.it.:   5.6
      thresh= 1.000E-02 alpha_mix =  0.700 |ddv_scf|^2 =  1.217E-06

      iter #   2 total cpu time :   169.7 secs   av.it.:  11.8
      thresh= 1.103E-04 alpha_mix =  0.700 |ddv_scf|^2 =  1.665E-06

      iter #   3 total cpu time :   170.5 secs   av.it.:  11.0
      thresh= 1.290E-04 alpha_mix =  0.700 |ddv_scf|^2 =  5.109E-10

      iter #   4 total cpu time :   171.3 secs   av.it.:  11.1
      thresh= 2.260E-06 alpha_mix =  0.700 |ddv_scf|^2 =  8.369E-12

      iter #   5 total cpu time :   172.1 secs   av.it.:  11.3
      thresh= 2.893E-07 alpha_mix =  0.700 |ddv_scf|^2 =  1.340E-13

     End of self-consistent calculation

     Convergence has been achieved 


     Representation #  3 modes #   5  6

     Self-consistent Calculation

      iter #   1 total cpu time :   173.1 secs   av.it.:   5.3
      thresh= 1.000E-02 alpha_mix =  0.700 |ddv_scf|^2 =  3.177E-07

      iter #   2 total cpu time :   174.1 secs   av.it.:  11.9
      thresh= 5.637E-05 alpha_mix =  0.700 |ddv_scf|^2 =  1.854E-07

      iter #   3 total cpu time :   175.0 secs   av.it.:  11.2
      thresh= 4.306E-05 alpha_mix =  0.700 |ddv_scf|^2 =  3.700E-10

      iter #   4 total cpu time :   175.8 secs   av.it.:  11.1
      thresh= 1.923E-06 alpha_mix =  0.700 |ddv_scf|^2 =  4.454E-12

      iter #   5 total cpu time :   176.6 secs   av.it.:  11.2
      thresh= 2.110E-07 alpha_mix =  0.700 |ddv_scf|^2 =  6.059E-14

     End of self-consistent calculation

     Convergence has been achieved 

     Number of q in the star =    6
     List of q in the star:
          1  -0.500000000  -1.000000000   0.000000000
          2   0.000000000   1.000000000   0.500000000
          3   0.000000000  -1.000000000  -0.500000000
          4   0.500000000   1.000000000   0.000000000
          5  -1.000000000  -0.500000000   0.000000000
          6   0.000000000  -0.500000000  -1.000000000

     Diagonalizing the dynamical matrix

     q = (   -0.500000000  -1.000000000   0.000000000 ) 

 **************************************************************************
     freq (    1) =       6.042248 [THz] =     201.547698 [cm-1]
     freq (    2) =       6.042248 [THz] =     201.547698 [cm-1]
     freq (    3) =      10.225414 [THz] =     341.083106 [cm-1]
     freq (    4) =      10.225414 [THz] =     341.083106 [cm-1]
     freq (    5) =      13.390631 [THz] =     446.663359 [cm-1]
     freq (    6) =      13.390631 [THz] =     446.663359 [cm-1]
 **************************************************************************

     init_run     :      1.27s CPU      1.33s WALL (       7 calls)
     electrons    :      7.26s CPU      7.88s WALL (       7 calls)

     Called by init_run:
     wfcinit      :      0.00s CPU      0.03s WALL (       7 calls)
     potinit      :      0.10s CPU      0.11s WALL (       7 calls)

     Called by electrons:
     c_bands      :      7.25s CPU      7.88s WALL (       7 calls)
     v_of_rho     :      0.09s CPU      0.09s WALL (       8 calls)
     newd         :      0.12s CPU      0.12s WALL (       8 calls)

     Called by c_bands:
     init_us_2    :      1.66s CPU      1.60s WALL (   15896 calls)
     cegterg      :      6.08s CPU      6.59s WALL (     796 calls)

     Called by sum_band:

     Called by *egterg:
     h_psi        :     70.82s CPU     75.86s WALL (  154762 calls)
     s_psi        :      5.84s CPU      7.01s WALL (  311782 calls)
     g_psi        :      0.05s CPU      0.07s WALL (    9666 calls)
     cdiaghg      :      0.56s CPU      0.55s WALL (   10462 calls)

     Called by h_psi:
     h_psi:pot    :     70.38s CPU     75.35s WALL (  154762 calls)
     h_psi:calbec :      3.46s CPU      4.01s WALL (  154762 calls)
     vloc_psi     :     62.32s CPU     67.17s WALL (  154762 calls)
     add_vuspsi   :      4.26s CPU      3.69s WALL (  154762 calls)

     General routines
     calbec       :      8.14s CPU      8.53s WALL (  346090 calls)
     fft          :      1.98s CPU      2.06s WALL (    5233 calls)
     ffts         :      0.21s CPU      0.23s WALL (    3316 calls)
     fftw         :     64.12s CPU     67.97s WALL ( 1384836 calls)
     interpolate  :      0.28s CPU      0.30s WALL (     568 calls)
     davcio       :      0.34s CPU      1.14s WALL (   69130 calls)

     Parallel routines
     fft_scatter  :     15.26s CPU     19.79s WALL ( 1393385 calls)

     PHONON       :  2m18.08s CPU     2m57.08s WALL

     INITIALIZATION: 
     phq_setup    :      0.29s CPU      0.51s WALL (       8 calls)
     phq_init     :      6.85s CPU      7.20s WALL (       8 calls)

     phq_init     :      6.85s CPU      7.20s WALL (       8 calls)
     set_drhoc    :      1.88s CPU      1.88s WALL (      24 calls)
     init_vloc    :      0.03s CPU      0.03s WALL (       8 calls)
     init_us_1    :      0.98s CPU      0.99s WALL (       8 calls)
     newd         :      0.12s CPU      0.12s WALL (       8 calls)
     dvanqq       :      1.17s CPU      1.19s WALL (       8 calls)
     drho         :      2.63s CPU      2.71s WALL (       8 calls)

     DYNAMICAL MATRIX:
     dynmat0      :      1.77s CPU      1.90s WALL (       8 calls)
     phqscf       :    116.87s CPU    149.93s WALL (       8 calls)
     dynmatrix    :      0.01s CPU      0.18s WALL (       8 calls)

     phqscf       :    116.87s CPU    149.93s WALL (       8 calls)
     solve_linter :    115.99s CPU    146.84s WALL (      32 calls)
     drhodv       :      0.60s CPU      0.63s WALL (      32 calls)

     dynmat0      :      1.77s CPU      1.90s WALL (       8 calls)
     dynmat_us    :      0.38s CPU      0.40s WALL (       8 calls)
     d2ionq       :      0.04s CPU      0.04s WALL (       8 calls)
     dynmatcc     :      1.35s CPU      1.35s WALL (       8 calls)

     dynmat_us    :      0.38s CPU      0.40s WALL (       8 calls)
     addusdynmat  :      0.00s CPU      0.00s WALL (       8 calls)

     phqscf       :    116.87s CPU    149.93s WALL (       8 calls)
     solve_linter :    115.99s CPU    146.84s WALL (      32 calls)

     solve_linter :    115.99s CPU    146.84s WALL (      32 calls)
     dvqpsi_us    :      2.12s CPU      2.27s WALL (    2508 calls)
     ortho        :      0.96s CPU      1.11s WALL (   13486 calls)
     cgsolve      :     78.45s CPU     85.18s WALL (   13486 calls)
     incdrhoscf   :      6.31s CPU      6.90s WALL (   13486 calls)
     addusddens   :      7.16s CPU      7.21s WALL (     200 calls)
     vpsifft      :      4.45s CPU      4.86s WALL (   10858 calls)
     dv_of_drho   :      1.82s CPU      1.87s WALL (     254 calls)
     mix_pot      :      0.38s CPU     12.08s WALL (     173 calls)
     psymdvscf    :      5.92s CPU      6.00s WALL (     168 calls)
     newdq        :      7.88s CPU      7.90s WALL (     173 calls)
     adddvscf     :      0.46s CPU      0.44s WALL (   10978 calls)
     drhodvus     :      0.02s CPU      0.02s WALL (      32 calls)

     dvqpsi_us    :      2.12s CPU      2.27s WALL (    2508 calls)
     dvqpsi_us_on :      0.91s CPU      0.94s WALL (    2508 calls)

     cgsolve      :     78.45s CPU     85.18s WALL (   13486 calls)
     ch_psi       :     77.36s CPU     83.40s WALL (  143504 calls)

     ch_psi       :     77.36s CPU     83.40s WALL (  143504 calls)
     h_psi        :     70.82s CPU     75.86s WALL (  154762 calls)
     last         :      9.08s CPU      9.24s WALL (  143504 calls)

     h_psi        :     70.82s CPU     75.86s WALL (  154762 calls)
     add_vuspsi   :      4.26s CPU      3.69s WALL (  154762 calls)

     incdrhoscf   :      6.31s CPU      6.90s WALL (   13486 calls)
     addusdbec    :      0.48s CPU      0.53s WALL (   15934 calls)

     drhodvus     :      0.02s CPU      0.02s WALL (      32 calls)

      General routines
     calbec       :      8.14s CPU      8.53s WALL (  346090 calls)
     fft          :      1.98s CPU      2.06s WALL (    5233 calls)
     ffts         :      0.21s CPU      0.23s WALL (    3316 calls)
     fftw         :     64.12s CPU     67.97s WALL ( 1384836 calls)
     davcio       :      0.34s CPU      1.14s WALL (   69130 calls)
     write_rec    :      0.24s CPU     13.29s WALL (     205 calls)


     PHONON       :  2m18.08s CPU     2m57.08s WALL


   This run was terminated on:  15:37:15  10Nov2017            

=------------------------------------------------------------------------------=
   JOB DONE.
=------------------------------------------------------------------------------=
