
     Program PHONON v.6.1 (svn rev. 13369) starts on  9Nov2017 at 17:27:11 

     This program is part of the open-source Quantum ESPRESSO suite
     for quantum simulation of materials; please cite
         "P. Giannozzi et al., J. Phys.:Condens. Matter 21 395502 (2009);
          URL http://www.quantum-espresso.org", 
     in publications or presentations arising from this work. More details at
     http://www.quantum-espresso.org/quote

     Parallel version (MPI), running on     4 processors
     R & G space division:  proc/nbgrp/npool/nimage =       4

     Reading data from directory:
     ./silicon.10.397.save

   Info: using nr1, nr2, nr3 values from input

   Info: using nr1, nr2, nr3 values from input

     IMPORTANT: XC functional enforced from input :
     Exchange-correlation      = SLA  PW   PBE  PBE ( 1  4  3  4 0 0)
     Any further DFT definition will be discarded
     Please, verify this is what you really want


     Parallelization info
     --------------------
     sticks:   dense  smooth     PW     G-vecs:    dense   smooth      PW
     Min          66      66     22                  722      722     152
     Max          67      67     23                  724      724     153
     Sum         265     265     91                 2891     2891     609


     Check: negative/imaginary core charge=   -0.000006    0.000000


     Dynamical matrices for ( 4, 4, 4)  uniform grid of q-points
     (   8q-points):
       N         xq(1)         xq(2)         xq(3) 
       1   0.000000000   0.000000000   0.000000000
       2  -0.250000000   0.250000000  -0.250000000
       3   0.500000000  -0.500000000   0.500000000
       4   0.000000000   0.500000000   0.000000000
       5   0.750000000  -0.250000000   0.750000000
       6   0.500000000   0.000000000   0.500000000
       7   0.000000000  -1.000000000   0.000000000
       8  -0.500000000  -1.000000000   0.000000000

     Calculation of q =    0.0000000   0.0000000   0.0000000

                                                                                

     bravais-lattice index     =            2
     lattice parameter (alat)  =      10.3970  a.u.
     unit-cell volume          =     280.9727 (a.u.)^3
     number of atoms/cell      =            2
     number of atomic types    =            1
     kinetic-energy cut-off    =      18.0000  Ry
     charge density cut-off    =      72.0000  Ry
     convergence threshold     =      1.0E-12
     beta                      =       0.7000
     number of iterations used =            4
     Exchange-correlation      = SLA  PW   PBE  PBE ( 1  4  3  4 0 0)


     celldm(1)=   10.39700  celldm(2)=    0.00000  celldm(3)=    0.00000
     celldm(4)=    0.00000  celldm(5)=    0.00000  celldm(6)=    0.00000

     crystal axes: (cart. coord. in units of alat)
               a(1) = ( -0.5000  0.0000  0.5000 )  
               a(2) = (  0.0000  0.5000  0.5000 )  
               a(3) = ( -0.5000  0.5000  0.0000 )  

     reciprocal axes: (cart. coord. in units 2 pi/alat)
               b(1) = ( -1.0000 -1.0000  1.0000 )  
               b(2) = (  1.0000  1.0000  1.0000 )  
               b(3) = ( -1.0000  1.0000 -1.0000 )  


     Atoms inside the unit cell: 

     Cartesian axes

     site n.  atom      mass           positions (alat units)
        1     Si  28.0860   tau(    1) = (    0.00000    0.00000    0.00000  )
        2     Si  28.0860   tau(    2) = (    0.25000    0.25000    0.25000  )

     Computing dynamical matrix for 
                    q = (   0.0000000   0.0000000   0.0000000 )

     49 Sym.Ops. (with q -> -q+G )


     G cutoff =  197.1464  (    722 G-vectors)     FFT grid: ( 20, 20, 20)
     number of k points=    10

     PseudoPot. # 1 for Si read from file:
     /home/max/quantum_espresso/qe-6.1/pseudo/si_pbe_v1.uspp.F.UPF.txt
     MD5 check sum: a056efeee980c13900f22a371efd63c1
     Pseudo is Ultrasoft + core correction, Zval =  4.0
     Generated by new atomic code, or converted to UPF format
     Using radial grid of  899 points,  6 beta functions with: 
                l(1) =   0
                l(2) =   0
                l(3) =   1
                l(4) =   1
                l(5) =   2
                l(6) =   2
     Q(r) pseudized with  8 coefficients,  rinner =    0.900   0.900   0.900
                                                       0.900   0.900

     Mode symmetry, O_h (m-3m)  point group:


     Electric field:
     Dielectric constant
     Born effective charges in two ways 


     Atomic displacements:
     There are   2 irreducible representations

     Representation     1      3 modes -T_2g G_25' G_5+  To be done

     Representation     2      3 modes -T_1u G_15  G_4-  To be done



     Alpha used in Ewald sum =   0.7000
     PHONON       :     0.39s CPU         0.41s WALL


     Electric Fields Calculation

      iter #   1 total cpu time :     0.8 secs   av.it.:   5.6
      thresh= 1.000E-02 alpha_mix =  0.700 |ddv_scf|^2 =  9.557E-07

      iter #   2 total cpu time :     1.1 secs   av.it.:   9.9
      thresh= 9.776E-05 alpha_mix =  0.700 |ddv_scf|^2 =  6.228E-08

      iter #   3 total cpu time :     1.3 secs   av.it.:   9.8
      thresh= 2.496E-05 alpha_mix =  0.700 |ddv_scf|^2 =  4.946E-09

      iter #   4 total cpu time :     1.5 secs   av.it.:   9.0
      thresh= 7.033E-06 alpha_mix =  0.700 |ddv_scf|^2 =  2.996E-11

      iter #   5 total cpu time :     1.6 secs   av.it.:   9.1
      thresh= 5.473E-07 alpha_mix =  0.700 |ddv_scf|^2 =  1.544E-14

     End of electric fields calculation

          Dielectric constant in cartesian axis 

          (      14.012733373       0.000000000       0.000000000 )
          (       0.000000000      14.012733373      -0.000000000 )
          (       0.000000000      -0.000000000      14.012733373 )

          Effective charges (d Force / dE) in cartesian axis

           atom      1   Si 
      Ex  (       -0.03361        0.00000        0.00000 )
      Ey  (        0.00000       -0.03361       -0.00000 )
      Ez  (        0.00000       -0.00000       -0.03361 )
           atom      2   Si 
      Ex  (       -0.03361       -0.00000       -0.00000 )
      Ey  (       -0.00000       -0.03361        0.00000 )
      Ez  (       -0.00000        0.00000       -0.03361 )


     Representation #  1 modes #   1  2  3

     Self-consistent Calculation

      iter #   1 total cpu time :     2.0 secs   av.it.:   4.9
      thresh= 1.000E-02 alpha_mix =  0.700 |ddv_scf|^2 =  1.851E-07

      iter #   2 total cpu time :     2.2 secs   av.it.:  10.0
      thresh= 4.302E-05 alpha_mix =  0.700 |ddv_scf|^2 =  1.022E-08

      iter #   3 total cpu time :     2.4 secs   av.it.:   9.5
      thresh= 1.011E-05 alpha_mix =  0.700 |ddv_scf|^2 =  7.067E-10

      iter #   4 total cpu time :     2.6 secs   av.it.:   9.1
      thresh= 2.658E-06 alpha_mix =  0.700 |ddv_scf|^2 =  1.819E-12

      iter #   5 total cpu time :     2.7 secs   av.it.:   9.4
      thresh= 1.349E-07 alpha_mix =  0.700 |ddv_scf|^2 =  1.537E-14

     End of self-consistent calculation

     Convergence has been achieved 


     Representation #  2 modes #   4  5  6

     Self-consistent Calculation

      iter #   1 total cpu time :     3.2 secs   av.it.:   5.0
      thresh= 1.000E-02 alpha_mix =  0.700 |ddv_scf|^2 =  1.922E-07

      iter #   2 total cpu time :     3.3 secs   av.it.:   9.6
      thresh= 4.384E-05 alpha_mix =  0.700 |ddv_scf|^2 =  1.586E-08

      iter #   3 total cpu time :     3.5 secs   av.it.:   9.2
      thresh= 1.259E-05 alpha_mix =  0.700 |ddv_scf|^2 =  9.522E-10

      iter #   4 total cpu time :     3.7 secs   av.it.:   9.5
      thresh= 3.086E-06 alpha_mix =  0.700 |ddv_scf|^2 =  5.543E-12

      iter #   5 total cpu time :     3.9 secs   av.it.:   9.1
      thresh= 2.354E-07 alpha_mix =  0.700 |ddv_scf|^2 =  5.073E-15

     End of self-consistent calculation

     Convergence has been achieved 

     Number of q in the star =    1
     List of q in the star:
          1   0.000000000   0.000000000   0.000000000

          Dielectric constant in cartesian axis 

          (      14.012733373       0.000000000       0.000000000 )
          (       0.000000000      14.012733373      -0.000000000 )
          (       0.000000000      -0.000000000      14.012733373 )

          Effective charges (d Force / dE) in cartesian axis

           atom      1   Si 
      Ex  (       -0.03361        0.00000        0.00000 )
      Ey  (        0.00000       -0.03361       -0.00000 )
      Ez  (        0.00000       -0.00000       -0.03361 )
           atom      2   Si 
      Ex  (       -0.03361       -0.00000       -0.00000 )
      Ey  (       -0.00000       -0.03361        0.00000 )
      Ez  (       -0.00000        0.00000       -0.03361 )

          Effective charges (d P / du) in cartesian axis 

           atom      1   Si 
      Px  (       -0.07580       -0.00000       -0.00000 )
      Py  (        0.00000       -0.07580        0.00000 )
      Pz  (       -0.00000        0.00000       -0.07580 )
           atom      2   Si 
      Px  (       -0.07580       -0.00000        0.00000 )
      Py  (       -0.00000       -0.07580       -0.00000 )
      Pz  (       -0.00000       -0.00000       -0.07580 )

     Diagonalizing the dynamical matrix

     q = (    0.000000000   0.000000000   0.000000000 ) 

 **************************************************************************
     freq (    1) =       1.796636 [THz] =      59.929328 [cm-1]
     freq (    2) =       1.796636 [THz] =      59.929328 [cm-1]
     freq (    3) =       1.796636 [THz] =      59.929328 [cm-1]
     freq (    4) =      15.582600 [THz] =     519.779583 [cm-1]
     freq (    5) =      15.582600 [THz] =     519.779583 [cm-1]
     freq (    6) =      15.582600 [THz] =     519.779583 [cm-1]
 **************************************************************************

     Mode symmetry, O_h (m-3m)  point group:

     freq (  1 -  3) =         59.9  [cm-1]   --> T_1u G_15  G_4- I  
     freq (  4 -  6) =        519.8  [cm-1]   --> T_2g G_25' G_5+ R  

     Calculation of q =   -0.2500000   0.2500000  -0.2500000

   Info: using nr1, nr2, nr3 values from input

   Info: using nr1, nr2, nr3 values from input

     Parallelization info
     --------------------
     sticks:   dense  smooth     PW     G-vecs:    dense   smooth      PW
     Min          66      66     24                  722      722     161
     Max          67      67     25                  724      724     162
     Sum         265     265     97                 2891     2891     645



     bravais-lattice index     =            2
     lattice parameter (alat)  =      10.3970  a.u.
     unit-cell volume          =     280.9727 (a.u.)^3
     number of atoms/cell      =            2
     number of atomic types    =            1
     number of electrons       =         8.00
     number of Kohn-Sham states=            4
     kinetic-energy cutoff     =      18.0000  Ry
     charge density cutoff     =      72.0000  Ry
     Exchange-correlation      = SLA  PW   PBE  PBE ( 1  4  3  4 0 0)

     celldm(1)=  10.397000  celldm(2)=   0.000000  celldm(3)=   0.000000
     celldm(4)=   0.000000  celldm(5)=   0.000000  celldm(6)=   0.000000

     crystal axes: (cart. coord. in units of alat)
               a(1) = (  -0.500000   0.000000   0.500000 )  
               a(2) = (   0.000000   0.500000   0.500000 )  
               a(3) = (  -0.500000   0.500000   0.000000 )  

     reciprocal axes: (cart. coord. in units 2 pi/alat)
               b(1) = ( -1.000000 -1.000000  1.000000 )  
               b(2) = (  1.000000  1.000000  1.000000 )  
               b(3) = ( -1.000000  1.000000 -1.000000 )  


     PseudoPot. # 1 for Si read from file:
     /home/max/quantum_espresso/qe-6.1/pseudo/si_pbe_v1.uspp.F.UPF.txt
     MD5 check sum: a056efeee980c13900f22a371efd63c1
     Pseudo is Ultrasoft + core correction, Zval =  4.0
     Generated by new atomic code, or converted to UPF format
     Using radial grid of  899 points,  6 beta functions with: 
                l(1) =   0
                l(2) =   0
                l(3) =   1
                l(4) =   1
                l(5) =   2
                l(6) =   2
     Q(r) pseudized with  8 coefficients,  rinner =    0.900   0.900   0.900
                                                       0.900   0.900

     atomic species   valence    mass     pseudopotential
        Si             4.00    28.08600     Si( 1.00)

     48 Sym. Ops., with inversion, found



   Cartesian axes

     site n.     atom                  positions (alat units)
         1           Si  tau(   1) = (   0.0000000   0.0000000   0.0000000  )
         2           Si  tau(   2) = (   0.2500000   0.2500000   0.2500000  )

     number of k points=   120

     Number of k-points >= 100: set verbosity='high' to print them.

     Dense  grid:     2891 G-vectors     FFT dimensions: (  20,  20,  20)

     Estimated max dynamical RAM per process >       0.33MB

     Estimated total allocated dynamical RAM >       1.33MB

     Check: negative/imaginary core charge=   -0.000006    0.000000

     The potential is recalculated from file :
     ./_ph0/silicon.10.397.save/charge-density.dat

     Starting wfc are    8 atomic wfcs

     Band Structure Calculation
     Davidson diagonalization with overlap

     ethr =  1.25E-10,  avg # of iterations = 11.7

     total cpu time spent up to now is        0.8 secs

     End of band structure calculation

     Number of k-points >= 100: set verbosity='high' to print the bands.

     highest occupied level (ev):     5.5186

     Writing output data file silicon.10.397.save

                                                                                

     bravais-lattice index     =            2
     lattice parameter (alat)  =      10.3970  a.u.
     unit-cell volume          =     280.9727 (a.u.)^3
     number of atoms/cell      =            2
     number of atomic types    =            1
     kinetic-energy cut-off    =      18.0000  Ry
     charge density cut-off    =      72.0000  Ry
     convergence threshold     =      1.0E-12
     beta                      =       0.7000
     number of iterations used =            4
     Exchange-correlation      = SLA  PW   PBE  PBE ( 1  4  3  4 0 0)


     celldm(1)=   10.39700  celldm(2)=    0.00000  celldm(3)=    0.00000
     celldm(4)=    0.00000  celldm(5)=    0.00000  celldm(6)=    0.00000

     crystal axes: (cart. coord. in units of alat)
               a(1) = ( -0.5000  0.0000  0.5000 )  
               a(2) = (  0.0000  0.5000  0.5000 )  
               a(3) = ( -0.5000  0.5000  0.0000 )  

     reciprocal axes: (cart. coord. in units 2 pi/alat)
               b(1) = ( -1.0000 -1.0000  1.0000 )  
               b(2) = (  1.0000  1.0000  1.0000 )  
               b(3) = ( -1.0000  1.0000 -1.0000 )  


     Atoms inside the unit cell: 

     Cartesian axes

     site n.  atom      mass           positions (alat units)
        1     Si  28.0860   tau(    1) = (    0.00000    0.00000    0.00000  )
        2     Si  28.0860   tau(    2) = (    0.25000    0.25000    0.25000  )

     Computing dynamical matrix for 
                    q = (  -0.2500000   0.2500000  -0.2500000 )

      6 Sym.Ops. (no q -> -q+G )


     G cutoff =  197.1464  (    722 G-vectors)     FFT grid: ( 20, 20, 20)
     number of k points=   120

     PseudoPot. # 1 for Si read from file:
     /home/max/quantum_espresso/qe-6.1/pseudo/si_pbe_v1.uspp.F.UPF.txt
     MD5 check sum: a056efeee980c13900f22a371efd63c1
     Pseudo is Ultrasoft + core correction, Zval =  4.0
     Generated by new atomic code, or converted to UPF format
     Using radial grid of  899 points,  6 beta functions with: 
                l(1) =   0
                l(2) =   0
                l(3) =   1
                l(4) =   1
                l(5) =   2
                l(6) =   2
     Q(r) pseudized with  8 coefficients,  rinner =    0.900   0.900   0.900
                                                       0.900   0.900

     Mode symmetry, C_3v (3m)   point group:


     Atomic displacements:
     There are   4 irreducible representations

     Representation     1      1 modes -A_1  L_1  To be done

     Representation     2      1 modes -A_1  L_1  To be done

     Representation     3      2 modes -E    L_3  To be done

     Representation     4      2 modes -E    L_3  To be done



     Alpha used in Ewald sum =   0.7000
     PHONON       :     4.84s CPU         5.24s WALL



     Representation #  1 mode #   1

     Self-consistent Calculation

      iter #   1 total cpu time :     5.5 secs   av.it.:   5.5
      thresh= 1.000E-02 alpha_mix =  0.700 |ddv_scf|^2 =  2.433E-03

      iter #   2 total cpu time :     5.7 secs   av.it.:   7.5
      thresh= 4.932E-03 alpha_mix =  0.700 |ddv_scf|^2 =  3.692E-02

      iter #   3 total cpu time :     5.9 secs   av.it.:   6.3
      thresh= 1.000E-02 alpha_mix =  0.700 |ddv_scf|^2 =  1.564E-06

      iter #   4 total cpu time :     6.2 secs   av.it.:   8.2
      thresh= 1.250E-04 alpha_mix =  0.700 |ddv_scf|^2 =  1.296E-07

      iter #   5 total cpu time :     6.4 secs   av.it.:   8.0
      thresh= 3.599E-05 alpha_mix =  0.700 |ddv_scf|^2 =  5.527E-09

      iter #   6 total cpu time :     6.7 secs   av.it.:   8.0
      thresh= 7.435E-06 alpha_mix =  0.700 |ddv_scf|^2 =  3.407E-09

      iter #   7 total cpu time :     7.0 secs   av.it.:   6.7
      thresh= 5.837E-06 alpha_mix =  0.700 |ddv_scf|^2 =  2.936E-09

      iter #   8 total cpu time :     7.3 secs   av.it.:   6.7
      thresh= 5.418E-06 alpha_mix =  0.700 |ddv_scf|^2 =  1.008E-10

      iter #   9 total cpu time :     7.5 secs   av.it.:   6.6
      thresh= 1.004E-06 alpha_mix =  0.700 |ddv_scf|^2 =  1.750E-11

      iter #  10 total cpu time :     7.8 secs   av.it.:   7.2
      thresh= 4.183E-07 alpha_mix =  0.700 |ddv_scf|^2 =  4.043E-12

      iter #  11 total cpu time :     8.0 secs   av.it.:   7.1
      thresh= 2.011E-07 alpha_mix =  0.700 |ddv_scf|^2 =  9.565E-14

     End of self-consistent calculation

     Convergence has been achieved 


     Representation #  2 mode #   2

     Self-consistent Calculation

      iter #   1 total cpu time :     8.2 secs   av.it.:   5.5
      thresh= 1.000E-02 alpha_mix =  0.700 |ddv_scf|^2 =  2.433E-03

      iter #   2 total cpu time :     8.5 secs   av.it.:   7.5
      thresh= 4.932E-03 alpha_mix =  0.700 |ddv_scf|^2 =  3.692E-02

      iter #   3 total cpu time :     8.7 secs   av.it.:   6.3
      thresh= 1.000E-02 alpha_mix =  0.700 |ddv_scf|^2 =  1.564E-06

      iter #   4 total cpu time :     9.1 secs   av.it.:   8.2
      thresh= 1.250E-04 alpha_mix =  0.700 |ddv_scf|^2 =  1.296E-07

      iter #   5 total cpu time :     9.4 secs   av.it.:   8.0
      thresh= 3.599E-05 alpha_mix =  0.700 |ddv_scf|^2 =  5.527E-09

      iter #   6 total cpu time :     9.6 secs   av.it.:   8.0
      thresh= 7.435E-06 alpha_mix =  0.700 |ddv_scf|^2 =  3.407E-09

      iter #   7 total cpu time :     9.8 secs   av.it.:   6.7
      thresh= 5.837E-06 alpha_mix =  0.700 |ddv_scf|^2 =  2.936E-09

      iter #   8 total cpu time :    10.1 secs   av.it.:   6.7
      thresh= 5.418E-06 alpha_mix =  0.700 |ddv_scf|^2 =  1.008E-10

      iter #   9 total cpu time :    10.3 secs   av.it.:   6.6
      thresh= 1.004E-06 alpha_mix =  0.700 |ddv_scf|^2 =  1.750E-11

      iter #  10 total cpu time :    10.5 secs   av.it.:   7.2
      thresh= 4.183E-07 alpha_mix =  0.700 |ddv_scf|^2 =  4.043E-12

      iter #  11 total cpu time :    10.8 secs   av.it.:   7.1
      thresh= 2.011E-07 alpha_mix =  0.700 |ddv_scf|^2 =  9.565E-14

     End of self-consistent calculation

     Convergence has been achieved 


     Representation #  3 modes #   3  4

     Self-consistent Calculation

      iter #   1 total cpu time :    11.3 secs   av.it.:   4.9
      thresh= 1.000E-02 alpha_mix =  0.700 |ddv_scf|^2 =  5.352E-07

      iter #   2 total cpu time :    11.9 secs   av.it.:   9.6
      thresh= 7.316E-05 alpha_mix =  0.700 |ddv_scf|^2 =  4.010E-08

      iter #   3 total cpu time :    12.5 secs   av.it.:   9.3
      thresh= 2.002E-05 alpha_mix =  0.700 |ddv_scf|^2 =  3.449E-09

      iter #   4 total cpu time :    13.2 secs   av.it.:   9.0
      thresh= 5.872E-06 alpha_mix =  0.700 |ddv_scf|^2 =  1.140E-11

      iter #   5 total cpu time :    13.7 secs   av.it.:   9.2
      thresh= 3.376E-07 alpha_mix =  0.700 |ddv_scf|^2 =  5.093E-13

     End of self-consistent calculation

     Convergence has been achieved 


     Representation #  4 modes #   5  6

     Self-consistent Calculation

      iter #   1 total cpu time :    14.1 secs   av.it.:   5.0
      thresh= 1.000E-02 alpha_mix =  0.700 |ddv_scf|^2 =  5.350E-07

      iter #   2 total cpu time :    14.7 secs   av.it.:   9.7
      thresh= 7.315E-05 alpha_mix =  0.700 |ddv_scf|^2 =  4.005E-08

      iter #   3 total cpu time :    15.4 secs   av.it.:   9.4
      thresh= 2.001E-05 alpha_mix =  0.700 |ddv_scf|^2 =  3.445E-09

      iter #   4 total cpu time :    16.0 secs   av.it.:   9.1
      thresh= 5.869E-06 alpha_mix =  0.700 |ddv_scf|^2 =  1.141E-11

      iter #   5 total cpu time :    16.5 secs   av.it.:   9.3
      thresh= 3.377E-07 alpha_mix =  0.700 |ddv_scf|^2 =  5.098E-13

     End of self-consistent calculation

     Convergence has been achieved 

     Number of q in the star =    8
     List of q in the star:
          1  -0.250000000   0.250000000  -0.250000000
          2   0.250000000  -0.250000000  -0.250000000
          3   0.250000000  -0.250000000   0.250000000
          4   0.250000000   0.250000000   0.250000000
          5  -0.250000000  -0.250000000  -0.250000000
          6  -0.250000000  -0.250000000   0.250000000
          7  -0.250000000   0.250000000   0.250000000
          8   0.250000000   0.250000000  -0.250000000

     Diagonalizing the dynamical matrix

     q = (   -0.250000000   0.250000000  -0.250000000 ) 

 **************************************************************************
     freq (    1) =       3.414313 [THz] =     113.889212 [cm-1]
     freq (    2) =       3.414313 [THz] =     113.889212 [cm-1]
     freq (    3) =       6.742074 [THz] =     224.891385 [cm-1]
     freq (    4) =      14.672922 [THz] =     489.436011 [cm-1]
     freq (    5) =      14.960336 [THz] =     499.023095 [cm-1]
     freq (    6) =      14.960336 [THz] =     499.023095 [cm-1]
 **************************************************************************

     Mode symmetry, C_3v (3m)   point group:

     freq (  1 -  2) =        113.9  [cm-1]   --> E    L_3           
     freq (  3 -  3) =        224.9  [cm-1]   --> A_1  L_1           
     freq (  4 -  4) =        489.4  [cm-1]   --> A_1  L_1           
     freq (  5 -  6) =        499.0  [cm-1]   --> E    L_3           

     Calculation of q =    0.5000000  -0.5000000   0.5000000

   Info: using nr1, nr2, nr3 values from input

   Info: using nr1, nr2, nr3 values from input

     Parallelization info
     --------------------
     sticks:   dense  smooth     PW     G-vecs:    dense   smooth      PW
     Min          66      66     27                  722      722     186
     Max          67      67     28                  724      724     189
     Sum         265     265    109                 2891     2891     749



     bravais-lattice index     =            2
     lattice parameter (alat)  =      10.3970  a.u.
     unit-cell volume          =     280.9727 (a.u.)^3
     number of atoms/cell      =            2
     number of atomic types    =            1
     number of electrons       =         8.00
     number of Kohn-Sham states=            4
     kinetic-energy cutoff     =      18.0000  Ry
     charge density cutoff     =      72.0000  Ry
     Exchange-correlation      = SLA  PW   PBE  PBE ( 1  4  3  4 0 0)

     celldm(1)=  10.397000  celldm(2)=   0.000000  celldm(3)=   0.000000
     celldm(4)=   0.000000  celldm(5)=   0.000000  celldm(6)=   0.000000

     crystal axes: (cart. coord. in units of alat)
               a(1) = (  -0.500000   0.000000   0.500000 )  
               a(2) = (   0.000000   0.500000   0.500000 )  
               a(3) = (  -0.500000   0.500000   0.000000 )  

     reciprocal axes: (cart. coord. in units 2 pi/alat)
               b(1) = ( -1.000000 -1.000000  1.000000 )  
               b(2) = (  1.000000  1.000000  1.000000 )  
               b(3) = ( -1.000000  1.000000 -1.000000 )  


     PseudoPot. # 1 for Si read from file:
     /home/max/quantum_espresso/qe-6.1/pseudo/si_pbe_v1.uspp.F.UPF.txt
     MD5 check sum: a056efeee980c13900f22a371efd63c1
     Pseudo is Ultrasoft + core correction, Zval =  4.0
     Generated by new atomic code, or converted to UPF format
     Using radial grid of  899 points,  6 beta functions with: 
                l(1) =   0
                l(2) =   0
                l(3) =   1
                l(4) =   1
                l(5) =   2
                l(6) =   2
     Q(r) pseudized with  8 coefficients,  rinner =    0.900   0.900   0.900
                                                       0.900   0.900

     atomic species   valence    mass     pseudopotential
        Si             4.00    28.08600     Si( 1.00)

     48 Sym. Ops., with inversion, found



   Cartesian axes

     site n.     atom                  positions (alat units)
         1           Si  tau(   1) = (   0.0000000   0.0000000   0.0000000  )
         2           Si  tau(   2) = (   0.2500000   0.2500000   0.2500000  )

     number of k points=    60
                       cart. coord. in units 2pi/alat
        k(    1) = (  -0.1250000   0.1250000   0.1250000), wk =   0.0468750
        k(    2) = (   0.3750000  -0.3750000   0.6250000), wk =   0.0000000
        k(    3) = (  -0.3750000   0.3750000  -0.1250000), wk =   0.0468750
        k(    4) = (   0.1250000  -0.1250000   0.3750000), wk =   0.0000000
        k(    5) = (   0.3750000  -0.3750000   0.6250000), wk =   0.0468750
        k(    6) = (   0.8750000  -0.8750000   1.1250000), wk =   0.0000000
        k(    7) = (   0.1250000  -0.1250000   0.3750000), wk =   0.0468750
        k(    8) = (   0.6250000  -0.6250000   0.8750000), wk =   0.0000000
        k(    9) = (  -0.1250000   0.6250000   0.1250000), wk =   0.0937500
        k(   10) = (   0.3750000   0.1250000   0.6250000), wk =   0.0000000
        k(   11) = (   0.6250000  -0.1250000   0.8750000), wk =   0.0937500
        k(   12) = (   1.1250000  -0.6250000   1.3750000), wk =   0.0000000
        k(   13) = (   0.3750000   0.1250000   0.6250000), wk =   0.0937500
        k(   14) = (   0.8750000  -0.3750000   1.1250000), wk =   0.0000000
        k(   15) = (  -0.1250000  -0.8750000   0.1250000), wk =   0.0937500
        k(   16) = (   0.3750000  -1.3750000   0.6250000), wk =   0.0000000
        k(   17) = (  -0.3750000   0.3750000   0.3750000), wk =   0.0468750
        k(   18) = (   0.1250000  -0.1250000   0.8750000), wk =   0.0000000
        k(   19) = (   0.3750000  -0.3750000   1.1250000), wk =   0.0468750
        k(   20) = (   0.8750000  -0.8750000   1.6250000), wk =   0.0000000
        k(   21) = (   0.1250000  -0.1250000   0.1250000), wk =   0.0156250
        k(   22) = (   0.6250000  -0.6250000   0.6250000), wk =   0.0000000
        k(   23) = (  -0.3750000  -0.3750000  -0.1250000), wk =   0.0937500
        k(   24) = (   0.1250000  -0.8750000   0.3750000), wk =   0.0000000
        k(   25) = (  -0.1250000  -0.3750000   0.3750000), wk =   0.0468750
        k(   26) = (   0.3750000  -0.8750000   0.8750000), wk =   0.0000000
        k(   27) = (   0.3750000   0.3750000   0.6250000), wk =   0.0937500
        k(   28) = (   0.8750000  -0.1250000   1.1250000), wk =   0.0000000
        k(   29) = (   0.6250000   0.3750000  -0.3750000), wk =   0.0468750
        k(   30) = (   1.1250000  -0.1250000   0.1250000), wk =   0.0000000
        k(   31) = (   0.1250000   0.1250000   0.3750000), wk =   0.0937500
        k(   32) = (   0.6250000  -0.3750000   0.8750000), wk =   0.0000000
        k(   33) = (   0.3750000   0.1250000  -0.1250000), wk =   0.0468750
        k(   34) = (   0.8750000  -0.3750000   0.3750000), wk =   0.0000000
        k(   35) = (  -0.1250000  -0.6250000  -0.1250000), wk =   0.0468750
        k(   36) = (   0.3750000  -1.1250000   0.3750000), wk =   0.0000000
        k(   37) = (   0.1250000  -0.6250000   0.1250000), wk =   0.0468750
        k(   38) = (   0.6250000  -1.1250000   0.6250000), wk =   0.0000000
        k(   39) = (   0.6250000   0.1250000   0.8750000), wk =   0.0937500
        k(   40) = (   1.1250000  -0.3750000   1.3750000), wk =   0.0000000
        k(   41) = (  -0.8750000   0.1250000   0.6250000), wk =   0.0937500
        k(   42) = (  -0.3750000  -0.3750000   1.1250000), wk =   0.0000000
        k(   43) = (   0.8750000   0.1250000  -0.6250000), wk =   0.0937500
        k(   44) = (   1.3750000  -0.3750000  -0.1250000), wk =   0.0000000
        k(   45) = (   0.3750000  -0.1250000   0.6250000), wk =   0.0937500
        k(   46) = (   0.8750000  -0.6250000   1.1250000), wk =   0.0000000
        k(   47) = (  -0.6250000  -0.1250000   0.3750000), wk =   0.0937500
        k(   48) = (  -0.1250000  -0.6250000   0.8750000), wk =   0.0000000
        k(   49) = (   0.6250000  -0.1250000  -0.3750000), wk =   0.0937500
        k(   50) = (   1.1250000  -0.6250000   0.1250000), wk =   0.0000000
        k(   51) = (  -0.1250000   0.8750000  -0.1250000), wk =   0.0468750
        k(   52) = (   0.3750000   0.3750000   0.3750000), wk =   0.0000000
        k(   53) = (   0.1250000   0.8750000   0.1250000), wk =   0.0468750
        k(   54) = (   0.6250000   0.3750000   0.6250000), wk =   0.0000000
        k(   55) = (   0.3750000  -0.3750000   0.3750000), wk =   0.0156250
        k(   56) = (   0.8750000  -0.8750000   0.8750000), wk =   0.0000000
        k(   57) = (   0.3750000   0.3750000   1.1250000), wk =   0.0937500
        k(   58) = (   0.8750000  -0.1250000   1.6250000), wk =   0.0000000
        k(   59) = (   1.1250000   0.3750000  -0.3750000), wk =   0.0468750
        k(   60) = (   1.6250000  -0.1250000   0.1250000), wk =   0.0000000

     Dense  grid:     2891 G-vectors     FFT dimensions: (  20,  20,  20)

     Estimated max dynamical RAM per process >       0.33MB

     Estimated total allocated dynamical RAM >       1.33MB

     Check: negative/imaginary core charge=   -0.000006    0.000000

     The potential is recalculated from file :
     ./_ph0/silicon.10.397.save/charge-density.dat

     Starting wfc are    8 atomic wfcs

     Band Structure Calculation
     Davidson diagonalization with overlap

     ethr =  1.25E-10,  avg # of iterations = 11.7

     total cpu time spent up to now is        1.5 secs

     End of band structure calculation

          k =-0.1250 0.1250 0.1250 (   347 PWs)   bands (ev):

    -5.6972   4.2083   5.5186   5.5186

          k = 0.3750-0.3750 0.6250 (   364 PWs)   bands (ev):

    -3.5798  -0.7862   3.5790   4.2867

          k =-0.3750 0.3750-0.1250 (   356 PWs)   bands (ev):

    -4.6901   1.2465   3.5692   5.0416

          k = 0.1250-0.1250 0.3750 (   358 PWs)   bands (ev):

    -5.1792   2.5978   4.5312   4.5843

          k = 0.3750-0.3750 0.6250 (   364 PWs)   bands (ev):

    -3.5798  -0.7862   3.5790   4.2867

          k = 0.8750-0.8750 1.1250 (   347 PWs)   bands (ev):

    -5.6972   4.2083   5.5186   5.5186

          k = 0.1250-0.1250 0.3750 (   358 PWs)   bands (ev):

    -5.1792   2.5978   4.5312   4.5843

          k = 0.6250-0.6250 0.8750 (   356 PWs)   bands (ev):

    -4.6901   1.2465   3.5692   5.0416

          k =-0.1250 0.6250 0.1250 (   357 PWs)   bands (ev):

    -4.1668   0.8920   3.2316   3.6720

          k = 0.3750 0.1250 0.6250 (   362 PWs)   bands (ev):

    -3.7617   0.0468   2.5996   3.9434

          k = 0.6250-0.1250 0.8750 (   368 PWs)   bands (ev):

    -2.5639  -1.0417   1.9147   2.9651

          k = 1.1250-0.6250 1.3750 (   356 PWs)   bands (ev):

    -4.6901   1.2465   3.5692   5.0416

          k = 0.3750 0.1250 0.6250 (   362 PWs)   bands (ev):

    -3.7617   0.0468   2.5996   3.9434

          k = 0.8750-0.3750 1.1250 (   357 PWs)   bands (ev):

    -4.1668   0.8920   3.2316   3.6720

          k =-0.1250-0.8750 0.1250 (   362 PWs)   bands (ev):

    -2.7225  -0.9485   2.5080   3.2126

          k = 0.3750-1.3750 0.6250 (   364 PWs)   bands (ev):

    -3.5798  -0.7862   3.5790   4.2867

          k =-0.3750 0.3750 0.3750 (   359 PWs)   bands (ev):

    -4.2681  -0.0107   4.7404   4.7404

          k = 0.1250-0.1250 0.8750 (   362 PWs)   bands (ev):

    -2.7225  -0.9485   2.5080   3.2126

          k = 0.3750-0.3750 1.1250 (   365 PWs)   bands (ev):

    -3.0925  -0.7263   1.9639   3.9772

          k = 0.8750-0.8750 1.6250 (   357 PWs)   bands (ev):

    -4.1668   0.8920   3.2316   3.6720

          k = 0.1250-0.1250 0.1250 (   347 PWs)   bands (ev):

    -5.6972   4.2083   5.5186   5.5186

          k = 0.6250-0.6250 0.6250 (   359 PWs)   bands (ev):

    -4.2681  -0.0107   4.7404   4.7404

          k =-0.3750-0.3750-0.1250 (   356 PWs)   bands (ev):

    -4.6901   1.2465   3.5692   5.0416

          k = 0.1250-0.8750 0.3750 (   368 PWs)   bands (ev):

    -2.5639  -1.0417   1.9147   2.9651

          k =-0.1250-0.3750 0.3750 (   356 PWs)   bands (ev):

    -4.6901   1.2465   3.5692   5.0416

          k = 0.3750-0.8750 0.8750 (   357 PWs)   bands (ev):

    -4.1668   0.8920   3.2316   3.6720

          k = 0.3750 0.3750 0.6250 (   364 PWs)   bands (ev):

    -3.5798  -0.7862   3.5790   4.2867

          k = 0.8750-0.1250 1.1250 (   362 PWs)   bands (ev):

    -2.7225  -0.9485   2.5080   3.2126

          k = 0.6250 0.3750-0.3750 (   364 PWs)   bands (ev):

    -3.5798  -0.7862   3.5790   4.2867

          k = 1.1250-0.1250 0.1250 (   362 PWs)   bands (ev):

    -2.7225  -0.9485   2.5080   3.2126

          k = 0.1250 0.1250 0.3750 (   358 PWs)   bands (ev):

    -5.1792   2.5978   4.5312   4.5843

          k = 0.6250-0.3750 0.8750 (   362 PWs)   bands (ev):

    -3.7617   0.0468   2.5996   3.9434

          k = 0.3750 0.1250-0.1250 (   358 PWs)   bands (ev):

    -5.1792   2.5978   4.5312   4.5843

          k = 0.8750-0.3750 0.3750 (   365 PWs)   bands (ev):

    -3.0925  -0.7263   1.9639   3.9772

          k =-0.1250-0.6250-0.1250 (   357 PWs)   bands (ev):

    -4.1668   0.8920   3.2316   3.6720

          k = 0.3750-1.1250 0.3750 (   365 PWs)   bands (ev):

    -3.0925  -0.7263   1.9639   3.9772

          k = 0.1250-0.6250 0.1250 (   357 PWs)   bands (ev):

    -4.1668   0.8920   3.2316   3.6720

          k = 0.6250-1.1250 0.6250 (   356 PWs)   bands (ev):

    -4.6901   1.2465   3.5692   5.0416

          k = 0.6250 0.1250 0.8750 (   368 PWs)   bands (ev):

    -2.5639  -1.0417   1.9147   2.9651

          k = 1.1250-0.3750 1.3750 (   362 PWs)   bands (ev):

    -3.7617   0.0468   2.5996   3.9434

          k =-0.8750 0.1250 0.6250 (   368 PWs)   bands (ev):

    -2.5639  -1.0417   1.9147   2.9651

          k =-0.3750-0.3750 1.1250 (   365 PWs)   bands (ev):

    -3.0925  -0.7263   1.9639   3.9772

          k = 0.8750 0.1250-0.6250 (   368 PWs)   bands (ev):

    -2.5639  -1.0417   1.9147   2.9651

          k = 1.3750-0.3750-0.1250 (   362 PWs)   bands (ev):

    -3.7617   0.0468   2.5996   3.9434

          k = 0.3750-0.1250 0.6250 (   362 PWs)   bands (ev):

    -3.7617   0.0468   2.5996   3.9434

          k = 0.8750-0.6250 1.1250 (   358 PWs)   bands (ev):

    -5.1792   2.5978   4.5312   4.5843

          k =-0.6250-0.1250 0.3750 (   362 PWs)   bands (ev):

    -3.7617   0.0468   2.5996   3.9434

          k =-0.1250-0.6250 0.8750 (   368 PWs)   bands (ev):

    -2.5639  -1.0417   1.9147   2.9651

          k = 0.6250-0.1250-0.3750 (   362 PWs)   bands (ev):

    -3.7617   0.0468   2.5996   3.9434

          k = 1.1250-0.6250 0.1250 (   368 PWs)   bands (ev):

    -2.5639  -1.0417   1.9147   2.9651

          k =-0.1250 0.8750-0.1250 (   362 PWs)   bands (ev):

    -2.7225  -0.9485   2.5080   3.2126

          k = 0.3750 0.3750 0.3750 (   359 PWs)   bands (ev):

    -4.2681  -0.0107   4.7404   4.7404

          k = 0.1250 0.8750 0.1250 (   362 PWs)   bands (ev):

    -2.7225  -0.9485   2.5080   3.2126

          k = 0.6250 0.3750 0.6250 (   364 PWs)   bands (ev):

    -3.5798  -0.7862   3.5790   4.2867

          k = 0.3750-0.3750 0.3750 (   359 PWs)   bands (ev):

    -4.2681  -0.0107   4.7404   4.7404

          k = 0.8750-0.8750 0.8750 (   347 PWs)   bands (ev):

    -5.6972   4.2083   5.5186   5.5186

          k = 0.3750 0.3750 1.1250 (   365 PWs)   bands (ev):

    -3.0925  -0.7263   1.9639   3.9772

          k = 0.8750-0.1250 1.6250 (   368 PWs)   bands (ev):

    -2.5639  -1.0417   1.9147   2.9651

          k = 1.1250 0.3750-0.3750 (   365 PWs)   bands (ev):

    -3.0925  -0.7263   1.9639   3.9772

          k = 1.6250-0.1250 0.1250 (   358 PWs)   bands (ev):

    -5.1792   2.5978   4.5312   4.5843

     highest occupied level (ev):     5.5186

     Writing output data file silicon.10.397.save

                                                                                

     bravais-lattice index     =            2
     lattice parameter (alat)  =      10.3970  a.u.
     unit-cell volume          =     280.9727 (a.u.)^3
     number of atoms/cell      =            2
     number of atomic types    =            1
     kinetic-energy cut-off    =      18.0000  Ry
     charge density cut-off    =      72.0000  Ry
     convergence threshold     =      1.0E-12
     beta                      =       0.7000
     number of iterations used =            4
     Exchange-correlation      = SLA  PW   PBE  PBE ( 1  4  3  4 0 0)


     celldm(1)=   10.39700  celldm(2)=    0.00000  celldm(3)=    0.00000
     celldm(4)=    0.00000  celldm(5)=    0.00000  celldm(6)=    0.00000

     crystal axes: (cart. coord. in units of alat)
               a(1) = ( -0.5000  0.0000  0.5000 )  
               a(2) = (  0.0000  0.5000  0.5000 )  
               a(3) = ( -0.5000  0.5000  0.0000 )  

     reciprocal axes: (cart. coord. in units 2 pi/alat)
               b(1) = ( -1.0000 -1.0000  1.0000 )  
               b(2) = (  1.0000  1.0000  1.0000 )  
               b(3) = ( -1.0000  1.0000 -1.0000 )  


     Atoms inside the unit cell: 

     Cartesian axes

     site n.  atom      mass           positions (alat units)
        1     Si  28.0860   tau(    1) = (    0.00000    0.00000    0.00000  )
        2     Si  28.0860   tau(    2) = (    0.25000    0.25000    0.25000  )

     Computing dynamical matrix for 
                    q = (   0.5000000  -0.5000000   0.5000000 )

     13 Sym.Ops. (with q -> -q+G )


     G cutoff =  197.1464  (    722 G-vectors)     FFT grid: ( 20, 20, 20)
     number of k points=    60

     PseudoPot. # 1 for Si read from file:
     /home/max/quantum_espresso/qe-6.1/pseudo/si_pbe_v1.uspp.F.UPF.txt
     MD5 check sum: a056efeee980c13900f22a371efd63c1
     Pseudo is Ultrasoft + core correction, Zval =  4.0
     Generated by new atomic code, or converted to UPF format
     Using radial grid of  899 points,  6 beta functions with: 
                l(1) =   0
                l(2) =   0
                l(3) =   1
                l(4) =   1
                l(5) =   2
                l(6) =   2
     Q(r) pseudized with  8 coefficients,  rinner =    0.900   0.900   0.900
                                                       0.900   0.900


     Atomic displacements:
     There are   4 irreducible representations

     Representation     1      1 modes -  To be done

     Representation     2      1 modes -  To be done

     Representation     3      2 modes -  To be done

     Representation     4      2 modes -  To be done



     Alpha used in Ewald sum =   0.7000
     PHONON       :    16.14s CPU        17.45s WALL



     Representation #  1 mode #   1

     Self-consistent Calculation

      iter #   1 total cpu time :    17.6 secs   av.it.:   4.8
      thresh= 1.000E-02 alpha_mix =  0.700 |ddv_scf|^2 =  2.460E-05

      iter #   2 total cpu time :    17.7 secs   av.it.:   8.4
      thresh= 4.960E-04 alpha_mix =  0.700 |ddv_scf|^2 =  2.219E-05

      iter #   3 total cpu time :    17.8 secs   av.it.:   7.5
      thresh= 4.711E-04 alpha_mix =  0.700 |ddv_scf|^2 =  4.791E-08

      iter #   4 total cpu time :    18.0 secs   av.it.:   7.3
      thresh= 2.189E-05 alpha_mix =  0.700 |ddv_scf|^2 =  3.135E-10

      iter #   5 total cpu time :    18.1 secs   av.it.:   7.7
      thresh= 1.771E-06 alpha_mix =  0.700 |ddv_scf|^2 =  2.551E-11

      iter #   6 total cpu time :    18.2 secs   av.it.:   7.1
      thresh= 5.050E-07 alpha_mix =  0.700 |ddv_scf|^2 =  2.215E-12

      iter #   7 total cpu time :    18.4 secs   av.it.:   7.0
      thresh= 1.488E-07 alpha_mix =  0.700 |ddv_scf|^2 =  3.291E-14

     End of self-consistent calculation

     Convergence has been achieved 


     Representation #  2 mode #   2

     Self-consistent Calculation

      iter #   1 total cpu time :    18.5 secs   av.it.:   5.6
      thresh= 1.000E-02 alpha_mix =  0.700 |ddv_scf|^2 =  3.685E-04

      iter #   2 total cpu time :    18.6 secs   av.it.:   8.3
      thresh= 1.920E-03 alpha_mix =  0.700 |ddv_scf|^2 =  1.091E-03

      iter #   3 total cpu time :    18.8 secs   av.it.:   7.1
      thresh= 3.303E-03 alpha_mix =  0.700 |ddv_scf|^2 =  6.733E-07

      iter #   4 total cpu time :    19.0 secs   av.it.:   7.8
      thresh= 8.206E-05 alpha_mix =  0.700 |ddv_scf|^2 =  2.017E-08

      iter #   5 total cpu time :    19.2 secs   av.it.:   8.2
      thresh= 1.420E-05 alpha_mix =  0.700 |ddv_scf|^2 =  6.921E-10

      iter #   6 total cpu time :    19.3 secs   av.it.:   7.3
      thresh= 2.631E-06 alpha_mix =  0.700 |ddv_scf|^2 =  1.282E-10

      iter #   7 total cpu time :    19.5 secs   av.it.:   7.0
      thresh= 1.132E-06 alpha_mix =  0.700 |ddv_scf|^2 =  2.045E-12

      iter #   8 total cpu time :    19.6 secs   av.it.:   7.7
      thresh= 1.430E-07 alpha_mix =  0.700 |ddv_scf|^2 =  5.481E-15

     End of self-consistent calculation

     Convergence has been achieved 


     Representation #  3 modes #   3  4

     Self-consistent Calculation

      iter #   1 total cpu time :    19.8 secs   av.it.:   4.7
      thresh= 1.000E-02 alpha_mix =  0.700 |ddv_scf|^2 =  3.409E-07

      iter #   2 total cpu time :    20.1 secs   av.it.:   9.0
      thresh= 5.838E-05 alpha_mix =  0.700 |ddv_scf|^2 =  2.937E-08

      iter #   3 total cpu time :    20.4 secs   av.it.:   8.3
      thresh= 1.714E-05 alpha_mix =  0.700 |ddv_scf|^2 =  5.124E-10

      iter #   4 total cpu time :    20.7 secs   av.it.:   8.9
      thresh= 2.264E-06 alpha_mix =  0.700 |ddv_scf|^2 =  6.440E-12

      iter #   5 total cpu time :    21.2 secs   av.it.:   8.7
      thresh= 2.538E-07 alpha_mix =  0.700 |ddv_scf|^2 =  3.572E-14

     End of self-consistent calculation

     Convergence has been achieved 


     Representation #  4 modes #   5  6

     Self-consistent Calculation

      iter #   1 total cpu time :    21.4 secs   av.it.:   4.9
      thresh= 1.000E-02 alpha_mix =  0.700 |ddv_scf|^2 =  9.412E-07

      iter #   2 total cpu time :    21.7 secs   av.it.:   9.5
      thresh= 9.702E-05 alpha_mix =  0.700 |ddv_scf|^2 =  7.481E-08

      iter #   3 total cpu time :    22.0 secs   av.it.:   9.3
      thresh= 2.735E-05 alpha_mix =  0.700 |ddv_scf|^2 =  4.460E-09

      iter #   4 total cpu time :    22.3 secs   av.it.:   8.5
      thresh= 6.678E-06 alpha_mix =  0.700 |ddv_scf|^2 =  6.499E-12

      iter #   5 total cpu time :    22.6 secs   av.it.:   8.8
      thresh= 2.549E-07 alpha_mix =  0.700 |ddv_scf|^2 =  2.547E-14

     End of self-consistent calculation

     Convergence has been achieved 

     Number of q in the star =    4
     List of q in the star:
          1   0.500000000  -0.500000000   0.500000000
          2   0.500000000   0.500000000   0.500000000
          3  -0.500000000   0.500000000   0.500000000
          4   0.500000000   0.500000000  -0.500000000

     Diagonalizing the dynamical matrix

     q = (    0.500000000  -0.500000000   0.500000000 ) 

 **************************************************************************
     freq (    1) =       5.095981 [THz] =     169.983620 [cm-1]
     freq (    2) =       5.095981 [THz] =     169.983620 [cm-1]
     freq (    3) =      11.770242 [THz] =     392.612998 [cm-1]
     freq (    4) =      12.174851 [THz] =     406.109324 [cm-1]
     freq (    5) =      14.728133 [THz] =     491.277644 [cm-1]
     freq (    6) =      14.728133 [THz] =     491.277644 [cm-1]
 **************************************************************************

     Calculation of q =    0.0000000   0.5000000   0.0000000

   Info: using nr1, nr2, nr3 values from input

   Info: using nr1, nr2, nr3 values from input

     Parallelization info
     --------------------
     sticks:   dense  smooth     PW     G-vecs:    dense   smooth      PW
     Min          66      66     27                  722      722     181
     Max          67      67     28                  724      724     182
     Sum         265     265    109                 2891     2891     725



     bravais-lattice index     =            2
     lattice parameter (alat)  =      10.3970  a.u.
     unit-cell volume          =     280.9727 (a.u.)^3
     number of atoms/cell      =            2
     number of atomic types    =            1
     number of electrons       =         8.00
     number of Kohn-Sham states=            4
     kinetic-energy cutoff     =      18.0000  Ry
     charge density cutoff     =      72.0000  Ry
     Exchange-correlation      = SLA  PW   PBE  PBE ( 1  4  3  4 0 0)

     celldm(1)=  10.397000  celldm(2)=   0.000000  celldm(3)=   0.000000
     celldm(4)=   0.000000  celldm(5)=   0.000000  celldm(6)=   0.000000

     crystal axes: (cart. coord. in units of alat)
               a(1) = (  -0.500000   0.000000   0.500000 )  
               a(2) = (   0.000000   0.500000   0.500000 )  
               a(3) = (  -0.500000   0.500000   0.000000 )  

     reciprocal axes: (cart. coord. in units 2 pi/alat)
               b(1) = ( -1.000000 -1.000000  1.000000 )  
               b(2) = (  1.000000  1.000000  1.000000 )  
               b(3) = ( -1.000000  1.000000 -1.000000 )  


     PseudoPot. # 1 for Si read from file:
     /home/max/quantum_espresso/qe-6.1/pseudo/si_pbe_v1.uspp.F.UPF.txt
     MD5 check sum: a056efeee980c13900f22a371efd63c1
     Pseudo is Ultrasoft + core correction, Zval =  4.0
     Generated by new atomic code, or converted to UPF format
     Using radial grid of  899 points,  6 beta functions with: 
                l(1) =   0
                l(2) =   0
                l(3) =   1
                l(4) =   1
                l(5) =   2
                l(6) =   2
     Q(r) pseudized with  8 coefficients,  rinner =    0.900   0.900   0.900
                                                       0.900   0.900

     atomic species   valence    mass     pseudopotential
        Si             4.00    28.08600     Si( 1.00)

     48 Sym. Ops., with inversion, found



   Cartesian axes

     site n.     atom                  positions (alat units)
         1           Si  tau(   1) = (   0.0000000   0.0000000   0.0000000  )
         2           Si  tau(   2) = (   0.2500000   0.2500000   0.2500000  )

     number of k points=    80
                       cart. coord. in units 2pi/alat
        k(    1) = (  -0.1250000   0.1250000   0.1250000), wk =   0.0312500
        k(    2) = (  -0.1250000   0.6250000   0.1250000), wk =   0.0000000
        k(    3) = (  -0.3750000   0.3750000  -0.1250000), wk =   0.0625000
        k(    4) = (  -0.3750000   0.8750000  -0.1250000), wk =   0.0000000
        k(    5) = (   0.3750000  -0.3750000   0.6250000), wk =   0.0625000
        k(    6) = (   0.3750000   0.1250000   0.6250000), wk =   0.0000000
        k(    7) = (   0.1250000  -0.1250000   0.3750000), wk =   0.0625000
        k(    8) = (   0.1250000   0.3750000   0.3750000), wk =   0.0000000
        k(    9) = (  -0.1250000   0.6250000   0.1250000), wk =   0.0312500
        k(   10) = (  -0.1250000   1.1250000   0.1250000), wk =   0.0000000
        k(   11) = (   0.6250000  -0.1250000   0.8750000), wk =   0.0625000
        k(   12) = (   0.6250000   0.3750000   0.8750000), wk =   0.0000000
        k(   13) = (   0.3750000   0.1250000   0.6250000), wk =   0.0625000
        k(   14) = (   0.3750000   0.6250000   0.6250000), wk =   0.0000000
        k(   15) = (  -0.1250000  -0.8750000   0.1250000), wk =   0.0312500
        k(   16) = (  -0.1250000  -0.3750000   0.1250000), wk =   0.0000000
        k(   17) = (  -0.3750000   0.3750000   0.3750000), wk =   0.0312500
        k(   18) = (  -0.3750000   0.8750000   0.3750000), wk =   0.0000000
        k(   19) = (   0.3750000  -0.3750000   1.1250000), wk =   0.0625000
        k(   20) = (   0.3750000   0.1250000   1.1250000), wk =   0.0000000
        k(   21) = (  -0.1250000  -0.1250000   0.1250000), wk =   0.0312500
        k(   22) = (  -0.1250000   0.3750000   0.1250000), wk =   0.0000000
        k(   23) = (   0.1250000  -0.3750000   0.3750000), wk =   0.0625000
        k(   24) = (   0.1250000   0.1250000   0.3750000), wk =   0.0000000
        k(   25) = (   0.3750000  -0.1250000   0.3750000), wk =   0.0312500
        k(   26) = (   0.3750000   0.3750000   0.3750000), wk =   0.0000000
        k(   27) = (   0.3750000   0.1250000   0.3750000), wk =   0.0312500
        k(   28) = (   0.3750000   0.6250000   0.3750000), wk =   0.0000000
        k(   29) = (  -0.6250000   0.3750000  -0.3750000), wk =   0.0625000
        k(   30) = (  -0.6250000   0.8750000  -0.3750000), wk =   0.0000000
        k(   31) = (  -0.3750000   0.6250000  -0.3750000), wk =   0.0312500
        k(   32) = (  -0.3750000   1.1250000  -0.3750000), wk =   0.0000000
        k(   33) = (  -0.3750000  -0.6250000  -0.3750000), wk =   0.0312500
        k(   34) = (  -0.3750000  -0.1250000  -0.3750000), wk =   0.0000000
        k(   35) = (  -0.3750000   0.1250000  -0.1250000), wk =   0.0625000
        k(   36) = (  -0.3750000   0.6250000  -0.1250000), wk =   0.0000000
        k(   37) = (  -0.1250000   0.3750000  -0.1250000), wk =   0.0312500
        k(   38) = (  -0.1250000   0.8750000  -0.1250000), wk =   0.0000000
        k(   39) = (  -0.1250000  -0.3750000  -0.1250000), wk =   0.0312500
        k(   40) = (  -0.1250000   0.1250000  -0.1250000), wk =   0.0000000
        k(   41) = (  -0.1250000  -0.6250000   0.1250000), wk =   0.0312500
        k(   42) = (  -0.1250000  -0.1250000   0.1250000), wk =   0.0000000
        k(   43) = (   0.6250000  -0.1250000  -0.1250000), wk =   0.0625000
        k(   44) = (   0.6250000   0.3750000  -0.1250000), wk =   0.0000000
        k(   45) = (   0.6250000   0.1250000   0.1250000), wk =   0.0625000
        k(   46) = (   0.6250000   0.6250000   0.1250000), wk =   0.0000000
        k(   47) = (  -0.8750000   0.1250000  -0.6250000), wk =   0.0625000
        k(   48) = (  -0.8750000   0.6250000  -0.6250000), wk =   0.0000000
        k(   49) = (  -0.1250000   0.6250000  -0.8750000), wk =   0.0625000
        k(   50) = (  -0.1250000   1.1250000  -0.8750000), wk =   0.0000000
        k(   51) = (  -0.1250000   0.8750000  -0.6250000), wk =   0.0625000
        k(   52) = (  -0.1250000   1.3750000  -0.6250000), wk =   0.0000000
        k(   53) = (  -0.1250000  -0.8750000  -0.6250000), wk =   0.0625000
        k(   54) = (  -0.1250000  -0.3750000  -0.6250000), wk =   0.0000000
        k(   55) = (   0.8750000  -0.6250000   0.1250000), wk =   0.0625000
        k(   56) = (   0.8750000  -0.1250000   0.1250000), wk =   0.0000000
        k(   57) = (  -0.6250000  -0.1250000  -0.3750000), wk =   0.0625000
        k(   58) = (  -0.6250000   0.3750000  -0.3750000), wk =   0.0000000
        k(   59) = (   0.1250000   0.3750000  -0.6250000), wk =   0.0625000
        k(   60) = (   0.1250000   0.8750000  -0.6250000), wk =   0.0000000
        k(   61) = (   0.1250000   0.6250000  -0.3750000), wk =   0.0625000
        k(   62) = (   0.1250000   1.1250000  -0.3750000), wk =   0.0000000
        k(   63) = (   0.1250000  -0.6250000  -0.3750000), wk =   0.0625000
        k(   64) = (   0.1250000  -0.1250000  -0.3750000), wk =   0.0000000
        k(   65) = (   0.6250000  -0.3750000  -0.1250000), wk =   0.0625000
        k(   66) = (   0.6250000   0.1250000  -0.1250000), wk =   0.0000000
        k(   67) = (  -0.1250000   0.8750000   0.1250000), wk =   0.0312500
        k(   68) = (  -0.1250000   1.3750000   0.1250000), wk =   0.0000000
        k(   69) = (  -0.8750000  -0.1250000  -0.1250000), wk =   0.0625000
        k(   70) = (  -0.8750000   0.3750000  -0.1250000), wk =   0.0000000
        k(   71) = (  -0.8750000   0.1250000   0.1250000), wk =   0.0625000
        k(   72) = (  -0.8750000   0.6250000   0.1250000), wk =   0.0000000
        k(   73) = (  -0.3750000  -0.3750000   0.3750000), wk =   0.0312500
        k(   74) = (  -0.3750000   0.1250000   0.3750000), wk =   0.0000000
        k(   75) = (  -1.1250000   0.3750000  -0.3750000), wk =   0.0625000
        k(   76) = (  -1.1250000   0.8750000  -0.3750000), wk =   0.0000000
        k(   77) = (  -0.3750000   1.1250000  -0.3750000), wk =   0.0312500
        k(   78) = (  -0.3750000   1.6250000  -0.3750000), wk =   0.0000000
        k(   79) = (  -0.3750000  -1.1250000  -0.3750000), wk =   0.0312500
        k(   80) = (  -0.3750000  -0.6250000  -0.3750000), wk =   0.0000000

     Dense  grid:     2891 G-vectors     FFT dimensions: (  20,  20,  20)

     Estimated max dynamical RAM per process >       0.33MB

     Estimated total allocated dynamical RAM >       1.33MB

     Check: negative/imaginary core charge=   -0.000006    0.000000

     The potential is recalculated from file :
     ./_ph0/silicon.10.397.save/charge-density.dat

     Starting wfc are    8 atomic wfcs

     Band Structure Calculation
     Davidson diagonalization with overlap

     ethr =  1.25E-10,  avg # of iterations = 11.7

     total cpu time spent up to now is        2.3 secs

     End of band structure calculation

          k =-0.1250 0.1250 0.1250 (   347 PWs)   bands (ev):

    -5.6972   4.2083   5.5186   5.5186

          k =-0.1250 0.6250 0.1250 (   357 PWs)   bands (ev):

    -4.1668   0.8920   3.2316   3.6720

          k =-0.3750 0.3750-0.1250 (   356 PWs)   bands (ev):

    -4.6901   1.2465   3.5692   5.0416

          k =-0.3750 0.8750-0.1250 (   368 PWs)   bands (ev):

    -2.5639  -1.0417   1.9147   2.9651

          k = 0.3750-0.3750 0.6250 (   364 PWs)   bands (ev):

    -3.5798  -0.7862   3.5790   4.2867

          k = 0.3750 0.1250 0.6250 (   362 PWs)   bands (ev):

    -3.7617   0.0468   2.5996   3.9434

          k = 0.1250-0.1250 0.3750 (   358 PWs)   bands (ev):

    -5.1792   2.5978   4.5312   4.5843

          k = 0.1250 0.3750 0.3750 (   356 PWs)   bands (ev):

    -4.6901   1.2465   3.5692   5.0416

          k =-0.1250 0.6250 0.1250 (   357 PWs)   bands (ev):

    -4.1668   0.8920   3.2316   3.6720

          k =-0.1250 1.1250 0.1250 (   362 PWs)   bands (ev):

    -2.7225  -0.9485   2.5080   3.2126

          k = 0.6250-0.1250 0.8750 (   368 PWs)   bands (ev):

    -2.5639  -1.0417   1.9147   2.9651

          k = 0.6250 0.3750 0.8750 (   362 PWs)   bands (ev):

    -3.7617   0.0468   2.5996   3.9434

          k = 0.3750 0.1250 0.6250 (   362 PWs)   bands (ev):

    -3.7617   0.0468   2.5996   3.9434

          k = 0.3750 0.6250 0.6250 (   364 PWs)   bands (ev):

    -3.5798  -0.7862   3.5790   4.2867

          k =-0.1250-0.8750 0.1250 (   362 PWs)   bands (ev):

    -2.7225  -0.9485   2.5080   3.2126

          k =-0.1250-0.3750 0.1250 (   358 PWs)   bands (ev):

    -5.1792   2.5978   4.5312   4.5843

          k =-0.3750 0.3750 0.3750 (   359 PWs)   bands (ev):

    -4.2681  -0.0107   4.7404   4.7404

          k =-0.3750 0.8750 0.3750 (   365 PWs)   bands (ev):

    -3.0925  -0.7263   1.9639   3.9772

          k = 0.3750-0.3750 1.1250 (   365 PWs)   bands (ev):

    -3.0925  -0.7263   1.9639   3.9772

          k = 0.3750 0.1250 1.1250 (   368 PWs)   bands (ev):

    -2.5639  -1.0417   1.9147   2.9651

          k =-0.1250-0.1250 0.1250 (   347 PWs)   bands (ev):

    -5.6972   4.2083   5.5186   5.5186

          k =-0.1250 0.3750 0.1250 (   358 PWs)   bands (ev):

    -5.1792   2.5978   4.5312   4.5843

          k = 0.1250-0.3750 0.3750 (   356 PWs)   bands (ev):

    -4.6901   1.2465   3.5692   5.0416

          k = 0.1250 0.1250 0.3750 (   358 PWs)   bands (ev):

    -5.1792   2.5978   4.5312   4.5843

          k = 0.3750-0.1250 0.3750 (   356 PWs)   bands (ev):

    -4.6901   1.2465   3.5692   5.0416

          k = 0.3750 0.3750 0.3750 (   359 PWs)   bands (ev):

    -4.2681  -0.0107   4.7404   4.7404

          k = 0.3750 0.1250 0.3750 (   356 PWs)   bands (ev):

    -4.6901   1.2465   3.5692   5.0416

          k = 0.3750 0.6250 0.3750 (   364 PWs)   bands (ev):

    -3.5798  -0.7862   3.5790   4.2867

          k =-0.6250 0.3750-0.3750 (   364 PWs)   bands (ev):

    -3.5798  -0.7862   3.5790   4.2867

          k =-0.6250 0.8750-0.3750 (   362 PWs)   bands (ev):

    -3.7617   0.0468   2.5996   3.9434

          k =-0.3750 0.6250-0.3750 (   364 PWs)   bands (ev):

    -3.5798  -0.7862   3.5790   4.2867

          k =-0.3750 1.1250-0.3750 (   365 PWs)   bands (ev):

    -3.0925  -0.7263   1.9639   3.9772

          k =-0.3750-0.6250-0.3750 (   364 PWs)   bands (ev):

    -3.5798  -0.7862   3.5790   4.2867

          k =-0.3750-0.1250-0.3750 (   356 PWs)   bands (ev):

    -4.6901   1.2465   3.5692   5.0416

          k =-0.3750 0.1250-0.1250 (   358 PWs)   bands (ev):

    -5.1792   2.5978   4.5312   4.5843

          k =-0.3750 0.6250-0.1250 (   362 PWs)   bands (ev):

    -3.7617   0.0468   2.5996   3.9434

          k =-0.1250 0.3750-0.1250 (   358 PWs)   bands (ev):

    -5.1792   2.5978   4.5312   4.5843

          k =-0.1250 0.8750-0.1250 (   362 PWs)   bands (ev):

    -2.7225  -0.9485   2.5080   3.2126

          k =-0.1250-0.3750-0.1250 (   358 PWs)   bands (ev):

    -5.1792   2.5978   4.5312   4.5843

          k =-0.1250 0.1250-0.1250 (   347 PWs)   bands (ev):

    -5.6972   4.2083   5.5186   5.5186

          k =-0.1250-0.6250 0.1250 (   357 PWs)   bands (ev):

    -4.1668   0.8920   3.2316   3.6720

          k =-0.1250-0.1250 0.1250 (   347 PWs)   bands (ev):

    -5.6972   4.2083   5.5186   5.5186

          k = 0.6250-0.1250-0.1250 (   357 PWs)   bands (ev):

    -4.1668   0.8920   3.2316   3.6720

          k = 0.6250 0.3750-0.1250 (   362 PWs)   bands (ev):

    -3.7617   0.0468   2.5996   3.9434

          k = 0.6250 0.1250 0.1250 (   357 PWs)   bands (ev):

    -4.1668   0.8920   3.2316   3.6720

          k = 0.6250 0.6250 0.1250 (   365 PWs)   bands (ev):

    -3.0925  -0.7263   1.9639   3.9772

          k =-0.8750 0.1250-0.6250 (   368 PWs)   bands (ev):

    -2.5639  -1.0417   1.9147   2.9651

          k =-0.8750 0.6250-0.6250 (   356 PWs)   bands (ev):

    -4.6901   1.2465   3.5692   5.0416

          k =-0.1250 0.6250-0.8750 (   368 PWs)   bands (ev):

    -2.5639  -1.0417   1.9147   2.9651

          k =-0.1250 1.1250-0.8750 (   362 PWs)   bands (ev):

    -2.7225  -0.9485   2.5080   3.2126

          k =-0.1250 0.8750-0.6250 (   368 PWs)   bands (ev):

    -2.5639  -1.0417   1.9147   2.9651

          k =-0.1250 1.3750-0.6250 (   365 PWs)   bands (ev):

    -3.0925  -0.7263   1.9639   3.9772

          k =-0.1250-0.8750-0.6250 (   368 PWs)   bands (ev):

    -2.5639  -1.0417   1.9147   2.9651

          k =-0.1250-0.3750-0.6250 (   362 PWs)   bands (ev):

    -3.7617   0.0468   2.5996   3.9434

          k = 0.8750-0.6250 0.1250 (   368 PWs)   bands (ev):

    -2.5639  -1.0417   1.9147   2.9651

          k = 0.8750-0.1250 0.1250 (   362 PWs)   bands (ev):

    -2.7225  -0.9485   2.5080   3.2126

          k =-0.6250-0.1250-0.3750 (   362 PWs)   bands (ev):

    -3.7617   0.0468   2.5996   3.9434

          k =-0.6250 0.3750-0.3750 (   364 PWs)   bands (ev):

    -3.5798  -0.7862   3.5790   4.2867

          k = 0.1250 0.3750-0.6250 (   362 PWs)   bands (ev):

    -3.7617   0.0468   2.5996   3.9434

          k = 0.1250 0.8750-0.6250 (   368 PWs)   bands (ev):

    -2.5639  -1.0417   1.9147   2.9651

          k = 0.1250 0.6250-0.3750 (   362 PWs)   bands (ev):

    -3.7617   0.0468   2.5996   3.9434

          k = 0.1250 1.1250-0.3750 (   368 PWs)   bands (ev):

    -2.5639  -1.0417   1.9147   2.9651

          k = 0.1250-0.6250-0.3750 (   362 PWs)   bands (ev):

    -3.7617   0.0468   2.5996   3.9434

          k = 0.1250-0.1250-0.3750 (   358 PWs)   bands (ev):

    -5.1792   2.5978   4.5312   4.5843

          k = 0.6250-0.3750-0.1250 (   362 PWs)   bands (ev):

    -3.7617   0.0468   2.5996   3.9434

          k = 0.6250 0.1250-0.1250 (   357 PWs)   bands (ev):

    -4.1668   0.8920   3.2316   3.6720

          k =-0.1250 0.8750 0.1250 (   362 PWs)   bands (ev):

    -2.7225  -0.9485   2.5080   3.2126

          k =-0.1250 1.3750 0.1250 (   357 PWs)   bands (ev):

    -4.1668   0.8920   3.2316   3.6720

          k =-0.8750-0.1250-0.1250 (   362 PWs)   bands (ev):

    -2.7225  -0.9485   2.5080   3.2126

          k =-0.8750 0.3750-0.1250 (   368 PWs)   bands (ev):

    -2.5639  -1.0417   1.9147   2.9651

          k =-0.8750 0.1250 0.1250 (   362 PWs)   bands (ev):

    -2.7225  -0.9485   2.5080   3.2126

          k =-0.8750 0.6250 0.1250 (   368 PWs)   bands (ev):

    -2.5639  -1.0417   1.9147   2.9651

          k =-0.3750-0.3750 0.3750 (   359 PWs)   bands (ev):

    -4.2681  -0.0107   4.7404   4.7404

          k =-0.3750 0.1250 0.3750 (   356 PWs)   bands (ev):

    -4.6901   1.2465   3.5692   5.0416

          k =-1.1250 0.3750-0.3750 (   365 PWs)   bands (ev):

    -3.0925  -0.7263   1.9639   3.9772

          k =-1.1250 0.8750-0.3750 (   357 PWs)   bands (ev):

    -4.1668   0.8920   3.2316   3.6720

          k =-0.3750 1.1250-0.3750 (   365 PWs)   bands (ev):

    -3.0925  -0.7263   1.9639   3.9772

          k =-0.3750 1.6250-0.3750 (   359 PWs)   bands (ev):

    -4.2681  -0.0107   4.7404   4.7404

          k =-0.3750-1.1250-0.3750 (   365 PWs)   bands (ev):

    -3.0925  -0.7263   1.9639   3.9772

          k =-0.3750-0.6250-0.3750 (   364 PWs)   bands (ev):

    -3.5798  -0.7862   3.5790   4.2867

     highest occupied level (ev):     5.5186

     Writing output data file silicon.10.397.save

                                                                                

     bravais-lattice index     =            2
     lattice parameter (alat)  =      10.3970  a.u.
     unit-cell volume          =     280.9727 (a.u.)^3
     number of atoms/cell      =            2
     number of atomic types    =            1
     kinetic-energy cut-off    =      18.0000  Ry
     charge density cut-off    =      72.0000  Ry
     convergence threshold     =      1.0E-12
     beta                      =       0.7000
     number of iterations used =            4
     Exchange-correlation      = SLA  PW   PBE  PBE ( 1  4  3  4 0 0)


     celldm(1)=   10.39700  celldm(2)=    0.00000  celldm(3)=    0.00000
     celldm(4)=    0.00000  celldm(5)=    0.00000  celldm(6)=    0.00000

     crystal axes: (cart. coord. in units of alat)
               a(1) = ( -0.5000  0.0000  0.5000 )  
               a(2) = (  0.0000  0.5000  0.5000 )  
               a(3) = ( -0.5000  0.5000  0.0000 )  

     reciprocal axes: (cart. coord. in units 2 pi/alat)
               b(1) = ( -1.0000 -1.0000  1.0000 )  
               b(2) = (  1.0000  1.0000  1.0000 )  
               b(3) = ( -1.0000  1.0000 -1.0000 )  


     Atoms inside the unit cell: 

     Cartesian axes

     site n.  atom      mass           positions (alat units)
        1     Si  28.0860   tau(    1) = (    0.00000    0.00000    0.00000  )
        2     Si  28.0860   tau(    2) = (    0.25000    0.25000    0.25000  )

     Computing dynamical matrix for 
                    q = (   0.0000000   0.5000000   0.0000000 )

      8 Sym.Ops. (no q -> -q+G )


     G cutoff =  197.1464  (    722 G-vectors)     FFT grid: ( 20, 20, 20)
     number of k points=    80

     PseudoPot. # 1 for Si read from file:
     /home/max/quantum_espresso/qe-6.1/pseudo/si_pbe_v1.uspp.F.UPF.txt
     MD5 check sum: a056efeee980c13900f22a371efd63c1
     Pseudo is Ultrasoft + core correction, Zval =  4.0
     Generated by new atomic code, or converted to UPF format
     Using radial grid of  899 points,  6 beta functions with: 
                l(1) =   0
                l(2) =   0
                l(3) =   1
                l(4) =   1
                l(5) =   2
                l(6) =   2
     Q(r) pseudized with  8 coefficients,  rinner =    0.900   0.900   0.900
                                                       0.900   0.900

     Mode symmetry, C_4v (4mm)  point group:


     Atomic displacements:
     There are   4 irreducible representations

     Representation     1      1 modes -A_1  G_1 D_1  To be done

     Representation     2      1 modes -B_2  G_4 D_2'  To be done

     Representation     3      2 modes -E    G_5 D_5  To be done

     Representation     4      2 modes -E    G_5 D_5  To be done



     Alpha used in Ewald sum =   0.7000
     PHONON       :    21.85s CPU        23.61s WALL



     Representation #  1 mode #   1

     Self-consistent Calculation

      iter #   1 total cpu time :    23.8 secs   av.it.:   5.8
      thresh= 1.000E-02 alpha_mix =  0.700 |ddv_scf|^2 =  2.933E-03

      iter #   2 total cpu time :    23.9 secs   av.it.:   7.7
      thresh= 5.416E-03 alpha_mix =  0.700 |ddv_scf|^2 =  3.884E-02

      iter #   3 total cpu time :    24.1 secs   av.it.:   6.7
      thresh= 1.000E-02 alpha_mix =  0.700 |ddv_scf|^2 =  1.243E-07

      iter #   4 total cpu time :    24.3 secs   av.it.:   8.3
      thresh= 3.526E-05 alpha_mix =  0.700 |ddv_scf|^2 =  2.542E-08

      iter #   5 total cpu time :    24.5 secs   av.it.:   7.5
      thresh= 1.594E-05 alpha_mix =  0.700 |ddv_scf|^2 =  5.092E-10

      iter #   6 total cpu time :    24.6 secs   av.it.:   8.2
      thresh= 2.257E-06 alpha_mix =  0.700 |ddv_scf|^2 =  2.586E-10

      iter #   7 total cpu time :    24.8 secs   av.it.:   6.5
      thresh= 1.608E-06 alpha_mix =  0.700 |ddv_scf|^2 =  9.604E-12

      iter #   8 total cpu time :    25.1 secs   av.it.:   7.3
      thresh= 3.099E-07 alpha_mix =  0.700 |ddv_scf|^2 =  1.930E-13

     End of self-consistent calculation

     Convergence has been achieved 


     Representation #  2 mode #   2

     Self-consistent Calculation

      iter #   1 total cpu time :    25.3 secs   av.it.:   4.9
      thresh= 1.000E-02 alpha_mix =  0.700 |ddv_scf|^2 =  5.382E-06

      iter #   2 total cpu time :    25.5 secs   av.it.:   8.7
      thresh= 2.320E-04 alpha_mix =  0.700 |ddv_scf|^2 =  1.373E-06

      iter #   3 total cpu time :    25.7 secs   av.it.:   8.5
      thresh= 1.172E-04 alpha_mix =  0.700 |ddv_scf|^2 =  3.768E-08

      iter #   4 total cpu time :    25.8 secs   av.it.:   8.2
      thresh= 1.941E-05 alpha_mix =  0.700 |ddv_scf|^2 =  1.746E-09

      iter #   5 total cpu time :    26.0 secs   av.it.:   8.0
      thresh= 4.178E-06 alpha_mix =  0.700 |ddv_scf|^2 =  6.881E-11

      iter #   6 total cpu time :    26.2 secs   av.it.:   7.2
      thresh= 8.295E-07 alpha_mix =  0.700 |ddv_scf|^2 =  2.798E-12

      iter #   7 total cpu time :    26.3 secs   av.it.:   6.0
      thresh= 1.673E-07 alpha_mix =  0.700 |ddv_scf|^2 =  2.161E-13

     End of self-consistent calculation

     Convergence has been achieved 


     Representation #  3 modes #   3  4

     Self-consistent Calculation

      iter #   1 total cpu time :    26.6 secs   av.it.:   5.0
      thresh= 1.000E-02 alpha_mix =  0.700 |ddv_scf|^2 =  9.391E-07

      iter #   2 total cpu time :    27.2 secs   av.it.:   9.8
      thresh= 9.691E-05 alpha_mix =  0.700 |ddv_scf|^2 =  1.192E-07

      iter #   3 total cpu time :    27.6 secs   av.it.:   9.5
      thresh= 3.453E-05 alpha_mix =  0.700 |ddv_scf|^2 =  4.922E-09

      iter #   4 total cpu time :    28.0 secs   av.it.:   8.8
      thresh= 7.016E-06 alpha_mix =  0.700 |ddv_scf|^2 =  8.805E-12

      iter #   5 total cpu time :    28.4 secs   av.it.:   9.1
      thresh= 2.967E-07 alpha_mix =  0.700 |ddv_scf|^2 =  3.008E-13

     End of self-consistent calculation

     Convergence has been achieved 


     Representation #  4 modes #   5  6

     Self-consistent Calculation

      iter #   1 total cpu time :    28.7 secs   av.it.:   5.0
      thresh= 1.000E-02 alpha_mix =  0.700 |ddv_scf|^2 =  9.423E-07

      iter #   2 total cpu time :    29.2 secs   av.it.:   9.8
      thresh= 9.707E-05 alpha_mix =  0.700 |ddv_scf|^2 =  1.196E-07

      iter #   3 total cpu time :    29.6 secs   av.it.:   9.5
      thresh= 3.458E-05 alpha_mix =  0.700 |ddv_scf|^2 =  7.334E-09

      iter #   4 total cpu time :    30.0 secs   av.it.:   8.9
      thresh= 8.564E-06 alpha_mix =  0.700 |ddv_scf|^2 =  1.545E-11

      iter #   5 total cpu time :    30.4 secs   av.it.:   9.2
      thresh= 3.930E-07 alpha_mix =  0.700 |ddv_scf|^2 =  4.582E-14

     End of self-consistent calculation

     Convergence has been achieved 

     Number of q in the star =    6
     List of q in the star:
          1   0.000000000   0.500000000   0.000000000
          2   0.000000000  -0.500000000   0.000000000
          3   0.500000000   0.000000000   0.000000000
          4   0.000000000   0.000000000   0.500000000
          5   0.000000000   0.000000000  -0.500000000
          6  -0.500000000   0.000000000   0.000000000

     Diagonalizing the dynamical matrix

     q = (    0.000000000   0.500000000   0.000000000 ) 

 **************************************************************************
     freq (    1) =       4.412534 [THz] =     147.186289 [cm-1]
     freq (    2) =       4.412534 [THz] =     147.186289 [cm-1]
     freq (    3) =       6.918019 [THz] =     230.760279 [cm-1]
     freq (    4) =      14.236407 [THz] =     474.875407 [cm-1]
     freq (    5) =      14.236407 [THz] =     474.875407 [cm-1]
     freq (    6) =      14.933313 [THz] =     498.121692 [cm-1]
 **************************************************************************

     Mode symmetry, C_4v (4mm)  point group:

     freq (  1 -  2) =        147.2  [cm-1]   --> E    G_5 D_5       
     freq (  3 -  3) =        230.8  [cm-1]   --> A_1  G_1 D_1       
     freq (  4 -  5) =        474.9  [cm-1]   --> E    G_5 D_5       
     freq (  6 -  6) =        498.1  [cm-1]   --> B_2  G_4 D_2'      

     Calculation of q =    0.7500000  -0.2500000   0.7500000

   Info: using nr1, nr2, nr3 values from input

   Info: using nr1, nr2, nr3 values from input

     Parallelization info
     --------------------
     sticks:   dense  smooth     PW     G-vecs:    dense   smooth      PW
     Min          65      65     30                  722      722     216
     Max          67      67     31                  723      723     218
     Sum         265     265    121                 2891     2891     869



     bravais-lattice index     =            2
     lattice parameter (alat)  =      10.3970  a.u.
     unit-cell volume          =     280.9727 (a.u.)^3
     number of atoms/cell      =            2
     number of atomic types    =            1
     number of electrons       =         8.00
     number of Kohn-Sham states=            4
     kinetic-energy cutoff     =      18.0000  Ry
     charge density cutoff     =      72.0000  Ry
     Exchange-correlation      = SLA  PW   PBE  PBE ( 1  4  3  4 0 0)

     celldm(1)=  10.397000  celldm(2)=   0.000000  celldm(3)=   0.000000
     celldm(4)=   0.000000  celldm(5)=   0.000000  celldm(6)=   0.000000

     crystal axes: (cart. coord. in units of alat)
               a(1) = (  -0.500000   0.000000   0.500000 )  
               a(2) = (   0.000000   0.500000   0.500000 )  
               a(3) = (  -0.500000   0.500000   0.000000 )  

     reciprocal axes: (cart. coord. in units 2 pi/alat)
               b(1) = ( -1.000000 -1.000000  1.000000 )  
               b(2) = (  1.000000  1.000000  1.000000 )  
               b(3) = ( -1.000000  1.000000 -1.000000 )  


     PseudoPot. # 1 for Si read from file:
     /home/max/quantum_espresso/qe-6.1/pseudo/si_pbe_v1.uspp.F.UPF.txt
     MD5 check sum: a056efeee980c13900f22a371efd63c1
     Pseudo is Ultrasoft + core correction, Zval =  4.0
     Generated by new atomic code, or converted to UPF format
     Using radial grid of  899 points,  6 beta functions with: 
                l(1) =   0
                l(2) =   0
                l(3) =   1
                l(4) =   1
                l(5) =   2
                l(6) =   2
     Q(r) pseudized with  8 coefficients,  rinner =    0.900   0.900   0.900
                                                       0.900   0.900

     atomic species   valence    mass     pseudopotential
        Si             4.00    28.08600     Si( 1.00)

     48 Sym. Ops., with inversion, found



   Cartesian axes

     site n.     atom                  positions (alat units)
         1           Si  tau(   1) = (   0.0000000   0.0000000   0.0000000  )
         2           Si  tau(   2) = (   0.2500000   0.2500000   0.2500000  )

     number of k points=   288

     Number of k-points >= 100: set verbosity='high' to print them.

     Dense  grid:     2891 G-vectors     FFT dimensions: (  20,  20,  20)

     Estimated max dynamical RAM per process >       0.33MB

     Estimated total allocated dynamical RAM >       1.33MB

     Check: negative/imaginary core charge=   -0.000006    0.000000

     The potential is recalculated from file :
     ./_ph0/silicon.10.397.save/charge-density.dat

     Starting wfc are    8 atomic wfcs

     Band Structure Calculation
     Davidson diagonalization with overlap

     ethr =  1.25E-10,  avg # of iterations = 11.6

     total cpu time spent up to now is        4.3 secs

     End of band structure calculation

     Number of k-points >= 100: set verbosity='high' to print the bands.

     highest occupied level (ev):     5.5186

     Writing output data file silicon.10.397.save

                                                                                

     bravais-lattice index     =            2
     lattice parameter (alat)  =      10.3970  a.u.
     unit-cell volume          =     280.9727 (a.u.)^3
     number of atoms/cell      =            2
     number of atomic types    =            1
     kinetic-energy cut-off    =      18.0000  Ry
     charge density cut-off    =      72.0000  Ry
     convergence threshold     =      1.0E-12
     beta                      =       0.7000
     number of iterations used =            4
     Exchange-correlation      = SLA  PW   PBE  PBE ( 1  4  3  4 0 0)


     celldm(1)=   10.39700  celldm(2)=    0.00000  celldm(3)=    0.00000
     celldm(4)=    0.00000  celldm(5)=    0.00000  celldm(6)=    0.00000

     crystal axes: (cart. coord. in units of alat)
               a(1) = ( -0.5000  0.0000  0.5000 )  
               a(2) = (  0.0000  0.5000  0.5000 )  
               a(3) = ( -0.5000  0.5000  0.0000 )  

     reciprocal axes: (cart. coord. in units 2 pi/alat)
               b(1) = ( -1.0000 -1.0000  1.0000 )  
               b(2) = (  1.0000  1.0000  1.0000 )  
               b(3) = ( -1.0000  1.0000 -1.0000 )  


     Atoms inside the unit cell: 

     Cartesian axes

     site n.  atom      mass           positions (alat units)
        1     Si  28.0860   tau(    1) = (    0.00000    0.00000    0.00000  )
        2     Si  28.0860   tau(    2) = (    0.25000    0.25000    0.25000  )

     Computing dynamical matrix for 
                    q = (   0.7500000  -0.2500000   0.7500000 )

      2 Sym.Ops. (no q -> -q+G )


     G cutoff =  197.1464  (    723 G-vectors)     FFT grid: ( 20, 20, 20)
     number of k points=   288

     PseudoPot. # 1 for Si read from file:
     /home/max/quantum_espresso/qe-6.1/pseudo/si_pbe_v1.uspp.F.UPF.txt
     MD5 check sum: a056efeee980c13900f22a371efd63c1
     Pseudo is Ultrasoft + core correction, Zval =  4.0
     Generated by new atomic code, or converted to UPF format
     Using radial grid of  899 points,  6 beta functions with: 
                l(1) =   0
                l(2) =   0
                l(3) =   1
                l(4) =   1
                l(5) =   2
                l(6) =   2
     Q(r) pseudized with  8 coefficients,  rinner =    0.900   0.900   0.900
                                                       0.900   0.900

     Mode symmetry, C_s (m)     point group:


     Atomic displacements:
     There are   6 irreducible representations

     Representation     1      1 modes -A'  To be done

     Representation     2      1 modes -A'  To be done

     Representation     3      1 modes -A'  To be done

     Representation     4      1 modes -A'  To be done

     Representation     5      1 modes -A''  To be done

     Representation     6      1 modes -A''  To be done



     Alpha used in Ewald sum =   0.7000
     PHONON       :    31.00s CPU        33.29s WALL



     Representation #  1 mode #   1

     Self-consistent Calculation

      iter #   1 total cpu time :    33.8 secs   av.it.:   5.3
      thresh= 1.000E-02 alpha_mix =  0.700 |ddv_scf|^2 =  6.175E-05

      iter #   2 total cpu time :    34.4 secs   av.it.:   8.9
      thresh= 7.858E-04 alpha_mix =  0.700 |ddv_scf|^2 =  1.660E-04

      iter #   3 total cpu time :    35.2 secs   av.it.:   7.5
      thresh= 1.289E-03 alpha_mix =  0.700 |ddv_scf|^2 =  1.156E-06

      iter #   4 total cpu time :    35.9 secs   av.it.:   8.4
      thresh= 1.075E-04 alpha_mix =  0.700 |ddv_scf|^2 =  8.986E-08

      iter #   5 total cpu time :    36.5 secs   av.it.:   8.1
      thresh= 2.998E-05 alpha_mix =  0.700 |ddv_scf|^2 =  1.340E-08

      iter #   6 total cpu time :    37.3 secs   av.it.:   8.3
      thresh= 1.158E-05 alpha_mix =  0.700 |ddv_scf|^2 =  1.382E-09

      iter #   7 total cpu time :    37.9 secs   av.it.:   7.9
      thresh= 3.718E-06 alpha_mix =  0.700 |ddv_scf|^2 =  1.178E-10

      iter #   8 total cpu time :    38.5 secs   av.it.:   7.9
      thresh= 1.086E-06 alpha_mix =  0.700 |ddv_scf|^2 =  5.133E-11

      iter #   9 total cpu time :    39.3 secs   av.it.:   7.8
      thresh= 7.165E-07 alpha_mix =  0.700 |ddv_scf|^2 =  5.962E-12

      iter #  10 total cpu time :    39.9 secs   av.it.:   8.3
      thresh= 2.442E-07 alpha_mix =  0.700 |ddv_scf|^2 =  9.062E-13

     End of self-consistent calculation

     Convergence has been achieved 


     Representation #  2 mode #   2

     Self-consistent Calculation

      iter #   1 total cpu time :    40.5 secs   av.it.:   5.4
      thresh= 1.000E-02 alpha_mix =  0.700 |ddv_scf|^2 =  1.186E-04

      iter #   2 total cpu time :    41.3 secs   av.it.:   8.7
      thresh= 1.089E-03 alpha_mix =  0.700 |ddv_scf|^2 =  3.215E-04

      iter #   3 total cpu time :    41.8 secs   av.it.:   7.4
      thresh= 1.793E-03 alpha_mix =  0.700 |ddv_scf|^2 =  1.185E-06

      iter #   4 total cpu time :    42.5 secs   av.it.:   8.4
      thresh= 1.089E-04 alpha_mix =  0.700 |ddv_scf|^2 =  1.088E-07

      iter #   5 total cpu time :    43.3 secs   av.it.:   8.1
      thresh= 3.299E-05 alpha_mix =  0.700 |ddv_scf|^2 =  1.630E-08

      iter #   6 total cpu time :    43.9 secs   av.it.:   8.3
      thresh= 1.277E-05 alpha_mix =  0.700 |ddv_scf|^2 =  6.608E-10

      iter #   7 total cpu time :    44.5 secs   av.it.:   7.8
      thresh= 2.571E-06 alpha_mix =  0.700 |ddv_scf|^2 =  1.394E-10

      iter #   8 total cpu time :    45.3 secs   av.it.:   7.9
      thresh= 1.181E-06 alpha_mix =  0.700 |ddv_scf|^2 =  2.130E-11

      iter #   9 total cpu time :    45.9 secs   av.it.:   8.3
      thresh= 4.615E-07 alpha_mix =  0.700 |ddv_scf|^2 =  2.447E-11

      iter #  10 total cpu time :    46.5 secs   av.it.:   7.9
      thresh= 4.947E-07 alpha_mix =  0.700 |ddv_scf|^2 =  1.069E-12

[...]
        k(   63) = (  -0.3750000   0.3750000   1.1250000), wk =   0.0625000
        k(   64) = (  -0.8750000  -0.6250000   1.1250000), wk =   0.0000000

     Dense  grid:     2891 G-vectors     FFT dimensions: (  20,  20,  20)

     Estimated max dynamical RAM per process >       0.33MB

     Estimated total allocated dynamical RAM >       1.33MB

     Check: negative/imaginary core charge=   -0.000006    0.000000

     The potential is recalculated from file :
     ./_ph0/silicon.10.397.save/charge-density.dat

     Starting wfc are    8 atomic wfcs

     Band Structure Calculation
     Davidson diagonalization with overlap

     ethr =  1.25E-10,  avg # of iterations = 11.6

     total cpu time spent up to now is        6.7 secs

     End of band structure calculation

          k =-0.1250 0.1250 0.1250 (   347 PWs)   bands (ev):

    -5.6972   4.2083   5.5186   5.5186

          k =-0.6250-0.8750 0.1250 (   368 PWs)   bands (ev):

    -2.5639  -1.0417   1.9147   2.9651

          k =-0.3750 0.3750-0.1250 (   356 PWs)   bands (ev):

    -4.6901   1.2465   3.5692   5.0416

          k =-0.8750-0.6250-0.1250 (   368 PWs)   bands (ev):

    -2.5639  -1.0417   1.9147   2.9651

          k = 0.3750-0.3750 0.6250 (   364 PWs)   bands (ev):

    -3.5798  -0.7862   3.5790   4.2867

          k =-0.1250-1.3750 0.6250 (   365 PWs)   bands (ev):

    -3.0925  -0.7263   1.9639   3.9772

          k = 0.1250-0.1250 0.3750 (   358 PWs)   bands (ev):

    -5.1792   2.5978   4.5312   4.5843

          k =-0.3750-1.1250 0.3750 (   365 PWs)   bands (ev):

    -3.0925  -0.7263   1.9639   3.9772

          k =-0.1250 0.6250 0.1250 (   357 PWs)   bands (ev):

    -4.1668   0.8920   3.2316   3.6720

          k =-0.6250-0.3750 0.1250 (   362 PWs)   bands (ev):

    -3.7617   0.0468   2.5996   3.9434

          k = 0.6250-0.1250 0.8750 (   368 PWs)   bands (ev):

    -2.5639  -1.0417   1.9147   2.9651

          k = 0.1250-1.1250 0.8750 (   362 PWs)   bands (ev):

    -2.7225  -0.9485   2.5080   3.2126

          k = 0.3750 0.1250 0.6250 (   362 PWs)   bands (ev):

    -3.7617   0.0468   2.5996   3.9434

          k =-0.1250-0.8750 0.6250 (   368 PWs)   bands (ev):

    -2.5639  -1.0417   1.9147   2.9651

          k =-0.1250-0.8750 0.1250 (   362 PWs)   bands (ev):

    -2.7225  -0.9485   2.5080   3.2126

          k =-0.6250-1.8750 0.1250 (   357 PWs)   bands (ev):

    -4.1668   0.8920   3.2316   3.6720

          k =-0.3750 0.3750 0.3750 (   359 PWs)   bands (ev):

    -4.2681  -0.0107   4.7404   4.7404

          k =-0.8750-0.6250 0.3750 (   362 PWs)   bands (ev):

    -3.7617   0.0468   2.5996   3.9434

          k = 0.3750-0.3750 1.1250 (   365 PWs)   bands (ev):

    -3.0925  -0.7263   1.9639   3.9772

          k =-0.1250-1.3750 1.1250 (   368 PWs)   bands (ev):

    -2.5639  -1.0417   1.9147   2.9651

          k = 0.1250-0.3750 0.3750 (   356 PWs)   bands (ev):

    -4.6901   1.2465   3.5692   5.0416

          k =-0.3750-1.3750 0.3750 (   364 PWs)   bands (ev):

    -3.5798  -0.7862   3.5790   4.2867

          k = 0.3750-0.3750-0.1250 (   356 PWs)   bands (ev):

    -4.6901   1.2465   3.5692   5.0416

          k =-0.1250-1.3750-0.1250 (   357 PWs)   bands (ev):

    -4.1668   0.8920   3.2316   3.6720

          k =-0.6250 0.3750-0.3750 (   364 PWs)   bands (ev):

    -3.5798  -0.7862   3.5790   4.2867

          k =-1.1250-0.6250-0.3750 (   362 PWs)   bands (ev):

    -3.7617   0.0468   2.5996   3.9434

          k =-0.3750 0.3750 0.6250 (   364 PWs)   bands (ev):

    -3.5798  -0.7862   3.5790   4.2867

          k =-0.8750-0.6250 0.6250 (   356 PWs)   bands (ev):

    -4.6901   1.2465   3.5692   5.0416

          k =-0.3750 0.1250-0.1250 (   358 PWs)   bands (ev):

    -5.1792   2.5978   4.5312   4.5843

          k =-0.8750-0.8750-0.1250 (   362 PWs)   bands (ev):

    -2.7225  -0.9485   2.5080   3.2126

          k =-0.1250 0.1250 0.3750 (   358 PWs)   bands (ev):

    -5.1792   2.5978   4.5312   4.5843

          k =-0.6250-0.8750 0.3750 (   362 PWs)   bands (ev):

    -3.7617   0.0468   2.5996   3.9434

          k = 0.1250 0.6250-0.1250 (   357 PWs)   bands (ev):

    -4.1668   0.8920   3.2316   3.6720

          k =-0.3750-0.3750-0.1250 (   356 PWs)   bands (ev):

    -4.6901   1.2465   3.5692   5.0416

          k = 0.6250 0.1250-0.1250 (   357 PWs)   bands (ev):

    -4.1668   0.8920   3.2316   3.6720

          k = 0.1250-0.8750-0.1250 (   362 PWs)   bands (ev):

    -2.7225  -0.9485   2.5080   3.2126

          k =-0.8750 0.1250-0.6250 (   368 PWs)   bands (ev):

    -2.5639  -1.0417   1.9147   2.9651

          k =-1.3750-0.8750-0.6250 (   356 PWs)   bands (ev):

    -4.6901   1.2465   3.5692   5.0416

          k = 0.8750-0.1250 0.6250 (   368 PWs)   bands (ev):

    -2.5639  -1.0417   1.9147   2.9651

          k = 0.3750-1.1250 0.6250 (   362 PWs)   bands (ev):

    -3.7617   0.0468   2.5996   3.9434

          k =-0.6250 0.1250 0.8750 (   368 PWs)   bands (ev):

    -2.5639  -1.0417   1.9147   2.9651

          k =-1.1250-0.8750 0.8750 (   347 PWs)   bands (ev):

    -5.6972   4.2083   5.5186   5.5186

          k =-0.1250 0.8750 0.6250 (   368 PWs)   bands (ev):

    -2.5639  -1.0417   1.9147   2.9651

          k =-0.6250-0.1250 0.6250 (   365 PWs)   bands (ev):

    -3.0925  -0.7263   1.9639   3.9772

          k = 0.1250 0.8750-0.6250 (   368 PWs)   bands (ev):

    -2.5639  -1.0417   1.9147   2.9651

          k =-0.3750-0.1250-0.6250 (   362 PWs)   bands (ev):

    -3.7617   0.0468   2.5996   3.9434

          k =-0.6250-0.1250-0.3750 (   362 PWs)   bands (ev):

    -3.7617   0.0468   2.5996   3.9434

          k =-1.1250-1.1250-0.3750 (   357 PWs)   bands (ev):

    -4.1668   0.8920   3.2316   3.6720

          k = 0.6250 0.1250 0.3750 (   362 PWs)   bands (ev):

    -3.7617   0.0468   2.5996   3.9434

          k = 0.1250-0.8750 0.3750 (   368 PWs)   bands (ev):

    -2.5639  -1.0417   1.9147   2.9651

          k =-0.3750-0.1250 0.6250 (   362 PWs)   bands (ev):

    -3.7617   0.0468   2.5996   3.9434

          k =-0.8750-1.1250 0.6250 (   358 PWs)   bands (ev):

    -5.1792   2.5978   4.5312   4.5843

          k = 0.1250 0.6250 0.3750 (   362 PWs)   bands (ev):

    -3.7617   0.0468   2.5996   3.9434

          k =-0.3750-0.3750 0.3750 (   359 PWs)   bands (ev):

    -4.2681  -0.0107   4.7404   4.7404

          k =-0.1250 0.6250-0.3750 (   362 PWs)   bands (ev):

    -3.7617   0.0468   2.5996   3.9434

          k =-0.6250-0.3750-0.3750 (   364 PWs)   bands (ev):

    -3.5798  -0.7862   3.5790   4.2867

          k = 0.1250-0.8750-0.1250 (   362 PWs)   bands (ev):

    -2.7225  -0.9485   2.5080   3.2126

          k =-0.3750-1.8750-0.1250 (   358 PWs)   bands (ev):

    -5.1792   2.5978   4.5312   4.5843

          k =-0.8750 0.1250-0.1250 (   362 PWs)   bands (ev):

    -2.7225  -0.9485   2.5080   3.2126

          k =-1.3750-0.8750-0.1250 (   368 PWs)   bands (ev):

    -2.5639  -1.0417   1.9147   2.9651

          k =-1.1250 0.3750-0.3750 (   365 PWs)   bands (ev):

    -3.0925  -0.7263   1.9639   3.9772

          k =-1.6250-0.6250-0.3750 (   364 PWs)   bands (ev):

    -3.5798  -0.7862   3.5790   4.2867

          k =-0.3750 0.3750 1.1250 (   365 PWs)   bands (ev):

    -3.0925  -0.7263   1.9639   3.9772

          k =-0.8750-0.6250 1.1250 (   358 PWs)   bands (ev):

    -5.1792   2.5978   4.5312   4.5843

     highest occupied level (ev):     5.5186

     Writing output data file silicon.10.397.save

                                                                                

     bravais-lattice index     =            2
     lattice parameter (alat)  =      10.3970  a.u.
     unit-cell volume          =     280.9727 (a.u.)^3
     number of atoms/cell      =            2
     number of atomic types    =            1
     kinetic-energy cut-off    =      18.0000  Ry
     charge density cut-off    =      72.0000  Ry
     convergence threshold     =      1.0E-12
     beta                      =       0.7000
     number of iterations used =            4
     Exchange-correlation      = SLA  PW   PBE  PBE ( 1  4  3  4 0 0)


     celldm(1)=   10.39700  celldm(2)=    0.00000  celldm(3)=    0.00000
     celldm(4)=    0.00000  celldm(5)=    0.00000  celldm(6)=    0.00000

     crystal axes: (cart. coord. in units of alat)
               a(1) = ( -0.5000  0.0000  0.5000 )  
               a(2) = (  0.0000  0.5000  0.5000 )  
               a(3) = ( -0.5000  0.5000  0.0000 )  

     reciprocal axes: (cart. coord. in units 2 pi/alat)
               b(1) = ( -1.0000 -1.0000  1.0000 )  
               b(2) = (  1.0000  1.0000  1.0000 )  
               b(3) = ( -1.0000  1.0000 -1.0000 )  


     Atoms inside the unit cell: 

     Cartesian axes

     site n.  atom      mass           positions (alat units)
        1     Si  28.0860   tau(    1) = (    0.00000    0.00000    0.00000  )
        2     Si  28.0860   tau(    2) = (    0.25000    0.25000    0.25000  )

     Computing dynamical matrix for 
                    q = (  -0.5000000  -1.0000000   0.0000000 )

      8 Sym.Ops. (no q -> -q+G )


     G cutoff =  197.1464  (    722 G-vectors)     FFT grid: ( 20, 20, 20)
     number of k points=    64

     PseudoPot. # 1 for Si read from file:
     /home/max/quantum_espresso/qe-6.1/pseudo/si_pbe_v1.uspp.F.UPF.txt
     MD5 check sum: a056efeee980c13900f22a371efd63c1
     Pseudo is Ultrasoft + core correction, Zval =  4.0
     Generated by new atomic code, or converted to UPF format
     Using radial grid of  899 points,  6 beta functions with: 
                l(1) =   0
                l(2) =   0
                l(3) =   1
                l(4) =   1
                l(5) =   2
                l(6) =   2
     Q(r) pseudized with  8 coefficients,  rinner =    0.900   0.900   0.900
                                                       0.900   0.900


     Atomic displacements:
     There are   3 irreducible representations

     Representation     1      2 modes -  To be done

     Representation     2      2 modes -  To be done

     Representation     3      2 modes -  To be done



     Alpha used in Ewald sum =   0.7000
     PHONON       :  1m21.95s CPU     1m27.68s WALL



     Representation #  1 modes #   1  2

     Self-consistent Calculation

      iter #   1 total cpu time :    87.9 secs   av.it.:   5.3
      thresh= 1.000E-02 alpha_mix =  0.700 |ddv_scf|^2 =  7.936E-06

      iter #   2 total cpu time :    88.2 secs   av.it.:   9.7
      thresh= 2.817E-04 alpha_mix =  0.700 |ddv_scf|^2 =  3.693E-06

      iter #   3 total cpu time :    88.6 secs   av.it.:   9.2
      thresh= 1.922E-04 alpha_mix =  0.700 |ddv_scf|^2 =  2.836E-08

      iter #   4 total cpu time :    88.9 secs   av.it.:   8.8
      thresh= 1.684E-05 alpha_mix =  0.700 |ddv_scf|^2 =  1.576E-10

      iter #   5 total cpu time :    89.3 secs   av.it.:   8.5
      thresh= 1.255E-06 alpha_mix =  0.700 |ddv_scf|^2 =  2.435E-11

      iter #   6 total cpu time :    89.6 secs   av.it.:   7.6
      thresh= 4.935E-07 alpha_mix =  0.700 |ddv_scf|^2 =  9.814E-13

     End of self-consistent calculation

     Convergence has been achieved 


     Representation #  2 modes #   3  4

     Self-consistent Calculation

      iter #   1 total cpu time :    89.8 secs   av.it.:   5.2
      thresh= 1.000E-02 alpha_mix =  0.700 |ddv_scf|^2 =  9.709E-06

      iter #   2 total cpu time :    90.2 secs   av.it.:   9.9
      thresh= 3.116E-04 alpha_mix =  0.700 |ddv_scf|^2 =  1.319E-05

      iter #   3 total cpu time :    90.5 secs   av.it.:   9.1
      thresh= 3.631E-04 alpha_mix =  0.700 |ddv_scf|^2 =  1.028E-08

      iter #   4 total cpu time :    90.8 secs   av.it.:   8.9
      thresh= 1.014E-05 alpha_mix =  0.700 |ddv_scf|^2 =  9.571E-11

      iter #   5 total cpu time :    91.3 secs   av.it.:   9.4
      thresh= 9.783E-07 alpha_mix =  0.700 |ddv_scf|^2 =  1.855E-12

      iter #   6 total cpu time :    91.6 secs   av.it.:   9.1
      thresh= 1.362E-07 alpha_mix =  0.700 |ddv_scf|^2 =  1.642E-14

     End of self-consistent calculation

     Convergence has been achieved 


     Representation #  3 modes #   5  6

     Self-consistent Calculation

      iter #   1 total cpu time :    91.8 secs   av.it.:   5.1
      thresh= 1.000E-02 alpha_mix =  0.700 |ddv_scf|^2 =  2.958E-06

      iter #   2 total cpu time :    92.2 secs   av.it.:   9.5
      thresh= 1.720E-04 alpha_mix =  0.700 |ddv_scf|^2 =  1.596E-06

      iter #   3 total cpu time :    92.5 secs   av.it.:   9.0
      thresh= 1.263E-04 alpha_mix =  0.700 |ddv_scf|^2 =  9.276E-09

      iter #   4 total cpu time :    92.8 secs   av.it.:   8.5
      thresh= 9.631E-06 alpha_mix =  0.700 |ddv_scf|^2 =  2.509E-10

      iter #   5 total cpu time :    93.2 secs   av.it.:   8.8
      thresh= 1.584E-06 alpha_mix =  0.700 |ddv_scf|^2 =  6.755E-12

      iter #   6 total cpu time :    93.5 secs   av.it.:   7.9
      thresh= 2.599E-07 alpha_mix =  0.700 |ddv_scf|^2 =  7.495E-13

     End of self-consistent calculation

     Convergence has been achieved 

     Number of q in the star =    6
     List of q in the star:
          1  -0.500000000  -1.000000000   0.000000000
          2   0.000000000   1.000000000   0.500000000
          3   0.000000000  -1.000000000  -0.500000000
          4   0.500000000   1.000000000   0.000000000
          5  -1.000000000  -0.500000000   0.000000000
          6   0.000000000  -0.500000000  -1.000000000

     Diagonalizing the dynamical matrix

     q = (   -0.500000000  -1.000000000   0.000000000 ) 

 **************************************************************************
     freq (    1) =       7.787353 [THz] =     259.758145 [cm-1]
     freq (    2) =       7.787353 [THz] =     259.758145 [cm-1]
     freq (    3) =      11.037210 [THz] =     368.161693 [cm-1]
     freq (    4) =      11.037210 [THz] =     368.161693 [cm-1]
     freq (    5) =      13.695977 [THz] =     456.848611 [cm-1]
     freq (    6) =      13.695977 [THz] =     456.848611 [cm-1]
 **************************************************************************

     init_run     :      0.51s CPU      0.54s WALL (       7 calls)
     electrons    :      4.94s CPU      5.42s WALL (       7 calls)

     Called by init_run:
     wfcinit      :      0.00s CPU      0.00s WALL (       7 calls)
     potinit      :      0.01s CPU      0.02s WALL (       7 calls)

     Called by electrons:
     c_bands      :      4.94s CPU      5.41s WALL (       7 calls)
     v_of_rho     :      0.01s CPU      0.01s WALL (       8 calls)
     newd         :      0.03s CPU      0.03s WALL (       8 calls)

     Called by c_bands:
     init_us_2    :      0.75s CPU      0.79s WALL (   19636 calls)
     cegterg      :      4.19s CPU      4.55s WALL (     796 calls)

     Called by sum_band:

     Called by *egterg:
     h_psi        :     48.14s CPU     51.57s WALL (  169234 calls)
     s_psi        :      6.46s CPU      6.87s WALL (  345320 calls)
     g_psi        :      0.03s CPU      0.03s WALL (    9268 calls)
     cdiaghg      :      0.47s CPU      0.50s WALL (   10064 calls)

     Called by h_psi:
     h_psi:pot    :     47.92s CPU     51.35s WALL (  169234 calls)
     h_psi:calbec :      5.14s CPU      5.55s WALL (  169234 calls)
     vloc_psi     :     39.33s CPU     42.15s WALL (  169234 calls)
     add_vuspsi   :      3.21s CPU      3.40s WALL (  169234 calls)

     General routines
     calbec       :     11.17s CPU     11.96s WALL (  383824 calls)
     fft          :      0.33s CPU      0.34s WALL (    5617 calls)
     ffts         :      0.13s CPU      0.14s WALL (    2748 calls)
     fftw         :     45.84s CPU     49.15s WALL ( 1536704 calls)
     davcio       :      0.36s CPU      0.39s WALL (   89852 calls)

     Parallel routines
     fft_scatter  :     10.25s CPU     11.37s WALL ( 1545069 calls)

     PHONON       :  1m27.40s CPU     1m33.52s WALL

     INITIALIZATION: 
     phq_setup    :      0.05s CPU      0.06s WALL (       8 calls)
     phq_init     :      2.18s CPU      2.28s WALL (       8 calls)

     phq_init     :      2.18s CPU      2.28s WALL (       8 calls)
     set_drhoc    :      0.29s CPU      0.29s WALL (      24 calls)
     init_vloc    :      0.01s CPU      0.01s WALL (       8 calls)
     init_us_1    :      0.47s CPU      0.48s WALL (       8 calls)
     newd         :      0.03s CPU      0.03s WALL (       8 calls)
     dvanqq       :      0.28s CPU      0.28s WALL (       8 calls)
     drho         :      1.16s CPU      1.24s WALL (       8 calls)

     DYNAMICAL MATRIX:
     dynmat0      :      0.48s CPU      0.49s WALL (       8 calls)
     phqscf       :     77.25s CPU     82.56s WALL (       8 calls)
     dynmatrix    :      0.01s CPU      0.02s WALL (       8 calls)

     phqscf       :     77.25s CPU     82.56s WALL (       8 calls)
     solve_linter :     76.53s CPU     81.82s WALL (      32 calls)
     drhodv       :      0.52s CPU      0.52s WALL (      32 calls)

     dynmat0      :      0.48s CPU      0.49s WALL (       8 calls)
     dynmat_us    :      0.26s CPU      0.26s WALL (       8 calls)
     d2ionq       :      0.00s CPU      0.01s WALL (       8 calls)
     dynmatcc     :      0.21s CPU      0.21s WALL (       8 calls)

     dynmat_us    :      0.26s CPU      0.26s WALL (       8 calls)
     addusdynmat  :      0.00s CPU      0.00s WALL (       8 calls)

     phqscf       :     77.25s CPU     82.56s WALL (       8 calls)
     solve_linter :     76.53s CPU     81.82s WALL (      32 calls)

     solve_linter :     76.53s CPU     81.82s WALL (      32 calls)
     dvqpsi_us    :      1.60s CPU      1.71s WALL (    2508 calls)
     ortho        :      1.22s CPU      1.34s WALL (   17682 calls)
     cgsolve      :     59.94s CPU     64.18s WALL (   17682 calls)
     incdrhoscf   :      5.30s CPU      5.72s WALL (   17682 calls)
     addusddens   :      1.23s CPU      1.27s WALL (     252 calls)
     vpsifft      :      3.96s CPU      4.23s WALL (   15054 calls)
     dv_of_drho   :      0.22s CPU      0.22s WALL (     322 calls)
     mix_pot      :      0.06s CPU      0.06s WALL (     225 calls)
     psymdvscf    :      0.84s CPU      0.86s WALL (     220 calls)
     newdq        :      1.34s CPU      1.40s WALL (     225 calls)
     adddvscf     :      0.54s CPU      0.56s WALL (   15174 calls)
     drhodvus     :      0.00s CPU      0.00s WALL (      32 calls)

     dvqpsi_us    :      1.60s CPU      1.71s WALL (    2508 calls)
     dvqpsi_us_on :      0.82s CPU      0.88s WALL (    2508 calls)

     cgsolve      :     59.94s CPU     64.18s WALL (   17682 calls)
     ch_psi       :     57.77s CPU     61.77s WALL (  158374 calls)

     ch_psi       :     57.77s CPU     61.77s WALL (  158374 calls)
     h_psi        :     48.14s CPU     51.57s WALL (  169234 calls)
     last         :      9.60s CPU     10.26s WALL (  158374 calls)

     h_psi        :     48.14s CPU     51.57s WALL (  169234 calls)
     add_vuspsi   :      3.21s CPU      3.40s WALL (  169234 calls)

     incdrhoscf   :      5.30s CPU      5.72s WALL (   17682 calls)
     addusdbec    :      0.74s CPU      0.79s WALL (   20130 calls)

     drhodvus     :      0.00s CPU      0.00s WALL (      32 calls)

      General routines
     calbec       :     11.17s CPU     11.96s WALL (  383824 calls)
     fft          :      0.33s CPU      0.34s WALL (    5617 calls)
     ffts         :      0.13s CPU      0.14s WALL (    2748 calls)
     fftw         :     45.84s CPU     49.15s WALL ( 1536704 calls)
     davcio       :      0.36s CPU      0.39s WALL (   89852 calls)
     write_rec    :      0.26s CPU      0.27s WALL (     257 calls)


     PHONON       :  1m27.40s CPU     1m33.52s WALL


   This run was terminated on:  17:28:44   9Nov2017            

=------------------------------------------------------------------------------=
   JOB DONE.
=------------------------------------------------------------------------------=
