
     Program PWSCF v.6.1 (svn rev. 13369) starts on 10Nov2017 at 14: 7:32 

     This program is part of the open-source Quantum ESPRESSO suite
     for quantum simulation of materials; please cite
         "P. Giannozzi et al., J. Phys.:Condens. Matter 21 395502 (2009);
          URL http://www.quantum-espresso.org", 
     in publications or presentations arising from this work. More details at
     http://www.quantum-espresso.org/quote

     Parallel version (MPI), running on     4 processors
     R & G space division:  proc/nbgrp/npool/nimage =       4
     Waiting for input...
     Reading input from standard input
     Message from routine read_cards :
     DEPRECATED: no units specified in ATOMIC_POSITIONS card
     Message from routine read_cards :
     ATOMIC_POSITIONS: units set to alat

     Current dimensions of program PWSCF are:
     Max number of different atomic species (ntypx) = 10
     Max number of k-points (npk) =  40000
     Max angular momentum in pseudopotentials (lmaxx) =  3

     Subspace diagonalization in iterative solution of the eigenvalue problem:
     a serial algorithm will be used


     Parallelization info
     --------------------
     sticks:   dense  smooth     PW     G-vecs:    dense   smooth      PW
     Min         219     109     37                 4315     1545     284
     Max         220     110     38                 4316     1546     285
     Sum         877     439    151                17261     6183    1139



     bravais-lattice index     =            2
     lattice parameter (alat)  =      10.3360  a.u.
     unit-cell volume          =     276.0562 (a.u.)^3
     number of atoms/cell      =            2
     number of atomic types    =            1
     number of electrons       =         8.00
     number of Kohn-Sham states=            4
     kinetic-energy cutoff     =      30.0000  Ry
     charge density cutoff     =     240.0000  Ry
     convergence threshold     =      1.0E-08
     mixing beta               =       0.7000
     number of iterations used =            8  plain     mixing
     Exchange-correlation      = SLA  PW   PBE  PBE ( 1  4  3  4 0 0)

     celldm(1)=  10.336000  celldm(2)=   0.000000  celldm(3)=   0.000000
     celldm(4)=   0.000000  celldm(5)=   0.000000  celldm(6)=   0.000000

     crystal axes: (cart. coord. in units of alat)
               a(1) = (  -0.500000   0.000000   0.500000 )  
               a(2) = (   0.000000   0.500000   0.500000 )  
               a(3) = (  -0.500000   0.500000   0.000000 )  

     reciprocal axes: (cart. coord. in units 2 pi/alat)
               b(1) = ( -1.000000 -1.000000  1.000000 )  
               b(2) = (  1.000000  1.000000  1.000000 )  
               b(3) = ( -1.000000  1.000000 -1.000000 )  


     PseudoPot. # 1 for Si read from file:
     /home/s1333534/quantum_espresso/qe-6.1/pseudo/si_pbe_v1.uspp.F.UPF.txt
     MD5 check sum: a056efeee980c13900f22a371efd63c1
     Pseudo is Ultrasoft + core correction, Zval =  4.0
     Generated by new atomic code, or converted to UPF format
     Using radial grid of  899 points,  6 beta functions with: 
                l(1) =   0
                l(2) =   0
                l(3) =   1
                l(4) =   1
                l(5) =   2
                l(6) =   2
     Q(r) pseudized with  8 coefficients,  rinner =    0.900   0.900   0.900
                                                       0.900   0.900

     atomic species   valence    mass     pseudopotential
        Si             4.00    28.08600     Si( 1.00)

     48 Sym. Ops., with inversion, found (24 have fractional translation)



   Cartesian axes

     site n.     atom                  positions (alat units)
         1           Si  tau(   1) = (   0.0000000   0.0000000   0.0000000  )
         2           Si  tau(   2) = (   0.2500000   0.2500000   0.2500000  )

     number of k points=    10
                       cart. coord. in units 2pi/alat
        k(    1) = (  -0.1250000   0.1250000   0.1250000), wk =   0.0625000
        k(    2) = (  -0.3750000   0.3750000  -0.1250000), wk =   0.1875000
        k(    3) = (   0.3750000  -0.3750000   0.6250000), wk =   0.1875000
        k(    4) = (   0.1250000  -0.1250000   0.3750000), wk =   0.1875000
        k(    5) = (  -0.1250000   0.6250000   0.1250000), wk =   0.1875000
        k(    6) = (   0.6250000  -0.1250000   0.8750000), wk =   0.3750000
        k(    7) = (   0.3750000   0.1250000   0.6250000), wk =   0.3750000
        k(    8) = (  -0.1250000  -0.8750000   0.1250000), wk =   0.1875000
        k(    9) = (  -0.3750000   0.3750000   0.3750000), wk =   0.0625000
        k(   10) = (   0.3750000  -0.3750000   1.1250000), wk =   0.1875000

     Dense  grid:    17261 G-vectors     FFT dimensions: (  40,  40,  40)

     Smooth grid:     6183 G-vectors     FFT dimensions: (  25,  25,  25)

     Estimated max dynamical RAM per process >       3.14MB

     Estimated total allocated dynamical RAM >      12.57MB

     Initial potential from superposition of free atoms

     starting charge    7.99866, renormalised to    8.00000
     Starting wfc are    8 randomized atomic wfcs

     total cpu time spent up to now is        0.3 secs

     per-process dynamical memory:    10.1 Mb

     Self-consistent Calculation

     iteration #  1     ecut=    30.00 Ry     beta=0.70
     Davidson diagonalization with overlap
     ethr =  1.00E-02,  avg # of iterations =  2.0

     Threshold (ethr) on eigenvalues was too large:
     Diagonalizing with lowered threshold

     Davidson diagonalization with overlap
     ethr =  6.78E-04,  avg # of iterations =  1.0

     total cpu time spent up to now is        0.4 secs

     total energy              =     -19.19102380 Ry
     Harris-Foulkes estimate   =     -19.20348776 Ry
     estimated scf accuracy    <       0.05373940 Ry

     iteration #  2     ecut=    30.00 Ry     beta=0.70
     Davidson diagonalization with overlap
     ethr =  6.72E-04,  avg # of iterations =  1.0

     total cpu time spent up to now is        0.5 secs

     total energy              =     -19.19280260 Ry
     Harris-Foulkes estimate   =     -19.19297051 Ry
     estimated scf accuracy    <       0.00245456 Ry

     iteration #  3     ecut=    30.00 Ry     beta=0.70
     Davidson diagonalization with overlap
     ethr =  3.07E-05,  avg # of iterations =  2.2

     total cpu time spent up to now is        0.6 secs

     total energy              =     -19.19314096 Ry
     Harris-Foulkes estimate   =     -19.19315269 Ry
     estimated scf accuracy    <       0.00004079 Ry

     iteration #  4     ecut=    30.00 Ry     beta=0.70
     Davidson diagonalization with overlap
     ethr =  5.10E-07,  avg # of iterations =  3.3

     total cpu time spent up to now is        0.6 secs

     total energy              =     -19.19317807 Ry
     Harris-Foulkes estimate   =     -19.19317866 Ry
     estimated scf accuracy    <       0.00000243 Ry

     iteration #  5     ecut=    30.00 Ry     beta=0.70
     Davidson diagonalization with overlap
     ethr =  3.04E-08,  avg # of iterations =  2.1

     total cpu time spent up to now is        0.7 secs

     End of self-consistent calculation

          k =-0.1250 0.1250 0.1250 (   770 PWs)   bands (ev):

    -5.6403   4.3802   5.6895   5.6895

          k =-0.3750 0.3750-0.1250 (   773 PWs)   bands (ev):

    -4.6149   1.3897   3.7056   5.2097

          k = 0.3750-0.3750 0.6250 (   767 PWs)   bands (ev):

    -3.4769  -0.6857   3.7259   4.4393

          k = 0.1250-0.1250 0.3750 (   774 PWs)   bands (ev):

    -5.1131   2.7647   4.6829   4.7462

          k =-0.1250 0.6250 0.1250 (   768 PWs)   bands (ev):

    -4.0829   1.0548   3.3577   3.8099

          k = 0.6250-0.1250 0.8750 (   757 PWs)   bands (ev):

    -2.4453  -0.9051   2.0054   3.0806

          k = 0.3750 0.1250 0.6250 (   768 PWs)   bands (ev):

    -3.6679   0.1832   2.7164   4.0842

          k =-0.1250-0.8750 0.1250 (   762 PWs)   bands (ev):

    -2.6126  -0.8080   2.6145   3.3435

          k =-0.3750 0.3750 0.3750 (   763 PWs)   bands (ev):

    -4.1825   0.1014   4.9031   4.9031

          k = 0.3750-0.3750 1.1250 (   767 PWs)   bands (ev):

    -2.9818  -0.6021   2.0632   4.1227

     highest occupied level (ev):     5.6895

!    total energy              =     -19.19317841 Ry
     Harris-Foulkes estimate   =     -19.19317841 Ry
     estimated scf accuracy    <          8.8E-09 Ry

     The total energy is the sum of the following terms:

     one-electron contribution =       4.94520050 Ry
     hartree contribution      =       1.13508615 Ry
     xc contribution           =      -8.59607174 Ry
     ewald contribution        =     -16.67739333 Ry

     convergence has been achieved in   5 iterations

     Writing output data file silicon.10.336.save

     init_run     :      0.20s CPU      0.21s WALL (       1 calls)
     electrons    :      0.42s CPU      0.48s WALL (       1 calls)

     Called by init_run:
     wfcinit      :      0.01s CPU      0.02s WALL (       1 calls)
     potinit      :      0.02s CPU      0.02s WALL (       1 calls)

     Called by electrons:
     c_bands      :      0.11s CPU      0.12s WALL (       6 calls)
     sum_band     :      0.17s CPU      0.18s WALL (       6 calls)
     v_of_rho     :      0.07s CPU      0.07s WALL (       6 calls)
     newd         :      0.09s CPU      0.09s WALL (       6 calls)
     mix_rho      :      0.00s CPU      0.00s WALL (       6 calls)

     Called by c_bands:
     init_us_2    :      0.01s CPU      0.01s WALL (     130 calls)
     cegterg      :      0.09s CPU      0.10s WALL (      60 calls)

     Called by sum_band:
     sum_band:bec :      0.00s CPU      0.00s WALL (      60 calls)
     addusdens    :      0.12s CPU      0.13s WALL (       6 calls)

     Called by *egterg:
     h_psi        :      0.08s CPU      0.09s WALL (     186 calls)
     s_psi        :      0.00s CPU      0.00s WALL (     186 calls)
     g_psi        :      0.00s CPU      0.00s WALL (     116 calls)
     cdiaghg      :      0.01s CPU      0.01s WALL (     166 calls)

     Called by h_psi:
     h_psi:pot    :      0.08s CPU      0.09s WALL (     186 calls)
     h_psi:calbec :      0.00s CPU      0.00s WALL (     186 calls)
     vloc_psi     :      0.08s CPU      0.08s WALL (     186 calls)
     add_vuspsi   :      0.00s CPU      0.00s WALL (     186 calls)

     General routines
     calbec       :      0.01s CPU      0.01s WALL (     246 calls)
     fft          :      0.03s CPU      0.03s WALL (      96 calls)
     ffts         :      0.00s CPU      0.00s WALL (      12 calls)
     fftw         :      0.08s CPU      0.08s WALL (    1652 calls)
     interpolate  :      0.01s CPU      0.01s WALL (      12 calls)
     davcio       :      0.00s CPU      0.00s WALL (      10 calls)

     Parallel routines
     fft_scatter  :      0.03s CPU      0.03s WALL (    1760 calls)

     PWSCF        :     0.71s CPU         1.08s WALL


   This run was terminated on:  14: 7:33  10Nov2017            

=------------------------------------------------------------------------------=
   JOB DONE.
=------------------------------------------------------------------------------=
