
     Program PHONON v.6.1 (svn rev. 13369) starts on  9Nov2017 at  1: 9:55 

     This program is part of the open-source Quantum ESPRESSO suite
     for quantum simulation of materials; please cite
         "P. Giannozzi et al., J. Phys.:Condens. Matter 21 395502 (2009);
          URL http://www.quantum-espresso.org", 
     in publications or presentations arising from this work. More details at
     http://www.quantum-espresso.org/quote

     Parallel version (MPI), running on     4 processors
     R & G space division:  proc/nbgrp/npool/nimage =       4

     Reading data from directory:
     ./silicon.10.24.save

   Info: using nr1, nr2, nr3 values from input

   Info: using nr1, nr2, nr3 values from input

     IMPORTANT: XC functional enforced from input :
     Exchange-correlation      = SLA  PW   PBE  PBE ( 1  4  3  4 0 0)
     Any further DFT definition will be discarded
     Please, verify this is what you really want


     Parallelization info
     --------------------
     sticks:   dense  smooth     PW     G-vecs:    dense   smooth      PW
     Min          63      63     21                  682      682     133
     Max          64      64     22                  686      686     136
     Sum         253     253     85                 2733     2733     537


     Check: negative/imaginary core charge=   -0.000006    0.000000


     Dynamical matrices for ( 4, 4, 4)  uniform grid of q-points
     (   8q-points):
       N         xq(1)         xq(2)         xq(3) 
       1   0.000000000   0.000000000   0.000000000
       2  -0.250000000   0.250000000  -0.250000000
       3   0.500000000  -0.500000000   0.500000000
       4   0.000000000   0.500000000   0.000000000
       5   0.750000000  -0.250000000   0.750000000
       6   0.500000000   0.000000000   0.500000000
       7   0.000000000  -1.000000000   0.000000000
       8  -0.500000000  -1.000000000   0.000000000

     Calculation of q =    0.0000000   0.0000000   0.0000000

                                                                                

     bravais-lattice index     =            2
     lattice parameter (alat)  =      10.2400  a.u.
     unit-cell volume          =     268.4355 (a.u.)^3
     number of atoms/cell      =            2
     number of atomic types    =            1
     kinetic-energy cut-off    =      18.0000  Ry
     charge density cut-off    =      72.0000  Ry
     convergence threshold     =      1.0E-12
     beta                      =       0.7000
     number of iterations used =            4
     Exchange-correlation      = SLA  PW   PBE  PBE ( 1  4  3  4 0 0)


     celldm(1)=   10.24000  celldm(2)=    0.00000  celldm(3)=    0.00000
     celldm(4)=    0.00000  celldm(5)=    0.00000  celldm(6)=    0.00000

     crystal axes: (cart. coord. in units of alat)
               a(1) = ( -0.5000  0.0000  0.5000 )  
               a(2) = (  0.0000  0.5000  0.5000 )  
               a(3) = ( -0.5000  0.5000  0.0000 )  

     reciprocal axes: (cart. coord. in units 2 pi/alat)
               b(1) = ( -1.0000 -1.0000  1.0000 )  
               b(2) = (  1.0000  1.0000  1.0000 )  
               b(3) = ( -1.0000  1.0000 -1.0000 )  


     Atoms inside the unit cell: 

     Cartesian axes

     site n.  atom      mass           positions (alat units)
        1     Si  28.0860   tau(    1) = (    0.00000    0.00000    0.00000  )
        2     Si  28.0860   tau(    2) = (    0.25000    0.25000    0.25000  )

     Computing dynamical matrix for 
                    q = (   0.0000000   0.0000000   0.0000000 )

     49 Sym.Ops. (with q -> -q+G )


     G cutoff =  191.2373  (    683 G-vectors)     FFT grid: ( 20, 20, 20)
     number of k points=    10

     PseudoPot. # 1 for Si read from file:
     /home/max/quantum_espresso/qe-6.1/pseudo/si_pbe_v1.uspp.F.UPF.txt
     MD5 check sum: a056efeee980c13900f22a371efd63c1
     Pseudo is Ultrasoft + core correction, Zval =  4.0
     Generated by new atomic code, or converted to UPF format
     Using radial grid of  899 points,  6 beta functions with: 
                l(1) =   0
                l(2) =   0
                l(3) =   1
                l(4) =   1
                l(5) =   2
                l(6) =   2
     Q(r) pseudized with  8 coefficients,  rinner =    0.900   0.900   0.900
                                                       0.900   0.900

     Mode symmetry, O_h (m-3m)  point group:


     Electric field:
     Dielectric constant
     Born effective charges in two ways 


     Atomic displacements:
     There are   2 irreducible representations

     Representation     1      3 modes -T_2g G_25' G_5+  To be done

     Representation     2      3 modes -T_1u G_15  G_4-  To be done



     Alpha used in Ewald sum =   0.7000
     PHONON       :     0.39s CPU         0.40s WALL


     Electric Fields Calculation

      iter #   1 total cpu time :     0.8 secs   av.it.:   5.5
      thresh= 1.000E-02 alpha_mix =  0.700 |ddv_scf|^2 =  9.011E-07

      iter #   2 total cpu time :     0.9 secs   av.it.:   9.9
      thresh= 9.493E-05 alpha_mix =  0.700 |ddv_scf|^2 =  5.368E-08

      iter #   3 total cpu time :     1.1 secs   av.it.:   9.8
      thresh= 2.317E-05 alpha_mix =  0.700 |ddv_scf|^2 =  4.006E-09

      iter #   4 total cpu time :     1.3 secs   av.it.:   9.0
      thresh= 6.330E-06 alpha_mix =  0.700 |ddv_scf|^2 =  2.272E-11

      iter #   5 total cpu time :     1.4 secs   av.it.:   9.1
      thresh= 4.766E-07 alpha_mix =  0.700 |ddv_scf|^2 =  1.173E-14

     End of electric fields calculation

          Dielectric constant in cartesian axis 

          (      13.714204321      -0.000000000      -0.000000000 )
          (      -0.000000000      13.714204321      -0.000000000 )
          (      -0.000000000       0.000000000      13.714204321 )

          Effective charges (d Force / dE) in cartesian axis

           atom      1   Si 
      Ex  (       -0.03680       -0.00000       -0.00000 )
      Ey  (       -0.00000       -0.03680        0.00000 )
      Ez  (       -0.00000        0.00000       -0.03680 )
           atom      2   Si 
      Ex  (       -0.03680        0.00000        0.00000 )
      Ey  (        0.00000       -0.03680       -0.00000 )
      Ez  (        0.00000       -0.00000       -0.03680 )


     Representation #  1 modes #   1  2  3

     Self-consistent Calculation

      iter #   1 total cpu time :     1.8 secs   av.it.:   5.0
      thresh= 1.000E-02 alpha_mix =  0.700 |ddv_scf|^2 =  2.114E-07

      iter #   2 total cpu time :     2.0 secs   av.it.:   9.8
      thresh= 4.598E-05 alpha_mix =  0.700 |ddv_scf|^2 =  1.261E-08

      iter #   3 total cpu time :     2.2 secs   av.it.:   9.3
      thresh= 1.123E-05 alpha_mix =  0.700 |ddv_scf|^2 =  8.041E-10

      iter #   4 total cpu time :     2.3 secs   av.it.:   9.0
      thresh= 2.836E-06 alpha_mix =  0.700 |ddv_scf|^2 =  1.764E-12

      iter #   5 total cpu time :     2.5 secs   av.it.:   9.4
      thresh= 1.328E-07 alpha_mix =  0.700 |ddv_scf|^2 =  1.169E-14

     End of self-consistent calculation

     Convergence has been achieved 


     Representation #  2 modes #   4  5  6

     Self-consistent Calculation

      iter #   1 total cpu time :     2.7 secs   av.it.:   5.0
      thresh= 1.000E-02 alpha_mix =  0.700 |ddv_scf|^2 =  1.752E-07

      iter #   2 total cpu time :     2.9 secs   av.it.:   9.6
      thresh= 4.186E-05 alpha_mix =  0.700 |ddv_scf|^2 =  1.373E-08

      iter #   3 total cpu time :     3.1 secs   av.it.:   9.2
      thresh= 1.172E-05 alpha_mix =  0.700 |ddv_scf|^2 =  8.471E-10

      iter #   4 total cpu time :     3.3 secs   av.it.:   9.5
      thresh= 2.910E-06 alpha_mix =  0.700 |ddv_scf|^2 =  4.907E-12

      iter #   5 total cpu time :     3.4 secs   av.it.:   8.9
      thresh= 2.215E-07 alpha_mix =  0.700 |ddv_scf|^2 =  3.627E-15

     End of self-consistent calculation

     Convergence has been achieved 

     Number of q in the star =    1
     List of q in the star:
          1   0.000000000   0.000000000   0.000000000

          Dielectric constant in cartesian axis 

          (      13.714204321      -0.000000000      -0.000000000 )
          (      -0.000000000      13.714204321      -0.000000000 )
          (      -0.000000000       0.000000000      13.714204321 )

          Effective charges (d Force / dE) in cartesian axis

           atom      1   Si 
      Ex  (       -0.03680       -0.00000       -0.00000 )
      Ey  (       -0.00000       -0.03680        0.00000 )
      Ez  (       -0.00000        0.00000       -0.03680 )
           atom      2   Si 
      Ex  (       -0.03680        0.00000        0.00000 )
      Ey  (        0.00000       -0.03680       -0.00000 )
      Ez  (        0.00000       -0.00000       -0.03680 )

          Effective charges (d P / du) in cartesian axis 

           atom      1   Si 
      Px  (       -0.07439       -0.00000        0.00000 )
      Py  (       -0.00000       -0.07439       -0.00000 )
      Pz  (       -0.00000       -0.00000       -0.07439 )
           atom      2   Si 
      Px  (       -0.07439        0.00000       -0.00000 )
      Py  (       -0.00000       -0.07439        0.00000 )
      Pz  (       -0.00000        0.00000       -0.07439 )

     Diagonalizing the dynamical matrix

     q = (    0.000000000   0.000000000   0.000000000 ) 

 **************************************************************************
     freq (    1) =       1.740706 [THz] =      58.063713 [cm-1]
     freq (    2) =       1.740706 [THz] =      58.063713 [cm-1]
     freq (    3) =       1.740706 [THz] =      58.063713 [cm-1]
     freq (    4) =      15.538967 [THz] =     518.324159 [cm-1]
     freq (    5) =      15.538967 [THz] =     518.324159 [cm-1]
     freq (    6) =      15.538967 [THz] =     518.324159 [cm-1]
 **************************************************************************

     Mode symmetry, O_h (m-3m)  point group:

     freq (  1 -  3) =         58.1  [cm-1]   --> T_1u G_15  G_4- I  
     freq (  4 -  6) =        518.3  [cm-1]   --> T_2g G_25' G_5+ R  

     Calculation of q =   -0.2500000   0.2500000  -0.2500000

   Info: using nr1, nr2, nr3 values from input

   Info: using nr1, nr2, nr3 values from input

     Parallelization info
     --------------------
     sticks:   dense  smooth     PW     G-vecs:    dense   smooth      PW
     Min          63      63     24                  682      682     161
     Max          64      64     25                  686      686     162
     Sum         253     253     97                 2733     2733     645



     bravais-lattice index     =            2
     lattice parameter (alat)  =      10.2400  a.u.
     unit-cell volume          =     268.4355 (a.u.)^3
     number of atoms/cell      =            2
     number of atomic types    =            1
     number of electrons       =         8.00
     number of Kohn-Sham states=            4
     kinetic-energy cutoff     =      18.0000  Ry
     charge density cutoff     =      72.0000  Ry
     Exchange-correlation      = SLA  PW   PBE  PBE ( 1  4  3  4 0 0)

     celldm(1)=  10.240000  celldm(2)=   0.000000  celldm(3)=   0.000000
     celldm(4)=   0.000000  celldm(5)=   0.000000  celldm(6)=   0.000000

     crystal axes: (cart. coord. in units of alat)
               a(1) = (  -0.500000   0.000000   0.500000 )  
               a(2) = (   0.000000   0.500000   0.500000 )  
               a(3) = (  -0.500000   0.500000   0.000000 )  

     reciprocal axes: (cart. coord. in units 2 pi/alat)
               b(1) = ( -1.000000 -1.000000  1.000000 )  
               b(2) = (  1.000000  1.000000  1.000000 )  
               b(3) = ( -1.000000  1.000000 -1.000000 )  


     PseudoPot. # 1 for Si read from file:
     /home/max/quantum_espresso/qe-6.1/pseudo/si_pbe_v1.uspp.F.UPF.txt
     MD5 check sum: a056efeee980c13900f22a371efd63c1
     Pseudo is Ultrasoft + core correction, Zval =  4.0
     Generated by new atomic code, or converted to UPF format
     Using radial grid of  899 points,  6 beta functions with: 
                l(1) =   0
                l(2) =   0
                l(3) =   1
                l(4) =   1
                l(5) =   2
                l(6) =   2
     Q(r) pseudized with  8 coefficients,  rinner =    0.900   0.900   0.900
                                                       0.900   0.900

     atomic species   valence    mass     pseudopotential
        Si             4.00    28.08600     Si( 1.00)

     48 Sym. Ops., with inversion, found



   Cartesian axes

     site n.     atom                  positions (alat units)
         1           Si  tau(   1) = (   0.0000000   0.0000000   0.0000000  )
         2           Si  tau(   2) = (   0.2500000   0.2500000   0.2500000  )

     number of k points=   120

     Number of k-points >= 100: set verbosity='high' to print them.

     Dense  grid:     2733 G-vectors     FFT dimensions: (  20,  20,  20)

     Estimated max dynamical RAM per process >       0.32MB

     Estimated total allocated dynamical RAM >       1.29MB

     Check: negative/imaginary core charge=   -0.000006    0.000000

     The potential is recalculated from file :
     ./_ph0/silicon.10.24.save/charge-density.dat

     Starting wfc are    8 atomic wfcs

     Band Structure Calculation
     Davidson diagonalization with overlap

     ethr =  1.25E-10,  avg # of iterations = 11.6

     total cpu time spent up to now is        0.8 secs

     End of band structure calculation

     Number of k-points >= 100: set verbosity='high' to print the bands.

     highest occupied level (ev):     5.9742

     Writing output data file silicon.10.24.save

                                                                                

     bravais-lattice index     =            2
     lattice parameter (alat)  =      10.2400  a.u.
     unit-cell volume          =     268.4355 (a.u.)^3
     number of atoms/cell      =            2
     number of atomic types    =            1
     kinetic-energy cut-off    =      18.0000  Ry
     charge density cut-off    =      72.0000  Ry
     convergence threshold     =      1.0E-12
     beta                      =       0.7000
     number of iterations used =            4
     Exchange-correlation      = SLA  PW   PBE  PBE ( 1  4  3  4 0 0)


     celldm(1)=   10.24000  celldm(2)=    0.00000  celldm(3)=    0.00000
     celldm(4)=    0.00000  celldm(5)=    0.00000  celldm(6)=    0.00000

     crystal axes: (cart. coord. in units of alat)
               a(1) = ( -0.5000  0.0000  0.5000 )  
               a(2) = (  0.0000  0.5000  0.5000 )  
               a(3) = ( -0.5000  0.5000  0.0000 )  

     reciprocal axes: (cart. coord. in units 2 pi/alat)
               b(1) = ( -1.0000 -1.0000  1.0000 )  
               b(2) = (  1.0000  1.0000  1.0000 )  
               b(3) = ( -1.0000  1.0000 -1.0000 )  


     Atoms inside the unit cell: 

     Cartesian axes

     site n.  atom      mass           positions (alat units)
        1     Si  28.0860   tau(    1) = (    0.00000    0.00000    0.00000  )
        2     Si  28.0860   tau(    2) = (    0.25000    0.25000    0.25000  )

     Computing dynamical matrix for 
                    q = (  -0.2500000   0.2500000  -0.2500000 )

      6 Sym.Ops. (no q -> -q+G )


     G cutoff =  191.2373  (    683 G-vectors)     FFT grid: ( 20, 20, 20)
     number of k points=   120

     PseudoPot. # 1 for Si read from file:
     /home/max/quantum_espresso/qe-6.1/pseudo/si_pbe_v1.uspp.F.UPF.txt
     MD5 check sum: a056efeee980c13900f22a371efd63c1
     Pseudo is Ultrasoft + core correction, Zval =  4.0
     Generated by new atomic code, or converted to UPF format
     Using radial grid of  899 points,  6 beta functions with: 
                l(1) =   0
                l(2) =   0
                l(3) =   1
                l(4) =   1
                l(5) =   2
                l(6) =   2
     Q(r) pseudized with  8 coefficients,  rinner =    0.900   0.900   0.900
                                                       0.900   0.900

     Mode symmetry, C_3v (3m)   point group:


     Atomic displacements:
     There are   4 irreducible representations

     Representation     1      1 modes -A_1  L_1  To be done

     Representation     2      1 modes -A_1  L_1  To be done

     Representation     3      2 modes -E    L_3  To be done

     Representation     4      2 modes -E    L_3  To be done



     Alpha used in Ewald sum =   0.7000
     PHONON       :     4.49s CPU         4.67s WALL



     Representation #  1 mode #   1

     Self-consistent Calculation

      iter #   1 total cpu time :     4.9 secs   av.it.:   5.5
      thresh= 1.000E-02 alpha_mix =  0.700 |ddv_scf|^2 =  2.541E-03

      iter #   2 total cpu time :     5.1 secs   av.it.:   7.4
      thresh= 5.041E-03 alpha_mix =  0.700 |ddv_scf|^2 =  3.802E-02

      iter #   3 total cpu time :     5.3 secs   av.it.:   6.3
      thresh= 1.000E-02 alpha_mix =  0.700 |ddv_scf|^2 =  1.697E-06

      iter #   4 total cpu time :     5.6 secs   av.it.:   8.2
      thresh= 1.303E-04 alpha_mix =  0.700 |ddv_scf|^2 =  1.084E-07

      iter #   5 total cpu time :     5.9 secs   av.it.:   8.1
      thresh= 3.293E-05 alpha_mix =  0.700 |ddv_scf|^2 =  4.777E-09

      iter #   6 total cpu time :     6.1 secs   av.it.:   7.8
      thresh= 6.912E-06 alpha_mix =  0.700 |ddv_scf|^2 =  1.169E-08

      iter #   7 total cpu time :     6.3 secs   av.it.:   5.8
      thresh= 1.081E-05 alpha_mix =  0.700 |ddv_scf|^2 =  1.535E-10

      iter #   8 total cpu time :     6.6 secs   av.it.:   7.7
      thresh= 1.239E-06 alpha_mix =  0.700 |ddv_scf|^2 =  4.340E-12

      iter #   9 total cpu time :     6.8 secs   av.it.:   7.1
      thresh= 2.083E-07 alpha_mix =  0.700 |ddv_scf|^2 =  1.734E-13

     End of self-consistent calculation

     Convergence has been achieved 


     Representation #  2 mode #   2

     Self-consistent Calculation

      iter #   1 total cpu time :     7.0 secs   av.it.:   5.5
      thresh= 1.000E-02 alpha_mix =  0.700 |ddv_scf|^2 =  2.541E-03

      iter #   2 total cpu time :     7.3 secs   av.it.:   7.4
      thresh= 5.041E-03 alpha_mix =  0.700 |ddv_scf|^2 =  3.802E-02

      iter #   3 total cpu time :     7.5 secs   av.it.:   6.3
      thresh= 1.000E-02 alpha_mix =  0.700 |ddv_scf|^2 =  1.697E-06

      iter #   4 total cpu time :     7.7 secs   av.it.:   8.2
      thresh= 1.303E-04 alpha_mix =  0.700 |ddv_scf|^2 =  1.084E-07

      iter #   5 total cpu time :     8.0 secs   av.it.:   8.1
      thresh= 3.293E-05 alpha_mix =  0.700 |ddv_scf|^2 =  4.777E-09

      iter #   6 total cpu time :     8.2 secs   av.it.:   7.8
      thresh= 6.912E-06 alpha_mix =  0.700 |ddv_scf|^2 =  1.169E-08

      iter #   7 total cpu time :     8.4 secs   av.it.:   5.8
      thresh= 1.081E-05 alpha_mix =  0.700 |ddv_scf|^2 =  1.535E-10

      iter #   8 total cpu time :     8.7 secs   av.it.:   7.7
      thresh= 1.239E-06 alpha_mix =  0.700 |ddv_scf|^2 =  4.340E-12

      iter #   9 total cpu time :     8.9 secs   av.it.:   7.1
      thresh= 2.083E-07 alpha_mix =  0.700 |ddv_scf|^2 =  1.734E-13

     End of self-consistent calculation

     Convergence has been achieved 


     Representation #  3 modes #   3  4

     Self-consistent Calculation

      iter #   1 total cpu time :     9.3 secs   av.it.:   5.0
      thresh= 1.000E-02 alpha_mix =  0.700 |ddv_scf|^2 =  5.475E-07

      iter #   2 total cpu time :     9.9 secs   av.it.:   9.5
      thresh= 7.400E-05 alpha_mix =  0.700 |ddv_scf|^2 =  4.019E-08

      iter #   3 total cpu time :    10.4 secs   av.it.:   9.2
      thresh= 2.005E-05 alpha_mix =  0.700 |ddv_scf|^2 =  3.403E-09

      iter #   4 total cpu time :    11.0 secs   av.it.:   9.0
      thresh= 5.833E-06 alpha_mix =  0.700 |ddv_scf|^2 =  1.040E-11

      iter #   5 total cpu time :    11.5 secs   av.it.:   9.1
      thresh= 3.225E-07 alpha_mix =  0.700 |ddv_scf|^2 =  4.796E-13

     End of self-consistent calculation

     Convergence has been achieved 


     Representation #  4 modes #   5  6

     Self-consistent Calculation

      iter #   1 total cpu time :    11.9 secs   av.it.:   5.0
      thresh= 1.000E-02 alpha_mix =  0.700 |ddv_scf|^2 =  5.474E-07

      iter #   2 total cpu time :    12.5 secs   av.it.:   9.6
      thresh= 7.398E-05 alpha_mix =  0.700 |ddv_scf|^2 =  4.014E-08

      iter #   3 total cpu time :    13.1 secs   av.it.:   9.4
      thresh= 2.004E-05 alpha_mix =  0.700 |ddv_scf|^2 =  3.400E-09

      iter #   4 total cpu time :    13.6 secs   av.it.:   9.1
      thresh= 5.831E-06 alpha_mix =  0.700 |ddv_scf|^2 =  1.041E-11

      iter #   5 total cpu time :    14.2 secs   av.it.:   9.2
      thresh= 3.226E-07 alpha_mix =  0.700 |ddv_scf|^2 =  4.802E-13

     End of self-consistent calculation

     Convergence has been achieved 

     Number of q in the star =    8
     List of q in the star:
          1  -0.250000000   0.250000000  -0.250000000
          2   0.250000000  -0.250000000  -0.250000000
          3   0.250000000  -0.250000000   0.250000000
          4   0.250000000   0.250000000   0.250000000
          5  -0.250000000  -0.250000000  -0.250000000
          6  -0.250000000  -0.250000000   0.250000000
          7  -0.250000000   0.250000000   0.250000000
          8   0.250000000   0.250000000  -0.250000000

     Diagonalizing the dynamical matrix

     q = (   -0.250000000   0.250000000  -0.250000000 ) 

 **************************************************************************
     freq (    1) =       3.260344 [THz] =     108.753375 [cm-1]
     freq (    2) =       3.260344 [THz] =     108.753375 [cm-1]
     freq (    3) =       7.098938 [THz] =     236.795098 [cm-1]
     freq (    4) =      14.597033 [THz] =     486.904617 [cm-1]
     freq (    5) =      14.963993 [THz] =     499.145093 [cm-1]
     freq (    6) =      14.963993 [THz] =     499.145093 [cm-1]
 **************************************************************************

     Mode symmetry, C_3v (3m)   point group:

     freq (  1 -  2) =        108.8  [cm-1]   --> E    L_3           
     freq (  3 -  3) =        236.8  [cm-1]   --> A_1  L_1           
     freq (  4 -  4) =        486.9  [cm-1]   --> A_1  L_1           
     freq (  5 -  6) =        499.1  [cm-1]   --> E    L_3           

     Calculation of q =    0.5000000  -0.5000000   0.5000000

   Info: using nr1, nr2, nr3 values from input

   Info: using nr1, nr2, nr3 values from input

     Parallelization info
     --------------------
     sticks:   dense  smooth     PW     G-vecs:    dense   smooth      PW
     Min          63      63     27                  682      682     186
     Max          64      64     28                  686      686     189
     Sum         253     253    109                 2733     2733     749



     bravais-lattice index     =            2
     lattice parameter (alat)  =      10.2400  a.u.
     unit-cell volume          =     268.4355 (a.u.)^3
     number of atoms/cell      =            2
     number of atomic types    =            1
     number of electrons       =         8.00
     number of Kohn-Sham states=            4
     kinetic-energy cutoff     =      18.0000  Ry
     charge density cutoff     =      72.0000  Ry
     Exchange-correlation      = SLA  PW   PBE  PBE ( 1  4  3  4 0 0)

     celldm(1)=  10.240000  celldm(2)=   0.000000  celldm(3)=   0.000000
     celldm(4)=   0.000000  celldm(5)=   0.000000  celldm(6)=   0.000000

     crystal axes: (cart. coord. in units of alat)
               a(1) = (  -0.500000   0.000000   0.500000 )  
               a(2) = (   0.000000   0.500000   0.500000 )  
               a(3) = (  -0.500000   0.500000   0.000000 )  

     reciprocal axes: (cart. coord. in units 2 pi/alat)
               b(1) = ( -1.000000 -1.000000  1.000000 )  
               b(2) = (  1.000000  1.000000  1.000000 )  
               b(3) = ( -1.000000  1.000000 -1.000000 )  


     PseudoPot. # 1 for Si read from file:
     /home/max/quantum_espresso/qe-6.1/pseudo/si_pbe_v1.uspp.F.UPF.txt
     MD5 check sum: a056efeee980c13900f22a371efd63c1
     Pseudo is Ultrasoft + core correction, Zval =  4.0
     Generated by new atomic code, or converted to UPF format
     Using radial grid of  899 points,  6 beta functions with: 
                l(1) =   0
                l(2) =   0
                l(3) =   1
                l(4) =   1
                l(5) =   2
                l(6) =   2
     Q(r) pseudized with  8 coefficients,  rinner =    0.900   0.900   0.900
                                                       0.900   0.900

     atomic species   valence    mass     pseudopotential
        Si             4.00    28.08600     Si( 1.00)

     48 Sym. Ops., with inversion, found



   Cartesian axes

     site n.     atom                  positions (alat units)
         1           Si  tau(   1) = (   0.0000000   0.0000000   0.0000000  )
         2           Si  tau(   2) = (   0.2500000   0.2500000   0.2500000  )

     number of k points=    60
                       cart. coord. in units 2pi/alat
        k(    1) = (  -0.1250000   0.1250000   0.1250000), wk =   0.0468750
        k(    2) = (   0.3750000  -0.3750000   0.6250000), wk =   0.0000000
        k(    3) = (  -0.3750000   0.3750000  -0.1250000), wk =   0.0468750
        k(    4) = (   0.1250000  -0.1250000   0.3750000), wk =   0.0000000
        k(    5) = (   0.3750000  -0.3750000   0.6250000), wk =   0.0468750
        k(    6) = (   0.8750000  -0.8750000   1.1250000), wk =   0.0000000
        k(    7) = (   0.1250000  -0.1250000   0.3750000), wk =   0.0468750
        k(    8) = (   0.6250000  -0.6250000   0.8750000), wk =   0.0000000
        k(    9) = (  -0.1250000   0.6250000   0.1250000), wk =   0.0937500
        k(   10) = (   0.3750000   0.1250000   0.6250000), wk =   0.0000000
        k(   11) = (   0.6250000  -0.1250000   0.8750000), wk =   0.0937500
        k(   12) = (   1.1250000  -0.6250000   1.3750000), wk =   0.0000000
        k(   13) = (   0.3750000   0.1250000   0.6250000), wk =   0.0937500
        k(   14) = (   0.8750000  -0.3750000   1.1250000), wk =   0.0000000
        k(   15) = (  -0.1250000  -0.8750000   0.1250000), wk =   0.0937500
        k(   16) = (   0.3750000  -1.3750000   0.6250000), wk =   0.0000000
        k(   17) = (  -0.3750000   0.3750000   0.3750000), wk =   0.0468750
        k(   18) = (   0.1250000  -0.1250000   0.8750000), wk =   0.0000000
        k(   19) = (   0.3750000  -0.3750000   1.1250000), wk =   0.0468750
        k(   20) = (   0.8750000  -0.8750000   1.6250000), wk =   0.0000000
        k(   21) = (   0.1250000  -0.1250000   0.1250000), wk =   0.0156250
        k(   22) = (   0.6250000  -0.6250000   0.6250000), wk =   0.0000000
        k(   23) = (  -0.3750000  -0.3750000  -0.1250000), wk =   0.0937500
        k(   24) = (   0.1250000  -0.8750000   0.3750000), wk =   0.0000000
        k(   25) = (  -0.1250000  -0.3750000   0.3750000), wk =   0.0468750
        k(   26) = (   0.3750000  -0.8750000   0.8750000), wk =   0.0000000
        k(   27) = (   0.3750000   0.3750000   0.6250000), wk =   0.0937500
        k(   28) = (   0.8750000  -0.1250000   1.1250000), wk =   0.0000000
        k(   29) = (   0.6250000   0.3750000  -0.3750000), wk =   0.0468750
        k(   30) = (   1.1250000  -0.1250000   0.1250000), wk =   0.0000000
        k(   31) = (   0.1250000   0.1250000   0.3750000), wk =   0.0937500
        k(   32) = (   0.6250000  -0.3750000   0.8750000), wk =   0.0000000
        k(   33) = (   0.3750000   0.1250000  -0.1250000), wk =   0.0468750
        k(   34) = (   0.8750000  -0.3750000   0.3750000), wk =   0.0000000
        k(   35) = (  -0.1250000  -0.6250000  -0.1250000), wk =   0.0468750
        k(   36) = (   0.3750000  -1.1250000   0.3750000), wk =   0.0000000
        k(   37) = (   0.1250000  -0.6250000   0.1250000), wk =   0.0468750
        k(   38) = (   0.6250000  -1.1250000   0.6250000), wk =   0.0000000
        k(   39) = (   0.6250000   0.1250000   0.8750000), wk =   0.0937500
        k(   40) = (   1.1250000  -0.3750000   1.3750000), wk =   0.0000000
        k(   41) = (  -0.8750000   0.1250000   0.6250000), wk =   0.0937500
        k(   42) = (  -0.3750000  -0.3750000   1.1250000), wk =   0.0000000
        k(   43) = (   0.8750000   0.1250000  -0.6250000), wk =   0.0937500
        k(   44) = (   1.3750000  -0.3750000  -0.1250000), wk =   0.0000000
        k(   45) = (   0.3750000  -0.1250000   0.6250000), wk =   0.0937500
        k(   46) = (   0.8750000  -0.6250000   1.1250000), wk =   0.0000000
        k(   47) = (  -0.6250000  -0.1250000   0.3750000), wk =   0.0937500
        k(   48) = (  -0.1250000  -0.6250000   0.8750000), wk =   0.0000000
        k(   49) = (   0.6250000  -0.1250000  -0.3750000), wk =   0.0937500
        k(   50) = (   1.1250000  -0.6250000   0.1250000), wk =   0.0000000
        k(   51) = (  -0.1250000   0.8750000  -0.1250000), wk =   0.0468750
        k(   52) = (   0.3750000   0.3750000   0.3750000), wk =   0.0000000
        k(   53) = (   0.1250000   0.8750000   0.1250000), wk =   0.0468750
        k(   54) = (   0.6250000   0.3750000   0.6250000), wk =   0.0000000
        k(   55) = (   0.3750000  -0.3750000   0.3750000), wk =   0.0156250
        k(   56) = (   0.8750000  -0.8750000   0.8750000), wk =   0.0000000
        k(   57) = (   0.3750000   0.3750000   1.1250000), wk =   0.0937500
        k(   58) = (   0.8750000  -0.1250000   1.6250000), wk =   0.0000000
        k(   59) = (   1.1250000   0.3750000  -0.3750000), wk =   0.0468750
        k(   60) = (   1.6250000  -0.1250000   0.1250000), wk =   0.0000000

     Dense  grid:     2733 G-vectors     FFT dimensions: (  20,  20,  20)

     Estimated max dynamical RAM per process >       0.32MB

     Estimated total allocated dynamical RAM >       1.29MB

     Check: negative/imaginary core charge=   -0.000006    0.000000

     The potential is recalculated from file :
     ./_ph0/silicon.10.24.save/charge-density.dat

     Starting wfc are    8 atomic wfcs

     Band Structure Calculation
     Davidson diagonalization with overlap

     ethr =  1.25E-10,  avg # of iterations = 11.6

     total cpu time spent up to now is        1.3 secs

     End of band structure calculation

          k =-0.1250 0.1250 0.1250 (   335 PWs)   bands (ev):

    -5.5308   4.6653   5.9742   5.9742

          k = 0.3750-0.3750 0.6250 (   348 PWs)   bands (ev):

    -3.3076  -0.5040   3.9789   4.6940

          k =-0.3750 0.3750-0.1250 (   345 PWs)   bands (ev):

    -4.4806   1.6274   3.9465   5.4859

          k = 0.1250-0.1250 0.3750 (   343 PWs)   bands (ev):

    -4.9914   3.0349   4.9389   5.0192

          k = 0.3750-0.3750 0.6250 (   348 PWs)   bands (ev):

    -3.3076  -0.5040   3.9789   4.6940

          k = 0.8750-0.8750 1.1250 (   335 PWs)   bands (ev):

    -5.5308   4.6653   5.9742   5.9742

          k = 0.1250-0.1250 0.3750 (   343 PWs)   bands (ev):

    -4.9914   3.0349   4.9389   5.0192

          k = 0.6250-0.6250 0.8750 (   345 PWs)   bands (ev):

    -4.4806   1.6274   3.9465   5.4859

          k =-0.1250 0.6250 0.1250 (   340 PWs)   bands (ev):

    -3.9362   1.3141   3.5839   4.0450

          k = 0.3750 0.1250 0.6250 (   348 PWs)   bands (ev):

    -3.5088   0.4082   2.9328   4.3264

          k = 0.6250-0.1250 0.8750 (   352 PWs)   bands (ev):

    -2.2528  -0.6864   2.1892   3.2920

          k = 1.1250-0.6250 1.3750 (   345 PWs)   bands (ev):

    -4.4806   1.6274   3.9465   5.4859

          k = 0.3750 0.1250 0.6250 (   348 PWs)   bands (ev):

    -3.5088   0.4082   2.9328   4.3264

          k = 0.8750-0.3750 1.1250 (   340 PWs)   bands (ev):

    -3.9362   1.3141   3.5839   4.0450

          k =-0.1250-0.8750 0.1250 (   348 PWs)   bands (ev):

    -2.4301  -0.5830   2.8146   3.5680

          k = 0.3750-1.3750 0.6250 (   348 PWs)   bands (ev):

    -3.3076  -0.5040   3.9789   4.6940

          k =-0.3750 0.3750 0.3750 (   353 PWs)   bands (ev):

    -4.0362   0.2998   5.1715   5.1715

          k = 0.1250-0.1250 0.8750 (   348 PWs)   bands (ev):

    -2.4301  -0.5830   2.8146   3.5680

          k = 0.3750-0.3750 1.1250 (   355 PWs)   bands (ev):

    -2.8011  -0.3953   2.2582   4.3681

          k = 0.8750-0.8750 1.6250 (   340 PWs)   bands (ev):

    -3.9362   1.3141   3.5839   4.0450

          k = 0.1250-0.1250 0.1250 (   335 PWs)   bands (ev):

    -5.5308   4.6653   5.9742   5.9742

          k = 0.6250-0.6250 0.6250 (   353 PWs)   bands (ev):

    -4.0362   0.2998   5.1715   5.1715

          k =-0.3750-0.3750-0.1250 (   345 PWs)   bands (ev):

    -4.4806   1.6274   3.9465   5.4859

          k = 0.1250-0.8750 0.3750 (   352 PWs)   bands (ev):

    -2.2528  -0.6864   2.1892   3.2920

          k =-0.1250-0.3750 0.3750 (   345 PWs)   bands (ev):

    -4.4806   1.6274   3.9465   5.4859

          k = 0.3750-0.8750 0.8750 (   340 PWs)   bands (ev):

    -3.9362   1.3141   3.5839   4.0450

          k = 0.3750 0.3750 0.6250 (   348 PWs)   bands (ev):

    -3.3076  -0.5040   3.9789   4.6940

          k = 0.8750-0.1250 1.1250 (   348 PWs)   bands (ev):

    -2.4301  -0.5830   2.8146   3.5680

          k = 0.6250 0.3750-0.3750 (   348 PWs)   bands (ev):

    -3.3076  -0.5040   3.9789   4.6940

          k = 1.1250-0.1250 0.1250 (   348 PWs)   bands (ev):

    -2.4301  -0.5830   2.8146   3.5680

          k = 0.1250 0.1250 0.3750 (   343 PWs)   bands (ev):

    -4.9914   3.0349   4.9389   5.0192

          k = 0.6250-0.3750 0.8750 (   348 PWs)   bands (ev):

    -3.5088   0.4082   2.9328   4.3264

          k = 0.3750 0.1250-0.1250 (   343 PWs)   bands (ev):

    -4.9914   3.0349   4.9389   5.0192

          k = 0.8750-0.3750 0.3750 (   355 PWs)   bands (ev):

    -2.8011  -0.3953   2.2582   4.3681

          k =-0.1250-0.6250-0.1250 (   340 PWs)   bands (ev):

    -3.9362   1.3141   3.5839   4.0450

          k = 0.3750-1.1250 0.3750 (   355 PWs)   bands (ev):

    -2.8011  -0.3953   2.2582   4.3681

          k = 0.1250-0.6250 0.1250 (   340 PWs)   bands (ev):

    -3.9362   1.3141   3.5839   4.0450

          k = 0.6250-1.1250 0.6250 (   345 PWs)   bands (ev):

    -4.4806   1.6274   3.9465   5.4859

          k = 0.6250 0.1250 0.8750 (   352 PWs)   bands (ev):

    -2.2528  -0.6864   2.1892   3.2920

          k = 1.1250-0.3750 1.3750 (   348 PWs)   bands (ev):

    -3.5088   0.4082   2.9328   4.3264

          k =-0.8750 0.1250 0.6250 (   352 PWs)   bands (ev):

    -2.2528  -0.6864   2.1892   3.2920

          k =-0.3750-0.3750 1.1250 (   355 PWs)   bands (ev):

    -2.8011  -0.3953   2.2582   4.3681

          k = 0.8750 0.1250-0.6250 (   352 PWs)   bands (ev):

    -2.2528  -0.6864   2.1892   3.2920

          k = 1.3750-0.3750-0.1250 (   348 PWs)   bands (ev):

    -3.5088   0.4082   2.9328   4.3264

          k = 0.3750-0.1250 0.6250 (   348 PWs)   bands (ev):

    -3.5088   0.4082   2.9328   4.3264

          k = 0.8750-0.6250 1.1250 (   343 PWs)   bands (ev):

    -4.9914   3.0349   4.9389   5.0192

          k =-0.6250-0.1250 0.3750 (   348 PWs)   bands (ev):

    -3.5088   0.4082   2.9328   4.3264

          k =-0.1250-0.6250 0.8750 (   352 PWs)   bands (ev):

    -2.2528  -0.6864   2.1892   3.2920

          k = 0.6250-0.1250-0.3750 (   348 PWs)   bands (ev):

    -3.5088   0.4082   2.9328   4.3264

          k = 1.1250-0.6250 0.1250 (   352 PWs)   bands (ev):

    -2.2528  -0.6864   2.1892   3.2920

          k =-0.1250 0.8750-0.1250 (   348 PWs)   bands (ev):

    -2.4301  -0.5830   2.8146   3.5680

          k = 0.3750 0.3750 0.3750 (   353 PWs)   bands (ev):

    -4.0362   0.2998   5.1715   5.1715

          k = 0.1250 0.8750 0.1250 (   348 PWs)   bands (ev):

    -2.4301  -0.5830   2.8146   3.5680

          k = 0.6250 0.3750 0.6250 (   348 PWs)   bands (ev):

    -3.3076  -0.5040   3.9789   4.6940

          k = 0.3750-0.3750 0.3750 (   353 PWs)   bands (ev):

    -4.0362   0.2998   5.1715   5.1715

          k = 0.8750-0.8750 0.8750 (   335 PWs)   bands (ev):

    -5.5308   4.6653   5.9742   5.9742

          k = 0.3750 0.3750 1.1250 (   355 PWs)   bands (ev):

    -2.8011  -0.3953   2.2582   4.3681

          k = 0.8750-0.1250 1.6250 (   352 PWs)   bands (ev):

    -2.2528  -0.6864   2.1892   3.2920

          k = 1.1250 0.3750-0.3750 (   355 PWs)   bands (ev):

    -2.8011  -0.3953   2.2582   4.3681

          k = 1.6250-0.1250 0.1250 (   343 PWs)   bands (ev):

    -4.9914   3.0349   4.9389   5.0192

     highest occupied level (ev):     5.9742

     Writing output data file silicon.10.24.save

                                                                                

     bravais-lattice index     =            2
     lattice parameter (alat)  =      10.2400  a.u.
     unit-cell volume          =     268.4355 (a.u.)^3
     number of atoms/cell      =            2
     number of atomic types    =            1
     kinetic-energy cut-off    =      18.0000  Ry
     charge density cut-off    =      72.0000  Ry
     convergence threshold     =      1.0E-12
     beta                      =       0.7000
     number of iterations used =            4
     Exchange-correlation      = SLA  PW   PBE  PBE ( 1  4  3  4 0 0)


     celldm(1)=   10.24000  celldm(2)=    0.00000  celldm(3)=    0.00000
     celldm(4)=    0.00000  celldm(5)=    0.00000  celldm(6)=    0.00000

     crystal axes: (cart. coord. in units of alat)
               a(1) = ( -0.5000  0.0000  0.5000 )  
               a(2) = (  0.0000  0.5000  0.5000 )  
               a(3) = ( -0.5000  0.5000  0.0000 )  

     reciprocal axes: (cart. coord. in units 2 pi/alat)
               b(1) = ( -1.0000 -1.0000  1.0000 )  
               b(2) = (  1.0000  1.0000  1.0000 )  
               b(3) = ( -1.0000  1.0000 -1.0000 )  


     Atoms inside the unit cell: 

     Cartesian axes

     site n.  atom      mass           positions (alat units)
        1     Si  28.0860   tau(    1) = (    0.00000    0.00000    0.00000  )
        2     Si  28.0860   tau(    2) = (    0.25000    0.25000    0.25000  )

     Computing dynamical matrix for 
                    q = (   0.5000000  -0.5000000   0.5000000 )

     13 Sym.Ops. (with q -> -q+G )


     G cutoff =  191.2373  (    683 G-vectors)     FFT grid: ( 20, 20, 20)
     number of k points=    60

     PseudoPot. # 1 for Si read from file:
     /home/max/quantum_espresso/qe-6.1/pseudo/si_pbe_v1.uspp.F.UPF.txt
     MD5 check sum: a056efeee980c13900f22a371efd63c1
     Pseudo is Ultrasoft + core correction, Zval =  4.0
     Generated by new atomic code, or converted to UPF format
     Using radial grid of  899 points,  6 beta functions with: 
                l(1) =   0
                l(2) =   0
                l(3) =   1
                l(4) =   1
                l(5) =   2
                l(6) =   2
     Q(r) pseudized with  8 coefficients,  rinner =    0.900   0.900   0.900
                                                       0.900   0.900


     Atomic displacements:
     There are   4 irreducible representations

     Representation     1      1 modes -  To be done

     Representation     2      1 modes -  To be done

     Representation     3      2 modes -  To be done

     Representation     4      2 modes -  To be done



     Alpha used in Ewald sum =   0.7000
     PHONON       :    14.25s CPU        14.89s WALL



     Representation #  1 mode #   1

     Self-consistent Calculation

      iter #   1 total cpu time :    15.0 secs   av.it.:   4.8
      thresh= 1.000E-02 alpha_mix =  0.700 |ddv_scf|^2 =  2.534E-05

      iter #   2 total cpu time :    15.1 secs   av.it.:   8.3
      thresh= 5.034E-04 alpha_mix =  0.700 |ddv_scf|^2 =  2.214E-05

      iter #   3 total cpu time :    15.3 secs   av.it.:   7.5
      thresh= 4.705E-04 alpha_mix =  0.700 |ddv_scf|^2 =  3.786E-08

      iter #   4 total cpu time :    15.4 secs   av.it.:   7.6
      thresh= 1.946E-05 alpha_mix =  0.700 |ddv_scf|^2 =  1.417E-10

      iter #   5 total cpu time :    15.5 secs   av.it.:   7.9
      thresh= 1.190E-06 alpha_mix =  0.700 |ddv_scf|^2 =  3.648E-12

      iter #   6 total cpu time :    15.7 secs   av.it.:   7.7
      thresh= 1.910E-07 alpha_mix =  0.700 |ddv_scf|^2 =  5.157E-14

     End of self-consistent calculation

     Convergence has been achieved 


     Representation #  2 mode #   2

     Self-consistent Calculation

      iter #   1 total cpu time :    15.8 secs   av.it.:   5.6
      thresh= 1.000E-02 alpha_mix =  0.700 |ddv_scf|^2 =  3.554E-04

      iter #   2 total cpu time :    16.0 secs   av.it.:   8.3
      thresh= 1.885E-03 alpha_mix =  0.700 |ddv_scf|^2 =  1.089E-03

      iter #   3 total cpu time :    16.1 secs   av.it.:   7.1
      thresh= 3.300E-03 alpha_mix =  0.700 |ddv_scf|^2 =  1.104E-07

      iter #   4 total cpu time :    16.2 secs   av.it.:   8.1
      thresh= 3.323E-05 alpha_mix =  0.700 |ddv_scf|^2 =  6.514E-09

      iter #   5 total cpu time :    16.4 secs   av.it.:   8.5
      thresh= 8.071E-06 alpha_mix =  0.700 |ddv_scf|^2 =  1.265E-10

      iter #   6 total cpu time :    16.5 secs   av.it.:   8.3
      thresh= 1.125E-06 alpha_mix =  0.700 |ddv_scf|^2 =  2.014E-12

      iter #   7 total cpu time :    16.6 secs   av.it.:   7.8
      thresh= 1.419E-07 alpha_mix =  0.700 |ddv_scf|^2 =  4.291E-15

     End of self-consistent calculation

     Convergence has been achieved 


     Representation #  3 modes #   3  4

     Self-consistent Calculation

      iter #   1 total cpu time :    16.9 secs   av.it.:   4.7
      thresh= 1.000E-02 alpha_mix =  0.700 |ddv_scf|^2 =  3.048E-07

      iter #   2 total cpu time :    17.2 secs   av.it.:   9.1
      thresh= 5.521E-05 alpha_mix =  0.700 |ddv_scf|^2 =  2.495E-08

      iter #   3 total cpu time :    17.4 secs   av.it.:   8.4
      thresh= 1.580E-05 alpha_mix =  0.700 |ddv_scf|^2 =  4.776E-10

      iter #   4 total cpu time :    17.7 secs   av.it.:   8.8
      thresh= 2.185E-06 alpha_mix =  0.700 |ddv_scf|^2 =  5.935E-12

      iter #   5 total cpu time :    18.0 secs   av.it.:   8.7
      thresh= 2.436E-07 alpha_mix =  0.700 |ddv_scf|^2 =  2.972E-14

     End of self-consistent calculation

     Convergence has been achieved 


     Representation #  4 modes #   5  6

     Self-consistent Calculation

      iter #   1 total cpu time :    18.2 secs   av.it.:   5.0
      thresh= 1.000E-02 alpha_mix =  0.700 |ddv_scf|^2 =  9.757E-07

      iter #   2 total cpu time :    18.5 secs   av.it.:   9.5
      thresh= 9.878E-05 alpha_mix =  0.700 |ddv_scf|^2 =  7.624E-08

      iter #   3 total cpu time :    18.8 secs   av.it.:   9.3
      thresh= 2.761E-05 alpha_mix =  0.700 |ddv_scf|^2 =  4.710E-09

      iter #   4 total cpu time :    19.1 secs   av.it.:   8.5
      thresh= 6.863E-06 alpha_mix =  0.700 |ddv_scf|^2 =  6.096E-12

      iter #   5 total cpu time :    19.4 secs   av.it.:   8.8
      thresh= 2.469E-07 alpha_mix =  0.700 |ddv_scf|^2 =  2.084E-14

     End of self-consistent calculation

     Convergence has been achieved 

     Number of q in the star =    4
     List of q in the star:
          1   0.500000000  -0.500000000   0.500000000
          2   0.500000000   0.500000000   0.500000000
          3  -0.500000000   0.500000000   0.500000000
          4   0.500000000   0.500000000  -0.500000000

     Diagonalizing the dynamical matrix

     q = (    0.500000000  -0.500000000   0.500000000 ) 

 **************************************************************************
     freq (    1) =       4.465775 [THz] =     148.962212 [cm-1]
     freq (    2) =       4.465775 [THz] =     148.962212 [cm-1]
     freq (    3) =      11.719731 [THz] =     390.928136 [cm-1]
     freq (    4) =      12.608834 [THz] =     420.585418 [cm-1]
     freq (    5) =      14.932480 [THz] =     498.093928 [cm-1]
     freq (    6) =      14.932480 [THz] =     498.093928 [cm-1]
 **************************************************************************

     Calculation of q =    0.0000000   0.5000000   0.0000000

   Info: using nr1, nr2, nr3 values from input

   Info: using nr1, nr2, nr3 values from input

     Parallelization info
     --------------------
     sticks:   dense  smooth     PW     G-vecs:    dense   smooth      PW
     Min          63      63     24                  682      682     161
     Max          64      64     25                  686      686     162
     Sum         253     253     97                 2733     2733     645



     bravais-lattice index     =            2
     lattice parameter (alat)  =      10.2400  a.u.
     unit-cell volume          =     268.4355 (a.u.)^3
     number of atoms/cell      =            2
     number of atomic types    =            1
     number of electrons       =         8.00
     number of Kohn-Sham states=            4
     kinetic-energy cutoff     =      18.0000  Ry
     charge density cutoff     =      72.0000  Ry
     Exchange-correlation      = SLA  PW   PBE  PBE ( 1  4  3  4 0 0)

     celldm(1)=  10.240000  celldm(2)=   0.000000  celldm(3)=   0.000000
     celldm(4)=   0.000000  celldm(5)=   0.000000  celldm(6)=   0.000000

     crystal axes: (cart. coord. in units of alat)
               a(1) = (  -0.500000   0.000000   0.500000 )  
               a(2) = (   0.000000   0.500000   0.500000 )  
               a(3) = (  -0.500000   0.500000   0.000000 )  

     reciprocal axes: (cart. coord. in units 2 pi/alat)
               b(1) = ( -1.000000 -1.000000  1.000000 )  
               b(2) = (  1.000000  1.000000  1.000000 )  
               b(3) = ( -1.000000  1.000000 -1.000000 )  


     PseudoPot. # 1 for Si read from file:
     /home/max/quantum_espresso/qe-6.1/pseudo/si_pbe_v1.uspp.F.UPF.txt
     MD5 check sum: a056efeee980c13900f22a371efd63c1
     Pseudo is Ultrasoft + core correction, Zval =  4.0
     Generated by new atomic code, or converted to UPF format
     Using radial grid of  899 points,  6 beta functions with: 
                l(1) =   0
                l(2) =   0
                l(3) =   1
                l(4) =   1
                l(5) =   2
                l(6) =   2
     Q(r) pseudized with  8 coefficients,  rinner =    0.900   0.900   0.900
                                                       0.900   0.900

     atomic species   valence    mass     pseudopotential
        Si             4.00    28.08600     Si( 1.00)

     48 Sym. Ops., with inversion, found



   Cartesian axes

     site n.     atom                  positions (alat units)
         1           Si  tau(   1) = (   0.0000000   0.0000000   0.0000000  )
         2           Si  tau(   2) = (   0.2500000   0.2500000   0.2500000  )

     number of k points=    80
                       cart. coord. in units 2pi/alat
        k(    1) = (  -0.1250000   0.1250000   0.1250000), wk =   0.0312500
        k(    2) = (  -0.1250000   0.6250000   0.1250000), wk =   0.0000000
        k(    3) = (  -0.3750000   0.3750000  -0.1250000), wk =   0.0625000
        k(    4) = (  -0.3750000   0.8750000  -0.1250000), wk =   0.0000000
        k(    5) = (   0.3750000  -0.3750000   0.6250000), wk =   0.0625000
        k(    6) = (   0.3750000   0.1250000   0.6250000), wk =   0.0000000
        k(    7) = (   0.1250000  -0.1250000   0.3750000), wk =   0.0625000
        k(    8) = (   0.1250000   0.3750000   0.3750000), wk =   0.0000000
        k(    9) = (  -0.1250000   0.6250000   0.1250000), wk =   0.0312500
        k(   10) = (  -0.1250000   1.1250000   0.1250000), wk =   0.0000000
        k(   11) = (   0.6250000  -0.1250000   0.8750000), wk =   0.0625000
        k(   12) = (   0.6250000   0.3750000   0.8750000), wk =   0.0000000
        k(   13) = (   0.3750000   0.1250000   0.6250000), wk =   0.0625000
        k(   14) = (   0.3750000   0.6250000   0.6250000), wk =   0.0000000
        k(   15) = (  -0.1250000  -0.8750000   0.1250000), wk =   0.0312500
        k(   16) = (  -0.1250000  -0.3750000   0.1250000), wk =   0.0000000
        k(   17) = (  -0.3750000   0.3750000   0.3750000), wk =   0.0312500
        k(   18) = (  -0.3750000   0.8750000   0.3750000), wk =   0.0000000
        k(   19) = (   0.3750000  -0.3750000   1.1250000), wk =   0.0625000
        k(   20) = (   0.3750000   0.1250000   1.1250000), wk =   0.0000000
        k(   21) = (  -0.1250000  -0.1250000   0.1250000), wk =   0.0312500
        k(   22) = (  -0.1250000   0.3750000   0.1250000), wk =   0.0000000
        k(   23) = (   0.1250000  -0.3750000   0.3750000), wk =   0.0625000
        k(   24) = (   0.1250000   0.1250000   0.3750000), wk =   0.0000000
        k(   25) = (   0.3750000  -0.1250000   0.3750000), wk =   0.0312500
        k(   26) = (   0.3750000   0.3750000   0.3750000), wk =   0.0000000
        k(   27) = (   0.3750000   0.1250000   0.3750000), wk =   0.0312500
        k(   28) = (   0.3750000   0.6250000   0.3750000), wk =   0.0000000
        k(   29) = (  -0.6250000   0.3750000  -0.3750000), wk =   0.0625000
        k(   30) = (  -0.6250000   0.8750000  -0.3750000), wk =   0.0000000
        k(   31) = (  -0.3750000   0.6250000  -0.3750000), wk =   0.0312500
        k(   32) = (  -0.3750000   1.1250000  -0.3750000), wk =   0.0000000
        k(   33) = (  -0.3750000  -0.6250000  -0.3750000), wk =   0.0312500
        k(   34) = (  -0.3750000  -0.1250000  -0.3750000), wk =   0.0000000
        k(   35) = (  -0.3750000   0.1250000  -0.1250000), wk =   0.0625000
        k(   36) = (  -0.3750000   0.6250000  -0.1250000), wk =   0.0000000
        k(   37) = (  -0.1250000   0.3750000  -0.1250000), wk =   0.0312500
        k(   38) = (  -0.1250000   0.8750000  -0.1250000), wk =   0.0000000
        k(   39) = (  -0.1250000  -0.3750000  -0.1250000), wk =   0.0312500
        k(   40) = (  -0.1250000   0.1250000  -0.1250000), wk =   0.0000000
        k(   41) = (  -0.1250000  -0.6250000   0.1250000), wk =   0.0312500
        k(   42) = (  -0.1250000  -0.1250000   0.1250000), wk =   0.0000000
        k(   43) = (   0.6250000  -0.1250000  -0.1250000), wk =   0.0625000
        k(   44) = (   0.6250000   0.3750000  -0.1250000), wk =   0.0000000
        k(   45) = (   0.6250000   0.1250000   0.1250000), wk =   0.0625000
        k(   46) = (   0.6250000   0.6250000   0.1250000), wk =   0.0000000
        k(   47) = (  -0.8750000   0.1250000  -0.6250000), wk =   0.0625000
        k(   48) = (  -0.8750000   0.6250000  -0.6250000), wk =   0.0000000
        k(   49) = (  -0.1250000   0.6250000  -0.8750000), wk =   0.0625000
        k(   50) = (  -0.1250000   1.1250000  -0.8750000), wk =   0.0000000
        k(   51) = (  -0.1250000   0.8750000  -0.6250000), wk =   0.0625000
        k(   52) = (  -0.1250000   1.3750000  -0.6250000), wk =   0.0000000
        k(   53) = (  -0.1250000  -0.8750000  -0.6250000), wk =   0.0625000
        k(   54) = (  -0.1250000  -0.3750000  -0.6250000), wk =   0.0000000
        k(   55) = (   0.8750000  -0.6250000   0.1250000), wk =   0.0625000
        k(   56) = (   0.8750000  -0.1250000   0.1250000), wk =   0.0000000
        k(   57) = (  -0.6250000  -0.1250000  -0.3750000), wk =   0.0625000
        k(   58) = (  -0.6250000   0.3750000  -0.3750000), wk =   0.0000000
        k(   59) = (   0.1250000   0.3750000  -0.6250000), wk =   0.0625000
        k(   60) = (   0.1250000   0.8750000  -0.6250000), wk =   0.0000000
        k(   61) = (   0.1250000   0.6250000  -0.3750000), wk =   0.0625000
        k(   62) = (   0.1250000   1.1250000  -0.3750000), wk =   0.0000000
        k(   63) = (   0.1250000  -0.6250000  -0.3750000), wk =   0.0625000
        k(   64) = (   0.1250000  -0.1250000  -0.3750000), wk =   0.0000000
        k(   65) = (   0.6250000  -0.3750000  -0.1250000), wk =   0.0625000
        k(   66) = (   0.6250000   0.1250000  -0.1250000), wk =   0.0000000
        k(   67) = (  -0.1250000   0.8750000   0.1250000), wk =   0.0312500
        k(   68) = (  -0.1250000   1.3750000   0.1250000), wk =   0.0000000
        k(   69) = (  -0.8750000  -0.1250000  -0.1250000), wk =   0.0625000
        k(   70) = (  -0.8750000   0.3750000  -0.1250000), wk =   0.0000000
        k(   71) = (  -0.8750000   0.1250000   0.1250000), wk =   0.0625000
        k(   72) = (  -0.8750000   0.6250000   0.1250000), wk =   0.0000000
        k(   73) = (  -0.3750000  -0.3750000   0.3750000), wk =   0.0312500
        k(   74) = (  -0.3750000   0.1250000   0.3750000), wk =   0.0000000
        k(   75) = (  -1.1250000   0.3750000  -0.3750000), wk =   0.0625000
        k(   76) = (  -1.1250000   0.8750000  -0.3750000), wk =   0.0000000
        k(   77) = (  -0.3750000   1.1250000  -0.3750000), wk =   0.0312500
        k(   78) = (  -0.3750000   1.6250000  -0.3750000), wk =   0.0000000
        k(   79) = (  -0.3750000  -1.1250000  -0.3750000), wk =   0.0312500
        k(   80) = (  -0.3750000  -0.6250000  -0.3750000), wk =   0.0000000

     Dense  grid:     2733 G-vectors     FFT dimensions: (  20,  20,  20)

     Estimated max dynamical RAM per process >       0.32MB

     Estimated total allocated dynamical RAM >       1.29MB

     Check: negative/imaginary core charge=   -0.000006    0.000000

     The potential is recalculated from file :
     ./_ph0/silicon.10.24.save/charge-density.dat

     Starting wfc are    8 atomic wfcs

     Band Structure Calculation
     Davidson diagonalization with overlap

     ethr =  1.25E-10,  avg # of iterations = 11.6

     total cpu time spent up to now is        1.9 secs

     End of band structure calculation

          k =-0.1250 0.1250 0.1250 (   335 PWs)   bands (ev):

    -5.5308   4.6653   5.9742   5.9742

          k =-0.1250 0.6250 0.1250 (   340 PWs)   bands (ev):

    -3.9362   1.3141   3.5839   4.0450

          k =-0.3750 0.3750-0.1250 (   345 PWs)   bands (ev):

    -4.4806   1.6274   3.9465   5.4859

          k =-0.3750 0.8750-0.1250 (   352 PWs)   bands (ev):

    -2.2528  -0.6864   2.1892   3.2920

          k = 0.3750-0.3750 0.6250 (   348 PWs)   bands (ev):

    -3.3076  -0.5040   3.9789   4.6940

          k = 0.3750 0.1250 0.6250 (   348 PWs)   bands (ev):

    -3.5088   0.4082   2.9328   4.3264

          k = 0.1250-0.1250 0.3750 (   343 PWs)   bands (ev):

    -4.9914   3.0349   4.9389   5.0192

          k = 0.1250 0.3750 0.3750 (   345 PWs)   bands (ev):

    -4.4806   1.6274   3.9465   5.4859

          k =-0.1250 0.6250 0.1250 (   340 PWs)   bands (ev):

    -3.9362   1.3141   3.5839   4.0450

          k =-0.1250 1.1250 0.1250 (   348 PWs)   bands (ev):

    -2.4301  -0.5830   2.8146   3.5680

          k = 0.6250-0.1250 0.8750 (   352 PWs)   bands (ev):

    -2.2528  -0.6864   2.1892   3.2920

          k = 0.6250 0.3750 0.8750 (   348 PWs)   bands (ev):

    -3.5088   0.4082   2.9328   4.3264

          k = 0.3750 0.1250 0.6250 (   348 PWs)   bands (ev):

    -3.5088   0.4082   2.9328   4.3264

          k = 0.3750 0.6250 0.6250 (   348 PWs)   bands (ev):

    -3.3076  -0.5040   3.9789   4.6940

          k =-0.1250-0.8750 0.1250 (   348 PWs)   bands (ev):

    -2.4301  -0.5830   2.8146   3.5680

          k =-0.1250-0.3750 0.1250 (   343 PWs)   bands (ev):

    -4.9914   3.0349   4.9389   5.0192

          k =-0.3750 0.3750 0.3750 (   353 PWs)   bands (ev):

    -4.0362   0.2998   5.1715   5.1715

          k =-0.3750 0.8750 0.3750 (   355 PWs)   bands (ev):

    -2.8011  -0.3953   2.2582   4.3681

          k = 0.3750-0.3750 1.1250 (   355 PWs)   bands (ev):

    -2.8011  -0.3953   2.2582   4.3681

          k = 0.3750 0.1250 1.1250 (   352 PWs)   bands (ev):

    -2.2528  -0.6864   2.1892   3.2920

          k =-0.1250-0.1250 0.1250 (   335 PWs)   bands (ev):

    -5.5308   4.6653   5.9742   5.9742

          k =-0.1250 0.3750 0.1250 (   343 PWs)   bands (ev):

    -4.9914   3.0349   4.9389   5.0192

          k = 0.1250-0.3750 0.3750 (   345 PWs)   bands (ev):

    -4.4806   1.6274   3.9465   5.4859

          k = 0.1250 0.1250 0.3750 (   343 PWs)   bands (ev):

    -4.9914   3.0349   4.9389   5.0192

          k = 0.3750-0.1250 0.3750 (   345 PWs)   bands (ev):

    -4.4806   1.6274   3.9465   5.4859

          k = 0.3750 0.3750 0.3750 (   353 PWs)   bands (ev):

    -4.0362   0.2998   5.1715   5.1715

          k = 0.3750 0.1250 0.3750 (   345 PWs)   bands (ev):

    -4.4806   1.6274   3.9465   5.4859

          k = 0.3750 0.6250 0.3750 (   348 PWs)   bands (ev):

    -3.3076  -0.5040   3.9789   4.6940

          k =-0.6250 0.3750-0.3750 (   348 PWs)   bands (ev):

    -3.3076  -0.5040   3.9789   4.6940

          k =-0.6250 0.8750-0.3750 (   348 PWs)   bands (ev):

    -3.5088   0.4082   2.9328   4.3264

          k =-0.3750 0.6250-0.3750 (   348 PWs)   bands (ev):

    -3.3076  -0.5040   3.9789   4.6940

          k =-0.3750 1.1250-0.3750 (   355 PWs)   bands (ev):

    -2.8011  -0.3953   2.2582   4.3681

          k =-0.3750-0.6250-0.3750 (   348 PWs)   bands (ev):

    -3.3076  -0.5040   3.9789   4.6940

          k =-0.3750-0.1250-0.3750 (   345 PWs)   bands (ev):

    -4.4806   1.6274   3.9465   5.4859

          k =-0.3750 0.1250-0.1250 (   343 PWs)   bands (ev):

    -4.9914   3.0349   4.9389   5.0192

          k =-0.3750 0.6250-0.1250 (   348 PWs)   bands (ev):

    -3.5088   0.4082   2.9328   4.3264

          k =-0.1250 0.3750-0.1250 (   343 PWs)   bands (ev):

    -4.9914   3.0349   4.9389   5.0192

          k =-0.1250 0.8750-0.1250 (   348 PWs)   bands (ev):

    -2.4301  -0.5830   2.8146   3.5680

          k =-0.1250-0.3750-0.1250 (   343 PWs)   bands (ev):

    -4.9914   3.0349   4.9389   5.0192

          k =-0.1250 0.1250-0.1250 (   335 PWs)   bands (ev):

    -5.5308   4.6653   5.9742   5.9742

          k =-0.1250-0.6250 0.1250 (   340 PWs)   bands (ev):

    -3.9362   1.3141   3.5839   4.0450

          k =-0.1250-0.1250 0.1250 (   335 PWs)   bands (ev):

    -5.5308   4.6653   5.9742   5.9742

          k = 0.6250-0.1250-0.1250 (   340 PWs)   bands (ev):

    -3.9362   1.3141   3.5839   4.0450

          k = 0.6250 0.3750-0.1250 (   348 PWs)   bands (ev):

    -3.5088   0.4082   2.9328   4.3264

          k = 0.6250 0.1250 0.1250 (   340 PWs)   bands (ev):

    -3.9362   1.3141   3.5839   4.0450

          k = 0.6250 0.6250 0.1250 (   355 PWs)   bands (ev):

    -2.8011  -0.3953   2.2582   4.3681

          k =-0.8750 0.1250-0.6250 (   352 PWs)   bands (ev):

    -2.2528  -0.6864   2.1892   3.2920

          k =-0.8750 0.6250-0.6250 (   345 PWs)   bands (ev):

    -4.4806   1.6274   3.9465   5.4859

          k =-0.1250 0.6250-0.8750 (   352 PWs)   bands (ev):

    -2.2528  -0.6864   2.1892   3.2920

          k =-0.1250 1.1250-0.8750 (   348 PWs)   bands (ev):

    -2.4301  -0.5830   2.8146   3.5680

          k =-0.1250 0.8750-0.6250 (   352 PWs)   bands (ev):

    -2.2528  -0.6864   2.1892   3.2920

          k =-0.1250 1.3750-0.6250 (   355 PWs)   bands (ev):

    -2.8011  -0.3953   2.2582   4.3681

          k =-0.1250-0.8750-0.6250 (   352 PWs)   bands (ev):

    -2.2528  -0.6864   2.1892   3.2920

          k =-0.1250-0.3750-0.6250 (   348 PWs)   bands (ev):

    -3.5088   0.4082   2.9328   4.3264

          k = 0.8750-0.6250 0.1250 (   352 PWs)   bands (ev):

    -2.2528  -0.6864   2.1892   3.2920

          k = 0.8750-0.1250 0.1250 (   348 PWs)   bands (ev):

    -2.4301  -0.5830   2.8146   3.5680

          k =-0.6250-0.1250-0.3750 (   348 PWs)   bands (ev):

    -3.5088   0.4082   2.9328   4.3264

          k =-0.6250 0.3750-0.3750 (   348 PWs)   bands (ev):

    -3.3076  -0.5040   3.9789   4.6940

          k = 0.1250 0.3750-0.6250 (   348 PWs)   bands (ev):

    -3.5088   0.4082   2.9328   4.3264

          k = 0.1250 0.8750-0.6250 (   352 PWs)   bands (ev):

    -2.2528  -0.6864   2.1892   3.2920

          k = 0.1250 0.6250-0.3750 (   348 PWs)   bands (ev):

    -3.5088   0.4082   2.9328   4.3264

          k = 0.1250 1.1250-0.3750 (   352 PWs)   bands (ev):

    -2.2528  -0.6864   2.1892   3.2920

          k = 0.1250-0.6250-0.3750 (   348 PWs)   bands (ev):

    -3.5088   0.4082   2.9328   4.3264

          k = 0.1250-0.1250-0.3750 (   343 PWs)   bands (ev):

    -4.9914   3.0349   4.9389   5.0192

          k = 0.6250-0.3750-0.1250 (   348 PWs)   bands (ev):

    -3.5088   0.4082   2.9328   4.3264

          k = 0.6250 0.1250-0.1250 (   340 PWs)   bands (ev):

    -3.9362   1.3141   3.5839   4.0450

          k =-0.1250 0.8750 0.1250 (   348 PWs)   bands (ev):

    -2.4301  -0.5830   2.8146   3.5680

          k =-0.1250 1.3750 0.1250 (   340 PWs)   bands (ev):

    -3.9362   1.3141   3.5839   4.0450

          k =-0.8750-0.1250-0.1250 (   348 PWs)   bands (ev):

    -2.4301  -0.5830   2.8146   3.5680

          k =-0.8750 0.3750-0.1250 (   352 PWs)   bands (ev):

    -2.2528  -0.6864   2.1892   3.2920

          k =-0.8750 0.1250 0.1250 (   348 PWs)   bands (ev):

    -2.4301  -0.5830   2.8146   3.5680

          k =-0.8750 0.6250 0.1250 (   352 PWs)   bands (ev):

    -2.2528  -0.6864   2.1892   3.2920

          k =-0.3750-0.3750 0.3750 (   353 PWs)   bands (ev):

    -4.0362   0.2998   5.1715   5.1715

          k =-0.3750 0.1250 0.3750 (   345 PWs)   bands (ev):

    -4.4806   1.6274   3.9465   5.4859

          k =-1.1250 0.3750-0.3750 (   355 PWs)   bands (ev):

    -2.8011  -0.3953   2.2582   4.3681

          k =-1.1250 0.8750-0.3750 (   340 PWs)   bands (ev):

    -3.9362   1.3141   3.5839   4.0450

          k =-0.3750 1.1250-0.3750 (   355 PWs)   bands (ev):

    -2.8011  -0.3953   2.2582   4.3681

          k =-0.3750 1.6250-0.3750 (   353 PWs)   bands (ev):

    -4.0362   0.2998   5.1715   5.1715

          k =-0.3750-1.1250-0.3750 (   355 PWs)   bands (ev):

    -2.8011  -0.3953   2.2582   4.3681

          k =-0.3750-0.6250-0.3750 (   348 PWs)   bands (ev):

    -3.3076  -0.5040   3.9789   4.6940

     highest occupied level (ev):     5.9742

     Writing output data file silicon.10.24.save

                                                                                

     bravais-lattice index     =            2
     lattice parameter (alat)  =      10.2400  a.u.
     unit-cell volume          =     268.4355 (a.u.)^3
     number of atoms/cell      =            2
     number of atomic types    =            1
     kinetic-energy cut-off    =      18.0000  Ry
     charge density cut-off    =      72.0000  Ry
     convergence threshold     =      1.0E-12
     beta                      =       0.7000
     number of iterations used =            4
     Exchange-correlation      = SLA  PW   PBE  PBE ( 1  4  3  4 0 0)


     celldm(1)=   10.24000  celldm(2)=    0.00000  celldm(3)=    0.00000
     celldm(4)=    0.00000  celldm(5)=    0.00000  celldm(6)=    0.00000

     crystal axes: (cart. coord. in units of alat)
               a(1) = ( -0.5000  0.0000  0.5000 )  
               a(2) = (  0.0000  0.5000  0.5000 )  
               a(3) = ( -0.5000  0.5000  0.0000 )  

     reciprocal axes: (cart. coord. in units 2 pi/alat)
               b(1) = ( -1.0000 -1.0000  1.0000 )  
               b(2) = (  1.0000  1.0000  1.0000 )  
               b(3) = ( -1.0000  1.0000 -1.0000 )  


     Atoms inside the unit cell: 

     Cartesian axes

     site n.  atom      mass           positions (alat units)
        1     Si  28.0860   tau(    1) = (    0.00000    0.00000    0.00000  )
        2     Si  28.0860   tau(    2) = (    0.25000    0.25000    0.25000  )

     Computing dynamical matrix for 
                    q = (   0.0000000   0.5000000   0.0000000 )

      8 Sym.Ops. (no q -> -q+G )


     G cutoff =  191.2373  (    683 G-vectors)     FFT grid: ( 20, 20, 20)
     number of k points=    80

     PseudoPot. # 1 for Si read from file:
     /home/max/quantum_espresso/qe-6.1/pseudo/si_pbe_v1.uspp.F.UPF.txt
     MD5 check sum: a056efeee980c13900f22a371efd63c1
     Pseudo is Ultrasoft + core correction, Zval =  4.0
     Generated by new atomic code, or converted to UPF format
     Using radial grid of  899 points,  6 beta functions with: 
                l(1) =   0
                l(2) =   0
                l(3) =   1
                l(4) =   1
                l(5) =   2
                l(6) =   2
     Q(r) pseudized with  8 coefficients,  rinner =    0.900   0.900   0.900
                                                       0.900   0.900

     Mode symmetry, C_4v (4mm)  point group:


     Atomic displacements:
     There are   4 irreducible representations

     Representation     1      1 modes -A_1  G_1 D_1  To be done

     Representation     2      1 modes -B_2  G_4 D_2'  To be done

     Representation     3      2 modes -E    G_5 D_5  To be done

     Representation     4      2 modes -E    G_5 D_5  To be done



     Alpha used in Ewald sum =   0.7000
     PHONON       :    19.33s CPU        20.25s WALL



     Representation #  1 mode #   1

     Self-consistent Calculation

      iter #   1 total cpu time :    20.4 secs   av.it.:   5.8
      thresh= 1.000E-02 alpha_mix =  0.700 |ddv_scf|^2 =  3.050E-03

      iter #   2 total cpu time :    20.6 secs   av.it.:   7.7
      thresh= 5.522E-03 alpha_mix =  0.700 |ddv_scf|^2 =  3.966E-02

      iter #   3 total cpu time :    20.7 secs   av.it.:   6.7
      thresh= 1.000E-02 alpha_mix =  0.700 |ddv_scf|^2 =  1.372E-07

      iter #   4 total cpu time :    20.9 secs   av.it.:   8.2
      thresh= 3.704E-05 alpha_mix =  0.700 |ddv_scf|^2 =  1.213E-08

      iter #   5 total cpu time :    21.1 secs   av.it.:   7.8
      thresh= 1.101E-05 alpha_mix =  0.700 |ddv_scf|^2 =  7.591E-10

      iter #   6 total cpu time :    21.2 secs   av.it.:   7.8
      thresh= 2.755E-06 alpha_mix =  0.700 |ddv_scf|^2 =  2.861E-12

      iter #   7 total cpu time :    21.4 secs   av.it.:   7.9
      thresh= 1.692E-07 alpha_mix =  0.700 |ddv_scf|^2 =  5.541E-13

     End of self-consistent calculation

     Convergence has been achieved 


     Representation #  2 mode #   2

     Self-consistent Calculation

      iter #   1 total cpu time :    21.6 secs   av.it.:   4.9
      thresh= 1.000E-02 alpha_mix =  0.700 |ddv_scf|^2 =  5.429E-06

      iter #   2 total cpu time :    21.7 secs   av.it.:   8.6
      thresh= 2.330E-04 alpha_mix =  0.700 |ddv_scf|^2 =  1.279E-06

      iter #   3 total cpu time :    21.9 secs   av.it.:   8.5
      thresh= 1.131E-04 alpha_mix =  0.700 |ddv_scf|^2 =  3.626E-08

      iter #   4 total cpu time :    22.1 secs   av.it.:   8.1
      thresh= 1.904E-05 alpha_mix =  0.700 |ddv_scf|^2 =  5.860E-10

      iter #   5 total cpu time :    22.3 secs   av.it.:   8.5
      thresh= 2.421E-06 alpha_mix =  0.700 |ddv_scf|^2 =  6.267E-12

      iter #   6 total cpu time :    22.5 secs   av.it.:   7.9
      thresh= 2.503E-07 alpha_mix =  0.700 |ddv_scf|^2 =  6.234E-14

     End of self-consistent calculation

     Convergence has been achieved 


     Representation #  3 modes #   3  4

     Self-consistent Calculation

      iter #   1 total cpu time :    22.7 secs   av.it.:   5.0
      thresh= 1.000E-02 alpha_mix =  0.700 |ddv_scf|^2 =  1.007E-06

      iter #   2 total cpu time :    23.1 secs   av.it.:   9.7
      thresh= 1.004E-04 alpha_mix =  0.700 |ddv_scf|^2 =  1.257E-07

      iter #   3 total cpu time :    23.5 secs   av.it.:   9.4
      thresh= 3.545E-05 alpha_mix =  0.700 |ddv_scf|^2 =  5.999E-09

      iter #   4 total cpu time :    23.9 secs   av.it.:   8.8
      thresh= 7.745E-06 alpha_mix =  0.700 |ddv_scf|^2 =  8.785E-12

      iter #   5 total cpu time :    24.2 secs   av.it.:   9.1
      thresh= 2.964E-07 alpha_mix =  0.700 |ddv_scf|^2 =  2.694E-13

     End of self-consistent calculation

     Convergence has been achieved 


     Representation #  4 modes #   5  6

     Self-consistent Calculation

      iter #   1 total cpu time :    24.5 secs   av.it.:   5.0
      thresh= 1.000E-02 alpha_mix =  0.700 |ddv_scf|^2 =  9.261E-07

      iter #   2 total cpu time :    24.9 secs   av.it.:   9.7
      thresh= 9.623E-05 alpha_mix =  0.700 |ddv_scf|^2 =  1.168E-07

      iter #   3 total cpu time :    25.3 secs   av.it.:   9.4
      thresh= 3.417E-05 alpha_mix =  0.700 |ddv_scf|^2 =  6.287E-09

      iter #   4 total cpu time :    25.7 secs   av.it.:   8.9
      thresh= 7.929E-06 alpha_mix =  0.700 |ddv_scf|^2 =  1.370E-11

      iter #   5 total cpu time :    26.0 secs   av.it.:   9.1
      thresh= 3.701E-07 alpha_mix =  0.700 |ddv_scf|^2 =  4.021E-14

     End of self-consistent calculation

     Convergence has been achieved 

     Number of q in the star =    6
     List of q in the star:
          1   0.000000000   0.500000000   0.000000000
          2   0.000000000  -0.500000000   0.000000000
          3   0.500000000   0.000000000   0.000000000
          4   0.000000000   0.000000000   0.500000000
          5   0.000000000   0.000000000  -0.500000000
          6  -0.500000000   0.000000000   0.000000000

     Diagonalizing the dynamical matrix

     q = (    0.000000000   0.500000000   0.000000000 ) 

 **************************************************************************
     freq (    1) =       4.144892 [THz] =     138.258712 [cm-1]
     freq (    2) =       4.144892 [THz] =     138.258712 [cm-1]
     freq (    3) =       7.349373 [THz] =     245.148685 [cm-1]
     freq (    4) =      14.299628 [THz] =     476.984256 [cm-1]
     freq (    5) =      14.299628 [THz] =     476.984256 [cm-1]
     freq (    6) =      14.833293 [THz] =     494.785391 [cm-1]
 **************************************************************************

     Mode symmetry, C_4v (4mm)  point group:

     freq (  1 -  2) =        138.3  [cm-1]   --> E    G_5 D_5       
     freq (  3 -  3) =        245.1  [cm-1]   --> A_1  G_1 D_1       
     freq (  4 -  5) =        477.0  [cm-1]   --> E    G_5 D_5       
     freq (  6 -  6) =        494.8  [cm-1]   --> B_2  G_4 D_2'      

     Calculation of q =    0.7500000  -0.2500000   0.7500000

   Info: using nr1, nr2, nr3 values from input

   Info: using nr1, nr2, nr3 values from input

     Parallelization info
     --------------------
     sticks:   dense  smooth     PW     G-vecs:    dense   smooth      PW
     Min          63      63     30                  682      682     216
     Max          64      64     31                  686      686     218
     Sum         253     253    121                 2733     2733     869



     bravais-lattice index     =            2
     lattice parameter (alat)  =      10.2400  a.u.
     unit-cell volume          =     268.4355 (a.u.)^3
     number of atoms/cell      =            2
     number of atomic types    =            1
     number of electrons       =         8.00
     number of Kohn-Sham states=            4
     kinetic-energy cutoff     =      18.0000  Ry
     charge density cutoff     =      72.0000  Ry
     Exchange-correlation      = SLA  PW   PBE  PBE ( 1  4  3  4 0 0)

     celldm(1)=  10.240000  celldm(2)=   0.000000  celldm(3)=   0.000000
     celldm(4)=   0.000000  celldm(5)=   0.000000  celldm(6)=   0.000000

     crystal axes: (cart. coord. in units of alat)
               a(1) = (  -0.500000   0.000000   0.500000 )  
               a(2) = (   0.000000   0.500000   0.500000 )  
               a(3) = (  -0.500000   0.500000   0.000000 )  

     reciprocal axes: (cart. coord. in units 2 pi/alat)
               b(1) = ( -1.000000 -1.000000  1.000000 )  
               b(2) = (  1.000000  1.000000  1.000000 )  
               b(3) = ( -1.000000  1.000000 -1.000000 )  


     PseudoPot. # 1 for Si read from file:
     /home/max/quantum_espresso/qe-6.1/pseudo/si_pbe_v1.uspp.F.UPF.txt
     MD5 check sum: a056efeee980c13900f22a371efd63c1
     Pseudo is Ultrasoft + core correction, Zval =  4.0
     Generated by new atomic code, or converted to UPF format
     Using radial grid of  899 points,  6 beta functions with: 
                l(1) =   0
                l(2) =   0
                l(3) =   1
                l(4) =   1
                l(5) =   2
                l(6) =   2
     Q(r) pseudized with  8 coefficients,  rinner =    0.900   0.900   0.900
                                                       0.900   0.900

     atomic species   valence    mass     pseudopotential
        Si             4.00    28.08600     Si( 1.00)

     48 Sym. Ops., with inversion, found



   Cartesian axes

     site n.     atom                  positions (alat units)
         1           Si  tau(   1) = (   0.0000000   0.0000000   0.0000000  )
         2           Si  tau(   2) = (   0.2500000   0.2500000   0.2500000  )

     number of k points=   288

     Number of k-points >= 100: set verbosity='high' to print them.

     Dense  grid:     2733 G-vectors     FFT dimensions: (  20,  20,  20)

     Estimated max dynamical RAM per process >       0.32MB

     Estimated total allocated dynamical RAM >       1.29MB

     Check: negative/imaginary core charge=   -0.000006    0.000000

     The potential is recalculated from file :
     ./_ph0/silicon.10.24.save/charge-density.dat

     Starting wfc are    8 atomic wfcs

     Band Structure Calculation
     Davidson diagonalization with overlap

     ethr =  1.25E-10,  avg # of iterations = 11.5

     total cpu time spent up to now is        3.7 secs

     End of band structure calculation

     Number of k-points >= 100: set verbosity='high' to print the bands.

     highest occupied level (ev):     5.9742

     Writing output data file silicon.10.24.save

                                                                                

     bravais-lattice index     =            2
     lattice parameter (alat)  =      10.2400  a.u.
     unit-cell volume          =     268.4355 (a.u.)^3
     number of atoms/cell      =            2
     number of atomic types    =            1
     kinetic-energy cut-off    =      18.0000  Ry
     charge density cut-off    =      72.0000  Ry
     convergence threshold     =      1.0E-12
     beta                      =       0.7000
     number of iterations used =            4
     Exchange-correlation      = SLA  PW   PBE  PBE ( 1  4  3  4 0 0)


     celldm(1)=   10.24000  celldm(2)=    0.00000  celldm(3)=    0.00000
     celldm(4)=    0.00000  celldm(5)=    0.00000  celldm(6)=    0.00000

     crystal axes: (cart. coord. in units of alat)
               a(1) = ( -0.5000  0.0000  0.5000 )  
               a(2) = (  0.0000  0.5000  0.5000 )  
               a(3) = ( -0.5000  0.5000  0.0000 )  

     reciprocal axes: (cart. coord. in units 2 pi/alat)
               b(1) = ( -1.0000 -1.0000  1.0000 )  
               b(2) = (  1.0000  1.0000  1.0000 )  
               b(3) = ( -1.0000  1.0000 -1.0000 )  


     Atoms inside the unit cell: 

     Cartesian axes

     site n.  atom      mass           positions (alat units)
        1     Si  28.0860   tau(    1) = (    0.00000    0.00000    0.00000  )
        2     Si  28.0860   tau(    2) = (    0.25000    0.25000    0.25000  )

     Computing dynamical matrix for 
                    q = (   0.7500000  -0.2500000   0.7500000 )

      2 Sym.Ops. (no q -> -q+G )


     G cutoff =  191.2373  (    683 G-vectors)     FFT grid: ( 20, 20, 20)
     number of k points=   288

     PseudoPot. # 1 for Si read from file:
     /home/max/quantum_espresso/qe-6.1/pseudo/si_pbe_v1.uspp.F.UPF.txt
     MD5 check sum: a056efeee980c13900f22a371efd63c1
     Pseudo is Ultrasoft + core correction, Zval =  4.0
     Generated by new atomic code, or converted to UPF format
     Using radial grid of  899 points,  6 beta functions with: 
                l(1) =   0
                l(2) =   0
                l(3) =   1
                l(4) =   1
                l(5) =   2
                l(6) =   2
     Q(r) pseudized with  8 coefficients,  rinner =    0.900   0.900   0.900
                                                       0.900   0.900

     Mode symmetry, C_s (m)     point group:


     Atomic displacements:
     There are   6 irreducible representations

     Representation     1      1 modes -A'  To be done

     Representation     2      1 modes -A'  To be done

     Representation     3      1 modes -A'  To be done

     Representation     4      1 modes -A'  To be done

     Representation     5      1 modes -A''  To be done

     Representation     6      1 modes -A''  To be done



     Alpha used in Ewald sum =   0.7000
     PHONON       :    27.20s CPU        28.54s WALL



     Representation #  1 mode #   1

     Self-consistent Calculation

      iter #   1 total cpu time :    29.0 secs   av.it.:   5.3
      thresh= 1.000E-02 alpha_mix =  0.700 |ddv_scf|^2 =  6.255E-05

      iter #   2 total cpu time :    29.7 secs   av.it.:   8.9
      thresh= 7.909E-04 alpha_mix =  0.700 |ddv_scf|^2 =  1.615E-04

      iter #   3 total cpu time :    30.3 secs   av.it.:   7.6
      thresh= 1.271E-03 alpha_mix =  0.700 |ddv_scf|^2 =  1.151E-06

      iter #   4 total cpu time :    30.9 secs   av.it.:   8.3
      thresh= 1.073E-04 alpha_mix =  0.700 |ddv_scf|^2 =  5.261E-08

      iter #   5 total cpu time :    31.5 secs   av.it.:   8.4
      thresh= 2.294E-05 alpha_mix =  0.700 |ddv_scf|^2 =  7.060E-09

      iter #   6 total cpu time :    32.1 secs   av.it.:   8.5
      thresh= 8.403E-06 alpha_mix =  0.700 |ddv_scf|^2 =  7.106E-11

      iter #   7 total cpu time :    32.8 secs   av.it.:   8.7
      thresh= 8.430E-07 alpha_mix =  0.700 |ddv_scf|^2 =  2.460E-12

      iter #   8 total cpu time :    33.4 secs   av.it.:   8.6
      thresh= 1.569E-07 alpha_mix =  0.700 |ddv_scf|^2 =  1.880E-13

     End of self-consistent calculation

     Convergence has been achieved 


     Representation #  2 mode #   2

     Self-consistent Calculation

      iter #   1 total cpu time :    34.0 secs   av.it.:   5.4
      thresh= 1.000E-02 alpha_mix =  0.700 |ddv_scf|^2 =  1.120E-04

      iter #   2 total cpu time :    34.6 secs   av.it.:   8.7
      thresh= 1.058E-03 alpha_mix =  0.700 |ddv_scf|^2 =  3.164E-04

      iter #   3 total cpu time :    35.2 secs   av.it.:   7.4
      thresh= 1.779E-03 alpha_mix =  0.700 |ddv_scf|^2 =  7.667E-07

      iter #   4 total cpu time :    35.8 secs   av.it.:   8.6
      thresh= 8.756E-05 alpha_mix =  0.700 |ddv_scf|^2 =  5.249E-08

      iter #   5 total cpu time :    36.4 secs   av.it.:   8.2
      thresh= 2.291E-05 alpha_mix =  0.700 |ddv_scf|^2 =  9.576E-09

      iter #   6 total cpu time :    37.1 secs   av.it.:   8.5
      thresh= 9.786E-06 alpha_mix =  0.700 |ddv_scf|^2 =  7.432E-11

      iter #   7 total cpu time :    37.7 secs   av.it.:   8.7
      thresh= 8.621E-07 alpha_mix =  0.700 |ddv_scf|^2 =  2.283E-12

      iter #   8 total cpu time :    38.3 secs   av.it.:   8.7
      thresh= 1.511E-07 alpha_mix =  0.700 |ddv_scf|^2 =  5.273E-13

     End of self-consistent calculation

     Convergence has been achieved 


     Representation #  3 mode #   3

     Self-consistent Calculation

      iter #   1 total cpu time :    38.9 secs   av.it.:   5.4
      thresh= 1.000E-02 alpha_mix =  0.700 |ddv_scf|^2 =  8.798E-05

      iter #   2 total cpu time :    39.5 secs   av.it.:   8.8
      thresh= 9.380E-04 alpha_mix =  0.700 |ddv_scf|^2 =  2.331E-04

      iter #   3 total cpu time :    40.1 secs   av.it.:   7.4
      thresh= 1.527E-03 alpha_mix =  0.700 |ddv_scf|^2 =  1.318E-06

      iter #   4 total cpu time :    40.7 secs   av.it.:   8.2
      thresh= 1.148E-04 alpha_mix =  0.700 |ddv_scf|^2 =  5.367E-08

      iter #   5 total cpu time :    41.3 secs   av.it.:   8.4
      thresh= 2.317E-05 alpha_mix =  0.700 |ddv_scf|^2 =  9.632E-09

      iter #   6 total cpu time :    42.0 secs   av.it.:   8.4
      thresh= 9.814E-06 alpha_mix =  0.700 |ddv_scf|^2 =  4.471E-11

      iter #   7 total cpu time :    42.6 secs   av.it.:   8.7
      thresh= 6.686E-07 alpha_mix =  0.700 |ddv_scf|^2 =  1.528E-12

      iter #   8 total cpu time :    43.2 secs   av.it.:   8.8
      thresh= 1.236E-07 alpha_mix =  0.700 |ddv_scf|^2 =  2.403E-13

     End of self-consistent calculation

     Convergence has been achieved 


     Representation #  4 mode #   4

     Self-consistent Calculation

      iter #   1 total cpu time :    43.8 secs   av.it.:   5.2
      thresh= 1.000E-02 alpha_mix =  0.700 |ddv_scf|^2 =  3.852E-05

      iter #   2 total cpu time :    44.4 secs   av.it.:   8.9
[...]
        k(   59) = (  -0.8750000   0.1250000  -0.1250000), wk =   0.0625000
        k(   60) = (  -1.3750000  -0.8750000  -0.1250000), wk =   0.0000000
        k(   61) = (  -1.1250000   0.3750000  -0.3750000), wk =   0.0625000
        k(   62) = (  -1.6250000  -0.6250000  -0.3750000), wk =   0.0000000
        k(   63) = (  -0.3750000   0.3750000   1.1250000), wk =   0.0625000
        k(   64) = (  -0.8750000  -0.6250000   1.1250000), wk =   0.0000000

     Dense  grid:     2733 G-vectors     FFT dimensions: (  20,  20,  20)

     Estimated max dynamical RAM per process >       0.32MB

     Estimated total allocated dynamical RAM >       1.29MB

     Check: negative/imaginary core charge=   -0.000006    0.000000

     The potential is recalculated from file :
     ./_ph0/silicon.10.24.save/charge-density.dat

     Starting wfc are    8 atomic wfcs

     Band Structure Calculation
     Davidson diagonalization with overlap

     ethr =  1.25E-10,  avg # of iterations = 11.5

     total cpu time spent up to now is        5.8 secs

     End of band structure calculation

          k =-0.1250 0.1250 0.1250 (   335 PWs)   bands (ev):

    -5.5308   4.6653   5.9742   5.9742

          k =-0.6250-0.8750 0.1250 (   352 PWs)   bands (ev):

    -2.2528  -0.6864   2.1892   3.2920

          k =-0.3750 0.3750-0.1250 (   345 PWs)   bands (ev):

    -4.4806   1.6274   3.9465   5.4859

          k =-0.8750-0.6250-0.1250 (   352 PWs)   bands (ev):

    -2.2528  -0.6864   2.1892   3.2920

          k = 0.3750-0.3750 0.6250 (   348 PWs)   bands (ev):

    -3.3076  -0.5040   3.9789   4.6940

          k =-0.1250-1.3750 0.6250 (   355 PWs)   bands (ev):

    -2.8011  -0.3953   2.2582   4.3681

          k = 0.1250-0.1250 0.3750 (   343 PWs)   bands (ev):

    -4.9914   3.0349   4.9389   5.0192

          k =-0.3750-1.1250 0.3750 (   355 PWs)   bands (ev):

    -2.8011  -0.3953   2.2582   4.3681

          k =-0.1250 0.6250 0.1250 (   340 PWs)   bands (ev):

    -3.9362   1.3141   3.5839   4.0450

          k =-0.6250-0.3750 0.1250 (   348 PWs)   bands (ev):

    -3.5088   0.4082   2.9328   4.3264

          k = 0.6250-0.1250 0.8750 (   352 PWs)   bands (ev):

    -2.2528  -0.6864   2.1892   3.2920

          k = 0.1250-1.1250 0.8750 (   348 PWs)   bands (ev):

    -2.4301  -0.5830   2.8146   3.5680

          k = 0.3750 0.1250 0.6250 (   348 PWs)   bands (ev):

    -3.5088   0.4082   2.9328   4.3264

          k =-0.1250-0.8750 0.6250 (   352 PWs)   bands (ev):

    -2.2528  -0.6864   2.1892   3.2920

          k =-0.1250-0.8750 0.1250 (   348 PWs)   bands (ev):

    -2.4301  -0.5830   2.8146   3.5680

          k =-0.6250-1.8750 0.1250 (   340 PWs)   bands (ev):

    -3.9362   1.3141   3.5839   4.0450

          k =-0.3750 0.3750 0.3750 (   353 PWs)   bands (ev):

    -4.0362   0.2998   5.1715   5.1715

          k =-0.8750-0.6250 0.3750 (   348 PWs)   bands (ev):

    -3.5088   0.4082   2.9328   4.3264

          k = 0.3750-0.3750 1.1250 (   355 PWs)   bands (ev):

    -2.8011  -0.3953   2.2582   4.3681

          k =-0.1250-1.3750 1.1250 (   352 PWs)   bands (ev):

    -2.2528  -0.6864   2.1892   3.2920

          k = 0.1250-0.3750 0.3750 (   345 PWs)   bands (ev):

    -4.4806   1.6274   3.9465   5.4859

          k =-0.3750-1.3750 0.3750 (   348 PWs)   bands (ev):

    -3.3076  -0.5040   3.9789   4.6940

          k = 0.3750-0.3750-0.1250 (   345 PWs)   bands (ev):

    -4.4806   1.6274   3.9465   5.4859

          k =-0.1250-1.3750-0.1250 (   340 PWs)   bands (ev):

    -3.9362   1.3141   3.5839   4.0450

          k =-0.6250 0.3750-0.3750 (   348 PWs)   bands (ev):

    -3.3076  -0.5040   3.9789   4.6940

          k =-1.1250-0.6250-0.3750 (   348 PWs)   bands (ev):

    -3.5088   0.4082   2.9328   4.3264

          k =-0.3750 0.3750 0.6250 (   348 PWs)   bands (ev):

    -3.3076  -0.5040   3.9789   4.6940

          k =-0.8750-0.6250 0.6250 (   345 PWs)   bands (ev):

    -4.4806   1.6274   3.9465   5.4859

          k =-0.3750 0.1250-0.1250 (   343 PWs)   bands (ev):

    -4.9914   3.0349   4.9389   5.0192

          k =-0.8750-0.8750-0.1250 (   348 PWs)   bands (ev):

    -2.4301  -0.5830   2.8146   3.5680

          k =-0.1250 0.1250 0.3750 (   343 PWs)   bands (ev):

    -4.9914   3.0349   4.9389   5.0192

          k =-0.6250-0.8750 0.3750 (   348 PWs)   bands (ev):

    -3.5088   0.4082   2.9328   4.3264

          k = 0.1250 0.6250-0.1250 (   340 PWs)   bands (ev):

    -3.9362   1.3141   3.5839   4.0450

          k =-0.3750-0.3750-0.1250 (   345 PWs)   bands (ev):

    -4.4806   1.6274   3.9465   5.4859

          k = 0.6250 0.1250-0.1250 (   340 PWs)   bands (ev):

    -3.9362   1.3141   3.5839   4.0450

          k = 0.1250-0.8750-0.1250 (   348 PWs)   bands (ev):

    -2.4301  -0.5830   2.8146   3.5680

          k =-0.8750 0.1250-0.6250 (   352 PWs)   bands (ev):

    -2.2528  -0.6864   2.1892   3.2920

          k =-1.3750-0.8750-0.6250 (   345 PWs)   bands (ev):

    -4.4806   1.6274   3.9465   5.4859

          k = 0.8750-0.1250 0.6250 (   352 PWs)   bands (ev):

    -2.2528  -0.6864   2.1892   3.2920

          k = 0.3750-1.1250 0.6250 (   348 PWs)   bands (ev):

    -3.5088   0.4082   2.9328   4.3264

          k =-0.6250 0.1250 0.8750 (   352 PWs)   bands (ev):

    -2.2528  -0.6864   2.1892   3.2920

          k =-1.1250-0.8750 0.8750 (   335 PWs)   bands (ev):

    -5.5308   4.6653   5.9742   5.9742

          k =-0.1250 0.8750 0.6250 (   352 PWs)   bands (ev):

    -2.2528  -0.6864   2.1892   3.2920

          k =-0.6250-0.1250 0.6250 (   355 PWs)   bands (ev):

    -2.8011  -0.3953   2.2582   4.3681

          k = 0.1250 0.8750-0.6250 (   352 PWs)   bands (ev):

    -2.2528  -0.6864   2.1892   3.2920

          k =-0.3750-0.1250-0.6250 (   348 PWs)   bands (ev):

    -3.5088   0.4082   2.9328   4.3264

          k =-0.6250-0.1250-0.3750 (   348 PWs)   bands (ev):

    -3.5088   0.4082   2.9328   4.3264

          k =-1.1250-1.1250-0.3750 (   340 PWs)   bands (ev):

    -3.9362   1.3141   3.5839   4.0450

          k = 0.6250 0.1250 0.3750 (   348 PWs)   bands (ev):

    -3.5088   0.4082   2.9328   4.3264

          k = 0.1250-0.8750 0.3750 (   352 PWs)   bands (ev):

    -2.2528  -0.6864   2.1892   3.2920

          k =-0.3750-0.1250 0.6250 (   348 PWs)   bands (ev):

    -3.5088   0.4082   2.9328   4.3264

          k =-0.8750-1.1250 0.6250 (   343 PWs)   bands (ev):

    -4.9914   3.0349   4.9389   5.0192

          k = 0.1250 0.6250 0.3750 (   348 PWs)   bands (ev):

    -3.5088   0.4082   2.9328   4.3264

          k =-0.3750-0.3750 0.3750 (   353 PWs)   bands (ev):

    -4.0362   0.2998   5.1715   5.1715

          k =-0.1250 0.6250-0.3750 (   348 PWs)   bands (ev):

    -3.5088   0.4082   2.9328   4.3264

          k =-0.6250-0.3750-0.3750 (   348 PWs)   bands (ev):

    -3.3076  -0.5040   3.9789   4.6940

          k = 0.1250-0.8750-0.1250 (   348 PWs)   bands (ev):

    -2.4301  -0.5830   2.8146   3.5680

          k =-0.3750-1.8750-0.1250 (   343 PWs)   bands (ev):

    -4.9914   3.0349   4.9389   5.0192

          k =-0.8750 0.1250-0.1250 (   348 PWs)   bands (ev):

    -2.4301  -0.5830   2.8146   3.5680

          k =-1.3750-0.8750-0.1250 (   352 PWs)   bands (ev):

    -2.2528  -0.6864   2.1892   3.2920

          k =-1.1250 0.3750-0.3750 (   355 PWs)   bands (ev):

    -2.8011  -0.3953   2.2582   4.3681

          k =-1.6250-0.6250-0.3750 (   348 PWs)   bands (ev):

    -3.3076  -0.5040   3.9789   4.6940

          k =-0.3750 0.3750 1.1250 (   355 PWs)   bands (ev):

    -2.8011  -0.3953   2.2582   4.3681

          k =-0.8750-0.6250 1.1250 (   343 PWs)   bands (ev):

    -4.9914   3.0349   4.9389   5.0192

     highest occupied level (ev):     5.9742

     Writing output data file silicon.10.24.save

                                                                                

     bravais-lattice index     =            2
     lattice parameter (alat)  =      10.2400  a.u.
     unit-cell volume          =     268.4355 (a.u.)^3
     number of atoms/cell      =            2
     number of atomic types    =            1
     kinetic-energy cut-off    =      18.0000  Ry
     charge density cut-off    =      72.0000  Ry
     convergence threshold     =      1.0E-12
     beta                      =       0.7000
     number of iterations used =            4
     Exchange-correlation      = SLA  PW   PBE  PBE ( 1  4  3  4 0 0)


     celldm(1)=   10.24000  celldm(2)=    0.00000  celldm(3)=    0.00000
     celldm(4)=    0.00000  celldm(5)=    0.00000  celldm(6)=    0.00000

     crystal axes: (cart. coord. in units of alat)
               a(1) = ( -0.5000  0.0000  0.5000 )  
               a(2) = (  0.0000  0.5000  0.5000 )  
               a(3) = ( -0.5000  0.5000  0.0000 )  

     reciprocal axes: (cart. coord. in units 2 pi/alat)
               b(1) = ( -1.0000 -1.0000  1.0000 )  
               b(2) = (  1.0000  1.0000  1.0000 )  
               b(3) = ( -1.0000  1.0000 -1.0000 )  


     Atoms inside the unit cell: 

     Cartesian axes

     site n.  atom      mass           positions (alat units)
        1     Si  28.0860   tau(    1) = (    0.00000    0.00000    0.00000  )
        2     Si  28.0860   tau(    2) = (    0.25000    0.25000    0.25000  )

     Computing dynamical matrix for 
                    q = (  -0.5000000  -1.0000000   0.0000000 )

      8 Sym.Ops. (no q -> -q+G )


     G cutoff =  191.2373  (    683 G-vectors)     FFT grid: ( 20, 20, 20)
     number of k points=    64

     PseudoPot. # 1 for Si read from file:
     /home/max/quantum_espresso/qe-6.1/pseudo/si_pbe_v1.uspp.F.UPF.txt
     MD5 check sum: a056efeee980c13900f22a371efd63c1
     Pseudo is Ultrasoft + core correction, Zval =  4.0
     Generated by new atomic code, or converted to UPF format
     Using radial grid of  899 points,  6 beta functions with: 
                l(1) =   0
                l(2) =   0
                l(3) =   1
                l(4) =   1
                l(5) =   2
                l(6) =   2
     Q(r) pseudized with  8 coefficients,  rinner =    0.900   0.900   0.900
                                                       0.900   0.900


     Atomic displacements:
     There are   3 irreducible representations

     Representation     1      2 modes -  To be done

     Representation     2      2 modes -  To be done

     Representation     3      2 modes -  To be done



     Alpha used in Ewald sum =   0.7000
     PHONON       :  1m 8.32s CPU     1m11.39s WALL



     Representation #  1 modes #   1  2

     Self-consistent Calculation

      iter #   1 total cpu time :    71.6 secs   av.it.:   5.3
      thresh= 1.000E-02 alpha_mix =  0.700 |ddv_scf|^2 =  6.524E-06

      iter #   2 total cpu time :    72.0 secs   av.it.:   9.9
      thresh= 2.554E-04 alpha_mix =  0.700 |ddv_scf|^2 =  3.561E-06

      iter #   3 total cpu time :    72.3 secs   av.it.:   9.2
      thresh= 1.887E-04 alpha_mix =  0.700 |ddv_scf|^2 =  8.224E-09

      iter #   4 total cpu time :    72.6 secs   av.it.:   9.1
      thresh= 9.069E-06 alpha_mix =  0.700 |ddv_scf|^2 =  1.957E-11

      iter #   5 total cpu time :    72.9 secs   av.it.:   9.1
      thresh= 4.423E-07 alpha_mix =  0.700 |ddv_scf|^2 =  5.444E-13

     End of self-consistent calculation

     Convergence has been achieved 


     Representation #  2 modes #   3  4

     Self-consistent Calculation

      iter #   1 total cpu time :    73.1 secs   av.it.:   5.3
      thresh= 1.000E-02 alpha_mix =  0.700 |ddv_scf|^2 =  9.984E-06

      iter #   2 total cpu time :    73.5 secs   av.it.:   9.9
      thresh= 3.160E-04 alpha_mix =  0.700 |ddv_scf|^2 =  1.294E-05

      iter #   3 total cpu time :    73.8 secs   av.it.:   9.1
      thresh= 3.598E-04 alpha_mix =  0.700 |ddv_scf|^2 =  9.569E-09

      iter #   4 total cpu time :    74.1 secs   av.it.:   8.9
      thresh= 9.782E-06 alpha_mix =  0.700 |ddv_scf|^2 =  6.722E-11

      iter #   5 total cpu time :    74.4 secs   av.it.:   9.4
      thresh= 8.199E-07 alpha_mix =  0.700 |ddv_scf|^2 =  1.554E-12

      iter #   6 total cpu time :    74.7 secs   av.it.:   9.1
      thresh= 1.247E-07 alpha_mix =  0.700 |ddv_scf|^2 =  1.350E-14

     End of self-consistent calculation

     Convergence has been achieved 


     Representation #  3 modes #   5  6

     Self-consistent Calculation

      iter #   1 total cpu time :    74.9 secs   av.it.:   5.1
      thresh= 1.000E-02 alpha_mix =  0.700 |ddv_scf|^2 =  2.718E-06

      iter #   2 total cpu time :    75.3 secs   av.it.:   9.7
      thresh= 1.649E-04 alpha_mix =  0.700 |ddv_scf|^2 =  1.498E-06

      iter #   3 total cpu time :    75.6 secs   av.it.:   9.1
      thresh= 1.224E-04 alpha_mix =  0.700 |ddv_scf|^2 =  7.932E-09

      iter #   4 total cpu time :    75.9 secs   av.it.:   8.8
      thresh= 8.906E-06 alpha_mix =  0.700 |ddv_scf|^2 =  4.279E-11

      iter #   5 total cpu time :    76.2 secs   av.it.:   9.1
      thresh= 6.542E-07 alpha_mix =  0.700 |ddv_scf|^2 =  6.972E-13

     End of self-consistent calculation

     Convergence has been achieved 

     Number of q in the star =    6
     List of q in the star:
          1  -0.500000000  -1.000000000   0.000000000
          2   0.000000000   1.000000000   0.500000000
          3   0.000000000  -1.000000000  -0.500000000
          4   0.500000000   1.000000000   0.000000000
          5  -1.000000000  -0.500000000   0.000000000
          6   0.000000000  -0.500000000  -1.000000000

     Diagonalizing the dynamical matrix

     q = (   -0.500000000  -1.000000000   0.000000000 ) 

 **************************************************************************
     freq (    1) =       6.980367 [THz] =     232.839977 [cm-1]
     freq (    2) =       6.980367 [THz] =     232.839977 [cm-1]
     freq (    3) =      11.101237 [THz] =     370.297421 [cm-1]
     freq (    4) =      11.101237 [THz] =     370.297421 [cm-1]
     freq (    5) =      14.314651 [THz] =     477.485359 [cm-1]
     freq (    6) =      14.314651 [THz] =     477.485359 [cm-1]
 **************************************************************************

     init_run     :      0.51s CPU      0.53s WALL (       7 calls)
     electrons    :      4.40s CPU      4.56s WALL (       7 calls)

     Called by init_run:
     wfcinit      :      0.00s CPU      0.00s WALL (       7 calls)
     potinit      :      0.02s CPU      0.02s WALL (       7 calls)

     Called by electrons:
     c_bands      :      4.40s CPU      4.55s WALL (       7 calls)
     v_of_rho     :      0.01s CPU      0.01s WALL (       8 calls)
     newd         :      0.03s CPU      0.03s WALL (       8 calls)

     Called by c_bands:
     init_us_2    :      0.65s CPU      0.68s WALL (   17588 calls)
     cegterg      :      3.71s CPU      3.83s WALL (     796 calls)

     Called by sum_band:

     Called by *egterg:
     h_psi        :     40.60s CPU     42.49s WALL (  152009 calls)
     s_psi        :      5.59s CPU      5.86s WALL (  308816 calls)
     g_psi        :      0.03s CPU      0.03s WALL (    9190 calls)
     cdiaghg      :      0.43s CPU      0.44s WALL (    9986 calls)

     Called by h_psi:
     h_psi:pot    :     40.42s CPU     42.30s WALL (  152009 calls)
     h_psi:calbec :      3.86s CPU      4.04s WALL (  152009 calls)
     vloc_psi     :     33.55s CPU     35.11s WALL (  152009 calls)
     add_vuspsi   :      2.79s CPU      2.92s WALL (  152009 calls)

     General routines
     calbec       :      8.57s CPU      8.97s WALL (  345188 calls)
     fft          :      0.26s CPU      0.28s WALL (    5239 calls)
     ffts         :      0.13s CPU      0.13s WALL (    2748 calls)
     fftw         :     38.76s CPU     40.55s WALL ( 1377322 calls)
     davcio       :      0.31s CPU      0.32s WALL (   79045 calls)

     Parallel routines
     fft_scatter  :      6.89s CPU      7.25s WALL ( 1385309 calls)

     PHONON       :  1m12.94s CPU     1m16.19s WALL

     INITIALIZATION: 
     phq_setup    :      0.05s CPU      0.05s WALL (       8 calls)
     phq_init     :      1.89s CPU      1.92s WALL (       8 calls)

     phq_init     :      1.89s CPU      1.92s WALL (       8 calls)
     set_drhoc    :      0.28s CPU      0.28s WALL (      24 calls)
     init_vloc    :      0.01s CPU      0.01s WALL (       8 calls)
     init_us_1    :      0.47s CPU      0.48s WALL (       8 calls)
     newd         :      0.03s CPU      0.03s WALL (       8 calls)
     dvanqq       :      0.22s CPU      0.22s WALL (       8 calls)
     drho         :      0.97s CPU      0.99s WALL (       8 calls)

     DYNAMICAL MATRIX:
     dynmat0      :      0.47s CPU      0.48s WALL (       8 calls)
     phqscf       :     63.76s CPU     66.71s WALL (       8 calls)
     dynmatrix    :      0.01s CPU      0.02s WALL (       8 calls)

     phqscf       :     63.76s CPU     66.71s WALL (       8 calls)
     solve_linter :     63.09s CPU     66.00s WALL (      32 calls)
     drhodv       :      0.46s CPU      0.49s WALL (      32 calls)

     dynmat0      :      0.47s CPU      0.48s WALL (       8 calls)
     dynmat_us    :      0.26s CPU      0.26s WALL (       8 calls)
     d2ionq       :      0.01s CPU      0.01s WALL (       8 calls)
     dynmatcc     :      0.20s CPU      0.20s WALL (       8 calls)

     dynmat_us    :      0.26s CPU      0.26s WALL (       8 calls)
     addusdynmat  :      0.00s CPU      0.00s WALL (       8 calls)

     phqscf       :     63.76s CPU     66.71s WALL (       8 calls)
     solve_linter :     63.09s CPU     66.00s WALL (      32 calls)

     solve_linter :     63.09s CPU     66.00s WALL (      32 calls)
     dvqpsi_us    :      1.57s CPU      1.64s WALL (    2508 calls)
     ortho        :      0.89s CPU      0.93s WALL (   15550 calls)
     cgsolve      :     49.34s CPU     51.68s WALL (   15550 calls)
     incdrhoscf   :      4.34s CPU      4.54s WALL (   15550 calls)
     addusddens   :      1.05s CPU      1.06s WALL (     228 calls)
     vpsifft      :      3.18s CPU      3.33s WALL (   12922 calls)
     dv_of_drho   :      0.19s CPU      0.20s WALL (     295 calls)
     mix_pot      :      0.05s CPU      0.06s WALL (     201 calls)
     psymdvscf    :      0.79s CPU      0.80s WALL (     196 calls)
     newdq        :      1.11s CPU      1.16s WALL (     201 calls)
     adddvscf     :      0.45s CPU      0.47s WALL (   13042 calls)
     drhodvus     :      0.00s CPU      0.00s WALL (      32 calls)

     dvqpsi_us    :      1.57s CPU      1.64s WALL (    2508 calls)
     dvqpsi_us_on :      0.81s CPU      0.84s WALL (    2508 calls)

     cgsolve      :     49.34s CPU     51.68s WALL (   15550 calls)
     ch_psi       :     47.93s CPU     50.20s WALL (  141227 calls)

     ch_psi       :     47.93s CPU     50.20s WALL (  141227 calls)
     h_psi        :     40.60s CPU     42.49s WALL (  152009 calls)
     last         :      7.46s CPU      7.81s WALL (  141227 calls)

     h_psi        :     40.60s CPU     42.49s WALL (  152009 calls)
     add_vuspsi   :      2.79s CPU      2.92s WALL (  152009 calls)

     incdrhoscf   :      4.34s CPU      4.54s WALL (   15550 calls)
     addusdbec    :      0.57s CPU      0.59s WALL (   17998 calls)

     drhodvus     :      0.00s CPU      0.00s WALL (      32 calls)

      General routines
     calbec       :      8.57s CPU      8.97s WALL (  345188 calls)
     fft          :      0.26s CPU      0.28s WALL (    5239 calls)
     ffts         :      0.13s CPU      0.13s WALL (    2748 calls)
     fftw         :     38.76s CPU     40.55s WALL ( 1377322 calls)
     davcio       :      0.31s CPU      0.32s WALL (   79045 calls)
     write_rec    :      0.21s CPU      0.22s WALL (     233 calls)


     PHONON       :  1m12.94s CPU     1m16.19s WALL


   This run was terminated on:   1:11:12   9Nov2017            

=------------------------------------------------------------------------------=
   JOB DONE.
=------------------------------------------------------------------------------=
