
     Program PWSCF v.6.1 (svn rev. 13369) starts on 10Nov2017 at 10: 3:56 

     This program is part of the open-source Quantum ESPRESSO suite
     for quantum simulation of materials; please cite
         "P. Giannozzi et al., J. Phys.:Condens. Matter 21 395502 (2009);
          URL http://www.quantum-espresso.org", 
     in publications or presentations arising from this work. More details at
     http://www.quantum-espresso.org/quote

     Parallel version (MPI), running on     4 processors
     R & G space division:  proc/nbgrp/npool/nimage =       4
     Waiting for input...
     Reading input from standard input
     Message from routine read_cards :
     DEPRECATED: no units specified in ATOMIC_POSITIONS card
     Message from routine read_cards :
     ATOMIC_POSITIONS: units set to alat

     Current dimensions of program PWSCF are:
     Max number of different atomic species (ntypx) = 10
     Max number of k-points (npk) =  40000
     Max angular momentum in pseudopotentials (lmaxx) =  3

     Subspace diagonalization in iterative solution of the eigenvalue problem:
     a serial algorithm will be used


     Parallelization info
     --------------------
     sticks:   dense  smooth     PW     G-vecs:    dense   smooth      PW
     Min         136      66     22                 2072      722     152
     Max         137      67     23                 2073      724     153
     Sum         547     265     91                 8291     2891     609



     bravais-lattice index     =            2
     lattice parameter (alat)  =      10.4090  a.u.
     unit-cell volume          =     281.9467 (a.u.)^3
     number of atoms/cell      =            2
     number of atomic types    =            1
     number of electrons       =         8.00
     number of Kohn-Sham states=            4
     kinetic-energy cutoff     =      18.0000  Ry
     charge density cutoff     =     144.0000  Ry
     convergence threshold     =      1.0E-08
     mixing beta               =       0.7000
     number of iterations used =            8  plain     mixing
     Exchange-correlation      = SLA  PW   PBE  PBE ( 1  4  3  4 0 0)

     celldm(1)=  10.409000  celldm(2)=   0.000000  celldm(3)=   0.000000
     celldm(4)=   0.000000  celldm(5)=   0.000000  celldm(6)=   0.000000

     crystal axes: (cart. coord. in units of alat)
               a(1) = (  -0.500000   0.000000   0.500000 )  
               a(2) = (   0.000000   0.500000   0.500000 )  
               a(3) = (  -0.500000   0.500000   0.000000 )  

     reciprocal axes: (cart. coord. in units 2 pi/alat)
               b(1) = ( -1.000000 -1.000000  1.000000 )  
               b(2) = (  1.000000  1.000000  1.000000 )  
               b(3) = ( -1.000000  1.000000 -1.000000 )  


     PseudoPot. # 1 for Si read from file:
     /home/max/quantum_espresso/qe-6.1/pseudo/si_pbe_v1.uspp.F.UPF.txt
     MD5 check sum: a056efeee980c13900f22a371efd63c1
     Pseudo is Ultrasoft + core correction, Zval =  4.0
     Generated by new atomic code, or converted to UPF format
     Using radial grid of  899 points,  6 beta functions with: 
                l(1) =   0
                l(2) =   0
                l(3) =   1
                l(4) =   1
                l(5) =   2
                l(6) =   2
     Q(r) pseudized with  8 coefficients,  rinner =    0.900   0.900   0.900
                                                       0.900   0.900

     atomic species   valence    mass     pseudopotential
        Si             4.00    28.08600     Si( 1.00)

     24 Sym. Ops. (no inversion) found
          (note: 24 additional sym.ops. were found but ignored
           their fractional translations are incommensurate with FFT grid)


   Cartesian axes

     site n.     atom                  positions (alat units)
         1           Si  tau(   1) = (   0.0000000   0.0000000   0.0000000  )
         2           Si  tau(   2) = (   0.2500000   0.2500000   0.2500000  )

     number of k points=    60
                       cart. coord. in units 2pi/alat
        k(    1) = (  -0.0625000   0.0625000   0.0625000), wk =   0.0078125
        k(    2) = (  -0.1875000   0.1875000  -0.0625000), wk =   0.0234375
        k(    3) = (  -0.3125000   0.3125000  -0.1875000), wk =   0.0234375
        k(    4) = (  -0.4375000   0.4375000  -0.3125000), wk =   0.0234375
        k(    5) = (   0.4375000  -0.4375000   0.5625000), wk =   0.0234375
        k(    6) = (   0.3125000  -0.3125000   0.4375000), wk =   0.0234375
        k(    7) = (   0.1875000  -0.1875000   0.3125000), wk =   0.0234375
        k(    8) = (   0.0625000  -0.0625000   0.1875000), wk =   0.0234375
        k(    9) = (  -0.0625000   0.3125000   0.0625000), wk =   0.0234375
        k(   10) = (  -0.1875000   0.4375000  -0.0625000), wk =   0.0468750
        k(   11) = (  -0.3125000   0.5625000  -0.1875000), wk =   0.0468750
        k(   12) = (   0.5625000  -0.3125000   0.6875000), wk =   0.0468750
        k(   13) = (   0.4375000  -0.1875000   0.5625000), wk =   0.0468750
        k(   14) = (   0.3125000  -0.0625000   0.4375000), wk =   0.0468750
        k(   15) = (   0.1875000   0.0625000   0.3125000), wk =   0.0468750
        k(   16) = (  -0.0625000   0.5625000   0.0625000), wk =   0.0234375
        k(   17) = (  -0.1875000   0.6875000  -0.0625000), wk =   0.0468750
        k(   18) = (   0.6875000  -0.1875000   0.8125000), wk =   0.0468750
        k(   19) = (   0.5625000  -0.0625000   0.6875000), wk =   0.0468750
        k(   20) = (   0.4375000   0.0625000   0.5625000), wk =   0.0468750
        k(   21) = (   0.3125000   0.1875000   0.4375000), wk =   0.0468750
        k(   22) = (  -0.0625000   0.8125000   0.0625000), wk =   0.0234375
        k(   23) = (   0.8125000  -0.0625000   0.9375000), wk =   0.0468750
        k(   24) = (   0.6875000   0.0625000   0.8125000), wk =   0.0468750
        k(   25) = (   0.5625000   0.1875000   0.6875000), wk =   0.0468750
        k(   26) = (   0.4375000   0.3125000   0.5625000), wk =   0.0468750
        k(   27) = (  -0.0625000  -0.9375000   0.0625000), wk =   0.0234375
        k(   28) = (  -0.1875000  -0.8125000  -0.0625000), wk =   0.0468750
        k(   29) = (  -0.3125000  -0.6875000  -0.1875000), wk =   0.0468750
        k(   30) = (  -0.0625000  -0.6875000   0.0625000), wk =   0.0234375
        k(   31) = (  -0.1875000  -0.5625000  -0.0625000), wk =   0.0468750
        k(   32) = (  -0.0625000  -0.4375000   0.0625000), wk =   0.0234375
        k(   33) = (  -0.1875000   0.1875000   0.1875000), wk =   0.0078125
        k(   34) = (  -0.3125000   0.3125000   0.0625000), wk =   0.0234375
        k(   35) = (  -0.4375000   0.4375000  -0.0625000), wk =   0.0234375
        k(   36) = (   0.4375000  -0.4375000   0.8125000), wk =   0.0234375
        k(   37) = (   0.3125000  -0.3125000   0.6875000), wk =   0.0234375
        k(   38) = (   0.1875000  -0.1875000   0.5625000), wk =   0.0234375
        k(   39) = (  -0.1875000   0.4375000   0.1875000), wk =   0.0234375
        k(   40) = (  -0.3125000   0.5625000   0.0625000), wk =   0.0468750
        k(   41) = (   0.5625000  -0.3125000   0.9375000), wk =   0.0468750
        k(   42) = (   0.4375000  -0.1875000   0.8125000), wk =   0.0468750
        k(   43) = (   0.3125000  -0.0625000   0.6875000), wk =   0.0468750
        k(   44) = (  -0.1875000   0.6875000   0.1875000), wk =   0.0234375
        k(   45) = (   0.6875000  -0.1875000   1.0625000), wk =   0.0468750
        k(   46) = (   0.5625000  -0.0625000   0.9375000), wk =   0.0468750
        k(   47) = (   0.4375000   0.0625000   0.8125000), wk =   0.0468750
        k(   48) = (  -0.1875000  -1.0625000   0.1875000), wk =   0.0234375
        k(   49) = (  -0.3125000  -0.9375000   0.0625000), wk =   0.0468750
        k(   50) = (  -0.1875000  -0.8125000   0.1875000), wk =   0.0234375
        k(   51) = (  -0.3125000   0.3125000   0.3125000), wk =   0.0078125
        k(   52) = (  -0.4375000   0.4375000   0.1875000), wk =   0.0234375
        k(   53) = (   0.4375000  -0.4375000   1.0625000), wk =   0.0234375
        k(   54) = (   0.3125000  -0.3125000   0.9375000), wk =   0.0234375
        k(   55) = (  -0.3125000   0.5625000   0.3125000), wk =   0.0234375
        k(   56) = (   0.5625000  -0.3125000   1.1875000), wk =   0.0468750
        k(   57) = (   0.4375000  -0.1875000   1.0625000), wk =   0.0468750
        k(   58) = (  -0.3125000  -1.1875000   0.3125000), wk =   0.0234375
        k(   59) = (  -0.4375000   0.4375000   0.4375000), wk =   0.0078125
        k(   60) = (   0.4375000  -0.4375000   1.3125000), wk =   0.0234375

     Dense  grid:     8291 G-vectors     FFT dimensions: (  30,  30,  30)

     Smooth grid:     2891 G-vectors     FFT dimensions: (  20,  20,  20)

     Estimated max dynamical RAM per process >       1.76MB

     Estimated total allocated dynamical RAM >       7.03MB

     Initial potential from superposition of free atoms

     starting charge    7.99866, renormalised to    8.00000
     Starting wfc are    8 randomized atomic wfcs

     total cpu time spent up to now is        0.4 secs

     per-process dynamical memory:     8.6 Mb

     Self-consistent Calculation

     iteration #  1     ecut=    18.00 Ry     beta=0.70
     Davidson diagonalization with overlap
     ethr =  1.00E-02,  avg # of iterations =  2.0

     Threshold (ethr) on eigenvalues was too large:
     Diagonalizing with lowered threshold

     Davidson diagonalization with overlap
     ethr =  6.51E-04,  avg # of iterations =  1.0

     total cpu time spent up to now is        0.7 secs

     total energy              =     -19.18905110 Ry
     Harris-Foulkes estimate   =     -19.20058726 Ry
     estimated scf accuracy    <       0.05185530 Ry

     iteration #  2     ecut=    18.00 Ry     beta=0.70
     Davidson diagonalization with overlap
     ethr =  6.48E-04,  avg # of iterations =  1.0

     total cpu time spent up to now is        0.9 secs

     total energy              =     -19.19063490 Ry
     Harris-Foulkes estimate   =     -19.19080441 Ry
     estimated scf accuracy    <       0.00245519 Ry

     iteration #  3     ecut=    18.00 Ry     beta=0.70
     Davidson diagonalization with overlap
     ethr =  3.07E-05,  avg # of iterations =  1.9

     total cpu time spent up to now is        1.1 secs

     total energy              =     -19.19089820 Ry
     Harris-Foulkes estimate   =     -19.19091022 Ry
     estimated scf accuracy    <       0.00003832 Ry

     iteration #  4     ecut=    18.00 Ry     beta=0.70
     Davidson diagonalization with overlap
     ethr =  4.79E-07,  avg # of iterations =  2.9

     total cpu time spent up to now is        1.3 secs

     total energy              =     -19.19092223 Ry
     Harris-Foulkes estimate   =     -19.19092267 Ry
     estimated scf accuracy    <       0.00000198 Ry

     iteration #  5     ecut=    18.00 Ry     beta=0.70
     Davidson diagonalization with overlap
     ethr =  2.48E-08,  avg # of iterations =  2.1

     total cpu time spent up to now is        1.8 secs

     total energy              =     -19.19092263 Ry
     Harris-Foulkes estimate   =     -19.19092264 Ry
     estimated scf accuracy    <       0.00000004 Ry

     iteration #  6     ecut=    18.00 Ry     beta=0.70
     Davidson diagonalization with overlap
     ethr =  5.45E-10,  avg # of iterations =  2.7

     total cpu time spent up to now is        2.2 secs

     End of self-consistent calculation

          k =-0.0625 0.0625 0.0625 (   338 PWs)   bands (ev):

    -5.8619   5.2260   5.6787   5.6787

          k =-0.1875 0.1875-0.0625 (   355 PWs)   bands (ev):

    -5.6013   3.7321   4.8947   5.5610

          k =-0.3125 0.3125-0.1875 (   360 PWs)   bands (ev):

    -4.9717   1.5548   4.4137   5.1091

          k =-0.4375 0.4375-0.3125 (   364 PWs)   bands (ev):

    -4.0969  -0.2830   4.1983   4.7113

          k = 0.4375-0.4375 0.5625 (   364 PWs)   bands (ev):

    -3.6662  -0.9610   4.2448   4.4997

          k = 0.3125-0.3125 0.4375 (   357 PWs)   bands (ev):

    -4.3955   0.2596   4.5220   4.5242

          k = 0.1875-0.1875 0.3125 (   357 PWs)   bands (ev):

    -5.2183   2.2680   4.7942   4.9789

          k = 0.0625-0.0625 0.1875 (   346 PWs)   bands (ev):

    -5.7307   4.4740   5.2656   5.4137

          k =-0.0625 0.3125 0.0625 (   354 PWs)   bands (ev):

    -5.4695   3.5791   4.7227   4.7964

          k =-0.1875 0.4375-0.0625 (   358 PWs)   bands (ev):

    -4.9589   2.1051   3.7767   4.5444

          k =-0.3125 0.5625-0.1875 (   364 PWs)   bands (ev):

    -4.1383   0.2984   3.2837   4.1475

          k = 0.5625-0.3125 0.6875 (   368 PWs)   bands (ev):

    -3.4037  -0.8722   2.9984   4.0578

          k = 0.4375-0.1875 0.5625 (   364 PWs)   bands (ev):

    -3.8444  -0.2052   2.9318   4.3333

          k = 0.3125-0.0625 0.4375 (   361 PWs)   bands (ev):

    -4.7180   1.4724   3.2360   4.8260

          k = 0.1875 0.0625 0.3125 (   360 PWs)   bands (ev):

    -5.3430   2.9237   4.3325   5.1887

          k =-0.0625 0.5625 0.0625 (   357 PWs)   bands (ev):

    -4.5682   1.5949   3.6384   3.7566

          k =-0.1875 0.6875-0.0625 (   360 PWs)   bands (ev):

    -3.8364   0.3854   2.8750   3.4201

          k = 0.6875-0.1875 0.8125 (   367 PWs)   bands (ev):

    -2.9670  -0.7766   2.0583   3.3891

          k = 0.5625-0.0625 0.6875 (   369 PWs)   bands (ev):

    -3.0379  -0.6844   1.7182   3.7230

          k = 0.4375 0.0625 0.5625 (   365 PWs)   bands (ev):

    -3.9069   0.2521   2.3014   4.2909

          k = 0.3125 0.1875 0.4375 (   361 PWs)   bands (ev):

    -4.6084   0.8938   3.8815   4.7286

          k =-0.0625 0.8125 0.0625 (   364 PWs)   bands (ev):

    -3.1987  -0.4601   2.9684   3.1769

          k = 0.8125-0.0625 0.9375 (   363 PWs)   bands (ev):

    -2.3139  -1.4259   2.4309   2.9426

          k = 0.6875 0.0625 0.8125 (   370 PWs)   bands (ev):

    -2.4150  -1.2607   1.7264   3.2491

          k = 0.5625 0.1875 0.6875 (   367 PWs)   bands (ev):

    -3.1537  -0.8392   2.2470   3.8334

          k = 0.4375 0.3125 0.5625 (   366 PWs)   bands (ev):

    -3.7454  -0.6771   3.7055   4.4027

          k =-0.0625-0.9375 0.0625 (   362 PWs)   bands (ev):

    -2.3624  -1.4415   2.8341   3.0584

          k =-0.1875-0.8125-0.0625 (   361 PWs)   bands (ev):

    -3.1164  -0.5224   2.5830   3.0985

          k =-0.3125-0.6875-0.1875 (   365 PWs)   bands (ev):

    -3.5786  -0.2477   2.6317   3.6811

          k =-0.0625-0.6875 0.0625 (   362 PWs)   bands (ev):

    -3.9384   0.5617   3.2369   3.4115

          k =-0.1875-0.5625-0.0625 (   358 PWs)   bands (ev):

    -4.4543   1.2642   3.2819   3.9139

          k =-0.0625-0.4375 0.0625 (   353 PWs)   bands (ev):

    -5.0806   2.6105   4.1674   4.2014

          k =-0.1875 0.1875 0.1875 (   359 PWs)   bands (ev):

    -5.4730   3.0255   5.2477   5.2477

          k =-0.3125 0.3125 0.0625 (   362 PWs)   bands (ev):

    -5.0912   2.1901   3.7748   5.2618

          k =-0.4375 0.4375-0.0625 (   362 PWs)   bands (ev):

    -4.3639   0.8445   2.7218   4.7699

          k = 0.4375-0.4375 0.8125 (   367 PWs)   bands (ev):

    -3.4971  -0.5999   2.5638   4.2533

          k = 0.3125-0.3125 0.6875 (   368 PWs)   bands (ev):

    -3.4819  -0.6277   2.8528   3.9443

          k = 0.1875-0.1875 0.5625 (   358 PWs)   bands (ev):

    -4.3466   0.8414   3.4526   3.9228

          k =-0.1875 0.4375 0.1875 (   362 PWs)   bands (ev):

    -4.8409   1.5415   4.2552   4.3312

          k =-0.3125 0.5625 0.0625 (   361 PWs)   bands (ev):

    -4.2306   0.7736   2.7771   4.1393

          k = 0.5625-0.3125 0.9375 (   367 PWs)   bands (ev):

    -3.3648  -0.3087   2.0108   3.5895

          k = 0.4375-0.1875 0.8125 (   370 PWs)   bands (ev):

    -2.8931  -0.9028   2.0097   3.2867

          k = 0.3125-0.0625 0.6875 (   365 PWs)   bands (ev):

    -3.6402   0.0710   2.4244   3.4602

          k =-0.1875 0.6875 0.1875 (   362 PWs)   bands (ev):

    -3.7462   0.1306   2.7467   3.5998

          k = 0.6875-0.1875 1.0625 (   364 PWs)   bands (ev):

    -2.9639  -0.6588   2.1902   2.9398

          k = 0.5625-0.0625 0.9375 (   370 PWs)   bands (ev):

    -2.1800  -1.3994   1.8846   2.4543

          k = 0.4375 0.0625 0.8125 (   371 PWs)   bands (ev):

    -2.7670  -0.8598   1.8736   2.9158

          k =-0.1875-1.0625 0.1875 (   364 PWs)   bands (ev):

    -2.3368  -1.3752   1.9853   3.2653

          k =-0.3125-0.9375 0.0625 (   368 PWs)   bands (ev):

    -2.2391  -1.4077   2.0765   2.6607

          k =-0.1875-0.8125 0.1875 (   364 PWs)   bands (ev):

    -3.0584  -0.6197   2.2417   3.3780

          k =-0.3125 0.3125 0.3125 (   359 PWs)   bands (ev):

    -4.7368   0.8694   4.8419   4.8419

          k =-0.4375 0.4375 0.1875 (   362 PWs)   bands (ev):

    -4.2704   0.2991   3.4090   4.7552

          k = 0.4375-0.4375 1.0625 (   369 PWs)   bands (ev):

    -3.4998  -0.2409   1.9324   4.1907

          k = 0.3125-0.3125 0.9375 (   366 PWs)   bands (ev):

    -2.7021  -1.0104   1.6083   3.6591

          k =-0.3125 0.5625 0.3125 (   368 PWs)   bands (ev):

    -3.9660  -0.2445   3.7305   4.2083

          k = 0.5625-0.3125 1.1875 (   368 PWs)   bands (ev):

    -3.3633  -0.6067   2.4611   3.7492

          k = 0.4375-0.1875 1.0625 (   372 PWs)   bands (ev):

    -2.5673  -1.0787   1.6981   3.0571

          k =-0.3125-1.1875 0.3125 (   365 PWs)   bands (ev):

    -3.0154  -0.8837   2.0844   3.7565

          k =-0.4375 0.4375 0.4375 (   356 PWs)   bands (ev):

    -3.8753  -0.7317   4.6246   4.6246

          k = 0.4375-0.4375 1.3125 (   365 PWs)   bands (ev):

    -3.5353  -0.9072   3.4230   4.3646

     highest occupied level (ev):     5.6787

!    total energy              =     -19.19092265 Ry
     Harris-Foulkes estimate   =     -19.19092266 Ry
     estimated scf accuracy    <          7.2E-09 Ry

     The total energy is the sum of the following terms:

     one-electron contribution =       4.78689332 Ry
     hartree contribution      =       1.15262124 Ry
     xc contribution           =      -8.57000511 Ry
     ewald contribution        =     -16.56043210 Ry

     convergence has been achieved in   6 iterations

     Writing output data file silicon.10.409.save

     init_run     :      0.27s CPU      0.29s WALL (       1 calls)
     electrons    :      1.33s CPU      1.81s WALL (       1 calls)

     Called by init_run:
     wfcinit      :      0.08s CPU      0.08s WALL (       1 calls)
     potinit      :      0.01s CPU      0.02s WALL (       1 calls)

     Called by electrons:
     c_bands      :      0.93s CPU      1.23s WALL (       7 calls)
     sum_band     :      0.26s CPU      0.38s WALL (       7 calls)
     v_of_rho     :      0.06s CPU      0.10s WALL (       7 calls)
     newd         :      0.08s CPU      0.11s WALL (       7 calls)
     mix_rho      :      0.01s CPU      0.01s WALL (       7 calls)

     Called by c_bands:
     init_us_2    :      0.06s CPU      0.07s WALL (     900 calls)
     cegterg      :      0.78s CPU      1.05s WALL (     420 calls)

     Called by sum_band:
     sum_band:bec :      0.00s CPU      0.01s WALL (     420 calls)
     addusdens    :      0.09s CPU      0.10s WALL (       7 calls)

     Called by *egterg:
     h_psi        :      0.57s CPU      0.73s WALL (    1302 calls)
     s_psi        :      0.06s CPU      0.06s WALL (    1302 calls)
     g_psi        :      0.00s CPU      0.00s WALL (     822 calls)
     cdiaghg      :      0.09s CPU      0.12s WALL (    1182 calls)

     Called by h_psi:
     h_psi:pot    :      0.57s CPU      0.73s WALL (    1302 calls)
     h_psi:calbec :      0.09s CPU      0.14s WALL (    1302 calls)
     vloc_psi     :      0.41s CPU      0.51s WALL (    1302 calls)
     add_vuspsi   :      0.06s CPU      0.07s WALL (    1302 calls)

     General routines
     calbec       :      0.13s CPU      0.21s WALL (    1722 calls)
     fft          :      0.06s CPU      0.11s WALL (     112 calls)
     ffts         :      0.00s CPU      0.00s WALL (      14 calls)
     fftw         :      0.41s CPU      0.57s WALL (   11610 calls)
     interpolate  :      0.01s CPU      0.01s WALL (      14 calls)
     davcio       :      0.00s CPU      0.00s WALL (      60 calls)

     Parallel routines
     fft_scatter  :      0.26s CPU      0.44s WALL (   11736 calls)

     PWSCF        :     1.86s CPU         2.39s WALL


   This run was terminated on:  10: 3:58  10Nov2017            

=------------------------------------------------------------------------------=
   JOB DONE.
=------------------------------------------------------------------------------=
