
     Program PHONON v.6.1 (svn rev. 13369) starts on 10Nov2017 at 15:52:56 

     This program is part of the open-source Quantum ESPRESSO suite
     for quantum simulation of materials; please cite
         "P. Giannozzi et al., J. Phys.:Condens. Matter 21 395502 (2009);
          URL http://www.quantum-espresso.org", 
     in publications or presentations arising from this work. More details at
     http://www.quantum-espresso.org/quote

     Parallel version (MPI), running on     4 processors
     R & G space division:  proc/nbgrp/npool/nimage =       4

     Reading data from directory:
     ./silicon.10.294.save

   Info: using nr1, nr2, nr3 values from input

   Info: using nr1, nr2, nr3 values from input

     IMPORTANT: XC functional enforced from input :
     Exchange-correlation      = SLA  PW   PBE  PBE ( 1  4  3  4 0 0)
     Any further DFT definition will be discarded
     Please, verify this is what you really want


     Parallelization info
     --------------------
     sticks:   dense  smooth     PW     G-vecs:    dense   smooth      PW
     Min         217     108     37                 4288     1495     284
     Max         219     109     38                 4289     1498     285
     Sum         871     433    151                17153     5985    1139



     Dynamical matrices for ( 4, 4, 4)  uniform grid of q-points
     (   8q-points):
       N         xq(1)         xq(2)         xq(3) 
       1   0.000000000   0.000000000   0.000000000
       2  -0.250000000   0.250000000  -0.250000000
       3   0.500000000  -0.500000000   0.500000000
       4   0.000000000   0.500000000   0.000000000
       5   0.750000000  -0.250000000   0.750000000
       6   0.500000000   0.000000000   0.500000000
       7   0.000000000  -1.000000000   0.000000000
       8  -0.500000000  -1.000000000   0.000000000

     Calculation of q =    0.0000000   0.0000000   0.0000000

                                                                                

     bravais-lattice index     =            2
     lattice parameter (alat)  =      10.2940  a.u.
     unit-cell volume          =     272.7046 (a.u.)^3
     number of atoms/cell      =            2
     number of atomic types    =            1
     kinetic-energy cut-off    =      30.0000  Ry
     charge density cut-off    =     240.0000  Ry
     convergence threshold     =      1.0E-12
     beta                      =       0.7000
     number of iterations used =            4
     Exchange-correlation      = SLA  PW   PBE  PBE ( 1  4  3  4 0 0)


     celldm(1)=   10.29400  celldm(2)=    0.00000  celldm(3)=    0.00000
     celldm(4)=    0.00000  celldm(5)=    0.00000  celldm(6)=    0.00000

     crystal axes: (cart. coord. in units of alat)
               a(1) = ( -0.5000  0.0000  0.5000 )  
               a(2) = (  0.0000  0.5000  0.5000 )  
               a(3) = ( -0.5000  0.5000  0.0000 )  

     reciprocal axes: (cart. coord. in units 2 pi/alat)
               b(1) = ( -1.0000 -1.0000  1.0000 )  
               b(2) = (  1.0000  1.0000  1.0000 )  
               b(3) = ( -1.0000  1.0000 -1.0000 )  


     Atoms inside the unit cell: 

     Cartesian axes

     site n.  atom      mass           positions (alat units)
        1     Si  28.0860   tau(    1) = (    0.00000    0.00000    0.00000  )
        2     Si  28.0860   tau(    2) = (    0.25000    0.25000    0.25000  )

     Computing dynamical matrix for 
                    q = (   0.0000000   0.0000000   0.0000000 )

     49 Sym.Ops. (with q -> -q+G )


     G cutoff =  644.1987  (   4288 G-vectors)     FFT grid: ( 36, 36, 36)
     G cutoff =  322.0993  (   1497 G-vectors)  smooth grid: ( 25, 25, 25)
     number of k points=    10

     PseudoPot. # 1 for Si read from file:
     /home/s1333534/quantum_espresso/qe-6.1/pseudo/si_pbe_v1.uspp.F.UPF.txt
     MD5 check sum: a056efeee980c13900f22a371efd63c1
     Pseudo is Ultrasoft + core correction, Zval =  4.0
     Generated by new atomic code, or converted to UPF format
     Using radial grid of  899 points,  6 beta functions with: 
                l(1) =   0
                l(2) =   0
                l(3) =   1
                l(4) =   1
                l(5) =   2
                l(6) =   2
     Q(r) pseudized with  8 coefficients,  rinner =    0.900   0.900   0.900
                                                       0.900   0.900

     Mode symmetry, O_h (m-3m)  point group:


     Electric field:
     Dielectric constant
     Born effective charges in two ways 


     Atomic displacements:
     There are   2 irreducible representations

     Representation     1      3 modes -T_2g G_25' G_5+  To be done

     Representation     2      3 modes -T_1u G_15  G_4-  To be done



     Alpha used in Ewald sum =   2.5000
     PHONON       :     0.96s CPU         1.29s WALL


     Electric Fields Calculation

      iter #   1 total cpu time :     2.3 secs   av.it.:   5.7
      thresh= 1.000E-02 alpha_mix =  0.700 |ddv_scf|^2 =  1.336E-07

      iter #   2 total cpu time :     3.0 secs   av.it.:  11.7
      thresh= 3.655E-05 alpha_mix =  0.700 |ddv_scf|^2 =  7.742E-09

      iter #   3 total cpu time :     3.6 secs   av.it.:  11.4
      thresh= 8.799E-06 alpha_mix =  0.700 |ddv_scf|^2 =  5.094E-10

      iter #   4 total cpu time :     4.7 secs   av.it.:  10.3
      thresh= 2.257E-06 alpha_mix =  0.700 |ddv_scf|^2 =  3.269E-12

      iter #   5 total cpu time :     5.3 secs   av.it.:  11.1
      thresh= 1.808E-07 alpha_mix =  0.700 |ddv_scf|^2 =  3.268E-15

     End of electric fields calculation

          Dielectric constant in cartesian axis 

          (      13.890849829       0.000000000       0.000000000 )
          (      -0.000000000      13.890849829       0.000000000 )
          (       0.000000000       0.000000000      13.890849829 )

          Effective charges (d Force / dE) in cartesian axis

           atom      1   Si 
      Ex  (       -0.03927       -0.00000       -0.00000 )
      Ey  (       -0.00000       -0.03927        0.00000 )
      Ez  (       -0.00000        0.00000       -0.03927 )
           atom      2   Si 
      Ex  (       -0.03927        0.00000        0.00000 )
      Ey  (       -0.00000       -0.03927       -0.00000 )
      Ez  (        0.00000        0.00000       -0.03927 )


     Representation #  1 modes #   1  2  3

     Self-consistent Calculation

      iter #   1 total cpu time :     6.6 secs   av.it.:   5.1
      thresh= 1.000E-02 alpha_mix =  0.700 |ddv_scf|^2 =  2.357E-08

      iter #   2 total cpu time :     7.3 secs   av.it.:  11.5
      thresh= 1.535E-05 alpha_mix =  0.700 |ddv_scf|^2 =  9.680E-10

      iter #   3 total cpu time :     7.9 secs   av.it.:  11.1
      thresh= 3.111E-06 alpha_mix =  0.700 |ddv_scf|^2 =  6.581E-11

      iter #   4 total cpu time :     8.5 secs   av.it.:  10.1
      thresh= 8.112E-07 alpha_mix =  0.700 |ddv_scf|^2 =  1.599E-13

     End of self-consistent calculation

     Convergence has been achieved 


     Representation #  2 modes #   4  5  6

     Self-consistent Calculation

      iter #   1 total cpu time :     9.2 secs   av.it.:   5.2
      thresh= 1.000E-02 alpha_mix =  0.700 |ddv_scf|^2 =  1.860E-08

      iter #   2 total cpu time :     9.9 secs   av.it.:  11.6
      thresh= 1.364E-05 alpha_mix =  0.700 |ddv_scf|^2 =  1.098E-09

      iter #   3 total cpu time :    10.6 secs   av.it.:  11.1
      thresh= 3.313E-06 alpha_mix =  0.700 |ddv_scf|^2 =  6.788E-11

      iter #   4 total cpu time :    11.2 secs   av.it.:  11.3
      thresh= 8.239E-07 alpha_mix =  0.700 |ddv_scf|^2 =  2.609E-13

     End of self-consistent calculation

     Convergence has been achieved 

     Number of q in the star =    1
     List of q in the star:
          1   0.000000000   0.000000000   0.000000000

          Dielectric constant in cartesian axis 

          (      13.890849829       0.000000000       0.000000000 )
          (      -0.000000000      13.890849829       0.000000000 )
          (       0.000000000       0.000000000      13.890849829 )

          Effective charges (d Force / dE) in cartesian axis

           atom      1   Si 
      Ex  (       -0.03927       -0.00000       -0.00000 )
      Ey  (       -0.00000       -0.03927        0.00000 )
      Ez  (       -0.00000        0.00000       -0.03927 )
           atom      2   Si 
      Ex  (       -0.03927        0.00000        0.00000 )
      Ey  (       -0.00000       -0.03927       -0.00000 )
      Ez  (        0.00000        0.00000       -0.03927 )

          Effective charges (d P / du) in cartesian axis 

           atom      1   Si 
      Px  (       -0.07206        0.00000       -0.00000 )
      Py  (        0.00000       -0.07206        0.00000 )
      Pz  (       -0.00000        0.00000       -0.07206 )
           atom      2   Si 
      Px  (       -0.07206       -0.00000       -0.00000 )
      Py  (       -0.00000       -0.07206        0.00000 )
      Pz  (       -0.00000        0.00000       -0.07206 )

     Diagonalizing the dynamical matrix

     q = (    0.000000000   0.000000000   0.000000000 ) 

 **************************************************************************
     freq (    1) =      -0.474123 [THz] =     -15.815055 [cm-1]
     freq (    2) =      -0.474123 [THz] =     -15.815055 [cm-1]
     freq (    3) =      -0.474123 [THz] =     -15.815055 [cm-1]
     freq (    4) =      15.239369 [THz] =     508.330626 [cm-1]
     freq (    5) =      15.239369 [THz] =     508.330626 [cm-1]
     freq (    6) =      15.239369 [THz] =     508.330626 [cm-1]
 **************************************************************************

     Mode symmetry, O_h (m-3m)  point group:

     freq (  1 -  3) =        -15.8  [cm-1]   --> T_1u G_15  G_4- I  
     freq (  4 -  6) =        508.3  [cm-1]   --> T_2g G_25' G_5+ R  

     Calculation of q =   -0.2500000   0.2500000  -0.2500000

   Info: using nr1, nr2, nr3 values from input

   Info: using nr1, nr2, nr3 values from input

     Parallelization info
     --------------------
     sticks:   dense  smooth     PW     G-vecs:    dense   smooth      PW
     Min         217     108     37                 4287     1495     309
     Max         218     109     38                 4289     1498     312
     Sum         871     433    151                17153     5985    1243



     bravais-lattice index     =            2
     lattice parameter (alat)  =      10.2940  a.u.
     unit-cell volume          =     272.7046 (a.u.)^3
     number of atoms/cell      =            2
     number of atomic types    =            1
     number of electrons       =         8.00
     number of Kohn-Sham states=            4
     kinetic-energy cutoff     =      30.0000  Ry
     charge density cutoff     =     240.0000  Ry
     Exchange-correlation      = SLA  PW   PBE  PBE ( 1  4  3  4 0 0)

     celldm(1)=  10.294000  celldm(2)=   0.000000  celldm(3)=   0.000000
     celldm(4)=   0.000000  celldm(5)=   0.000000  celldm(6)=   0.000000

     crystal axes: (cart. coord. in units of alat)
               a(1) = (  -0.500000   0.000000   0.500000 )  
               a(2) = (   0.000000   0.500000   0.500000 )  
               a(3) = (  -0.500000   0.500000   0.000000 )  

     reciprocal axes: (cart. coord. in units 2 pi/alat)
               b(1) = ( -1.000000 -1.000000  1.000000 )  
               b(2) = (  1.000000  1.000000  1.000000 )  
               b(3) = ( -1.000000  1.000000 -1.000000 )  


     PseudoPot. # 1 for Si read from file:
     /home/s1333534/quantum_espresso/qe-6.1/pseudo/si_pbe_v1.uspp.F.UPF.txt
     MD5 check sum: a056efeee980c13900f22a371efd63c1
     Pseudo is Ultrasoft + core correction, Zval =  4.0
     Generated by new atomic code, or converted to UPF format
     Using radial grid of  899 points,  6 beta functions with: 
                l(1) =   0
                l(2) =   0
                l(3) =   1
                l(4) =   1
                l(5) =   2
                l(6) =   2
     Q(r) pseudized with  8 coefficients,  rinner =    0.900   0.900   0.900
                                                       0.900   0.900

     atomic species   valence    mass     pseudopotential
        Si             4.00    28.08600     Si( 1.00)

     48 Sym. Ops., with inversion, found



   Cartesian axes

     site n.     atom                  positions (alat units)
         1           Si  tau(   1) = (   0.0000000   0.0000000   0.0000000  )
         2           Si  tau(   2) = (   0.2500000   0.2500000   0.2500000  )

     number of k points=   120

     Number of k-points >= 100: set verbosity='high' to print them.

     Dense  grid:    17153 G-vectors     FFT dimensions: (  36,  36,  36)

     Smooth grid:     5985 G-vectors     FFT dimensions: (  25,  25,  25)

     Estimated max dynamical RAM per process >       1.51MB

     Estimated total allocated dynamical RAM >       6.05MB

     The potential is recalculated from file :
     ./_ph0/silicon.10.294.save/charge-density.dat

     Starting wfc are    8 atomic wfcs

     Band Structure Calculation
     Davidson diagonalization with overlap

     ethr =  1.25E-10,  avg # of iterations = 12.2

     total cpu time spent up to now is        1.4 secs

     End of band structure calculation

     Number of k-points >= 100: set verbosity='high' to print the bands.

     highest occupied level (ev):     5.8114

     Writing output data file silicon.10.294.save

                                                                                

     bravais-lattice index     =            2
     lattice parameter (alat)  =      10.2940  a.u.
     unit-cell volume          =     272.7046 (a.u.)^3
     number of atoms/cell      =            2
     number of atomic types    =            1
     kinetic-energy cut-off    =      30.0000  Ry
     charge density cut-off    =     240.0000  Ry
     convergence threshold     =      1.0E-12
     beta                      =       0.7000
     number of iterations used =            4
     Exchange-correlation      = SLA  PW   PBE  PBE ( 1  4  3  4 0 0)


     celldm(1)=   10.29400  celldm(2)=    0.00000  celldm(3)=    0.00000
     celldm(4)=    0.00000  celldm(5)=    0.00000  celldm(6)=    0.00000

     crystal axes: (cart. coord. in units of alat)
               a(1) = ( -0.5000  0.0000  0.5000 )  
               a(2) = (  0.0000  0.5000  0.5000 )  
               a(3) = ( -0.5000  0.5000  0.0000 )  

     reciprocal axes: (cart. coord. in units 2 pi/alat)
               b(1) = ( -1.0000 -1.0000  1.0000 )  
               b(2) = (  1.0000  1.0000  1.0000 )  
               b(3) = ( -1.0000  1.0000 -1.0000 )  


     Atoms inside the unit cell: 

     Cartesian axes

     site n.  atom      mass           positions (alat units)
        1     Si  28.0860   tau(    1) = (    0.00000    0.00000    0.00000  )
        2     Si  28.0860   tau(    2) = (    0.25000    0.25000    0.25000  )

     Computing dynamical matrix for 
                    q = (  -0.2500000   0.2500000  -0.2500000 )

      6 Sym.Ops. (no q -> -q+G )


     G cutoff =  644.1987  (   4288 G-vectors)     FFT grid: ( 36, 36, 36)
     G cutoff =  322.0993  (   1496 G-vectors)  smooth grid: ( 25, 25, 25)
     number of k points=   120

     PseudoPot. # 1 for Si read from file:
     /home/s1333534/quantum_espresso/qe-6.1/pseudo/si_pbe_v1.uspp.F.UPF.txt
     MD5 check sum: a056efeee980c13900f22a371efd63c1
     Pseudo is Ultrasoft + core correction, Zval =  4.0
     Generated by new atomic code, or converted to UPF format
     Using radial grid of  899 points,  6 beta functions with: 
                l(1) =   0
                l(2) =   0
                l(3) =   1
                l(4) =   1
                l(5) =   2
                l(6) =   2
     Q(r) pseudized with  8 coefficients,  rinner =    0.900   0.900   0.900
                                                       0.900   0.900

     Mode symmetry, C_3v (3m)   point group:


     Atomic displacements:
     There are   4 irreducible representations

     Representation     1      1 modes -A_1  L_1  To be done

     Representation     2      1 modes -A_1  L_1  To be done

     Representation     3      2 modes -E    L_3  To be done

     Representation     4      2 modes -E    L_3  To be done



     Alpha used in Ewald sum =   2.5000
     PHONON       :    10.67s CPU        14.46s WALL



     Representation #  1 mode #   1

     Self-consistent Calculation

      iter #   1 total cpu time :    14.9 secs   av.it.:   5.9
      thresh= 1.000E-02 alpha_mix =  0.700 |ddv_scf|^2 =  4.311E-04

      iter #   2 total cpu time :    15.5 secs   av.it.:   9.0
      thresh= 2.076E-03 alpha_mix =  0.700 |ddv_scf|^2 =  6.542E-03

      iter #   3 total cpu time :    16.0 secs   av.it.:   7.0
      thresh= 8.088E-03 alpha_mix =  0.700 |ddv_scf|^2 =  2.715E-07

      iter #   4 total cpu time :    16.6 secs   av.it.:   9.6
      thresh= 5.211E-05 alpha_mix =  0.700 |ddv_scf|^2 =  1.774E-08

      iter #   5 total cpu time :    17.2 secs   av.it.:   9.5
      thresh= 1.332E-05 alpha_mix =  0.700 |ddv_scf|^2 =  3.330E-10

      iter #   6 total cpu time :    17.8 secs   av.it.:   9.7
      thresh= 1.825E-06 alpha_mix =  0.700 |ddv_scf|^2 =  1.028E-09

      iter #   7 total cpu time :    18.3 secs   av.it.:   7.6
      thresh= 3.207E-06 alpha_mix =  0.700 |ddv_scf|^2 =  3.862E-11

      iter #   8 total cpu time :    18.9 secs   av.it.:   9.2
      thresh= 6.214E-07 alpha_mix =  0.700 |ddv_scf|^2 =  5.163E-13

     End of self-consistent calculation

     Convergence has been achieved 


     Representation #  2 mode #   2

     Self-consistent Calculation

      iter #   1 total cpu time :    19.4 secs   av.it.:   5.9
      thresh= 1.000E-02 alpha_mix =  0.700 |ddv_scf|^2 =  4.311E-04

      iter #   2 total cpu time :    20.0 secs   av.it.:   9.0
      thresh= 2.076E-03 alpha_mix =  0.700 |ddv_scf|^2 =  6.542E-03

      iter #   3 total cpu time :    20.5 secs   av.it.:   7.0
      thresh= 8.088E-03 alpha_mix =  0.700 |ddv_scf|^2 =  2.715E-07

      iter #   4 total cpu time :    21.1 secs   av.it.:   9.6
      thresh= 5.211E-05 alpha_mix =  0.700 |ddv_scf|^2 =  1.774E-08

      iter #   5 total cpu time :    21.7 secs   av.it.:   9.5
      thresh= 1.332E-05 alpha_mix =  0.700 |ddv_scf|^2 =  3.330E-10

      iter #   6 total cpu time :    22.3 secs   av.it.:   9.7
      thresh= 1.825E-06 alpha_mix =  0.700 |ddv_scf|^2 =  1.028E-09

      iter #   7 total cpu time :    22.8 secs   av.it.:   7.6
      thresh= 3.207E-06 alpha_mix =  0.700 |ddv_scf|^2 =  3.862E-11

      iter #   8 total cpu time :    23.4 secs   av.it.:   9.2
      thresh= 6.214E-07 alpha_mix =  0.700 |ddv_scf|^2 =  5.163E-13

     End of self-consistent calculation

     Convergence has been achieved 


     Representation #  3 modes #   3  4

     Self-consistent Calculation

      iter #   1 total cpu time :    24.3 secs   av.it.:   5.2
      thresh= 1.000E-02 alpha_mix =  0.700 |ddv_scf|^2 =  6.638E-08

      iter #   2 total cpu time :    25.5 secs   av.it.:  11.4
      thresh= 2.577E-05 alpha_mix =  0.700 |ddv_scf|^2 =  4.268E-09

      iter #   3 total cpu time :    26.8 secs   av.it.:  11.1
      thresh= 6.533E-06 alpha_mix =  0.700 |ddv_scf|^2 =  2.261E-10

      iter #   4 total cpu time :    27.9 secs   av.it.:  11.0
      thresh= 1.504E-06 alpha_mix =  0.700 |ddv_scf|^2 =  8.508E-13

     End of self-consistent calculation

     Convergence has been achieved 


     Representation #  4 modes #   5  6

     Self-consistent Calculation

      iter #   1 total cpu time :    28.9 secs   av.it.:   5.2
      thresh= 1.000E-02 alpha_mix =  0.700 |ddv_scf|^2 =  6.640E-08

      iter #   2 total cpu time :    30.2 secs   av.it.:  11.4
      thresh= 2.577E-05 alpha_mix =  0.700 |ddv_scf|^2 =  4.268E-09

      iter #   3 total cpu time :    31.4 secs   av.it.:  11.2
      thresh= 6.533E-06 alpha_mix =  0.700 |ddv_scf|^2 =  2.260E-10

      iter #   4 total cpu time :    32.6 secs   av.it.:  11.0
      thresh= 1.503E-06 alpha_mix =  0.700 |ddv_scf|^2 =  8.547E-13

     End of self-consistent calculation

     Convergence has been achieved 

     Number of q in the star =    8
     List of q in the star:
          1  -0.250000000   0.250000000  -0.250000000
          2   0.250000000  -0.250000000  -0.250000000
          3   0.250000000  -0.250000000   0.250000000
          4   0.250000000   0.250000000   0.250000000
          5  -0.250000000  -0.250000000  -0.250000000
          6  -0.250000000  -0.250000000   0.250000000
          7  -0.250000000   0.250000000   0.250000000
          8   0.250000000   0.250000000  -0.250000000

     Diagonalizing the dynamical matrix

     q = (   -0.250000000   0.250000000  -0.250000000 ) 

 **************************************************************************
     freq (    1) =       2.762736 [THz] =      92.154969 [cm-1]
     freq (    2) =       2.762736 [THz] =      92.154969 [cm-1]
     freq (    3) =       6.809784 [THz] =     227.149942 [cm-1]
     freq (    4) =      14.387320 [THz] =     479.909344 [cm-1]
     freq (    5) =      14.680699 [THz] =     489.695423 [cm-1]
     freq (    6) =      14.680699 [THz] =     489.695423 [cm-1]
 **************************************************************************

     Mode symmetry, C_3v (3m)   point group:

     freq (  1 -  2) =         92.2  [cm-1]   --> E    L_3           
     freq (  3 -  3) =        227.1  [cm-1]   --> A_1  L_1           
     freq (  4 -  4) =        479.9  [cm-1]   --> A_1  L_1           
     freq (  5 -  6) =        489.7  [cm-1]   --> E    L_3           

     Calculation of q =    0.5000000  -0.5000000   0.5000000

   Info: using nr1, nr2, nr3 values from input

   Info: using nr1, nr2, nr3 values from input

     Parallelization info
     --------------------
     sticks:   dense  smooth     PW     G-vecs:    dense   smooth      PW
     Min         217     108     40                 4288     1495     351
     Max         219     109     41                 4289     1498     354
     Sum         871     433    163                17153     5985    1411



     bravais-lattice index     =            2
     lattice parameter (alat)  =      10.2940  a.u.
     unit-cell volume          =     272.7046 (a.u.)^3
     number of atoms/cell      =            2
     number of atomic types    =            1
     number of electrons       =         8.00
     number of Kohn-Sham states=            4
     kinetic-energy cutoff     =      30.0000  Ry
     charge density cutoff     =     240.0000  Ry
     Exchange-correlation      = SLA  PW   PBE  PBE ( 1  4  3  4 0 0)

     celldm(1)=  10.294000  celldm(2)=   0.000000  celldm(3)=   0.000000
     celldm(4)=   0.000000  celldm(5)=   0.000000  celldm(6)=   0.000000

     crystal axes: (cart. coord. in units of alat)
               a(1) = (  -0.500000   0.000000   0.500000 )  
               a(2) = (   0.000000   0.500000   0.500000 )  
               a(3) = (  -0.500000   0.500000   0.000000 )  

     reciprocal axes: (cart. coord. in units 2 pi/alat)
               b(1) = ( -1.000000 -1.000000  1.000000 )  
               b(2) = (  1.000000  1.000000  1.000000 )  
               b(3) = ( -1.000000  1.000000 -1.000000 )  


     PseudoPot. # 1 for Si read from file:
     /home/s1333534/quantum_espresso/qe-6.1/pseudo/si_pbe_v1.uspp.F.UPF.txt
     MD5 check sum: a056efeee980c13900f22a371efd63c1
     Pseudo is Ultrasoft + core correction, Zval =  4.0
     Generated by new atomic code, or converted to UPF format
     Using radial grid of  899 points,  6 beta functions with: 
                l(1) =   0
                l(2) =   0
                l(3) =   1
                l(4) =   1
                l(5) =   2
                l(6) =   2
     Q(r) pseudized with  8 coefficients,  rinner =    0.900   0.900   0.900
                                                       0.900   0.900

     atomic species   valence    mass     pseudopotential
        Si             4.00    28.08600     Si( 1.00)

     48 Sym. Ops., with inversion, found



   Cartesian axes

     site n.     atom                  positions (alat units)
         1           Si  tau(   1) = (   0.0000000   0.0000000   0.0000000  )
         2           Si  tau(   2) = (   0.2500000   0.2500000   0.2500000  )

     number of k points=    60
                       cart. coord. in units 2pi/alat
        k(    1) = (  -0.1250000   0.1250000   0.1250000), wk =   0.0468750
        k(    2) = (   0.3750000  -0.3750000   0.6250000), wk =   0.0000000
        k(    3) = (  -0.3750000   0.3750000  -0.1250000), wk =   0.0468750
        k(    4) = (   0.1250000  -0.1250000   0.3750000), wk =   0.0000000
        k(    5) = (   0.3750000  -0.3750000   0.6250000), wk =   0.0468750
        k(    6) = (   0.8750000  -0.8750000   1.1250000), wk =   0.0000000
        k(    7) = (   0.1250000  -0.1250000   0.3750000), wk =   0.0468750
        k(    8) = (   0.6250000  -0.6250000   0.8750000), wk =   0.0000000
        k(    9) = (  -0.1250000   0.6250000   0.1250000), wk =   0.0937500
        k(   10) = (   0.3750000   0.1250000   0.6250000), wk =   0.0000000
        k(   11) = (   0.6250000  -0.1250000   0.8750000), wk =   0.0937500
        k(   12) = (   1.1250000  -0.6250000   1.3750000), wk =   0.0000000
        k(   13) = (   0.3750000   0.1250000   0.6250000), wk =   0.0937500
        k(   14) = (   0.8750000  -0.3750000   1.1250000), wk =   0.0000000
        k(   15) = (  -0.1250000  -0.8750000   0.1250000), wk =   0.0937500
        k(   16) = (   0.3750000  -1.3750000   0.6250000), wk =   0.0000000
        k(   17) = (  -0.3750000   0.3750000   0.3750000), wk =   0.0468750
        k(   18) = (   0.1250000  -0.1250000   0.8750000), wk =   0.0000000
        k(   19) = (   0.3750000  -0.3750000   1.1250000), wk =   0.0468750
        k(   20) = (   0.8750000  -0.8750000   1.6250000), wk =   0.0000000
        k(   21) = (   0.1250000  -0.1250000   0.1250000), wk =   0.0156250
        k(   22) = (   0.6250000  -0.6250000   0.6250000), wk =   0.0000000
        k(   23) = (  -0.3750000  -0.3750000  -0.1250000), wk =   0.0937500
        k(   24) = (   0.1250000  -0.8750000   0.3750000), wk =   0.0000000
        k(   25) = (  -0.1250000  -0.3750000   0.3750000), wk =   0.0468750
        k(   26) = (   0.3750000  -0.8750000   0.8750000), wk =   0.0000000
        k(   27) = (   0.3750000   0.3750000   0.6250000), wk =   0.0937500
        k(   28) = (   0.8750000  -0.1250000   1.1250000), wk =   0.0000000
        k(   29) = (   0.6250000   0.3750000  -0.3750000), wk =   0.0468750
        k(   30) = (   1.1250000  -0.1250000   0.1250000), wk =   0.0000000
        k(   31) = (   0.1250000   0.1250000   0.3750000), wk =   0.0937500
        k(   32) = (   0.6250000  -0.3750000   0.8750000), wk =   0.0000000
        k(   33) = (   0.3750000   0.1250000  -0.1250000), wk =   0.0468750
        k(   34) = (   0.8750000  -0.3750000   0.3750000), wk =   0.0000000
        k(   35) = (  -0.1250000  -0.6250000  -0.1250000), wk =   0.0468750
        k(   36) = (   0.3750000  -1.1250000   0.3750000), wk =   0.0000000
        k(   37) = (   0.1250000  -0.6250000   0.1250000), wk =   0.0468750
        k(   38) = (   0.6250000  -1.1250000   0.6250000), wk =   0.0000000
        k(   39) = (   0.6250000   0.1250000   0.8750000), wk =   0.0937500
        k(   40) = (   1.1250000  -0.3750000   1.3750000), wk =   0.0000000
        k(   41) = (  -0.8750000   0.1250000   0.6250000), wk =   0.0937500
        k(   42) = (  -0.3750000  -0.3750000   1.1250000), wk =   0.0000000
        k(   43) = (   0.8750000   0.1250000  -0.6250000), wk =   0.0937500
        k(   44) = (   1.3750000  -0.3750000  -0.1250000), wk =   0.0000000
        k(   45) = (   0.3750000  -0.1250000   0.6250000), wk =   0.0937500
        k(   46) = (   0.8750000  -0.6250000   1.1250000), wk =   0.0000000
        k(   47) = (  -0.6250000  -0.1250000   0.3750000), wk =   0.0937500
        k(   48) = (  -0.1250000  -0.6250000   0.8750000), wk =   0.0000000
        k(   49) = (   0.6250000  -0.1250000  -0.3750000), wk =   0.0937500
        k(   50) = (   1.1250000  -0.6250000   0.1250000), wk =   0.0000000
        k(   51) = (  -0.1250000   0.8750000  -0.1250000), wk =   0.0468750
        k(   52) = (   0.3750000   0.3750000   0.3750000), wk =   0.0000000
        k(   53) = (   0.1250000   0.8750000   0.1250000), wk =   0.0468750
        k(   54) = (   0.6250000   0.3750000   0.6250000), wk =   0.0000000
        k(   55) = (   0.3750000  -0.3750000   0.3750000), wk =   0.0156250
        k(   56) = (   0.8750000  -0.8750000   0.8750000), wk =   0.0000000
        k(   57) = (   0.3750000   0.3750000   1.1250000), wk =   0.0937500
        k(   58) = (   0.8750000  -0.1250000   1.6250000), wk =   0.0000000
        k(   59) = (   1.1250000   0.3750000  -0.3750000), wk =   0.0468750
        k(   60) = (   1.6250000  -0.1250000   0.1250000), wk =   0.0000000

     Dense  grid:    17153 G-vectors     FFT dimensions: (  36,  36,  36)

     Smooth grid:     5985 G-vectors     FFT dimensions: (  25,  25,  25)

     Estimated max dynamical RAM per process >       1.51MB

     Estimated total allocated dynamical RAM >       6.05MB

     The potential is recalculated from file :
     ./_ph0/silicon.10.294.save/charge-density.dat

     Starting wfc are    8 atomic wfcs

     Band Structure Calculation
     Davidson diagonalization with overlap

     ethr =  1.25E-10,  avg # of iterations = 12.2

     total cpu time spent up to now is        2.4 secs

     End of band structure calculation

          k =-0.1250 0.1250 0.1250 (   746 PWs)   bands (ev):

    -5.5957   4.5024   5.8114   5.8114

          k = 0.3750-0.3750 0.6250 (   759 PWs)   bands (ev):

    -3.4042  -0.6102   3.8329   4.5482

          k =-0.3750 0.3750-0.1250 (   757 PWs)   bands (ev):

    -4.5587   1.4916   3.8068   5.3285

          k = 0.1250-0.1250 0.3750 (   765 PWs)   bands (ev):

    -5.0627   2.8813   4.7921   4.8626

          k = 0.3750-0.3750 0.6250 (   759 PWs)   bands (ev):

    -3.4042  -0.6102   3.8329   4.5482

          k = 0.8750-0.8750 1.1250 (   746 PWs)   bands (ev):

    -5.5957   4.5024   5.8114   5.8114

          k = 0.1250-0.1250 0.3750 (   765 PWs)   bands (ev):

    -5.0627   2.8813   4.7921   4.8626

          k = 0.6250-0.6250 0.8750 (   757 PWs)   bands (ev):

    -4.5587   1.4916   3.8068   5.3285

          k =-0.1250 0.6250 0.1250 (   760 PWs)   bands (ev):

    -4.0212   1.1674   3.4522   3.9098

          k = 0.3750 0.1250 0.6250 (   756 PWs)   bands (ev):

    -3.6003   0.2797   2.8059   4.1868

          k = 0.6250-0.1250 0.8750 (   751 PWs)   bands (ev):

    -2.3623  -0.8102   2.0794   3.1684

          k = 1.1250-0.6250 1.3750 (   757 PWs)   bands (ev):

    -4.5587   1.4916   3.8068   5.3285

          k = 0.3750 0.1250 0.6250 (   756 PWs)   bands (ev):

    -3.6003   0.2797   2.8059   4.1868

          k = 0.8750-0.3750 1.1250 (   760 PWs)   bands (ev):

    -4.0212   1.1674   3.4522   3.9098

          k =-0.1250-0.8750 0.1250 (   757 PWs)   bands (ev):

    -2.5344  -0.7105   2.6969   3.4388

          k = 0.3750-1.3750 0.6250 (   759 PWs)   bands (ev):

    -3.4042  -0.6102   3.8329   4.5482

          k =-0.3750 0.3750 0.3750 (   763 PWs)   bands (ev):

    -4.1203   0.1847   5.0184   5.0184

          k = 0.1250-0.1250 0.8750 (   757 PWs)   bands (ev):

    -2.5344  -0.7105   2.6969   3.4388

          k = 0.3750-0.3750 1.1250 (   757 PWs)   bands (ev):

    -2.9039  -0.5137   2.1425   4.2275

          k = 0.8750-0.8750 1.6250 (   760 PWs)   bands (ev):

    -4.0212   1.1674   3.4522   3.9098

          k = 0.1250-0.1250 0.1250 (   746 PWs)   bands (ev):

    -5.5957   4.5024   5.8114   5.8114

          k = 0.6250-0.6250 0.6250 (   763 PWs)   bands (ev):

    -4.1203   0.1847   5.0184   5.0184

          k =-0.3750-0.3750-0.1250 (   757 PWs)   bands (ev):

    -4.5587   1.4916   3.8068   5.3285

          k = 0.1250-0.8750 0.3750 (   751 PWs)   bands (ev):

    -2.3623  -0.8102   2.0794   3.1684

          k =-0.1250-0.3750 0.3750 (   757 PWs)   bands (ev):

    -4.5587   1.4916   3.8068   5.3285

          k = 0.3750-0.8750 0.8750 (   760 PWs)   bands (ev):

    -4.0212   1.1674   3.4522   3.9098

          k = 0.3750 0.3750 0.6250 (   759 PWs)   bands (ev):

    -3.4042  -0.6102   3.8329   4.5482

          k = 0.8750-0.1250 1.1250 (   757 PWs)   bands (ev):

    -2.5344  -0.7105   2.6969   3.4388

          k = 0.6250 0.3750-0.3750 (   759 PWs)   bands (ev):

    -3.4042  -0.6102   3.8329   4.5482

          k = 1.1250-0.1250 0.1250 (   757 PWs)   bands (ev):

    -2.5344  -0.7105   2.6969   3.4388

          k = 0.1250 0.1250 0.3750 (   765 PWs)   bands (ev):

    -5.0627   2.8813   4.7921   4.8626

          k = 0.6250-0.3750 0.8750 (   756 PWs)   bands (ev):

    -3.6003   0.2797   2.8059   4.1868

          k = 0.3750 0.1250-0.1250 (   765 PWs)   bands (ev):

    -5.0627   2.8813   4.7921   4.8626

          k = 0.8750-0.3750 0.3750 (   757 PWs)   bands (ev):

    -2.9039  -0.5137   2.1425   4.2275

          k =-0.1250-0.6250-0.1250 (   760 PWs)   bands (ev):

    -4.0212   1.1674   3.4522   3.9098

          k = 0.3750-1.1250 0.3750 (   757 PWs)   bands (ev):

    -2.9039  -0.5137   2.1425   4.2275

          k = 0.1250-0.6250 0.1250 (   760 PWs)   bands (ev):

    -4.0212   1.1674   3.4522   3.9098

          k = 0.6250-1.1250 0.6250 (   757 PWs)   bands (ev):

    -4.5587   1.4916   3.8068   5.3285

          k = 0.6250 0.1250 0.8750 (   751 PWs)   bands (ev):

    -2.3623  -0.8102   2.0794   3.1684

          k = 1.1250-0.3750 1.3750 (   756 PWs)   bands (ev):

    -3.6003   0.2797   2.8059   4.1868

          k =-0.8750 0.1250 0.6250 (   751 PWs)   bands (ev):

    -2.3623  -0.8102   2.0794   3.1684

          k =-0.3750-0.3750 1.1250 (   757 PWs)   bands (ev):

    -2.9039  -0.5137   2.1425   4.2275

          k = 0.8750 0.1250-0.6250 (   751 PWs)   bands (ev):

    -2.3623  -0.8102   2.0794   3.1684

          k = 1.3750-0.3750-0.1250 (   756 PWs)   bands (ev):

    -3.6003   0.2797   2.8059   4.1868

          k = 0.3750-0.1250 0.6250 (   756 PWs)   bands (ev):

    -3.6003   0.2797   2.8059   4.1868

          k = 0.8750-0.6250 1.1250 (   765 PWs)   bands (ev):

    -5.0627   2.8813   4.7921   4.8626

          k =-0.6250-0.1250 0.3750 (   756 PWs)   bands (ev):

    -3.6003   0.2797   2.8059   4.1868

          k =-0.1250-0.6250 0.8750 (   751 PWs)   bands (ev):

    -2.3623  -0.8102   2.0794   3.1684

          k = 0.6250-0.1250-0.3750 (   756 PWs)   bands (ev):

    -3.6003   0.2797   2.8059   4.1868

          k = 1.1250-0.6250 0.1250 (   751 PWs)   bands (ev):

    -2.3623  -0.8102   2.0794   3.1684

          k =-0.1250 0.8750-0.1250 (   757 PWs)   bands (ev):

    -2.5344  -0.7105   2.6969   3.4388

          k = 0.3750 0.3750 0.3750 (   763 PWs)   bands (ev):

    -4.1203   0.1847   5.0184   5.0184

          k = 0.1250 0.8750 0.1250 (   757 PWs)   bands (ev):

    -2.5344  -0.7105   2.6969   3.4388

          k = 0.6250 0.3750 0.6250 (   759 PWs)   bands (ev):

    -3.4042  -0.6102   3.8329   4.5482

          k = 0.3750-0.3750 0.3750 (   763 PWs)   bands (ev):

    -4.1203   0.1847   5.0184   5.0184

          k = 0.8750-0.8750 0.8750 (   746 PWs)   bands (ev):

    -5.5957   4.5024   5.8114   5.8114

          k = 0.3750 0.3750 1.1250 (   757 PWs)   bands (ev):

    -2.9039  -0.5137   2.1425   4.2275

          k = 0.8750-0.1250 1.6250 (   751 PWs)   bands (ev):

    -2.3623  -0.8102   2.0794   3.1684

          k = 1.1250 0.3750-0.3750 (   757 PWs)   bands (ev):

    -2.9039  -0.5137   2.1425   4.2275

          k = 1.6250-0.1250 0.1250 (   765 PWs)   bands (ev):

    -5.0627   2.8813   4.7921   4.8626

     highest occupied level (ev):     5.8114

     Writing output data file silicon.10.294.save

                                                                                

     bravais-lattice index     =            2
     lattice parameter (alat)  =      10.2940  a.u.
     unit-cell volume          =     272.7046 (a.u.)^3
     number of atoms/cell      =            2
     number of atomic types    =            1
     kinetic-energy cut-off    =      30.0000  Ry
     charge density cut-off    =     240.0000  Ry
     convergence threshold     =      1.0E-12
     beta                      =       0.7000
     number of iterations used =            4
     Exchange-correlation      = SLA  PW   PBE  PBE ( 1  4  3  4 0 0)


     celldm(1)=   10.29400  celldm(2)=    0.00000  celldm(3)=    0.00000
     celldm(4)=    0.00000  celldm(5)=    0.00000  celldm(6)=    0.00000

     crystal axes: (cart. coord. in units of alat)
               a(1) = ( -0.5000  0.0000  0.5000 )  
               a(2) = (  0.0000  0.5000  0.5000 )  
               a(3) = ( -0.5000  0.5000  0.0000 )  

     reciprocal axes: (cart. coord. in units 2 pi/alat)
               b(1) = ( -1.0000 -1.0000  1.0000 )  
               b(2) = (  1.0000  1.0000  1.0000 )  
               b(3) = ( -1.0000  1.0000 -1.0000 )  


     Atoms inside the unit cell: 

     Cartesian axes

     site n.  atom      mass           positions (alat units)
        1     Si  28.0860   tau(    1) = (    0.00000    0.00000    0.00000  )
        2     Si  28.0860   tau(    2) = (    0.25000    0.25000    0.25000  )

     Computing dynamical matrix for 
                    q = (   0.5000000  -0.5000000   0.5000000 )

     13 Sym.Ops. (with q -> -q+G )


     G cutoff =  644.1987  (   4288 G-vectors)     FFT grid: ( 36, 36, 36)
     G cutoff =  322.0993  (   1497 G-vectors)  smooth grid: ( 25, 25, 25)
     number of k points=    60

     PseudoPot. # 1 for Si read from file:
     /home/s1333534/quantum_espresso/qe-6.1/pseudo/si_pbe_v1.uspp.F.UPF.txt
     MD5 check sum: a056efeee980c13900f22a371efd63c1
     Pseudo is Ultrasoft + core correction, Zval =  4.0
     Generated by new atomic code, or converted to UPF format
     Using radial grid of  899 points,  6 beta functions with: 
                l(1) =   0
                l(2) =   0
                l(3) =   1
                l(4) =   1
                l(5) =   2
                l(6) =   2
     Q(r) pseudized with  8 coefficients,  rinner =    0.900   0.900   0.900
                                                       0.900   0.900


     Atomic displacements:
     There are   4 irreducible representations

     Representation     1      1 modes -  To be done

     Representation     2      1 modes -  To be done

     Representation     3      2 modes -  To be done

     Representation     4      2 modes -  To be done



     Alpha used in Ewald sum =   2.5000
     PHONON       :    27.43s CPU        34.76s WALL



     Representation #  1 mode #   1

     Self-consistent Calculation

      iter #   1 total cpu time :    35.0 secs   av.it.:   5.1
      thresh= 1.000E-02 alpha_mix =  0.700 |ddv_scf|^2 =  4.228E-06

      iter #   2 total cpu time :    35.5 secs   av.it.:   9.9
      thresh= 2.056E-04 alpha_mix =  0.700 |ddv_scf|^2 =  3.843E-06

      iter #   3 total cpu time :    35.8 secs   av.it.:   9.2
      thresh= 1.960E-04 alpha_mix =  0.700 |ddv_scf|^2 =  2.329E-09

      iter #   4 total cpu time :    36.2 secs   av.it.:   9.4
      thresh= 4.826E-06 alpha_mix =  0.700 |ddv_scf|^2 =  2.254E-11

      iter #   5 total cpu time :    36.6 secs   av.it.:   9.3
      thresh= 4.748E-07 alpha_mix =  0.700 |ddv_scf|^2 =  3.046E-13

     End of self-consistent calculation

     Convergence has been achieved 


     Representation #  2 mode #   2

     Self-consistent Calculation

      iter #   1 total cpu time :    37.0 secs   av.it.:   6.0
      thresh= 1.000E-02 alpha_mix =  0.700 |ddv_scf|^2 =  6.016E-05

      iter #   2 total cpu time :    37.4 secs   av.it.:   9.8
      thresh= 7.756E-04 alpha_mix =  0.700 |ddv_scf|^2 =  1.867E-04

      iter #   3 total cpu time :    37.8 secs   av.it.:   8.6
      thresh= 1.366E-03 alpha_mix =  0.700 |ddv_scf|^2 =  1.282E-08

      iter #   4 total cpu time :    38.2 secs   av.it.:   9.8
      thresh= 1.132E-05 alpha_mix =  0.700 |ddv_scf|^2 =  6.492E-10

      iter #   5 total cpu time :    38.7 secs   av.it.:  10.2
      thresh= 2.548E-06 alpha_mix =  0.700 |ddv_scf|^2 =  1.998E-11

      iter #   6 total cpu time :    39.0 secs   av.it.:   9.7
      thresh= 4.469E-07 alpha_mix =  0.700 |ddv_scf|^2 =  1.521E-13

     End of self-consistent calculation

     Convergence has been achieved 


     Representation #  3 modes #   3  4

     Self-consistent Calculation

      iter #   1 total cpu time :    39.6 secs   av.it.:   5.1
      thresh= 1.000E-02 alpha_mix =  0.700 |ddv_scf|^2 =  2.706E-08

      iter #   2 total cpu time :    40.4 secs   av.it.:  10.9
      thresh= 1.645E-05 alpha_mix =  0.700 |ddv_scf|^2 =  1.600E-09

      iter #   3 total cpu time :    41.2 secs   av.it.:  10.7
      thresh= 3.999E-06 alpha_mix =  0.700 |ddv_scf|^2 =  5.292E-11

      iter #   4 total cpu time :    41.8 secs   av.it.:  10.7
      thresh= 7.275E-07 alpha_mix =  0.700 |ddv_scf|^2 =  4.326E-13

     End of self-consistent calculation

     Convergence has been achieved 


     Representation #  4 modes #   5  6

     Self-consistent Calculation

      iter #   1 total cpu time :    42.5 secs   av.it.:   5.1
      thresh= 1.000E-02 alpha_mix =  0.700 |ddv_scf|^2 =  1.383E-07

      iter #   2 total cpu time :    43.2 secs   av.it.:  11.1
      thresh= 3.719E-05 alpha_mix =  0.700 |ddv_scf|^2 =  1.109E-08

      iter #   3 total cpu time :    44.1 secs   av.it.:  10.9
      thresh= 1.053E-05 alpha_mix =  0.700 |ddv_scf|^2 =  2.919E-10

      iter #   4 total cpu time :    44.7 secs   av.it.:   9.9
      thresh= 1.709E-06 alpha_mix =  0.700 |ddv_scf|^2 =  5.229E-13

     End of self-consistent calculation

     Convergence has been achieved 

     Number of q in the star =    4
     List of q in the star:
          1   0.500000000  -0.500000000   0.500000000
          2   0.500000000   0.500000000   0.500000000
          3  -0.500000000   0.500000000   0.500000000
          4   0.500000000   0.500000000  -0.500000000

     Diagonalizing the dynamical matrix

     q = (    0.500000000  -0.500000000   0.500000000 ) 

 **************************************************************************
     freq (    1) =       3.241081 [THz] =     108.110826 [cm-1]
     freq (    2) =       3.241081 [THz] =     108.110826 [cm-1]
     freq (    3) =      11.143229 [THz] =     371.698120 [cm-1]
     freq (    4) =      12.190593 [THz] =     406.634419 [cm-1]
     freq (    5) =      14.484405 [THz] =     483.147754 [cm-1]
     freq (    6) =      14.484405 [THz] =     483.147754 [cm-1]
 **************************************************************************

     Calculation of q =    0.0000000   0.5000000   0.0000000

   Info: using nr1, nr2, nr3 values from input

   Info: using nr1, nr2, nr3 values from input

     Parallelization info
     --------------------
     sticks:   dense  smooth     PW     G-vecs:    dense   smooth      PW
     Min         217     108     37                 4287     1495     309
     Max         218     109     38                 4289     1498     312
     Sum         871     433    151                17153     5985    1243



     bravais-lattice index     =            2
     lattice parameter (alat)  =      10.2940  a.u.
     unit-cell volume          =     272.7046 (a.u.)^3
     number of atoms/cell      =            2
     number of atomic types    =            1
     number of electrons       =         8.00
     number of Kohn-Sham states=            4
     kinetic-energy cutoff     =      30.0000  Ry
     charge density cutoff     =     240.0000  Ry
     Exchange-correlation      = SLA  PW   PBE  PBE ( 1  4  3  4 0 0)

     celldm(1)=  10.294000  celldm(2)=   0.000000  celldm(3)=   0.000000
     celldm(4)=   0.000000  celldm(5)=   0.000000  celldm(6)=   0.000000

     crystal axes: (cart. coord. in units of alat)
               a(1) = (  -0.500000   0.000000   0.500000 )  
               a(2) = (   0.000000   0.500000   0.500000 )  
               a(3) = (  -0.500000   0.500000   0.000000 )  

     reciprocal axes: (cart. coord. in units 2 pi/alat)
               b(1) = ( -1.000000 -1.000000  1.000000 )  
               b(2) = (  1.000000  1.000000  1.000000 )  
               b(3) = ( -1.000000  1.000000 -1.000000 )  


     PseudoPot. # 1 for Si read from file:
     /home/s1333534/quantum_espresso/qe-6.1/pseudo/si_pbe_v1.uspp.F.UPF.txt
     MD5 check sum: a056efeee980c13900f22a371efd63c1
     Pseudo is Ultrasoft + core correction, Zval =  4.0
     Generated by new atomic code, or converted to UPF format
     Using radial grid of  899 points,  6 beta functions with: 
                l(1) =   0
                l(2) =   0
                l(3) =   1
                l(4) =   1
                l(5) =   2
                l(6) =   2
     Q(r) pseudized with  8 coefficients,  rinner =    0.900   0.900   0.900
                                                       0.900   0.900

     atomic species   valence    mass     pseudopotential
        Si             4.00    28.08600     Si( 1.00)

     48 Sym. Ops., with inversion, found



   Cartesian axes

     site n.     atom                  positions (alat units)
         1           Si  tau(   1) = (   0.0000000   0.0000000   0.0000000  )
         2           Si  tau(   2) = (   0.2500000   0.2500000   0.2500000  )

     number of k points=    80
                       cart. coord. in units 2pi/alat
        k(    1) = (  -0.1250000   0.1250000   0.1250000), wk =   0.0312500
        k(    2) = (  -0.1250000   0.6250000   0.1250000), wk =   0.0000000
        k(    3) = (  -0.3750000   0.3750000  -0.1250000), wk =   0.0625000
        k(    4) = (  -0.3750000   0.8750000  -0.1250000), wk =   0.0000000
        k(    5) = (   0.3750000  -0.3750000   0.6250000), wk =   0.0625000
        k(    6) = (   0.3750000   0.1250000   0.6250000), wk =   0.0000000
        k(    7) = (   0.1250000  -0.1250000   0.3750000), wk =   0.0625000
        k(    8) = (   0.1250000   0.3750000   0.3750000), wk =   0.0000000
        k(    9) = (  -0.1250000   0.6250000   0.1250000), wk =   0.0312500
        k(   10) = (  -0.1250000   1.1250000   0.1250000), wk =   0.0000000
        k(   11) = (   0.6250000  -0.1250000   0.8750000), wk =   0.0625000
        k(   12) = (   0.6250000   0.3750000   0.8750000), wk =   0.0000000
        k(   13) = (   0.3750000   0.1250000   0.6250000), wk =   0.0625000
        k(   14) = (   0.3750000   0.6250000   0.6250000), wk =   0.0000000
        k(   15) = (  -0.1250000  -0.8750000   0.1250000), wk =   0.0312500
        k(   16) = (  -0.1250000  -0.3750000   0.1250000), wk =   0.0000000
        k(   17) = (  -0.3750000   0.3750000   0.3750000), wk =   0.0312500
        k(   18) = (  -0.3750000   0.8750000   0.3750000), wk =   0.0000000
        k(   19) = (   0.3750000  -0.3750000   1.1250000), wk =   0.0625000
        k(   20) = (   0.3750000   0.1250000   1.1250000), wk =   0.0000000
        k(   21) = (  -0.1250000  -0.1250000   0.1250000), wk =   0.0312500
        k(   22) = (  -0.1250000   0.3750000   0.1250000), wk =   0.0000000
        k(   23) = (   0.1250000  -0.3750000   0.3750000), wk =   0.0625000
        k(   24) = (   0.1250000   0.1250000   0.3750000), wk =   0.0000000
        k(   25) = (   0.3750000  -0.1250000   0.3750000), wk =   0.0312500
        k(   26) = (   0.3750000   0.3750000   0.3750000), wk =   0.0000000
        k(   27) = (   0.3750000   0.1250000   0.3750000), wk =   0.0312500
        k(   28) = (   0.3750000   0.6250000   0.3750000), wk =   0.0000000
        k(   29) = (  -0.6250000   0.3750000  -0.3750000), wk =   0.0625000
        k(   30) = (  -0.6250000   0.8750000  -0.3750000), wk =   0.0000000
        k(   31) = (  -0.3750000   0.6250000  -0.3750000), wk =   0.0312500
        k(   32) = (  -0.3750000   1.1250000  -0.3750000), wk =   0.0000000
        k(   33) = (  -0.3750000  -0.6250000  -0.3750000), wk =   0.0312500
        k(   34) = (  -0.3750000  -0.1250000  -0.3750000), wk =   0.0000000
        k(   35) = (  -0.3750000   0.1250000  -0.1250000), wk =   0.0625000
        k(   36) = (  -0.3750000   0.6250000  -0.1250000), wk =   0.0000000
        k(   37) = (  -0.1250000   0.3750000  -0.1250000), wk =   0.0312500
        k(   38) = (  -0.1250000   0.8750000  -0.1250000), wk =   0.0000000
        k(   39) = (  -0.1250000  -0.3750000  -0.1250000), wk =   0.0312500
        k(   40) = (  -0.1250000   0.1250000  -0.1250000), wk =   0.0000000
        k(   41) = (  -0.1250000  -0.6250000   0.1250000), wk =   0.0312500
        k(   42) = (  -0.1250000  -0.1250000   0.1250000), wk =   0.0000000
        k(   43) = (   0.6250000  -0.1250000  -0.1250000), wk =   0.0625000
        k(   44) = (   0.6250000   0.3750000  -0.1250000), wk =   0.0000000
        k(   45) = (   0.6250000   0.1250000   0.1250000), wk =   0.0625000
        k(   46) = (   0.6250000   0.6250000   0.1250000), wk =   0.0000000
        k(   47) = (  -0.8750000   0.1250000  -0.6250000), wk =   0.0625000
        k(   48) = (  -0.8750000   0.6250000  -0.6250000), wk =   0.0000000
        k(   49) = (  -0.1250000   0.6250000  -0.8750000), wk =   0.0625000
        k(   50) = (  -0.1250000   1.1250000  -0.8750000), wk =   0.0000000
        k(   51) = (  -0.1250000   0.8750000  -0.6250000), wk =   0.0625000
        k(   52) = (  -0.1250000   1.3750000  -0.6250000), wk =   0.0000000
        k(   53) = (  -0.1250000  -0.8750000  -0.6250000), wk =   0.0625000
        k(   54) = (  -0.1250000  -0.3750000  -0.6250000), wk =   0.0000000
        k(   55) = (   0.8750000  -0.6250000   0.1250000), wk =   0.0625000
        k(   56) = (   0.8750000  -0.1250000   0.1250000), wk =   0.0000000
        k(   57) = (  -0.6250000  -0.1250000  -0.3750000), wk =   0.0625000
        k(   58) = (  -0.6250000   0.3750000  -0.3750000), wk =   0.0000000
        k(   59) = (   0.1250000   0.3750000  -0.6250000), wk =   0.0625000
        k(   60) = (   0.1250000   0.8750000  -0.6250000), wk =   0.0000000
        k(   61) = (   0.1250000   0.6250000  -0.3750000), wk =   0.0625000
        k(   62) = (   0.1250000   1.1250000  -0.3750000), wk =   0.0000000
        k(   63) = (   0.1250000  -0.6250000  -0.3750000), wk =   0.0625000
        k(   64) = (   0.1250000  -0.1250000  -0.3750000), wk =   0.0000000
        k(   65) = (   0.6250000  -0.3750000  -0.1250000), wk =   0.0625000
        k(   66) = (   0.6250000   0.1250000  -0.1250000), wk =   0.0000000
        k(   67) = (  -0.1250000   0.8750000   0.1250000), wk =   0.0312500
        k(   68) = (  -0.1250000   1.3750000   0.1250000), wk =   0.0000000
        k(   69) = (  -0.8750000  -0.1250000  -0.1250000), wk =   0.0625000
        k(   70) = (  -0.8750000   0.3750000  -0.1250000), wk =   0.0000000
        k(   71) = (  -0.8750000   0.1250000   0.1250000), wk =   0.0625000
        k(   72) = (  -0.8750000   0.6250000   0.1250000), wk =   0.0000000
        k(   73) = (  -0.3750000  -0.3750000   0.3750000), wk =   0.0312500
        k(   74) = (  -0.3750000   0.1250000   0.3750000), wk =   0.0000000
        k(   75) = (  -1.1250000   0.3750000  -0.3750000), wk =   0.0625000
        k(   76) = (  -1.1250000   0.8750000  -0.3750000), wk =   0.0000000
        k(   77) = (  -0.3750000   1.1250000  -0.3750000), wk =   0.0312500
        k(   78) = (  -0.3750000   1.6250000  -0.3750000), wk =   0.0000000
        k(   79) = (  -0.3750000  -1.1250000  -0.3750000), wk =   0.0312500
        k(   80) = (  -0.3750000  -0.6250000  -0.3750000), wk =   0.0000000

     Dense  grid:    17153 G-vectors     FFT dimensions: (  36,  36,  36)

     Smooth grid:     5985 G-vectors     FFT dimensions: (  25,  25,  25)

     Estimated max dynamical RAM per process >       1.51MB

     Estimated total allocated dynamical RAM >       6.05MB

     The potential is recalculated from file :
     ./_ph0/silicon.10.294.save/charge-density.dat

     Starting wfc are    8 atomic wfcs

     Band Structure Calculation
     Davidson diagonalization with overlap

     ethr =  1.25E-10,  avg # of iterations = 12.2

     total cpu time spent up to now is        3.5 secs

     End of band structure calculation

          k =-0.1250 0.1250 0.1250 (   746 PWs)   bands (ev):

    -5.5957   4.5024   5.8114   5.8114

          k =-0.1250 0.6250 0.1250 (   760 PWs)   bands (ev):

    -4.0212   1.1674   3.4522   3.9098

          k =-0.3750 0.3750-0.1250 (   757 PWs)   bands (ev):

    -4.5587   1.4916   3.8068   5.3285

          k =-0.3750 0.8750-0.1250 (   751 PWs)   bands (ev):

    -2.3623  -0.8102   2.0794   3.1684

          k = 0.3750-0.3750 0.6250 (   759 PWs)   bands (ev):

    -3.4042  -0.6102   3.8329   4.5482

          k = 0.3750 0.1250 0.6250 (   756 PWs)   bands (ev):

    -3.6003   0.2797   2.8059   4.1868

          k = 0.1250-0.1250 0.3750 (   765 PWs)   bands (ev):

    -5.0627   2.8813   4.7921   4.8626

          k = 0.1250 0.3750 0.3750 (   757 PWs)   bands (ev):

    -4.5587   1.4916   3.8068   5.3285

          k =-0.1250 0.6250 0.1250 (   760 PWs)   bands (ev):

    -4.0212   1.1674   3.4522   3.9098

          k =-0.1250 1.1250 0.1250 (   757 PWs)   bands (ev):

    -2.5344  -0.7105   2.6969   3.4388

          k = 0.6250-0.1250 0.8750 (   751 PWs)   bands (ev):

    -2.3623  -0.8102   2.0794   3.1684

          k = 0.6250 0.3750 0.8750 (   756 PWs)   bands (ev):

    -3.6003   0.2797   2.8059   4.1868

          k = 0.3750 0.1250 0.6250 (   756 PWs)   bands (ev):

    -3.6003   0.2797   2.8059   4.1868

          k = 0.3750 0.6250 0.6250 (   759 PWs)   bands (ev):

    -3.4042  -0.6102   3.8329   4.5482

          k =-0.1250-0.8750 0.1250 (   757 PWs)   bands (ev):

    -2.5344  -0.7105   2.6969   3.4388

          k =-0.1250-0.3750 0.1250 (   765 PWs)   bands (ev):

    -5.0627   2.8813   4.7921   4.8626

          k =-0.3750 0.3750 0.3750 (   763 PWs)   bands (ev):

    -4.1203   0.1847   5.0184   5.0184

          k =-0.3750 0.8750 0.3750 (   757 PWs)   bands (ev):

    -2.9039  -0.5137   2.1425   4.2275

          k = 0.3750-0.3750 1.1250 (   757 PWs)   bands (ev):

    -2.9039  -0.5137   2.1425   4.2275

          k = 0.3750 0.1250 1.1250 (   751 PWs)   bands (ev):

    -2.3623  -0.8102   2.0794   3.1684

          k =-0.1250-0.1250 0.1250 (   746 PWs)   bands (ev):

    -5.5957   4.5024   5.8114   5.8114

          k =-0.1250 0.3750 0.1250 (   765 PWs)   bands (ev):

    -5.0627   2.8813   4.7921   4.8626

          k = 0.1250-0.3750 0.3750 (   757 PWs)   bands (ev):

    -4.5587   1.4916   3.8068   5.3285

          k = 0.1250 0.1250 0.3750 (   765 PWs)   bands (ev):

    -5.0627   2.8813   4.7921   4.8626

          k = 0.3750-0.1250 0.3750 (   757 PWs)   bands (ev):

    -4.5587   1.4916   3.8068   5.3285

          k = 0.3750 0.3750 0.3750 (   763 PWs)   bands (ev):

    -4.1203   0.1847   5.0184   5.0184

          k = 0.3750 0.1250 0.3750 (   757 PWs)   bands (ev):

    -4.5587   1.4916   3.8068   5.3285

          k = 0.3750 0.6250 0.3750 (   759 PWs)   bands (ev):

    -3.4042  -0.6102   3.8329   4.5482

          k =-0.6250 0.3750-0.3750 (   759 PWs)   bands (ev):

    -3.4042  -0.6102   3.8329   4.5482

          k =-0.6250 0.8750-0.3750 (   756 PWs)   bands (ev):

    -3.6003   0.2797   2.8059   4.1868

          k =-0.3750 0.6250-0.3750 (   759 PWs)   bands (ev):

    -3.4042  -0.6102   3.8329   4.5482

          k =-0.3750 1.1250-0.3750 (   757 PWs)   bands (ev):

    -2.9039  -0.5137   2.1425   4.2275

          k =-0.3750-0.6250-0.3750 (   759 PWs)   bands (ev):

    -3.4042  -0.6102   3.8329   4.5482

          k =-0.3750-0.1250-0.3750 (   757 PWs)   bands (ev):

    -4.5587   1.4916   3.8068   5.3285

          k =-0.3750 0.1250-0.1250 (   765 PWs)   bands (ev):

    -5.0627   2.8813   4.7921   4.8626

          k =-0.3750 0.6250-0.1250 (   756 PWs)   bands (ev):

    -3.6003   0.2797   2.8059   4.1868

          k =-0.1250 0.3750-0.1250 (   765 PWs)   bands (ev):

    -5.0627   2.8813   4.7921   4.8626

          k =-0.1250 0.8750-0.1250 (   757 PWs)   bands (ev):

    -2.5344  -0.7105   2.6969   3.4388

          k =-0.1250-0.3750-0.1250 (   765 PWs)   bands (ev):

    -5.0627   2.8813   4.7921   4.8626

          k =-0.1250 0.1250-0.1250 (   746 PWs)   bands (ev):

    -5.5957   4.5024   5.8114   5.8114

          k =-0.1250-0.6250 0.1250 (   760 PWs)   bands (ev):

    -4.0212   1.1674   3.4522   3.9098

          k =-0.1250-0.1250 0.1250 (   746 PWs)   bands (ev):

    -5.5957   4.5024   5.8114   5.8114

          k = 0.6250-0.1250-0.1250 (   760 PWs)   bands (ev):

    -4.0212   1.1674   3.4522   3.9098

          k = 0.6250 0.3750-0.1250 (   756 PWs)   bands (ev):

    -3.6003   0.2797   2.8059   4.1868

          k = 0.6250 0.1250 0.1250 (   760 PWs)   bands (ev):

    -4.0212   1.1674   3.4522   3.9098

          k = 0.6250 0.6250 0.1250 (   757 PWs)   bands (ev):

    -2.9039  -0.5137   2.1425   4.2275

          k =-0.8750 0.1250-0.6250 (   751 PWs)   bands (ev):

    -2.3623  -0.8102   2.0794   3.1684

          k =-0.8750 0.6250-0.6250 (   757 PWs)   bands (ev):

    -4.5587   1.4916   3.8068   5.3285

          k =-0.1250 0.6250-0.8750 (   751 PWs)   bands (ev):

    -2.3623  -0.8102   2.0794   3.1684

          k =-0.1250 1.1250-0.8750 (   757 PWs)   bands (ev):

    -2.5344  -0.7105   2.6969   3.4388

          k =-0.1250 0.8750-0.6250 (   751 PWs)   bands (ev):

    -2.3623  -0.8102   2.0794   3.1684

          k =-0.1250 1.3750-0.6250 (   757 PWs)   bands (ev):

    -2.9039  -0.5137   2.1425   4.2275

          k =-0.1250-0.8750-0.6250 (   751 PWs)   bands (ev):

    -2.3623  -0.8102   2.0794   3.1684

          k =-0.1250-0.3750-0.6250 (   756 PWs)   bands (ev):

    -3.6003   0.2797   2.8059   4.1868

          k = 0.8750-0.6250 0.1250 (   751 PWs)   bands (ev):

    -2.3623  -0.8102   2.0794   3.1684

          k = 0.8750-0.1250 0.1250 (   757 PWs)   bands (ev):

    -2.5344  -0.7105   2.6969   3.4388

          k =-0.6250-0.1250-0.3750 (   756 PWs)   bands (ev):

    -3.6003   0.2797   2.8059   4.1868

          k =-0.6250 0.3750-0.3750 (   759 PWs)   bands (ev):

    -3.4042  -0.6102   3.8329   4.5482

          k = 0.1250 0.3750-0.6250 (   756 PWs)   bands (ev):

    -3.6003   0.2797   2.8059   4.1868

          k = 0.1250 0.8750-0.6250 (   751 PWs)   bands (ev):

    -2.3623  -0.8102   2.0794   3.1684

          k = 0.1250 0.6250-0.3750 (   756 PWs)   bands (ev):

    -3.6003   0.2797   2.8059   4.1868

          k = 0.1250 1.1250-0.3750 (   751 PWs)   bands (ev):

    -2.3623  -0.8102   2.0794   3.1684

          k = 0.1250-0.6250-0.3750 (   756 PWs)   bands (ev):

    -3.6003   0.2797   2.8059   4.1868

          k = 0.1250-0.1250-0.3750 (   765 PWs)   bands (ev):

    -5.0627   2.8813   4.7921   4.8626

          k = 0.6250-0.3750-0.1250 (   756 PWs)   bands (ev):

    -3.6003   0.2797   2.8059   4.1868

          k = 0.6250 0.1250-0.1250 (   760 PWs)   bands (ev):

    -4.0212   1.1674   3.4522   3.9098

          k =-0.1250 0.8750 0.1250 (   757 PWs)   bands (ev):

    -2.5344  -0.7105   2.6969   3.4388

          k =-0.1250 1.3750 0.1250 (   760 PWs)   bands (ev):

    -4.0212   1.1674   3.4522   3.9098

          k =-0.8750-0.1250-0.1250 (   757 PWs)   bands (ev):

    -2.5344  -0.7105   2.6969   3.4388

          k =-0.8750 0.3750-0.1250 (   751 PWs)   bands (ev):

    -2.3623  -0.8102   2.0794   3.1684

          k =-0.8750 0.1250 0.1250 (   757 PWs)   bands (ev):

    -2.5344  -0.7105   2.6969   3.4388

          k =-0.8750 0.6250 0.1250 (   751 PWs)   bands (ev):

    -2.3623  -0.8102   2.0794   3.1684

          k =-0.3750-0.3750 0.3750 (   763 PWs)   bands (ev):

    -4.1203   0.1847   5.0184   5.0184

          k =-0.3750 0.1250 0.3750 (   757 PWs)   bands (ev):

    -4.5587   1.4916   3.8068   5.3285

          k =-1.1250 0.3750-0.3750 (   757 PWs)   bands (ev):

    -2.9039  -0.5137   2.1425   4.2275

          k =-1.1250 0.8750-0.3750 (   760 PWs)   bands (ev):

    -4.0212   1.1674   3.4522   3.9098

          k =-0.3750 1.1250-0.3750 (   757 PWs)   bands (ev):

    -2.9039  -0.5137   2.1425   4.2275

          k =-0.3750 1.6250-0.3750 (   763 PWs)   bands (ev):

    -4.1203   0.1847   5.0184   5.0184

          k =-0.3750-1.1250-0.3750 (   757 PWs)   bands (ev):

    -2.9039  -0.5137   2.1425   4.2275

          k =-0.3750-0.6250-0.3750 (   759 PWs)   bands (ev):

    -3.4042  -0.6102   3.8329   4.5482

     highest occupied level (ev):     5.8114

     Writing output data file silicon.10.294.save

                                                                                

     bravais-lattice index     =            2
     lattice parameter (alat)  =      10.2940  a.u.
     unit-cell volume          =     272.7046 (a.u.)^3
     number of atoms/cell      =            2
     number of atomic types    =            1
     kinetic-energy cut-off    =      30.0000  Ry
     charge density cut-off    =     240.0000  Ry
     convergence threshold     =      1.0E-12
     beta                      =       0.7000
     number of iterations used =            4
     Exchange-correlation      = SLA  PW   PBE  PBE ( 1  4  3  4 0 0)


     celldm(1)=   10.29400  celldm(2)=    0.00000  celldm(3)=    0.00000
     celldm(4)=    0.00000  celldm(5)=    0.00000  celldm(6)=    0.00000

     crystal axes: (cart. coord. in units of alat)
               a(1) = ( -0.5000  0.0000  0.5000 )  
               a(2) = (  0.0000  0.5000  0.5000 )  
               a(3) = ( -0.5000  0.5000  0.0000 )  

     reciprocal axes: (cart. coord. in units 2 pi/alat)
               b(1) = ( -1.0000 -1.0000  1.0000 )  
               b(2) = (  1.0000  1.0000  1.0000 )  
               b(3) = ( -1.0000  1.0000 -1.0000 )  


     Atoms inside the unit cell: 

     Cartesian axes

     site n.  atom      mass           positions (alat units)
        1     Si  28.0860   tau(    1) = (    0.00000    0.00000    0.00000  )
        2     Si  28.0860   tau(    2) = (    0.25000    0.25000    0.25000  )

     Computing dynamical matrix for 
                    q = (   0.0000000   0.5000000   0.0000000 )

      8 Sym.Ops. (no q -> -q+G )


     G cutoff =  644.1987  (   4288 G-vectors)     FFT grid: ( 36, 36, 36)
     G cutoff =  322.0993  (   1496 G-vectors)  smooth grid: ( 25, 25, 25)
     number of k points=    80

     PseudoPot. # 1 for Si read from file:
     /home/s1333534/quantum_espresso/qe-6.1/pseudo/si_pbe_v1.uspp.F.UPF.txt
     MD5 check sum: a056efeee980c13900f22a371efd63c1
     Pseudo is Ultrasoft + core correction, Zval =  4.0
     Generated by new atomic code, or converted to UPF format
     Using radial grid of  899 points,  6 beta functions with: 
                l(1) =   0
                l(2) =   0
                l(3) =   1
                l(4) =   1
                l(5) =   2
                l(6) =   2
     Q(r) pseudized with  8 coefficients,  rinner =    0.900   0.900   0.900
                                                       0.900   0.900

     Mode symmetry, C_4v (4mm)  point group:


     Atomic displacements:
     There are   4 irreducible representations

     Representation     1      1 modes -A_1  G_1 D_1  To be done

     Representation     2      1 modes -B_2  G_4 D_2'  To be done

     Representation     3      2 modes -E    G_5 D_5  To be done

     Representation     4      2 modes -E    G_5 D_5  To be done



     Alpha used in Ewald sum =   2.5000
     PHONON       :    37.10s CPU        47.15s WALL



     Representation #  1 mode #   1

     Self-consistent Calculation

      iter #   1 total cpu time :    47.5 secs   av.it.:   6.2
      thresh= 1.000E-02 alpha_mix =  0.700 |ddv_scf|^2 =  5.182E-04

      iter #   2 total cpu time :    48.0 secs   av.it.:   9.2
      thresh= 2.276E-03 alpha_mix =  0.700 |ddv_scf|^2 =  6.842E-03

      iter #   3 total cpu time :    48.4 secs   av.it.:   7.3
      thresh= 8.272E-03 alpha_mix =  0.700 |ddv_scf|^2 =  1.047E-08

      iter #   4 total cpu time :    48.9 secs   av.it.:  10.1
      thresh= 1.023E-05 alpha_mix =  0.700 |ddv_scf|^2 =  9.843E-10

      iter #   5 total cpu time :    49.3 secs   av.it.:   9.6
      thresh= 3.137E-06 alpha_mix =  0.700 |ddv_scf|^2 =  1.166E-10

      iter #   6 total cpu time :    49.8 secs   av.it.:   9.3
      thresh= 1.080E-06 alpha_mix =  0.700 |ddv_scf|^2 =  3.462E-13

     End of self-consistent calculation

     Convergence has been achieved 


     Representation #  2 mode #   2

     Self-consistent Calculation

      iter #   1 total cpu time :    50.2 secs   av.it.:   5.1
      thresh= 1.000E-02 alpha_mix =  0.700 |ddv_scf|^2 =  8.141E-07

      iter #   2 total cpu time :    50.7 secs   av.it.:  10.4
      thresh= 9.023E-05 alpha_mix =  0.700 |ddv_scf|^2 =  2.191E-07

      iter #   3 total cpu time :    51.2 secs   av.it.:   9.9
      thresh= 4.681E-05 alpha_mix =  0.700 |ddv_scf|^2 =  2.222E-09

      iter #   4 total cpu time :    51.7 secs   av.it.:  10.1
      thresh= 4.714E-06 alpha_mix =  0.700 |ddv_scf|^2 =  8.496E-11

      iter #   5 total cpu time :    52.1 secs   av.it.:  10.3
      thresh= 9.217E-07 alpha_mix =  0.700 |ddv_scf|^2 =  5.146E-13

     End of self-consistent calculation

     Convergence has been achieved 


     Representation #  3 modes #   3  4

     Self-consistent Calculation

      iter #   1 total cpu time :    52.8 secs   av.it.:   5.2
      thresh= 1.000E-02 alpha_mix =  0.700 |ddv_scf|^2 =  1.445E-07

      iter #   2 total cpu time :    53.8 secs   av.it.:  11.5
      thresh= 3.801E-05 alpha_mix =  0.700 |ddv_scf|^2 =  1.990E-08

      iter #   3 total cpu time :    54.7 secs   av.it.:  11.1
      thresh= 1.411E-05 alpha_mix =  0.700 |ddv_scf|^2 =  3.354E-10

      iter #   4 total cpu time :    55.5 secs   av.it.:  10.7
      thresh= 1.831E-06 alpha_mix =  0.700 |ddv_scf|^2 =  7.762E-13

     End of self-consistent calculation

     Convergence has been achieved 


     Representation #  4 modes #   5  6

     Self-consistent Calculation

      iter #   1 total cpu time :    56.3 secs   av.it.:   5.3
      thresh= 1.000E-02 alpha_mix =  0.700 |ddv_scf|^2 =  1.325E-07

      iter #   2 total cpu time :    57.2 secs   av.it.:  11.4
      thresh= 3.640E-05 alpha_mix =  0.700 |ddv_scf|^2 =  1.775E-08

      iter #   3 total cpu time :    58.1 secs   av.it.:  11.2
      thresh= 1.332E-05 alpha_mix =  0.700 |ddv_scf|^2 =  3.438E-10

      iter #   4 total cpu time :    59.0 secs   av.it.:  11.0
      thresh= 1.854E-06 alpha_mix =  0.700 |ddv_scf|^2 =  8.369E-13

     End of self-consistent calculation

     Convergence has been achieved 

     Number of q in the star =    6
     List of q in the star:
          1   0.000000000   0.500000000   0.000000000
          2   0.000000000  -0.500000000   0.000000000
          3   0.500000000   0.000000000   0.000000000
          4   0.000000000   0.000000000   0.500000000
          5   0.000000000   0.000000000  -0.500000000
          6  -0.500000000   0.000000000   0.000000000

     Diagonalizing the dynamical matrix

     q = (    0.000000000   0.500000000   0.000000000 ) 

 **************************************************************************
     freq (    1) =       3.743157 [THz] =     124.858286 [cm-1]
     freq (    2) =       3.743157 [THz] =     124.858286 [cm-1]
     freq (    3) =       7.145931 [THz] =     238.362609 [cm-1]
     freq (    4) =      14.024692 [THz] =     467.813383 [cm-1]
     freq (    5) =      14.024692 [THz] =     467.813383 [cm-1]
     freq (    6) =      14.619791 [THz] =     487.663739 [cm-1]
 **************************************************************************

     Mode symmetry, C_4v (4mm)  point group:

     freq (  1 -  2) =        124.9  [cm-1]   --> E    G_5 D_5       
     freq (  3 -  3) =        238.4  [cm-1]   --> A_1  G_1 D_1       
     freq (  4 -  5) =        467.8  [cm-1]   --> E    G_5 D_5       
     freq (  6 -  6) =        487.7  [cm-1]   --> B_2  G_4 D_2'      

     Calculation of q =    0.7500000  -0.2500000   0.7500000

   Info: using nr1, nr2, nr3 values from input

   Info: using nr1, nr2, nr3 values from input

     Parallelization info
     --------------------
     sticks:   dense  smooth     PW     G-vecs:    dense   smooth      PW
     Min         217     108     40                 4287     1495     362
     Max         218     109     41                 4289     1498     366
     Sum         871     433    163                17153     5985    1459



     bravais-lattice index     =            2
     lattice parameter (alat)  =      10.2940  a.u.
     unit-cell volume          =     272.7046 (a.u.)^3
     number of atoms/cell      =            2
     number of atomic types    =            1
     number of electrons       =         8.00
     number of Kohn-Sham states=            4
     kinetic-energy cutoff     =      30.0000  Ry
     charge density cutoff     =     240.0000  Ry
     Exchange-correlation      = SLA  PW   PBE  PBE ( 1  4  3  4 0 0)

     celldm(1)=  10.294000  celldm(2)=   0.000000  celldm(3)=   0.000000
     celldm(4)=   0.000000  celldm(5)=   0.000000  celldm(6)=   0.000000

     crystal axes: (cart. coord. in units of alat)
               a(1) = (  -0.500000   0.000000   0.500000 )  
               a(2) = (   0.000000   0.500000   0.500000 )  
               a(3) = (  -0.500000   0.500000   0.000000 )  

     reciprocal axes: (cart. coord. in units 2 pi/alat)
               b(1) = ( -1.000000 -1.000000  1.000000 )  
               b(2) = (  1.000000  1.000000  1.000000 )  
               b(3) = ( -1.000000  1.000000 -1.000000 )  


     PseudoPot. # 1 for Si read from file:
     /home/s1333534/quantum_espresso/qe-6.1/pseudo/si_pbe_v1.uspp.F.UPF.txt
     MD5 check sum: a056efeee980c13900f22a371efd63c1
     Pseudo is Ultrasoft + core correction, Zval =  4.0
     Generated by new atomic code, or converted to UPF format
     Using radial grid of  899 points,  6 beta functions with: 
                l(1) =   0
                l(2) =   0
                l(3) =   1
                l(4) =   1
                l(5) =   2
                l(6) =   2
     Q(r) pseudized with  8 coefficients,  rinner =    0.900   0.900   0.900
                                                       0.900   0.900

     atomic species   valence    mass     pseudopotential
        Si             4.00    28.08600     Si( 1.00)

     48 Sym. Ops., with inversion, found



   Cartesian axes

     site n.     atom                  positions (alat units)
         1           Si  tau(   1) = (   0.0000000   0.0000000   0.0000000  )
         2           Si  tau(   2) = (   0.2500000   0.2500000   0.2500000  )

     number of k points=   288

     Number of k-points >= 100: set verbosity='high' to print them.

     Dense  grid:    17153 G-vectors     FFT dimensions: (  36,  36,  36)

     Smooth grid:     5985 G-vectors     FFT dimensions: (  25,  25,  25)

     Estimated max dynamical RAM per process >       1.51MB

     Estimated total allocated dynamical RAM >       6.05MB

     The potential is recalculated from file :
     ./_ph0/silicon.10.294.save/charge-density.dat

     Starting wfc are    8 atomic wfcs

     Band Structure Calculation
     Davidson diagonalization with overlap

     ethr =  1.25E-10,  avg # of iterations = 12.1

     total cpu time spent up to now is        6.7 secs

     End of band structure calculation

     Number of k-points >= 100: set verbosity='high' to print the bands.

     highest occupied level (ev):     5.8114

     Writing output data file silicon.10.294.save

                                                                                

     bravais-lattice index     =            2
     lattice parameter (alat)  =      10.2940  a.u.
     unit-cell volume          =     272.7046 (a.u.)^3
     number of atoms/cell      =            2
     number of atomic types    =            1
     kinetic-energy cut-off    =      30.0000  Ry
     charge density cut-off    =     240.0000  Ry
     convergence threshold     =      1.0E-12
     beta                      =       0.7000
     number of iterations used =            4
     Exchange-correlation      = SLA  PW   PBE  PBE ( 1  4  3  4 0 0)


     celldm(1)=   10.29400  celldm(2)=    0.00000  celldm(3)=    0.00000
     celldm(4)=    0.00000  celldm(5)=    0.00000  celldm(6)=    0.00000

     crystal axes: (cart. coord. in units of alat)
               a(1) = ( -0.5000  0.0000  0.5000 )  
               a(2) = (  0.0000  0.5000  0.5000 )  
               a(3) = ( -0.5000  0.5000  0.0000 )  

     reciprocal axes: (cart. coord. in units 2 pi/alat)
               b(1) = ( -1.0000 -1.0000  1.0000 )  
               b(2) = (  1.0000  1.0000  1.0000 )  
               b(3) = ( -1.0000  1.0000 -1.0000 )  


     Atoms inside the unit cell: 

     Cartesian axes

     site n.  atom      mass           positions (alat units)
        1     Si  28.0860   tau(    1) = (    0.00000    0.00000    0.00000  )
        2     Si  28.0860   tau(    2) = (    0.25000    0.25000    0.25000  )

     Computing dynamical matrix for 
                    q = (   0.7500000  -0.2500000   0.7500000 )

      2 Sym.Ops. (no q -> -q+G )


     G cutoff =  644.1987  (   4288 G-vectors)     FFT grid: ( 36, 36, 36)
     G cutoff =  322.0993  (   1497 G-vectors)  smooth grid: ( 25, 25, 25)
     number of k points=   288

     PseudoPot. # 1 for Si read from file:
     /home/s1333534/quantum_espresso/qe-6.1/pseudo/si_pbe_v1.uspp.F.UPF.txt
     MD5 check sum: a056efeee980c13900f22a371efd63c1
     Pseudo is Ultrasoft + core correction, Zval =  4.0
     Generated by new atomic code, or converted to UPF format
     Using radial grid of  899 points,  6 beta functions with: 
                l(1) =   0
                l(2) =   0
                l(3) =   1
                l(4) =   1
                l(5) =   2
                l(6) =   2
     Q(r) pseudized with  8 coefficients,  rinner =    0.900   0.900   0.900
                                                       0.900   0.900

     Mode symmetry, C_s (m)     point group:


     Atomic displacements:
     There are   6 irreducible representations

     Representation     1      1 modes -A'  To be done

     Representation     2      1 modes -A'  To be done

     Representation     3      1 modes -A'  To be done

     Representation     4      1 modes -A'  To be done

     Representation     5      1 modes -A''  To be done

     Representation     6      1 modes -A''  To be done



     Alpha used in Ewald sum =   2.5000
     PHONON       :  0m50.83s CPU     1m 4.31s WALL



     Representation #  1 mode #   1

     Self-consistent Calculation

      iter #   1 total cpu time :    65.2 secs   av.it.:   5.7
      thresh= 1.000E-02 alpha_mix =  0.700 |ddv_scf|^2 =  1.056E-05

      iter #   2 total cpu time :    66.6 secs   av.it.:  10.6
      thresh= 3.249E-04 alpha_mix =  0.700 |ddv_scf|^2 =  2.803E-05

      iter #   3 total cpu time :    67.8 secs   av.it.:   9.2
      thresh= 5.294E-04 alpha_mix =  0.700 |ddv_scf|^2 =  1.884E-07

      iter #   4 total cpu time :    69.2 secs   av.it.:   9.9
      thresh= 4.340E-05 alpha_mix =  0.700 |ddv_scf|^2 =  3.687E-09

      iter #   5 total cpu time :    70.8 secs   av.it.:  10.4
      thresh= 6.072E-06 alpha_mix =  0.700 |ddv_scf|^2 =  6.401E-10

      iter #   6 total cpu time :    72.3 secs   av.it.:  10.4
      thresh= 2.530E-06 alpha_mix =  0.700 |ddv_scf|^2 =  9.323E-12

      iter #   7 total cpu time :    73.8 secs   av.it.:  10.6
      thresh= 3.053E-07 alpha_mix =  0.700 |ddv_scf|^2 =  3.456E-13

     End of self-consistent calculation

     Convergence has been achieved 


     Representation #  2 mode #   2

     Self-consistent Calculation

      iter #   1 total cpu time :    75.2 secs   av.it.:   5.8
      thresh= 1.000E-02 alpha_mix =  0.700 |ddv_scf|^2 =  1.894E-05

      iter #   2 total cpu time :    76.7 secs   av.it.:  10.4
      thresh= 4.352E-04 alpha_mix =  0.700 |ddv_scf|^2 =  5.468E-05

      iter #   3 total cpu time :    78.2 secs   av.it.:   9.0
      thresh= 7.394E-04 alpha_mix =  0.700 |ddv_scf|^2 =  1.256E-07

      iter #   4 total cpu time :    80.0 secs   av.it.:  10.2
      thresh= 3.543E-05 alpha_mix =  0.700 |ddv_scf|^2 =  4.161E-09

      iter #   5 total cpu time :    81.5 secs   av.it.:  10.4
      thresh= 6.451E-06 alpha_mix =  0.700 |ddv_scf|^2 =  8.490E-10

      iter #   6 total cpu time :    82.9 secs   av.it.:  10.3
      thresh= 2.914E-06 alpha_mix =  0.700 |ddv_scf|^2 =  8.697E-12

      iter #   7 total cpu time :    84.8 secs   av.it.:  10.6
      thresh= 2.949E-07 alpha_mix =  0.700 |ddv_scf|^2 =  3.016E-13

     End of self-consistent calculation

     Convergence has been achieved 


     Representation #  3 mode #   3

     Self-consistent Calculation

      iter #   1 total cpu time :    86.6 secs   av.it.:   5.7
      thresh= 1.000E-02 alpha_mix =  0.700 |ddv_scf|^2 =  1.485E-05

      iter #   2 total cpu time :    88.4 secs   av.it.:  10.4
      thresh= 3.853E-04 alpha_mix =  0.700 |ddv_scf|^2 =  4.029E-05

      iter #   3 total cpu time :    89.9 secs   av.it.:   9.0
      thresh= 6.347E-04 alpha_mix =  0.700 |ddv_scf|^2 =  2.196E-07

      iter #   4 total cpu time :    91.8 secs   av.it.:  10.0
      thresh= 4.687E-05 alpha_mix =  0.700 |ddv_scf|^2 =  4.241E-09

      iter #   5 total cpu time :    93.4 secs   av.it.:  10.4
      thresh= 6.512E-06 alpha_mix =  0.700 |ddv_scf|^2 =  8.265E-10

      iter #   6 total cpu time :    94.8 secs   av.it.:  10.3
      thresh= 2.875E-06 alpha_mix =  0.700 |ddv_scf|^2 =  6.073E-12

      iter #   7 total cpu time :    96.2 secs   av.it.:  10.5
      thresh= 2.464E-07 alpha_mix =  0.700 |ddv_scf|^2 =  1.768E-13

     End of self-consistent calculation

     Convergence has been achieved 


     Representation #  4 mode #   4

     Self-consistent Calculation

      iter #   1 total cpu time :    97.6 secs   av.it.:   5.5
      thresh= 1.000E-02 alpha_mix =  0.700 |ddv_scf|^2 =  6.460E-06

      iter #   2 total cpu time :    99.8 secs   av.it.:  10.7
      thresh= 2.542E-04 alpha_mix =  0.700 |ddv_scf|^2 =  1.362E-05

      iter #   3 total cpu time :   101.1 secs   av.it.:   9.4
      thresh= 3.690E-04 alpha_mix =  0.700 |ddv_scf|^2 =  2.951E-07

      iter #   4 total cpu time :   102.6 secs   av.it.:   9.8
      thresh= 5.432E-05 alpha_mix =  0.700 |ddv_scf|^2 =  3.633E-09

      iter #   5 total cpu time :   104.1 secs   av.it.:  10.5
      thresh= 6.028E-06 alpha_mix =  0.700 |ddv_scf|^2 =  6.802E-10

      iter #   6 total cpu time :   105.7 secs   av.it.:  10.4
      thresh= 2.608E-06 alpha_mix =  0.700 |ddv_scf|^2 =  3.958E-12

      iter #   7 total cpu time :   107.0 secs   av.it.:  10.7
      thresh= 1.990E-07 alpha_mix =  0.700 |ddv_scf|^2 =  1.786E-13

     End of self-consistent calculation

     Convergence has been achieved 


     Representation #  5 mode #   5

     Self-consistent Calculation

      iter #   1 total cpu time :   108.0 secs   av.it.:   5.2
      thresh= 1.000E-02 alpha_mix =  0.700 |ddv_scf|^2 =  6.683E-07

      iter #   2 total cpu time :   109.3 secs   av.it.:  10.4
      thresh= 8.175E-05 alpha_mix =  0.700 |ddv_scf|^2 =  1.089E-07

      iter #   3 total cpu time :   110.7 secs   av.it.:  10.1
      thresh= 3.300E-05 alpha_mix =  0.700 |ddv_scf|^2 =  1.454E-09

      iter #   4 total cpu time :   112.0 secs   av.it.:   9.6
      thresh= 3.813E-06 alpha_mix =  0.700 |ddv_scf|^2 =  3.360E-12

      iter #   5 total cpu time :   113.3 secs   av.it.:  10.0
      thresh= 1.833E-07 alpha_mix =  0.700 |ddv_scf|^2 =  9.386E-14

     End of self-consistent calculation

     Convergence has been achieved 


     Representation #  6 mode #   6

     Self-consistent Calculation

      iter #   1 total cpu time :   114.4 secs   av.it.:   5.2
      thresh= 1.000E-02 alpha_mix =  0.700 |ddv_scf|^2 =  6.683E-07

      iter #   2 total cpu time :   115.7 secs   av.it.:  10.4
[...]
        k(   59) = (  -0.8750000   0.1250000  -0.1250000), wk =   0.0625000
        k(   60) = (  -1.3750000  -0.8750000  -0.1250000), wk =   0.0000000
        k(   61) = (  -1.1250000   0.3750000  -0.3750000), wk =   0.0625000
        k(   62) = (  -1.6250000  -0.6250000  -0.3750000), wk =   0.0000000
        k(   63) = (  -0.3750000   0.3750000   1.1250000), wk =   0.0625000
        k(   64) = (  -0.8750000  -0.6250000   1.1250000), wk =   0.0000000

     Dense  grid:    17153 G-vectors     FFT dimensions: (  36,  36,  36)

     Smooth grid:     5985 G-vectors     FFT dimensions: (  25,  25,  25)

     Estimated max dynamical RAM per process >       1.51MB

     Estimated total allocated dynamical RAM >       6.05MB

     The potential is recalculated from file :
     ./_ph0/silicon.10.294.save/charge-density.dat

     Starting wfc are    8 atomic wfcs

     Band Structure Calculation
     Davidson diagonalization with overlap

     ethr =  1.25E-10,  avg # of iterations = 12.1

     total cpu time spent up to now is       10.7 secs

     End of band structure calculation

          k =-0.1250 0.1250 0.1250 (   746 PWs)   bands (ev):

    -5.5957   4.5024   5.8114   5.8114

          k =-0.6250-0.8750 0.1250 (   751 PWs)   bands (ev):

    -2.3623  -0.8102   2.0794   3.1684

          k =-0.3750 0.3750-0.1250 (   757 PWs)   bands (ev):

    -4.5587   1.4916   3.8068   5.3285

          k =-0.8750-0.6250-0.1250 (   751 PWs)   bands (ev):

    -2.3623  -0.8102   2.0794   3.1684

          k = 0.3750-0.3750 0.6250 (   759 PWs)   bands (ev):

    -3.4042  -0.6102   3.8329   4.5482

          k =-0.1250-1.3750 0.6250 (   757 PWs)   bands (ev):

    -2.9039  -0.5137   2.1425   4.2275

          k = 0.1250-0.1250 0.3750 (   765 PWs)   bands (ev):

    -5.0627   2.8813   4.7921   4.8626

          k =-0.3750-1.1250 0.3750 (   757 PWs)   bands (ev):

    -2.9039  -0.5137   2.1425   4.2275

          k =-0.1250 0.6250 0.1250 (   760 PWs)   bands (ev):

    -4.0212   1.1674   3.4522   3.9098

          k =-0.6250-0.3750 0.1250 (   756 PWs)   bands (ev):

    -3.6003   0.2797   2.8059   4.1868

          k = 0.6250-0.1250 0.8750 (   751 PWs)   bands (ev):

    -2.3623  -0.8102   2.0794   3.1684

          k = 0.1250-1.1250 0.8750 (   757 PWs)   bands (ev):

    -2.5344  -0.7105   2.6969   3.4388

          k = 0.3750 0.1250 0.6250 (   756 PWs)   bands (ev):

    -3.6003   0.2797   2.8059   4.1868

          k =-0.1250-0.8750 0.6250 (   751 PWs)   bands (ev):

    -2.3623  -0.8102   2.0794   3.1684

          k =-0.1250-0.8750 0.1250 (   757 PWs)   bands (ev):

    -2.5344  -0.7105   2.6969   3.4388

          k =-0.6250-1.8750 0.1250 (   760 PWs)   bands (ev):

    -4.0212   1.1674   3.4522   3.9098

          k =-0.3750 0.3750 0.3750 (   763 PWs)   bands (ev):

    -4.1203   0.1847   5.0184   5.0184

          k =-0.8750-0.6250 0.3750 (   756 PWs)   bands (ev):

    -3.6003   0.2797   2.8059   4.1868

          k = 0.3750-0.3750 1.1250 (   757 PWs)   bands (ev):

    -2.9039  -0.5137   2.1425   4.2275

          k =-0.1250-1.3750 1.1250 (   751 PWs)   bands (ev):

    -2.3623  -0.8102   2.0794   3.1684

          k = 0.1250-0.3750 0.3750 (   757 PWs)   bands (ev):

    -4.5587   1.4916   3.8068   5.3285

          k =-0.3750-1.3750 0.3750 (   759 PWs)   bands (ev):

    -3.4042  -0.6102   3.8329   4.5482

          k = 0.3750-0.3750-0.1250 (   757 PWs)   bands (ev):

    -4.5587   1.4916   3.8068   5.3285

          k =-0.1250-1.3750-0.1250 (   760 PWs)   bands (ev):

    -4.0212   1.1674   3.4522   3.9098

          k =-0.6250 0.3750-0.3750 (   759 PWs)   bands (ev):

    -3.4042  -0.6102   3.8329   4.5482

          k =-1.1250-0.6250-0.3750 (   756 PWs)   bands (ev):

    -3.6003   0.2797   2.8059   4.1868

          k =-0.3750 0.3750 0.6250 (   759 PWs)   bands (ev):

    -3.4042  -0.6102   3.8329   4.5482

          k =-0.8750-0.6250 0.6250 (   757 PWs)   bands (ev):

    -4.5587   1.4916   3.8068   5.3285

          k =-0.3750 0.1250-0.1250 (   765 PWs)   bands (ev):

    -5.0627   2.8813   4.7921   4.8626

          k =-0.8750-0.8750-0.1250 (   757 PWs)   bands (ev):

    -2.5344  -0.7105   2.6969   3.4388

          k =-0.1250 0.1250 0.3750 (   765 PWs)   bands (ev):

    -5.0627   2.8813   4.7921   4.8626

          k =-0.6250-0.8750 0.3750 (   756 PWs)   bands (ev):

    -3.6003   0.2797   2.8059   4.1868

          k = 0.1250 0.6250-0.1250 (   760 PWs)   bands (ev):

    -4.0212   1.1674   3.4522   3.9098

          k =-0.3750-0.3750-0.1250 (   757 PWs)   bands (ev):

    -4.5587   1.4916   3.8068   5.3285

          k = 0.6250 0.1250-0.1250 (   760 PWs)   bands (ev):

    -4.0212   1.1674   3.4522   3.9098

          k = 0.1250-0.8750-0.1250 (   757 PWs)   bands (ev):

    -2.5344  -0.7105   2.6969   3.4388

          k =-0.8750 0.1250-0.6250 (   751 PWs)   bands (ev):

    -2.3623  -0.8102   2.0794   3.1684

          k =-1.3750-0.8750-0.6250 (   757 PWs)   bands (ev):

    -4.5587   1.4916   3.8068   5.3285

          k = 0.8750-0.1250 0.6250 (   751 PWs)   bands (ev):

    -2.3623  -0.8102   2.0794   3.1684

          k = 0.3750-1.1250 0.6250 (   756 PWs)   bands (ev):

    -3.6003   0.2797   2.8059   4.1868

          k =-0.6250 0.1250 0.8750 (   751 PWs)   bands (ev):

    -2.3623  -0.8102   2.0794   3.1684

          k =-1.1250-0.8750 0.8750 (   746 PWs)   bands (ev):

    -5.5957   4.5024   5.8114   5.8114

          k =-0.1250 0.8750 0.6250 (   751 PWs)   bands (ev):

    -2.3623  -0.8102   2.0794   3.1684

          k =-0.6250-0.1250 0.6250 (   757 PWs)   bands (ev):

    -2.9039  -0.5137   2.1425   4.2275

          k = 0.1250 0.8750-0.6250 (   751 PWs)   bands (ev):

    -2.3623  -0.8102   2.0794   3.1684

          k =-0.3750-0.1250-0.6250 (   756 PWs)   bands (ev):

    -3.6003   0.2797   2.8059   4.1868

          k =-0.6250-0.1250-0.3750 (   756 PWs)   bands (ev):

    -3.6003   0.2797   2.8059   4.1868

          k =-1.1250-1.1250-0.3750 (   760 PWs)   bands (ev):

    -4.0212   1.1674   3.4522   3.9098

          k = 0.6250 0.1250 0.3750 (   756 PWs)   bands (ev):

    -3.6003   0.2797   2.8059   4.1868

          k = 0.1250-0.8750 0.3750 (   751 PWs)   bands (ev):

    -2.3623  -0.8102   2.0794   3.1684

          k =-0.3750-0.1250 0.6250 (   756 PWs)   bands (ev):

    -3.6003   0.2797   2.8059   4.1868

          k =-0.8750-1.1250 0.6250 (   765 PWs)   bands (ev):

    -5.0627   2.8813   4.7921   4.8626

          k = 0.1250 0.6250 0.3750 (   756 PWs)   bands (ev):

    -3.6003   0.2797   2.8059   4.1868

          k =-0.3750-0.3750 0.3750 (   763 PWs)   bands (ev):

    -4.1203   0.1847   5.0184   5.0184

          k =-0.1250 0.6250-0.3750 (   756 PWs)   bands (ev):

    -3.6003   0.2797   2.8059   4.1868

          k =-0.6250-0.3750-0.3750 (   759 PWs)   bands (ev):

    -3.4042  -0.6102   3.8329   4.5482

          k = 0.1250-0.8750-0.1250 (   757 PWs)   bands (ev):

    -2.5344  -0.7105   2.6969   3.4388

          k =-0.3750-1.8750-0.1250 (   765 PWs)   bands (ev):

    -5.0627   2.8813   4.7921   4.8626

          k =-0.8750 0.1250-0.1250 (   757 PWs)   bands (ev):

    -2.5344  -0.7105   2.6969   3.4388

          k =-1.3750-0.8750-0.1250 (   751 PWs)   bands (ev):

    -2.3623  -0.8102   2.0794   3.1684

          k =-1.1250 0.3750-0.3750 (   757 PWs)   bands (ev):

    -2.9039  -0.5137   2.1425   4.2275

          k =-1.6250-0.6250-0.3750 (   759 PWs)   bands (ev):

    -3.4042  -0.6102   3.8329   4.5482

          k =-0.3750 0.3750 1.1250 (   757 PWs)   bands (ev):

    -2.9039  -0.5137   2.1425   4.2275

          k =-0.8750-0.6250 1.1250 (   765 PWs)   bands (ev):

    -5.0627   2.8813   4.7921   4.8626

     highest occupied level (ev):     5.8114

     Writing output data file silicon.10.294.save

                                                                                

     bravais-lattice index     =            2
     lattice parameter (alat)  =      10.2940  a.u.
     unit-cell volume          =     272.7046 (a.u.)^3
     number of atoms/cell      =            2
     number of atomic types    =            1
     kinetic-energy cut-off    =      30.0000  Ry
     charge density cut-off    =     240.0000  Ry
     convergence threshold     =      1.0E-12
     beta                      =       0.7000
     number of iterations used =            4
     Exchange-correlation      = SLA  PW   PBE  PBE ( 1  4  3  4 0 0)


     celldm(1)=   10.29400  celldm(2)=    0.00000  celldm(3)=    0.00000
     celldm(4)=    0.00000  celldm(5)=    0.00000  celldm(6)=    0.00000

     crystal axes: (cart. coord. in units of alat)
               a(1) = ( -0.5000  0.0000  0.5000 )  
               a(2) = (  0.0000  0.5000  0.5000 )  
               a(3) = ( -0.5000  0.5000  0.0000 )  

     reciprocal axes: (cart. coord. in units 2 pi/alat)
               b(1) = ( -1.0000 -1.0000  1.0000 )  
               b(2) = (  1.0000  1.0000  1.0000 )  
               b(3) = ( -1.0000  1.0000 -1.0000 )  


     Atoms inside the unit cell: 

     Cartesian axes

     site n.  atom      mass           positions (alat units)
        1     Si  28.0860   tau(    1) = (    0.00000    0.00000    0.00000  )
        2     Si  28.0860   tau(    2) = (    0.25000    0.25000    0.25000  )

     Computing dynamical matrix for 
                    q = (  -0.5000000  -1.0000000   0.0000000 )

      8 Sym.Ops. (no q -> -q+G )


     G cutoff =  644.1987  (   4288 G-vectors)     FFT grid: ( 36, 36, 36)
     G cutoff =  322.0993  (   1497 G-vectors)  smooth grid: ( 25, 25, 25)
     number of k points=    64

     PseudoPot. # 1 for Si read from file:
     /home/s1333534/quantum_espresso/qe-6.1/pseudo/si_pbe_v1.uspp.F.UPF.txt
     MD5 check sum: a056efeee980c13900f22a371efd63c1
     Pseudo is Ultrasoft + core correction, Zval =  4.0
     Generated by new atomic code, or converted to UPF format
     Using radial grid of  899 points,  6 beta functions with: 
                l(1) =   0
                l(2) =   0
                l(3) =   1
                l(4) =   1
                l(5) =   2
                l(6) =   2
     Q(r) pseudized with  8 coefficients,  rinner =    0.900   0.900   0.900
                                                       0.900   0.900


     Atomic displacements:
     There are   3 irreducible representations

     Representation     1      2 modes -  To be done

     Representation     2      2 modes -  To be done

     Representation     3      2 modes -  To be done



     Alpha used in Ewald sum =   2.5000
     PHONON       :  2m 2.10s CPU     2m38.39s WALL



     Representation #  1 modes #   1  2

     Self-consistent Calculation

      iter #   1 total cpu time :   159.1 secs   av.it.:   5.7
      thresh= 1.000E-02 alpha_mix =  0.700 |ddv_scf|^2 =  1.094E-06

      iter #   2 total cpu time :   159.9 secs   av.it.:  11.6
      thresh= 1.046E-04 alpha_mix =  0.700 |ddv_scf|^2 =  6.206E-07

      iter #   3 total cpu time :   160.7 secs   av.it.:  11.1
      thresh= 7.878E-05 alpha_mix =  0.700 |ddv_scf|^2 =  5.914E-10

      iter #   4 total cpu time :   161.5 secs   av.it.:  11.0
      thresh= 2.432E-06 alpha_mix =  0.700 |ddv_scf|^2 =  2.628E-12

      iter #   5 total cpu time :   162.3 secs   av.it.:  11.1
      thresh= 1.621E-07 alpha_mix =  0.700 |ddv_scf|^2 =  6.920E-14

     End of self-consistent calculation

     Convergence has been achieved 


     Representation #  2 modes #   3  4

     Self-consistent Calculation

      iter #   1 total cpu time :   163.0 secs   av.it.:   5.6
      thresh= 1.000E-02 alpha_mix =  0.700 |ddv_scf|^2 =  1.690E-06

      iter #   2 total cpu time :   163.7 secs   av.it.:  11.6
      thresh= 1.300E-04 alpha_mix =  0.700 |ddv_scf|^2 =  2.266E-06

      iter #   3 total cpu time :   164.5 secs   av.it.:  10.9
      thresh= 1.505E-04 alpha_mix =  0.700 |ddv_scf|^2 =  6.966E-10

      iter #   4 total cpu time :   165.3 secs   av.it.:  11.0
      thresh= 2.639E-06 alpha_mix =  0.700 |ddv_scf|^2 =  1.017E-11

      iter #   5 total cpu time :   166.0 secs   av.it.:  11.1
      thresh= 3.190E-07 alpha_mix =  0.700 |ddv_scf|^2 =  1.735E-13

     End of self-consistent calculation

     Convergence has been achieved 


     Representation #  3 modes #   5  6

     Self-consistent Calculation

      iter #   1 total cpu time :   166.7 secs   av.it.:   5.3
      thresh= 1.000E-02 alpha_mix =  0.700 |ddv_scf|^2 =  4.443E-07

      iter #   2 total cpu time :   167.5 secs   av.it.:  11.6
      thresh= 6.665E-05 alpha_mix =  0.700 |ddv_scf|^2 =  2.599E-07

      iter #   3 total cpu time :   168.3 secs   av.it.:  11.0
      thresh= 5.098E-05 alpha_mix =  0.700 |ddv_scf|^2 =  5.153E-10

      iter #   4 total cpu time :   169.1 secs   av.it.:  11.0
      thresh= 2.270E-06 alpha_mix =  0.700 |ddv_scf|^2 =  5.949E-12

      iter #   5 total cpu time :   169.8 secs   av.it.:  11.1
      thresh= 2.439E-07 alpha_mix =  0.700 |ddv_scf|^2 =  8.326E-14

     End of self-consistent calculation

     Convergence has been achieved 

     Number of q in the star =    6
     List of q in the star:
          1  -0.500000000  -1.000000000   0.000000000
          2   0.000000000   1.000000000   0.500000000
          3   0.000000000  -1.000000000  -0.500000000
          4   0.500000000   1.000000000   0.000000000
          5  -1.000000000  -0.500000000   0.000000000
          6   0.000000000  -0.500000000  -1.000000000

     Diagonalizing the dynamical matrix

     q = (   -0.500000000  -1.000000000   0.000000000 ) 

 **************************************************************************
     freq (    1) =       5.987030 [THz] =     199.705824 [cm-1]
     freq (    2) =       5.987030 [THz] =     199.705824 [cm-1]
     freq (    3) =      10.464108 [THz] =     349.045082 [cm-1]
     freq (    4) =      10.464108 [THz] =     349.045082 [cm-1]
     freq (    5) =      13.788867 [THz] =     459.947092 [cm-1]
     freq (    6) =      13.788867 [THz] =     459.947092 [cm-1]
 **************************************************************************

     init_run     :      1.25s CPU      1.29s WALL (       7 calls)
     electrons    :      7.17s CPU      7.76s WALL (       7 calls)

     Called by init_run:
     wfcinit      :      0.00s CPU      0.02s WALL (       7 calls)
     potinit      :      0.07s CPU      0.09s WALL (       7 calls)

     Called by electrons:
     c_bands      :      7.17s CPU      7.76s WALL (       7 calls)
     v_of_rho     :      0.06s CPU      0.07s WALL (       8 calls)
     newd         :      0.12s CPU      0.12s WALL (       8 calls)

     Called by c_bands:
     init_us_2    :      1.63s CPU      1.56s WALL (   16040 calls)
     cegterg      :      6.00s CPU      6.47s WALL (     796 calls)

     Called by sum_band:

     Called by *egterg:
     h_psi        :     68.28s CPU     73.28s WALL (  154437 calls)
     s_psi        :      5.66s CPU      6.94s WALL (  311276 calls)
     g_psi        :      0.05s CPU      0.07s WALL (    9666 calls)
     cdiaghg      :      0.57s CPU      0.56s WALL (   10462 calls)

     Called by h_psi:
     h_psi:pot    :     67.88s CPU     72.77s WALL (  154437 calls)
     h_psi:calbec :      3.46s CPU      3.97s WALL (  154437 calls)
     vloc_psi     :     59.81s CPU     64.65s WALL (  154437 calls)
     add_vuspsi   :      4.28s CPU      3.66s WALL (  154437 calls)

     General routines
     calbec       :      8.02s CPU      8.43s WALL (  345728 calls)
     fft          :      1.30s CPU      1.35s WALL (    5265 calls)
     ffts         :      0.23s CPU      0.24s WALL (    3320 calls)
     fftw         :     63.23s CPU     67.39s WALL ( 1383556 calls)
     interpolate  :      0.21s CPU      0.22s WALL (     572 calls)
     davcio       :      0.32s CPU      0.92s WALL (   69876 calls)

     Parallel routines
     fft_scatter  :     15.90s CPU     19.37s WALL ( 1392141 calls)

     PHONON       :  2m11.20s CPU     2m50.37s WALL

     INITIALIZATION: 
     phq_setup    :      0.22s CPU      0.39s WALL (       8 calls)
     phq_init     :      6.76s CPU      7.11s WALL (       8 calls)

     phq_init     :      6.76s CPU      7.11s WALL (       8 calls)
     set_drhoc    :      1.82s CPU      1.83s WALL (      24 calls)
     init_vloc    :      0.03s CPU      0.03s WALL (       8 calls)
     init_us_1    :      0.99s CPU      0.99s WALL (       8 calls)
     newd         :      0.12s CPU      0.12s WALL (       8 calls)
     dvanqq       :      1.16s CPU      1.16s WALL (       8 calls)
     drho         :      2.59s CPU      2.67s WALL (       8 calls)

     DYNAMICAL MATRIX:
     dynmat0      :      1.72s CPU      1.87s WALL (       8 calls)
     phqscf       :    111.11s CPU    144.23s WALL (       8 calls)
     dynmatrix    :      0.01s CPU      0.25s WALL (       8 calls)

     phqscf       :    111.11s CPU    144.23s WALL (       8 calls)
     solve_linter :    110.26s CPU    141.12s WALL (      32 calls)
     drhodv       :      0.57s CPU      0.59s WALL (      32 calls)

     dynmat0      :      1.72s CPU      1.87s WALL (       8 calls)
     dynmat_us    :      0.38s CPU      0.38s WALL (       8 calls)
     d2ionq       :      0.04s CPU      0.04s WALL (       8 calls)
     dynmatcc     :      1.29s CPU      1.30s WALL (       8 calls)

     dynmat_us    :      0.38s CPU      0.38s WALL (       8 calls)
     addusdynmat  :      0.00s CPU      0.00s WALL (       8 calls)

     phqscf       :    111.11s CPU    144.23s WALL (       8 calls)
     solve_linter :    110.26s CPU    141.12s WALL (      32 calls)

     solve_linter :    110.26s CPU    141.12s WALL (      32 calls)
     dvqpsi_us    :      2.13s CPU      2.26s WALL (    2508 calls)
     ortho        :      0.94s CPU      1.09s WALL (   13630 calls)
     cgsolve      :     75.71s CPU     82.41s WALL (   13630 calls)
     incdrhoscf   :      6.28s CPU      6.89s WALL (   13630 calls)
     addusddens   :      7.06s CPU      7.13s WALL (     202 calls)
     vpsifft      :      4.48s CPU      4.93s WALL (   11002 calls)
     dv_of_drho   :      1.21s CPU      1.25s WALL (     256 calls)
     mix_pot      :      0.37s CPU     12.04s WALL (     175 calls)
     psymdvscf    :      4.09s CPU      4.13s WALL (     170 calls)
     newdq        :      7.68s CPU      7.72s WALL (     175 calls)
     adddvscf     :      0.44s CPU      0.43s WALL (   11122 calls)
     drhodvus     :      0.01s CPU      0.01s WALL (      32 calls)

     dvqpsi_us    :      2.13s CPU      2.26s WALL (    2508 calls)
     dvqpsi_us_on :      0.90s CPU      0.93s WALL (    2508 calls)

     cgsolve      :     75.71s CPU     82.41s WALL (   13630 calls)
     ch_psi       :     74.59s CPU     80.70s WALL (  143179 calls)

     ch_psi       :     74.59s CPU     80.70s WALL (  143179 calls)
     h_psi        :     68.28s CPU     73.28s WALL (  154437 calls)
     last         :      8.86s CPU      9.00s WALL (  143179 calls)

     h_psi        :     68.28s CPU     73.28s WALL (  154437 calls)
     add_vuspsi   :      4.28s CPU      3.66s WALL (  154437 calls)

     incdrhoscf   :      6.28s CPU      6.89s WALL (   13630 calls)
     addusdbec    :      0.49s CPU      0.53s WALL (   16078 calls)

     drhodvus     :      0.01s CPU      0.01s WALL (      32 calls)

      General routines
     calbec       :      8.02s CPU      8.43s WALL (  345728 calls)
     fft          :      1.30s CPU      1.35s WALL (    5265 calls)
     ffts         :      0.23s CPU      0.24s WALL (    3320 calls)
     fftw         :     63.23s CPU     67.39s WALL ( 1383556 calls)
     davcio       :      0.32s CPU      0.92s WALL (   69876 calls)
     write_rec    :      0.23s CPU     13.74s WALL (     207 calls)


     PHONON       :  2m11.20s CPU     2m50.37s WALL


   This run was terminated on:  15:55:46  10Nov2017            

=------------------------------------------------------------------------------=
   JOB DONE.
=------------------------------------------------------------------------------=
