
     Program PWSCF v.6.1 (svn rev. 13369) starts on 10Nov2017 at 12: 7:51 

     This program is part of the open-source Quantum ESPRESSO suite
     for quantum simulation of materials; please cite
         "P. Giannozzi et al., J. Phys.:Condens. Matter 21 395502 (2009);
          URL http://www.quantum-espresso.org", 
     in publications or presentations arising from this work. More details at
     http://www.quantum-espresso.org/quote

     Parallel version (MPI), running on     4 processors
     R & G space division:  proc/nbgrp/npool/nimage =       4
     Waiting for input...
     Reading input from standard input
     Message from routine read_cards :
     DEPRECATED: no units specified in ATOMIC_POSITIONS card
     Message from routine read_cards :
     ATOMIC_POSITIONS: units set to alat

     Current dimensions of program PWSCF are:
     Max number of different atomic species (ntypx) = 10
     Max number of k-points (npk) =  40000
     Max angular momentum in pseudopotentials (lmaxx) =  3

     Subspace diagonalization in iterative solution of the eigenvalue problem:
     a serial algorithm will be used


     Parallelization info
     --------------------
     sticks:   dense  smooth     PW     G-vecs:    dense   smooth      PW
     Min          63      31     13                  684      241      64
     Max          64      32     14                  688      242      65
     Sum         253     127     55                 2741      965     259



     bravais-lattice index     =            2
     lattice parameter (alat)  =      10.3330  a.u.
     unit-cell volume          =     275.8159 (a.u.)^3
     number of atoms/cell      =            2
     number of atomic types    =            1
     number of electrons       =         8.00
     number of Kohn-Sham states=            4
     kinetic-energy cutoff     =       9.0000  Ry
     charge density cutoff     =      72.0000  Ry
     convergence threshold     =      1.0E-08
     mixing beta               =       0.7000
     number of iterations used =            8  plain     mixing
     Exchange-correlation      = SLA  PW   PBE  PBE ( 1  4  3  4 0 0)

     celldm(1)=  10.333000  celldm(2)=   0.000000  celldm(3)=   0.000000
     celldm(4)=   0.000000  celldm(5)=   0.000000  celldm(6)=   0.000000

     crystal axes: (cart. coord. in units of alat)
               a(1) = (  -0.500000   0.000000   0.500000 )  
               a(2) = (   0.000000   0.500000   0.500000 )  
               a(3) = (  -0.500000   0.500000   0.000000 )  

     reciprocal axes: (cart. coord. in units 2 pi/alat)
               b(1) = ( -1.000000 -1.000000  1.000000 )  
               b(2) = (  1.000000  1.000000  1.000000 )  
               b(3) = ( -1.000000  1.000000 -1.000000 )  


     PseudoPot. # 1 for Si read from file:
     /home/max/quantum_espresso/qe-6.1/pseudo/si_pbe_v1.uspp.F.UPF.txt
     MD5 check sum: a056efeee980c13900f22a371efd63c1
     Pseudo is Ultrasoft + core correction, Zval =  4.0
     Generated by new atomic code, or converted to UPF format
     Using radial grid of  899 points,  6 beta functions with: 
                l(1) =   0
                l(2) =   0
                l(3) =   1
                l(4) =   1
                l(5) =   2
                l(6) =   2
     Q(r) pseudized with  8 coefficients,  rinner =    0.900   0.900   0.900
                                                       0.900   0.900

     atomic species   valence    mass     pseudopotential
        Si             4.00    28.08600     Si( 1.00)

     48 Sym. Ops., with inversion, found (24 have fractional translation)



   Cartesian axes

     site n.     atom                  positions (alat units)
         1           Si  tau(   1) = (   0.0000000   0.0000000   0.0000000  )
         2           Si  tau(   2) = (   0.2500000   0.2500000   0.2500000  )

     number of k points=    28
                       cart. coord. in units 2pi/alat
        k(    1) = (  -0.0833333   0.0833333   0.0833333), wk =   0.0185185
        k(    2) = (  -0.2500000   0.2500000  -0.0833333), wk =   0.0555556
        k(    3) = (  -0.4166667   0.4166667  -0.2500000), wk =   0.0555556
        k(    4) = (   0.4166667  -0.4166667   0.5833333), wk =   0.0555556
        k(    5) = (   0.2500000  -0.2500000   0.4166667), wk =   0.0555556
        k(    6) = (   0.0833333  -0.0833333   0.2500000), wk =   0.0555556
        k(    7) = (  -0.0833333   0.4166667   0.0833333), wk =   0.0555556
        k(    8) = (  -0.2500000   0.5833333  -0.0833333), wk =   0.1111111
        k(    9) = (   0.5833333  -0.2500000   0.7500000), wk =   0.1111111
        k(   10) = (   0.4166667  -0.0833333   0.5833333), wk =   0.1111111
        k(   11) = (   0.2500000   0.0833333   0.4166667), wk =   0.1111111
        k(   12) = (  -0.0833333   0.7500000   0.0833333), wk =   0.0555556
        k(   13) = (   0.7500000  -0.0833333   0.9166667), wk =   0.1111111
        k(   14) = (   0.5833333   0.0833333   0.7500000), wk =   0.1111111
        k(   15) = (   0.4166667   0.2500000   0.5833333), wk =   0.1111111
        k(   16) = (  -0.0833333  -0.9166667   0.0833333), wk =   0.0555556
        k(   17) = (  -0.2500000  -0.7500000  -0.0833333), wk =   0.1111111
        k(   18) = (  -0.0833333  -0.5833333   0.0833333), wk =   0.0555556
        k(   19) = (  -0.2500000   0.2500000   0.2500000), wk =   0.0185185
        k(   20) = (  -0.4166667   0.4166667   0.0833333), wk =   0.0555556
        k(   21) = (   0.4166667  -0.4166667   0.9166667), wk =   0.0555556
        k(   22) = (   0.2500000  -0.2500000   0.7500000), wk =   0.0555556
        k(   23) = (  -0.2500000   0.5833333   0.2500000), wk =   0.0555556
        k(   24) = (   0.5833333  -0.2500000   1.0833333), wk =   0.1111111
        k(   25) = (   0.4166667  -0.0833333   0.9166667), wk =   0.1111111
        k(   26) = (  -0.2500000  -1.0833333   0.2500000), wk =   0.0555556
        k(   27) = (  -0.4166667   0.4166667   0.4166667), wk =   0.0185185
        k(   28) = (   0.4166667  -0.4166667   1.2500000), wk =   0.0555556

     Dense  grid:     2741 G-vectors     FFT dimensions: (  20,  20,  20)

     Smooth grid:      965 G-vectors     FFT dimensions: (  15,  15,  15)

     Estimated max dynamical RAM per process >       0.51MB

     Estimated total allocated dynamical RAM >       2.02MB

     Check: negative/imaginary core charge=   -0.000005    0.000000

     Initial potential from superposition of free atoms

     starting charge    7.99866, renormalised to    8.00000
     Starting wfc are    8 randomized atomic wfcs

     total cpu time spent up to now is        0.3 secs

     per-process dynamical memory:     6.6 Mb

     Self-consistent Calculation

     iteration #  1     ecut=     9.00 Ry     beta=0.70
     Davidson diagonalization with overlap
     ethr =  1.00E-02,  avg # of iterations =  2.0

     Threshold (ethr) on eigenvalues was too large:
     Diagonalizing with lowered threshold

     Davidson diagonalization with overlap
     ethr =  6.58E-04,  avg # of iterations =  1.0

     total cpu time spent up to now is        0.4 secs

     total energy              =     -19.14617033 Ry
     Harris-Foulkes estimate   =     -19.15517516 Ry
     estimated scf accuracy    <       0.05295950 Ry

     iteration #  2     ecut=     9.00 Ry     beta=0.70
     Davidson diagonalization with overlap
     ethr =  6.62E-04,  avg # of iterations =  1.0

     total cpu time spent up to now is        0.4 secs

     total energy              =     -19.14764309 Ry
     Harris-Foulkes estimate   =     -19.14771163 Ry
     estimated scf accuracy    <       0.00264134 Ry

     iteration #  3     ecut=     9.00 Ry     beta=0.70
     Davidson diagonalization with overlap
     ethr =  3.30E-05,  avg # of iterations =  1.8

     total cpu time spent up to now is        0.5 secs

     total energy              =     -19.14787799 Ry
     Harris-Foulkes estimate   =     -19.14788499 Ry
     estimated scf accuracy    <       0.00003546 Ry

     iteration #  4     ecut=     9.00 Ry     beta=0.70
     Davidson diagonalization with overlap
     ethr =  4.43E-07,  avg # of iterations =  2.9

     total cpu time spent up to now is        0.5 secs

     total energy              =     -19.14789504 Ry
     Harris-Foulkes estimate   =     -19.14789505 Ry
     estimated scf accuracy    <       0.00000039 Ry

     iteration #  5     ecut=     9.00 Ry     beta=0.70
     Davidson diagonalization with overlap
     ethr =  4.92E-09,  avg # of iterations =  2.6

     total cpu time spent up to now is        0.6 secs

     total energy              =     -19.14789520 Ry
     Harris-Foulkes estimate   =     -19.14789520 Ry
     estimated scf accuracy    <       0.00000001 Ry

     iteration #  6     ecut=     9.00 Ry     beta=0.70
     Davidson diagonalization with overlap
     ethr =  1.71E-10,  avg # of iterations =  2.4

     total cpu time spent up to now is        0.6 secs

     End of self-consistent calculation

          k =-0.0833 0.0833 0.0833 (   128 PWs)   bands (ev):

    -5.6197   5.1773   5.8768   5.8768

          k =-0.2500 0.2500-0.0833 (   130 PWs)   bands (ev):

    -5.1509   3.1291   4.6574   5.6632

          k =-0.4167 0.4167-0.2500 (   129 PWs)   bands (ev):

    -4.0818   0.4104   4.1938   5.0214

          k = 0.4167-0.4167 0.5833 (   127 PWs)   bands (ev):

    -3.3975  -0.7139   4.2631   4.6418

          k = 0.2500-0.2500 0.4167 (   130 PWs)   bands (ev):

    -4.4851   1.2418   4.7077   4.7551

          k = 0.0833-0.0833 0.2500 (   128 PWs)   bands (ev):

    -5.3827   4.1310   5.2342   5.4203

          k =-0.0833 0.4167 0.0833 (   130 PWs)   bands (ev):

    -4.9155   2.9468   4.5014   4.5057

          k =-0.2500 0.5833-0.0833 (   127 PWs)   bands (ev):

    -4.0190   1.1394   3.2050   4.1244

          k = 0.5833-0.2500 0.7500 (   123 PWs)   bands (ev):

    -2.9268  -0.5718   2.6215   3.8975

          k = 0.4167-0.0833 0.5833 (   125 PWs)   bands (ev):

    -3.6277   0.4605   2.5741   4.3796

          k = 0.2500 0.0833 0.4167 (   134 PWs)   bands (ev):

    -4.7053   2.1147   3.8886   5.0389

          k =-0.0833 0.7500 0.0833 (   125 PWs)   bands (ev):

    -3.3218   0.3276   3.1544   3.4804

          k = 0.7500-0.0833 0.9167 (   123 PWs)   bands (ev):

    -2.1421  -0.9822   2.3351   3.0889

          k = 0.5833 0.0833 0.7500 (   121 PWs)   bands (ev):

    -2.5034  -0.6400   1.8653   3.6279

          k = 0.4167 0.2500 0.5833 (   125 PWs)   bands (ev):

    -3.5196  -0.2167   3.5056   4.4730

          k =-0.0833-0.9167 0.0833 (   119 PWs)   bands (ev):

    -2.2280  -0.9898   2.8890   3.2665

          k =-0.2500-0.7500-0.0833 (   126 PWs)   bands (ev):

    -3.1566   0.1093   2.6534   3.4236

          k =-0.0833-0.5833 0.0833 (   128 PWs)   bands (ev):

    -4.2275   1.6685   3.6965   3.9006

          k =-0.2500 0.2500 0.2500 (   132 PWs)   bands (ev):

    -4.9336   2.1611   5.2564   5.2564

          k =-0.4167 0.4167 0.0833 (   132 PWs)   bands (ev):

    -4.2665   1.2416   3.1688   5.0844

          k = 0.4167-0.4167 0.9167 (   126 PWs)   bands (ev):

    -3.1042  -0.1560   2.0819   4.3059

          k = 0.2500-0.2500 0.7500 (   124 PWs)   bands (ev):

    -3.0437  -0.2410   2.5538   3.8300

          k =-0.2500 0.5833 0.2500 (   130 PWs)   bands (ev):

    -3.8496   0.4506   3.6322   4.1996

          k = 0.5833-0.2500 1.0833 (   122 PWs)   bands (ev):

    -2.8491  -0.2612   2.1790   3.4291

          k = 0.4167-0.0833 0.9167 (   119 PWs)   bands (ev):

    -2.0195  -0.9800   2.0143   2.7742

          k =-0.2500-1.0833 0.2500 (   125 PWs)   bands (ev):

    -2.2456  -0.8958   1.8898   3.6371

          k =-0.4167 0.4167 0.4167 (   123 PWs)   bands (ev):

    -3.7401  -0.3167   4.8688   4.8688

          k = 0.4167-0.4167 1.2500 (   125 PWs)   bands (ev):

    -3.1679  -0.6074   3.0893   4.4303

     highest occupied level (ev):     5.8768

!    total energy              =     -19.14789520 Ry
     Harris-Foulkes estimate   =     -19.14789520 Ry
     estimated scf accuracy    <          2.5E-09 Ry

     The total energy is the sum of the following terms:

     one-electron contribution =       5.01437065 Ry
     hartree contribution      =       1.12444354 Ry
     xc contribution           =      -8.60447401 Ry
     ewald contribution        =     -16.68223537 Ry

     convergence has been achieved in   6 iterations


     Computing stress (Cartesian axis) and pressure

          total   stress  (Ry/bohr**3)                   (kbar)     P=  -16.70
  -0.00011356   0.00000000   0.00000000        -16.70      0.00      0.00
   0.00000000  -0.00011356  -0.00000000          0.00    -16.70     -0.00
   0.00000000  -0.00000000  -0.00011356          0.00     -0.00    -16.70


     Writing output data file silicon.9.save

     init_run     :      0.12s CPU      0.18s WALL (       1 calls)
     electrons    :      0.29s CPU      0.37s WALL (       1 calls)
     stress       :      0.05s CPU      0.07s WALL (       1 calls)

     Called by init_run:
     wfcinit      :      0.02s CPU      0.02s WALL (       1 calls)
     potinit      :      0.00s CPU      0.01s WALL (       1 calls)

     Called by electrons:
     c_bands      :      0.19s CPU      0.24s WALL (       7 calls)
     sum_band     :      0.06s CPU      0.07s WALL (       7 calls)
     v_of_rho     :      0.01s CPU      0.02s WALL (       7 calls)
     newd         :      0.02s CPU      0.04s WALL (       7 calls)
     mix_rho      :      0.00s CPU      0.00s WALL (       7 calls)

     Called by c_bands:
     init_us_2    :      0.01s CPU      0.02s WALL (     448 calls)
     cegterg      :      0.17s CPU      0.21s WALL (     196 calls)

     Called by sum_band:
     sum_band:bec :      0.00s CPU      0.00s WALL (     196 calls)
     addusdens    :      0.02s CPU      0.03s WALL (       7 calls)

     Called by *egterg:
     h_psi        :      0.11s CPU      0.14s WALL (     606 calls)
     s_psi        :      0.01s CPU      0.02s WALL (     606 calls)
     g_psi        :      0.00s CPU      0.00s WALL (     382 calls)
     cdiaghg      :      0.03s CPU      0.04s WALL (     550 calls)

     Called by h_psi:
     h_psi:pot    :      0.11s CPU      0.14s WALL (     606 calls)
     h_psi:calbec :      0.02s CPU      0.02s WALL (     606 calls)
     vloc_psi     :      0.08s CPU      0.10s WALL (     606 calls)
     add_vuspsi   :      0.01s CPU      0.02s WALL (     606 calls)

     General routines
     calbec       :      0.02s CPU      0.03s WALL (     830 calls)
     fft          :      0.01s CPU      0.01s WALL (     126 calls)
     ffts         :      0.00s CPU      0.00s WALL (      14 calls)
     fftw         :      0.08s CPU      0.10s WALL (    5380 calls)
     interpolate  :      0.00s CPU      0.00s WALL (      14 calls)
     davcio       :      0.00s CPU      0.00s WALL (      28 calls)

     Parallel routines
     fft_scatter  :      0.04s CPU      0.05s WALL (    5520 calls)

     PWSCF        :     0.67s CPU         0.85s WALL


   This run was terminated on:  12: 7:52  10Nov2017            

=------------------------------------------------------------------------------=
   JOB DONE.
=------------------------------------------------------------------------------=
