
     Program PHONON v.6.1 (svn rev. 13369) starts on 10Nov2017 at 15:46:51 

     This program is part of the open-source Quantum ESPRESSO suite
     for quantum simulation of materials; please cite
         "P. Giannozzi et al., J. Phys.:Condens. Matter 21 395502 (2009);
          URL http://www.quantum-espresso.org", 
     in publications or presentations arising from this work. More details at
     http://www.quantum-espresso.org/quote

     Parallel version (MPI), running on     4 processors
     R & G space division:  proc/nbgrp/npool/nimage =       4

     Reading data from directory:
     ./silicon.10.322.save

   Info: using nr1, nr2, nr3 values from input

   Info: using nr1, nr2, nr3 values from input

     IMPORTANT: XC functional enforced from input :
     Exchange-correlation      = SLA  PW   PBE  PBE ( 1  4  3  4 0 0)
     Any further DFT definition will be discarded
     Please, verify this is what you really want


     Parallelization info
     --------------------
     sticks:   dense  smooth     PW     G-vecs:    dense   smooth      PW
     Min         217     109     37                 4288     1520     284
     Max         219     111     38                 4289     1521     285
     Sum         871     439    151                17153     6081    1139



     Dynamical matrices for ( 4, 4, 4)  uniform grid of q-points
     (   8q-points):
       N         xq(1)         xq(2)         xq(3) 
       1   0.000000000   0.000000000   0.000000000
       2  -0.250000000   0.250000000  -0.250000000
       3   0.500000000  -0.500000000   0.500000000
       4   0.000000000   0.500000000   0.000000000
       5   0.750000000  -0.250000000   0.750000000
       6   0.500000000   0.000000000   0.500000000
       7   0.000000000  -1.000000000   0.000000000
       8  -0.500000000  -1.000000000   0.000000000

     Calculation of q =    0.0000000   0.0000000   0.0000000

                                                                                

     bravais-lattice index     =            2
     lattice parameter (alat)  =      10.3220  a.u.
     unit-cell volume          =     274.9360 (a.u.)^3
     number of atoms/cell      =            2
     number of atomic types    =            1
     kinetic-energy cut-off    =      30.0000  Ry
     charge density cut-off    =     240.0000  Ry
     convergence threshold     =      1.0E-12
     beta                      =       0.7000
     number of iterations used =            4
     Exchange-correlation      = SLA  PW   PBE  PBE ( 1  4  3  4 0 0)


     celldm(1)=   10.32200  celldm(2)=    0.00000  celldm(3)=    0.00000
     celldm(4)=    0.00000  celldm(5)=    0.00000  celldm(6)=    0.00000

     crystal axes: (cart. coord. in units of alat)
               a(1) = ( -0.5000  0.0000  0.5000 )  
               a(2) = (  0.0000  0.5000  0.5000 )  
               a(3) = ( -0.5000  0.5000  0.0000 )  

     reciprocal axes: (cart. coord. in units 2 pi/alat)
               b(1) = ( -1.0000 -1.0000  1.0000 )  
               b(2) = (  1.0000  1.0000  1.0000 )  
               b(3) = ( -1.0000  1.0000 -1.0000 )  


     Atoms inside the unit cell: 

     Cartesian axes

     site n.  atom      mass           positions (alat units)
        1     Si  28.0860   tau(    1) = (    0.00000    0.00000    0.00000  )
        2     Si  28.0860   tau(    2) = (    0.25000    0.25000    0.25000  )

     Computing dynamical matrix for 
                    q = (   0.0000000   0.0000000   0.0000000 )

     49 Sym.Ops. (with q -> -q+G )


     G cutoff =  647.7079  (   4288 G-vectors)     FFT grid: ( 36, 36, 36)
     G cutoff =  323.8540  (   1520 G-vectors)  smooth grid: ( 25, 25, 25)
     number of k points=    10

     PseudoPot. # 1 for Si read from file:
     /home/s1333534/quantum_espresso/qe-6.1/pseudo/si_pbe_v1.uspp.F.UPF.txt
     MD5 check sum: a056efeee980c13900f22a371efd63c1
     Pseudo is Ultrasoft + core correction, Zval =  4.0
     Generated by new atomic code, or converted to UPF format
     Using radial grid of  899 points,  6 beta functions with: 
                l(1) =   0
                l(2) =   0
                l(3) =   1
                l(4) =   1
                l(5) =   2
                l(6) =   2
     Q(r) pseudized with  8 coefficients,  rinner =    0.900   0.900   0.900
                                                       0.900   0.900

     Mode symmetry, O_h (m-3m)  point group:


     Electric field:
     Dielectric constant
     Born effective charges in two ways 


     Atomic displacements:
     There are   2 irreducible representations

     Representation     1      3 modes -T_2g G_25' G_5+  To be done

     Representation     2      3 modes -T_1u G_15  G_4-  To be done



     Alpha used in Ewald sum =   2.5000
     PHONON       :     0.94s CPU         1.73s WALL


     Electric Fields Calculation

      iter #   1 total cpu time :     2.7 secs   av.it.:   5.7
      thresh= 1.000E-02 alpha_mix =  0.700 |ddv_scf|^2 =  1.332E-07

      iter #   2 total cpu time :     3.5 secs   av.it.:  11.8
      thresh= 3.650E-05 alpha_mix =  0.700 |ddv_scf|^2 =  7.813E-09

      iter #   3 total cpu time :     4.2 secs   av.it.:  11.5
      thresh= 8.839E-06 alpha_mix =  0.700 |ddv_scf|^2 =  5.194E-10

      iter #   4 total cpu time :     4.8 secs   av.it.:  10.2
      thresh= 2.279E-06 alpha_mix =  0.700 |ddv_scf|^2 =  3.397E-12

      iter #   5 total cpu time :     5.3 secs   av.it.:  11.1
      thresh= 1.843E-07 alpha_mix =  0.700 |ddv_scf|^2 =  3.393E-15

     End of electric fields calculation

          Dielectric constant in cartesian axis 

          (      13.943139503       0.000000000       0.000000000 )
          (       0.000000000      13.943139503      -0.000000000 )
          (       0.000000000       0.000000000      13.943139503 )

          Effective charges (d Force / dE) in cartesian axis

           atom      1   Si 
      Ex  (       -0.03872       -0.00000        0.00000 )
      Ey  (       -0.00000       -0.03872       -0.00000 )
      Ez  (        0.00000       -0.00000       -0.03872 )
           atom      2   Si 
      Ex  (       -0.03872        0.00000        0.00000 )
      Ey  (        0.00000       -0.03872       -0.00000 )
      Ez  (        0.00000       -0.00000       -0.03872 )


     Representation #  1 modes #   1  2  3

     Self-consistent Calculation

      iter #   1 total cpu time :     6.6 secs   av.it.:   5.1
      thresh= 1.000E-02 alpha_mix =  0.700 |ddv_scf|^2 =  2.353E-08

      iter #   2 total cpu time :     7.3 secs   av.it.:  11.6
      thresh= 1.534E-05 alpha_mix =  0.700 |ddv_scf|^2 =  9.635E-10

      iter #   3 total cpu time :     8.0 secs   av.it.:  11.1
      thresh= 3.104E-06 alpha_mix =  0.700 |ddv_scf|^2 =  6.554E-11

      iter #   4 total cpu time :     8.6 secs   av.it.:  10.1
      thresh= 8.095E-07 alpha_mix =  0.700 |ddv_scf|^2 =  1.609E-13

     End of self-consistent calculation

     Convergence has been achieved 


     Representation #  2 modes #   4  5  6

     Self-consistent Calculation

      iter #   1 total cpu time :     9.4 secs   av.it.:   5.2
      thresh= 1.000E-02 alpha_mix =  0.700 |ddv_scf|^2 =  1.856E-08

      iter #   2 total cpu time :    10.1 secs   av.it.:  11.6
      thresh= 1.362E-05 alpha_mix =  0.700 |ddv_scf|^2 =  1.093E-09

      iter #   3 total cpu time :    10.8 secs   av.it.:  11.2
      thresh= 3.306E-06 alpha_mix =  0.700 |ddv_scf|^2 =  6.777E-11

      iter #   4 total cpu time :    11.4 secs   av.it.:  11.3
      thresh= 8.232E-07 alpha_mix =  0.700 |ddv_scf|^2 =  2.639E-13

     End of self-consistent calculation

     Convergence has been achieved 

     Number of q in the star =    1
     List of q in the star:
          1   0.000000000   0.000000000   0.000000000

          Dielectric constant in cartesian axis 

          (      13.943139503       0.000000000       0.000000000 )
          (       0.000000000      13.943139503      -0.000000000 )
          (       0.000000000       0.000000000      13.943139503 )

          Effective charges (d Force / dE) in cartesian axis

           atom      1   Si 
      Ex  (       -0.03872       -0.00000        0.00000 )
      Ey  (       -0.00000       -0.03872       -0.00000 )
      Ez  (        0.00000       -0.00000       -0.03872 )
           atom      2   Si 
      Ex  (       -0.03872        0.00000        0.00000 )
      Ey  (        0.00000       -0.03872       -0.00000 )
      Ez  (        0.00000       -0.00000       -0.03872 )

          Effective charges (d P / du) in cartesian axis 

           atom      1   Si 
      Px  (       -0.07235       -0.00000       -0.00000 )
      Py  (       -0.00000       -0.07235        0.00000 )
      Pz  (       -0.00000        0.00000       -0.07235 )
           atom      2   Si 
      Px  (       -0.07235       -0.00000       -0.00000 )
      Py  (       -0.00000       -0.07235        0.00000 )
      Pz  (       -0.00000        0.00000       -0.07235 )

     Diagonalizing the dynamical matrix

     q = (    0.000000000   0.000000000   0.000000000 ) 

 **************************************************************************
     freq (    1) =      -0.474149 [THz] =     -15.815900 [cm-1]
     freq (    2) =      -0.474149 [THz] =     -15.815900 [cm-1]
     freq (    3) =      -0.474149 [THz] =     -15.815900 [cm-1]
     freq (    4) =      15.117748 [THz] =     504.273800 [cm-1]
     freq (    5) =      15.117748 [THz] =     504.273800 [cm-1]
     freq (    6) =      15.117748 [THz] =     504.273800 [cm-1]
 **************************************************************************

     Mode symmetry, O_h (m-3m)  point group:

     freq (  1 -  3) =        -15.8  [cm-1]   --> T_1u G_15  G_4- I  
     freq (  4 -  6) =        504.3  [cm-1]   --> T_2g G_25' G_5+ R  

     Calculation of q =   -0.2500000   0.2500000  -0.2500000

   Info: using nr1, nr2, nr3 values from input

   Info: using nr1, nr2, nr3 values from input

     Parallelization info
     --------------------
     sticks:   dense  smooth     PW     G-vecs:    dense   smooth      PW
     Min         217     109     37                 4288     1520     309
     Max         218     111     38                 4289     1521     312
     Sum         871     439    151                17153     6081    1243



     bravais-lattice index     =            2
     lattice parameter (alat)  =      10.3220  a.u.
     unit-cell volume          =     274.9360 (a.u.)^3
     number of atoms/cell      =            2
     number of atomic types    =            1
     number of electrons       =         8.00
     number of Kohn-Sham states=            4
     kinetic-energy cutoff     =      30.0000  Ry
     charge density cutoff     =     240.0000  Ry
     Exchange-correlation      = SLA  PW   PBE  PBE ( 1  4  3  4 0 0)

     celldm(1)=  10.322000  celldm(2)=   0.000000  celldm(3)=   0.000000
     celldm(4)=   0.000000  celldm(5)=   0.000000  celldm(6)=   0.000000

     crystal axes: (cart. coord. in units of alat)
               a(1) = (  -0.500000   0.000000   0.500000 )  
               a(2) = (   0.000000   0.500000   0.500000 )  
               a(3) = (  -0.500000   0.500000   0.000000 )  

     reciprocal axes: (cart. coord. in units 2 pi/alat)
               b(1) = ( -1.000000 -1.000000  1.000000 )  
               b(2) = (  1.000000  1.000000  1.000000 )  
               b(3) = ( -1.000000  1.000000 -1.000000 )  


     PseudoPot. # 1 for Si read from file:
     /home/s1333534/quantum_espresso/qe-6.1/pseudo/si_pbe_v1.uspp.F.UPF.txt
     MD5 check sum: a056efeee980c13900f22a371efd63c1
     Pseudo is Ultrasoft + core correction, Zval =  4.0
     Generated by new atomic code, or converted to UPF format
     Using radial grid of  899 points,  6 beta functions with: 
                l(1) =   0
                l(2) =   0
                l(3) =   1
                l(4) =   1
                l(5) =   2
                l(6) =   2
     Q(r) pseudized with  8 coefficients,  rinner =    0.900   0.900   0.900
                                                       0.900   0.900

     atomic species   valence    mass     pseudopotential
        Si             4.00    28.08600     Si( 1.00)

     48 Sym. Ops., with inversion, found



   Cartesian axes

     site n.     atom                  positions (alat units)
         1           Si  tau(   1) = (   0.0000000   0.0000000   0.0000000  )
         2           Si  tau(   2) = (   0.2500000   0.2500000   0.2500000  )

     number of k points=   120

     Number of k-points >= 100: set verbosity='high' to print them.

     Dense  grid:    17153 G-vectors     FFT dimensions: (  36,  36,  36)

     Smooth grid:     6081 G-vectors     FFT dimensions: (  25,  25,  25)

     Estimated max dynamical RAM per process >       1.51MB

     Estimated total allocated dynamical RAM >       6.06MB

     The potential is recalculated from file :
     ./_ph0/silicon.10.322.save/charge-density.dat

     Starting wfc are    8 atomic wfcs

     Band Structure Calculation
     Davidson diagonalization with overlap

     ethr =  1.25E-10,  avg # of iterations = 12.2

     total cpu time spent up to now is        1.4 secs

     End of band structure calculation

     Number of k-points >= 100: set verbosity='high' to print the bands.

     highest occupied level (ev):     5.7297

     Writing output data file silicon.10.322.save

                                                                                

     bravais-lattice index     =            2
     lattice parameter (alat)  =      10.3220  a.u.
     unit-cell volume          =     274.9360 (a.u.)^3
     number of atoms/cell      =            2
     number of atomic types    =            1
     kinetic-energy cut-off    =      30.0000  Ry
     charge density cut-off    =     240.0000  Ry
     convergence threshold     =      1.0E-12
     beta                      =       0.7000
     number of iterations used =            4
     Exchange-correlation      = SLA  PW   PBE  PBE ( 1  4  3  4 0 0)


     celldm(1)=   10.32200  celldm(2)=    0.00000  celldm(3)=    0.00000
     celldm(4)=    0.00000  celldm(5)=    0.00000  celldm(6)=    0.00000

     crystal axes: (cart. coord. in units of alat)
               a(1) = ( -0.5000  0.0000  0.5000 )  
               a(2) = (  0.0000  0.5000  0.5000 )  
               a(3) = ( -0.5000  0.5000  0.0000 )  

     reciprocal axes: (cart. coord. in units 2 pi/alat)
               b(1) = ( -1.0000 -1.0000  1.0000 )  
               b(2) = (  1.0000  1.0000  1.0000 )  
               b(3) = ( -1.0000  1.0000 -1.0000 )  


     Atoms inside the unit cell: 

     Cartesian axes

     site n.  atom      mass           positions (alat units)
        1     Si  28.0860   tau(    1) = (    0.00000    0.00000    0.00000  )
        2     Si  28.0860   tau(    2) = (    0.25000    0.25000    0.25000  )

     Computing dynamical matrix for 
                    q = (  -0.2500000   0.2500000  -0.2500000 )

      6 Sym.Ops. (no q -> -q+G )


     G cutoff =  647.7079  (   4288 G-vectors)     FFT grid: ( 36, 36, 36)
     G cutoff =  323.8540  (   1520 G-vectors)  smooth grid: ( 25, 25, 25)
     number of k points=   120

     PseudoPot. # 1 for Si read from file:
     /home/s1333534/quantum_espresso/qe-6.1/pseudo/si_pbe_v1.uspp.F.UPF.txt
     MD5 check sum: a056efeee980c13900f22a371efd63c1
     Pseudo is Ultrasoft + core correction, Zval =  4.0
     Generated by new atomic code, or converted to UPF format
     Using radial grid of  899 points,  6 beta functions with: 
                l(1) =   0
                l(2) =   0
                l(3) =   1
                l(4) =   1
                l(5) =   2
                l(6) =   2
     Q(r) pseudized with  8 coefficients,  rinner =    0.900   0.900   0.900
                                                       0.900   0.900

     Mode symmetry, C_3v (3m)   point group:


     Atomic displacements:
     There are   4 irreducible representations

     Representation     1      1 modes -A_1  L_1  To be done

     Representation     2      1 modes -A_1  L_1  To be done

     Representation     3      2 modes -E    L_3  To be done

     Representation     4      2 modes -E    L_3  To be done



     Alpha used in Ewald sum =   2.5000
     PHONON       :    10.65s CPU        15.28s WALL



     Representation #  1 mode #   1

     Self-consistent Calculation

      iter #   1 total cpu time :    15.7 secs   av.it.:   5.9
      thresh= 1.000E-02 alpha_mix =  0.700 |ddv_scf|^2 =  4.276E-04

      iter #   2 total cpu time :    16.3 secs   av.it.:   9.1
      thresh= 2.068E-03 alpha_mix =  0.700 |ddv_scf|^2 =  6.509E-03

      iter #   3 total cpu time :    16.8 secs   av.it.:   7.0
      thresh= 8.068E-03 alpha_mix =  0.700 |ddv_scf|^2 =  2.714E-07

      iter #   4 total cpu time :    17.5 secs   av.it.:   9.6
      thresh= 5.210E-05 alpha_mix =  0.700 |ddv_scf|^2 =  1.798E-08

      iter #   5 total cpu time :    18.1 secs   av.it.:   9.6
      thresh= 1.341E-05 alpha_mix =  0.700 |ddv_scf|^2 =  3.395E-10

      iter #   6 total cpu time :    18.7 secs   av.it.:   9.7
      thresh= 1.842E-06 alpha_mix =  0.700 |ddv_scf|^2 =  1.182E-09

      iter #   7 total cpu time :    19.2 secs   av.it.:   7.6
      thresh= 3.438E-06 alpha_mix =  0.700 |ddv_scf|^2 =  3.832E-11

      iter #   8 total cpu time :    19.8 secs   av.it.:   9.3
      thresh= 6.190E-07 alpha_mix =  0.700 |ddv_scf|^2 =  4.836E-13

     End of self-consistent calculation

     Convergence has been achieved 


     Representation #  2 mode #   2

     Self-consistent Calculation

      iter #   1 total cpu time :    20.3 secs   av.it.:   5.9
      thresh= 1.000E-02 alpha_mix =  0.700 |ddv_scf|^2 =  4.276E-04

      iter #   2 total cpu time :    21.0 secs   av.it.:   9.1
      thresh= 2.068E-03 alpha_mix =  0.700 |ddv_scf|^2 =  6.509E-03

      iter #   3 total cpu time :    21.5 secs   av.it.:   7.0
      thresh= 8.068E-03 alpha_mix =  0.700 |ddv_scf|^2 =  2.714E-07

      iter #   4 total cpu time :    22.1 secs   av.it.:   9.6
      thresh= 5.210E-05 alpha_mix =  0.700 |ddv_scf|^2 =  1.798E-08

      iter #   5 total cpu time :    22.7 secs   av.it.:   9.6
      thresh= 1.341E-05 alpha_mix =  0.700 |ddv_scf|^2 =  3.395E-10

      iter #   6 total cpu time :    23.3 secs   av.it.:   9.7
      thresh= 1.842E-06 alpha_mix =  0.700 |ddv_scf|^2 =  1.182E-09

      iter #   7 total cpu time :    23.9 secs   av.it.:   7.6
      thresh= 3.438E-06 alpha_mix =  0.700 |ddv_scf|^2 =  3.832E-11

      iter #   8 total cpu time :    24.4 secs   av.it.:   9.3
      thresh= 6.190E-07 alpha_mix =  0.700 |ddv_scf|^2 =  4.836E-13

     End of self-consistent calculation

     Convergence has been achieved 


     Representation #  3 modes #   3  4

     Self-consistent Calculation

      iter #   1 total cpu time :    25.3 secs   av.it.:   5.2
      thresh= 1.000E-02 alpha_mix =  0.700 |ddv_scf|^2 =  6.621E-08

      iter #   2 total cpu time :    26.6 secs   av.it.:  11.4
      thresh= 2.573E-05 alpha_mix =  0.700 |ddv_scf|^2 =  4.255E-09

      iter #   3 total cpu time :    27.8 secs   av.it.:  11.1
      thresh= 6.523E-06 alpha_mix =  0.700 |ddv_scf|^2 =  2.252E-10

      iter #   4 total cpu time :    29.0 secs   av.it.:  11.0
      thresh= 1.501E-06 alpha_mix =  0.700 |ddv_scf|^2 =  8.590E-13

     End of self-consistent calculation

     Convergence has been achieved 


     Representation #  4 modes #   5  6

     Self-consistent Calculation

      iter #   1 total cpu time :    29.9 secs   av.it.:   5.2
      thresh= 1.000E-02 alpha_mix =  0.700 |ddv_scf|^2 =  6.622E-08

      iter #   2 total cpu time :    31.2 secs   av.it.:  11.5
      thresh= 2.573E-05 alpha_mix =  0.700 |ddv_scf|^2 =  4.255E-09

      iter #   3 total cpu time :    32.5 secs   av.it.:  11.2
      thresh= 6.523E-06 alpha_mix =  0.700 |ddv_scf|^2 =  2.251E-10

      iter #   4 total cpu time :    33.7 secs   av.it.:  11.0
      thresh= 1.500E-06 alpha_mix =  0.700 |ddv_scf|^2 =  8.635E-13

     End of self-consistent calculation

     Convergence has been achieved 

     Number of q in the star =    8
     List of q in the star:
          1  -0.250000000   0.250000000  -0.250000000
          2   0.250000000  -0.250000000  -0.250000000
          3   0.250000000  -0.250000000   0.250000000
          4   0.250000000   0.250000000   0.250000000
          5  -0.250000000  -0.250000000  -0.250000000
          6  -0.250000000  -0.250000000   0.250000000
          7  -0.250000000   0.250000000   0.250000000
          8   0.250000000   0.250000000  -0.250000000

     Diagonalizing the dynamical matrix

     q = (   -0.250000000   0.250000000  -0.250000000 ) 

 **************************************************************************
     freq (    1) =       2.779402 [THz] =      92.710860 [cm-1]
     freq (    2) =       2.779402 [THz] =      92.710860 [cm-1]
     freq (    3) =       6.754981 [THz] =     225.321910 [cm-1]
     freq (    4) =      14.268333 [THz] =     475.940349 [cm-1]
     freq (    5) =      14.547036 [THz] =     485.236903 [cm-1]
     freq (    6) =      14.547036 [THz] =     485.236903 [cm-1]
 **************************************************************************

     Mode symmetry, C_3v (3m)   point group:

     freq (  1 -  2) =         92.7  [cm-1]   --> E    L_3           
     freq (  3 -  3) =        225.3  [cm-1]   --> A_1  L_1           
     freq (  4 -  4) =        475.9  [cm-1]   --> A_1  L_1           
     freq (  5 -  6) =        485.2  [cm-1]   --> E    L_3           

     Calculation of q =    0.5000000  -0.5000000   0.5000000

   Info: using nr1, nr2, nr3 values from input

   Info: using nr1, nr2, nr3 values from input

     Parallelization info
     --------------------
     sticks:   dense  smooth     PW     G-vecs:    dense   smooth      PW
     Min         217     109     40                 4288     1520     351
     Max         219     111     41                 4289     1521     354
     Sum         871     439    163                17153     6081    1411



     bravais-lattice index     =            2
     lattice parameter (alat)  =      10.3220  a.u.
     unit-cell volume          =     274.9360 (a.u.)^3
     number of atoms/cell      =            2
     number of atomic types    =            1
     number of electrons       =         8.00
     number of Kohn-Sham states=            4
     kinetic-energy cutoff     =      30.0000  Ry
     charge density cutoff     =     240.0000  Ry
     Exchange-correlation      = SLA  PW   PBE  PBE ( 1  4  3  4 0 0)

     celldm(1)=  10.322000  celldm(2)=   0.000000  celldm(3)=   0.000000
     celldm(4)=   0.000000  celldm(5)=   0.000000  celldm(6)=   0.000000

     crystal axes: (cart. coord. in units of alat)
               a(1) = (  -0.500000   0.000000   0.500000 )  
               a(2) = (   0.000000   0.500000   0.500000 )  
               a(3) = (  -0.500000   0.500000   0.000000 )  

     reciprocal axes: (cart. coord. in units 2 pi/alat)
               b(1) = ( -1.000000 -1.000000  1.000000 )  
               b(2) = (  1.000000  1.000000  1.000000 )  
               b(3) = ( -1.000000  1.000000 -1.000000 )  


     PseudoPot. # 1 for Si read from file:
     /home/s1333534/quantum_espresso/qe-6.1/pseudo/si_pbe_v1.uspp.F.UPF.txt
     MD5 check sum: a056efeee980c13900f22a371efd63c1
     Pseudo is Ultrasoft + core correction, Zval =  4.0
     Generated by new atomic code, or converted to UPF format
     Using radial grid of  899 points,  6 beta functions with: 
                l(1) =   0
                l(2) =   0
                l(3) =   1
                l(4) =   1
                l(5) =   2
                l(6) =   2
     Q(r) pseudized with  8 coefficients,  rinner =    0.900   0.900   0.900
                                                       0.900   0.900

     atomic species   valence    mass     pseudopotential
        Si             4.00    28.08600     Si( 1.00)

     48 Sym. Ops., with inversion, found



   Cartesian axes

     site n.     atom                  positions (alat units)
         1           Si  tau(   1) = (   0.0000000   0.0000000   0.0000000  )
         2           Si  tau(   2) = (   0.2500000   0.2500000   0.2500000  )

     number of k points=    60
                       cart. coord. in units 2pi/alat
        k(    1) = (  -0.1250000   0.1250000   0.1250000), wk =   0.0468750
        k(    2) = (   0.3750000  -0.3750000   0.6250000), wk =   0.0000000
        k(    3) = (  -0.3750000   0.3750000  -0.1250000), wk =   0.0468750
        k(    4) = (   0.1250000  -0.1250000   0.3750000), wk =   0.0000000
        k(    5) = (   0.3750000  -0.3750000   0.6250000), wk =   0.0468750
        k(    6) = (   0.8750000  -0.8750000   1.1250000), wk =   0.0000000
        k(    7) = (   0.1250000  -0.1250000   0.3750000), wk =   0.0468750
        k(    8) = (   0.6250000  -0.6250000   0.8750000), wk =   0.0000000
        k(    9) = (  -0.1250000   0.6250000   0.1250000), wk =   0.0937500
        k(   10) = (   0.3750000   0.1250000   0.6250000), wk =   0.0000000
        k(   11) = (   0.6250000  -0.1250000   0.8750000), wk =   0.0937500
        k(   12) = (   1.1250000  -0.6250000   1.3750000), wk =   0.0000000
        k(   13) = (   0.3750000   0.1250000   0.6250000), wk =   0.0937500
        k(   14) = (   0.8750000  -0.3750000   1.1250000), wk =   0.0000000
        k(   15) = (  -0.1250000  -0.8750000   0.1250000), wk =   0.0937500
        k(   16) = (   0.3750000  -1.3750000   0.6250000), wk =   0.0000000
        k(   17) = (  -0.3750000   0.3750000   0.3750000), wk =   0.0468750
        k(   18) = (   0.1250000  -0.1250000   0.8750000), wk =   0.0000000
        k(   19) = (   0.3750000  -0.3750000   1.1250000), wk =   0.0468750
        k(   20) = (   0.8750000  -0.8750000   1.6250000), wk =   0.0000000
        k(   21) = (   0.1250000  -0.1250000   0.1250000), wk =   0.0156250
        k(   22) = (   0.6250000  -0.6250000   0.6250000), wk =   0.0000000
        k(   23) = (  -0.3750000  -0.3750000  -0.1250000), wk =   0.0937500
        k(   24) = (   0.1250000  -0.8750000   0.3750000), wk =   0.0000000
        k(   25) = (  -0.1250000  -0.3750000   0.3750000), wk =   0.0468750
        k(   26) = (   0.3750000  -0.8750000   0.8750000), wk =   0.0000000
        k(   27) = (   0.3750000   0.3750000   0.6250000), wk =   0.0937500
        k(   28) = (   0.8750000  -0.1250000   1.1250000), wk =   0.0000000
        k(   29) = (   0.6250000   0.3750000  -0.3750000), wk =   0.0468750
        k(   30) = (   1.1250000  -0.1250000   0.1250000), wk =   0.0000000
        k(   31) = (   0.1250000   0.1250000   0.3750000), wk =   0.0937500
        k(   32) = (   0.6250000  -0.3750000   0.8750000), wk =   0.0000000
        k(   33) = (   0.3750000   0.1250000  -0.1250000), wk =   0.0468750
        k(   34) = (   0.8750000  -0.3750000   0.3750000), wk =   0.0000000
        k(   35) = (  -0.1250000  -0.6250000  -0.1250000), wk =   0.0468750
        k(   36) = (   0.3750000  -1.1250000   0.3750000), wk =   0.0000000
        k(   37) = (   0.1250000  -0.6250000   0.1250000), wk =   0.0468750
        k(   38) = (   0.6250000  -1.1250000   0.6250000), wk =   0.0000000
        k(   39) = (   0.6250000   0.1250000   0.8750000), wk =   0.0937500
        k(   40) = (   1.1250000  -0.3750000   1.3750000), wk =   0.0000000
        k(   41) = (  -0.8750000   0.1250000   0.6250000), wk =   0.0937500
        k(   42) = (  -0.3750000  -0.3750000   1.1250000), wk =   0.0000000
        k(   43) = (   0.8750000   0.1250000  -0.6250000), wk =   0.0937500
        k(   44) = (   1.3750000  -0.3750000  -0.1250000), wk =   0.0000000
        k(   45) = (   0.3750000  -0.1250000   0.6250000), wk =   0.0937500
        k(   46) = (   0.8750000  -0.6250000   1.1250000), wk =   0.0000000
        k(   47) = (  -0.6250000  -0.1250000   0.3750000), wk =   0.0937500
        k(   48) = (  -0.1250000  -0.6250000   0.8750000), wk =   0.0000000
        k(   49) = (   0.6250000  -0.1250000  -0.3750000), wk =   0.0937500
        k(   50) = (   1.1250000  -0.6250000   0.1250000), wk =   0.0000000
        k(   51) = (  -0.1250000   0.8750000  -0.1250000), wk =   0.0468750
        k(   52) = (   0.3750000   0.3750000   0.3750000), wk =   0.0000000
        k(   53) = (   0.1250000   0.8750000   0.1250000), wk =   0.0468750
        k(   54) = (   0.6250000   0.3750000   0.6250000), wk =   0.0000000
        k(   55) = (   0.3750000  -0.3750000   0.3750000), wk =   0.0156250
        k(   56) = (   0.8750000  -0.8750000   0.8750000), wk =   0.0000000
        k(   57) = (   0.3750000   0.3750000   1.1250000), wk =   0.0937500
        k(   58) = (   0.8750000  -0.1250000   1.6250000), wk =   0.0000000
        k(   59) = (   1.1250000   0.3750000  -0.3750000), wk =   0.0468750
        k(   60) = (   1.6250000  -0.1250000   0.1250000), wk =   0.0000000

     Dense  grid:    17153 G-vectors     FFT dimensions: (  36,  36,  36)

     Smooth grid:     6081 G-vectors     FFT dimensions: (  25,  25,  25)

     Estimated max dynamical RAM per process >       1.51MB

     Estimated total allocated dynamical RAM >       6.06MB

     The potential is recalculated from file :
     ./_ph0/silicon.10.322.save/charge-density.dat

     Starting wfc are    8 atomic wfcs

     Band Structure Calculation
     Davidson diagonalization with overlap

     ethr =  1.25E-10,  avg # of iterations = 12.2

     total cpu time spent up to now is        2.7 secs

     End of band structure calculation

          k =-0.1250 0.1250 0.1250 (   764 PWs)   bands (ev):

    -5.6256   4.4206   5.7297   5.7297

          k = 0.3750-0.3750 0.6250 (   763 PWs)   bands (ev):

    -3.4530  -0.6607   3.7612   4.4752

          k =-0.3750 0.3750-0.1250 (   767 PWs)   bands (ev):

    -4.5964   1.4234   3.7390   5.2489

          k = 0.1250-0.1250 0.3750 (   768 PWs)   bands (ev):

    -5.0965   2.8033   4.7189   4.7847

          k = 0.3750-0.3750 0.6250 (   763 PWs)   bands (ev):

    -3.4530  -0.6607   3.7612   4.4752

          k = 0.8750-0.8750 1.1250 (   764 PWs)   bands (ev):

    -5.6256   4.4206   5.7297   5.7297

          k = 0.1250-0.1250 0.3750 (   768 PWs)   bands (ev):

    -5.0965   2.8033   4.7189   4.7847

          k = 0.6250-0.6250 0.8750 (   767 PWs)   bands (ev):

    -4.5964   1.4234   3.7390   5.2489

          k =-0.1250 0.6250 0.1250 (   766 PWs)   bands (ev):

    -4.0626   1.0920   3.3889   3.8428

          k = 0.3750 0.1250 0.6250 (   766 PWs)   bands (ev):

    -3.6456   0.2151   2.7460   4.1181

          k = 0.6250-0.1250 0.8750 (   755 PWs)   bands (ev):

    -2.4179  -0.8738   2.0298   3.1096

          k = 1.1250-0.6250 1.3750 (   767 PWs)   bands (ev):

    -4.5964   1.4234   3.7390   5.2489

          k = 0.3750 0.1250 0.6250 (   766 PWs)   bands (ev):

    -3.6456   0.2151   2.7460   4.1181

          k = 0.8750-0.3750 1.1250 (   766 PWs)   bands (ev):

    -4.0626   1.0920   3.3889   3.8428

          k =-0.1250-0.8750 0.1250 (   762 PWs)   bands (ev):

    -2.5868  -0.7758   2.6417   3.3749

          k = 0.3750-1.3750 0.6250 (   763 PWs)   bands (ev):

    -3.4530  -0.6607   3.7612   4.4752

          k =-0.3750 0.3750 0.3750 (   763 PWs)   bands (ev):

    -4.1620   0.1290   4.9412   4.9412

          k = 0.1250-0.1250 0.8750 (   762 PWs)   bands (ev):

    -2.5868  -0.7758   2.6417   3.3749

          k = 0.3750-0.3750 1.1250 (   763 PWs)   bands (ev):

    -2.9561  -0.5728   2.0894   4.1573

          k = 0.8750-0.8750 1.6250 (   766 PWs)   bands (ev):

    -4.0626   1.0920   3.3889   3.8428

          k = 0.1250-0.1250 0.1250 (   764 PWs)   bands (ev):

    -5.6256   4.4206   5.7297   5.7297

          k = 0.6250-0.6250 0.6250 (   763 PWs)   bands (ev):

    -4.1620   0.1290   4.9412   4.9412

          k =-0.3750-0.3750-0.1250 (   767 PWs)   bands (ev):

    -4.5964   1.4234   3.7390   5.2489

          k = 0.1250-0.8750 0.3750 (   755 PWs)   bands (ev):

    -2.4179  -0.8738   2.0298   3.1096

          k =-0.1250-0.3750 0.3750 (   767 PWs)   bands (ev):

    -4.5964   1.4234   3.7390   5.2489

          k = 0.3750-0.8750 0.8750 (   766 PWs)   bands (ev):

    -4.0626   1.0920   3.3889   3.8428

          k = 0.3750 0.3750 0.6250 (   763 PWs)   bands (ev):

    -3.4530  -0.6607   3.7612   4.4752

          k = 0.8750-0.1250 1.1250 (   762 PWs)   bands (ev):

    -2.5868  -0.7758   2.6417   3.3749

          k = 0.6250 0.3750-0.3750 (   763 PWs)   bands (ev):

    -3.4530  -0.6607   3.7612   4.4752

          k = 1.1250-0.1250 0.1250 (   762 PWs)   bands (ev):

    -2.5868  -0.7758   2.6417   3.3749

          k = 0.1250 0.1250 0.3750 (   768 PWs)   bands (ev):

    -5.0965   2.8033   4.7189   4.7847

          k = 0.6250-0.3750 0.8750 (   766 PWs)   bands (ev):

    -3.6456   0.2151   2.7460   4.1181

          k = 0.3750 0.1250-0.1250 (   768 PWs)   bands (ev):

    -5.0965   2.8033   4.7189   4.7847

          k = 0.8750-0.3750 0.3750 (   763 PWs)   bands (ev):

    -2.9561  -0.5728   2.0894   4.1573

          k =-0.1250-0.6250-0.1250 (   766 PWs)   bands (ev):

    -4.0626   1.0920   3.3889   3.8428

          k = 0.3750-1.1250 0.3750 (   763 PWs)   bands (ev):

    -2.9561  -0.5728   2.0894   4.1573

          k = 0.1250-0.6250 0.1250 (   766 PWs)   bands (ev):

    -4.0626   1.0920   3.3889   3.8428

          k = 0.6250-1.1250 0.6250 (   767 PWs)   bands (ev):

    -4.5964   1.4234   3.7390   5.2489

          k = 0.6250 0.1250 0.8750 (   755 PWs)   bands (ev):

    -2.4179  -0.8738   2.0298   3.1096

          k = 1.1250-0.3750 1.3750 (   766 PWs)   bands (ev):

    -3.6456   0.2151   2.7460   4.1181

          k =-0.8750 0.1250 0.6250 (   755 PWs)   bands (ev):

    -2.4179  -0.8738   2.0298   3.1096

          k =-0.3750-0.3750 1.1250 (   763 PWs)   bands (ev):

    -2.9561  -0.5728   2.0894   4.1573

          k = 0.8750 0.1250-0.6250 (   755 PWs)   bands (ev):

    -2.4179  -0.8738   2.0298   3.1096

          k = 1.3750-0.3750-0.1250 (   766 PWs)   bands (ev):

    -3.6456   0.2151   2.7460   4.1181

          k = 0.3750-0.1250 0.6250 (   766 PWs)   bands (ev):

    -3.6456   0.2151   2.7460   4.1181

          k = 0.8750-0.6250 1.1250 (   768 PWs)   bands (ev):

    -5.0965   2.8033   4.7189   4.7847

          k =-0.6250-0.1250 0.3750 (   766 PWs)   bands (ev):

    -3.6456   0.2151   2.7460   4.1181

          k =-0.1250-0.6250 0.8750 (   755 PWs)   bands (ev):

    -2.4179  -0.8738   2.0298   3.1096

          k = 0.6250-0.1250-0.3750 (   766 PWs)   bands (ev):

    -3.6456   0.2151   2.7460   4.1181

          k = 1.1250-0.6250 0.1250 (   755 PWs)   bands (ev):

    -2.4179  -0.8738   2.0298   3.1096

          k =-0.1250 0.8750-0.1250 (   762 PWs)   bands (ev):

    -2.5868  -0.7758   2.6417   3.3749

          k = 0.3750 0.3750 0.3750 (   763 PWs)   bands (ev):

    -4.1620   0.1290   4.9412   4.9412

          k = 0.1250 0.8750 0.1250 (   762 PWs)   bands (ev):

    -2.5868  -0.7758   2.6417   3.3749

          k = 0.6250 0.3750 0.6250 (   763 PWs)   bands (ev):

    -3.4530  -0.6607   3.7612   4.4752

          k = 0.3750-0.3750 0.3750 (   763 PWs)   bands (ev):

    -4.1620   0.1290   4.9412   4.9412

          k = 0.8750-0.8750 0.8750 (   764 PWs)   bands (ev):

    -5.6256   4.4206   5.7297   5.7297

          k = 0.3750 0.3750 1.1250 (   763 PWs)   bands (ev):

    -2.9561  -0.5728   2.0894   4.1573

          k = 0.8750-0.1250 1.6250 (   755 PWs)   bands (ev):

    -2.4179  -0.8738   2.0298   3.1096

          k = 1.1250 0.3750-0.3750 (   763 PWs)   bands (ev):

    -2.9561  -0.5728   2.0894   4.1573

          k = 1.6250-0.1250 0.1250 (   768 PWs)   bands (ev):

    -5.0965   2.8033   4.7189   4.7847

     highest occupied level (ev):     5.7297

     Writing output data file silicon.10.322.save

                                                                                

     bravais-lattice index     =            2
     lattice parameter (alat)  =      10.3220  a.u.
     unit-cell volume          =     274.9360 (a.u.)^3
     number of atoms/cell      =            2
     number of atomic types    =            1
     kinetic-energy cut-off    =      30.0000  Ry
     charge density cut-off    =     240.0000  Ry
     convergence threshold     =      1.0E-12
     beta                      =       0.7000
     number of iterations used =            4
     Exchange-correlation      = SLA  PW   PBE  PBE ( 1  4  3  4 0 0)


     celldm(1)=   10.32200  celldm(2)=    0.00000  celldm(3)=    0.00000
     celldm(4)=    0.00000  celldm(5)=    0.00000  celldm(6)=    0.00000

     crystal axes: (cart. coord. in units of alat)
               a(1) = ( -0.5000  0.0000  0.5000 )  
               a(2) = (  0.0000  0.5000  0.5000 )  
               a(3) = ( -0.5000  0.5000  0.0000 )  

     reciprocal axes: (cart. coord. in units 2 pi/alat)
               b(1) = ( -1.0000 -1.0000  1.0000 )  
               b(2) = (  1.0000  1.0000  1.0000 )  
               b(3) = ( -1.0000  1.0000 -1.0000 )  


     Atoms inside the unit cell: 

     Cartesian axes

     site n.  atom      mass           positions (alat units)
        1     Si  28.0860   tau(    1) = (    0.00000    0.00000    0.00000  )
        2     Si  28.0860   tau(    2) = (    0.25000    0.25000    0.25000  )

     Computing dynamical matrix for 
                    q = (   0.5000000  -0.5000000   0.5000000 )

     13 Sym.Ops. (with q -> -q+G )


     G cutoff =  647.7079  (   4288 G-vectors)     FFT grid: ( 36, 36, 36)
     G cutoff =  323.8540  (   1520 G-vectors)  smooth grid: ( 25, 25, 25)
     number of k points=    60

     PseudoPot. # 1 for Si read from file:
     /home/s1333534/quantum_espresso/qe-6.1/pseudo/si_pbe_v1.uspp.F.UPF.txt
     MD5 check sum: a056efeee980c13900f22a371efd63c1
     Pseudo is Ultrasoft + core correction, Zval =  4.0
     Generated by new atomic code, or converted to UPF format
     Using radial grid of  899 points,  6 beta functions with: 
                l(1) =   0
                l(2) =   0
                l(3) =   1
                l(4) =   1
                l(5) =   2
                l(6) =   2
     Q(r) pseudized with  8 coefficients,  rinner =    0.900   0.900   0.900
                                                       0.900   0.900


     Atomic displacements:
     There are   4 irreducible representations

     Representation     1      1 modes -  To be done

     Representation     2      1 modes -  To be done

     Representation     3      2 modes -  To be done

     Representation     4      2 modes -  To be done



     Alpha used in Ewald sum =   2.5000
     PHONON       :    27.62s CPU        37.32s WALL



     Representation #  1 mode #   1

     Self-consistent Calculation

      iter #   1 total cpu time :    37.6 secs   av.it.:   5.0
      thresh= 1.000E-02 alpha_mix =  0.700 |ddv_scf|^2 =  4.195E-06

      iter #   2 total cpu time :    38.0 secs   av.it.:   9.9
      thresh= 2.048E-04 alpha_mix =  0.700 |ddv_scf|^2 =  3.841E-06

      iter #   3 total cpu time :    38.4 secs   av.it.:   9.2
      thresh= 1.960E-04 alpha_mix =  0.700 |ddv_scf|^2 =  2.312E-09

      iter #   4 total cpu time :    38.9 secs   av.it.:   9.4
      thresh= 4.808E-06 alpha_mix =  0.700 |ddv_scf|^2 =  2.250E-11

      iter #   5 total cpu time :    39.2 secs   av.it.:   9.3
      thresh= 4.743E-07 alpha_mix =  0.700 |ddv_scf|^2 =  3.070E-13

     End of self-consistent calculation

     Convergence has been achieved 


     Representation #  2 mode #   2

     Self-consistent Calculation

      iter #   1 total cpu time :    39.6 secs   av.it.:   6.0
      thresh= 1.000E-02 alpha_mix =  0.700 |ddv_scf|^2 =  5.966E-05

      iter #   2 total cpu time :    40.0 secs   av.it.:   9.8
      thresh= 7.724E-04 alpha_mix =  0.700 |ddv_scf|^2 =  1.855E-04

      iter #   3 total cpu time :    40.4 secs   av.it.:   8.6
      thresh= 1.362E-03 alpha_mix =  0.700 |ddv_scf|^2 =  1.324E-08

      iter #   4 total cpu time :    40.8 secs   av.it.:   9.8
      thresh= 1.150E-05 alpha_mix =  0.700 |ddv_scf|^2 =  6.733E-10

      iter #   5 total cpu time :    41.2 secs   av.it.:  10.2
      thresh= 2.595E-06 alpha_mix =  0.700 |ddv_scf|^2 =  2.045E-11

      iter #   6 total cpu time :    41.6 secs   av.it.:   9.7
      thresh= 4.523E-07 alpha_mix =  0.700 |ddv_scf|^2 =  1.534E-13

     End of self-consistent calculation

     Convergence has been achieved 


     Representation #  3 modes #   3  4

     Self-consistent Calculation

      iter #   1 total cpu time :    42.2 secs   av.it.:   5.0
      thresh= 1.000E-02 alpha_mix =  0.700 |ddv_scf|^2 =  2.695E-08

      iter #   2 total cpu time :    42.9 secs   av.it.:  10.9
      thresh= 1.642E-05 alpha_mix =  0.700 |ddv_scf|^2 =  1.590E-09

      iter #   3 total cpu time :    43.7 secs   av.it.:  10.7
      thresh= 3.987E-06 alpha_mix =  0.700 |ddv_scf|^2 =  5.304E-11

      iter #   4 total cpu time :    44.3 secs   av.it.:  10.6
      thresh= 7.283E-07 alpha_mix =  0.700 |ddv_scf|^2 =  4.346E-13

     End of self-consistent calculation

     Convergence has been achieved 


     Representation #  4 modes #   5  6

     Self-consistent Calculation

      iter #   1 total cpu time :    45.1 secs   av.it.:   5.1
      thresh= 1.000E-02 alpha_mix =  0.700 |ddv_scf|^2 =  1.379E-07

      iter #   2 total cpu time :    45.8 secs   av.it.:  11.1
      thresh= 3.714E-05 alpha_mix =  0.700 |ddv_scf|^2 =  1.106E-08

      iter #   3 total cpu time :    46.6 secs   av.it.:  10.9
      thresh= 1.052E-05 alpha_mix =  0.700 |ddv_scf|^2 =  2.910E-10

      iter #   4 total cpu time :    47.3 secs   av.it.:   9.8
      thresh= 1.706E-06 alpha_mix =  0.700 |ddv_scf|^2 =  5.263E-13

     End of self-consistent calculation

     Convergence has been achieved 

     Number of q in the star =    4
     List of q in the star:
          1   0.500000000  -0.500000000   0.500000000
          2   0.500000000   0.500000000   0.500000000
          3  -0.500000000   0.500000000   0.500000000
          4   0.500000000   0.500000000  -0.500000000

     Diagonalizing the dynamical matrix

     q = (    0.500000000  -0.500000000   0.500000000 ) 

 **************************************************************************
     freq (    1) =       3.285271 [THz] =     109.584841 [cm-1]
     freq (    2) =       3.285271 [THz] =     109.584841 [cm-1]
     freq (    3) =      11.110780 [THz] =     370.615730 [cm-1]
     freq (    4) =      12.031429 [THz] =     401.325276 [cm-1]
     freq (    5) =      14.340417 [THz] =     478.344814 [cm-1]
     freq (    6) =      14.340417 [THz] =     478.344814 [cm-1]
 **************************************************************************

     Calculation of q =    0.0000000   0.5000000   0.0000000

   Info: using nr1, nr2, nr3 values from input

   Info: using nr1, nr2, nr3 values from input

     Parallelization info
     --------------------
     sticks:   dense  smooth     PW     G-vecs:    dense   smooth      PW
     Min         217     109     37                 4288     1520     309
     Max         218     111     38                 4289     1521     312
     Sum         871     439    151                17153     6081    1243



     bravais-lattice index     =            2
     lattice parameter (alat)  =      10.3220  a.u.
     unit-cell volume          =     274.9360 (a.u.)^3
     number of atoms/cell      =            2
     number of atomic types    =            1
     number of electrons       =         8.00
     number of Kohn-Sham states=            4
     kinetic-energy cutoff     =      30.0000  Ry
     charge density cutoff     =     240.0000  Ry
     Exchange-correlation      = SLA  PW   PBE  PBE ( 1  4  3  4 0 0)

     celldm(1)=  10.322000  celldm(2)=   0.000000  celldm(3)=   0.000000
     celldm(4)=   0.000000  celldm(5)=   0.000000  celldm(6)=   0.000000

     crystal axes: (cart. coord. in units of alat)
               a(1) = (  -0.500000   0.000000   0.500000 )  
               a(2) = (   0.000000   0.500000   0.500000 )  
               a(3) = (  -0.500000   0.500000   0.000000 )  

     reciprocal axes: (cart. coord. in units 2 pi/alat)
               b(1) = ( -1.000000 -1.000000  1.000000 )  
               b(2) = (  1.000000  1.000000  1.000000 )  
               b(3) = ( -1.000000  1.000000 -1.000000 )  


     PseudoPot. # 1 for Si read from file:
     /home/s1333534/quantum_espresso/qe-6.1/pseudo/si_pbe_v1.uspp.F.UPF.txt
     MD5 check sum: a056efeee980c13900f22a371efd63c1
     Pseudo is Ultrasoft + core correction, Zval =  4.0
     Generated by new atomic code, or converted to UPF format
     Using radial grid of  899 points,  6 beta functions with: 
                l(1) =   0
                l(2) =   0
                l(3) =   1
                l(4) =   1
                l(5) =   2
                l(6) =   2
     Q(r) pseudized with  8 coefficients,  rinner =    0.900   0.900   0.900
                                                       0.900   0.900

     atomic species   valence    mass     pseudopotential
        Si             4.00    28.08600     Si( 1.00)

     48 Sym. Ops., with inversion, found



   Cartesian axes

     site n.     atom                  positions (alat units)
         1           Si  tau(   1) = (   0.0000000   0.0000000   0.0000000  )
         2           Si  tau(   2) = (   0.2500000   0.2500000   0.2500000  )

     number of k points=    80
                       cart. coord. in units 2pi/alat
        k(    1) = (  -0.1250000   0.1250000   0.1250000), wk =   0.0312500
        k(    2) = (  -0.1250000   0.6250000   0.1250000), wk =   0.0000000
        k(    3) = (  -0.3750000   0.3750000  -0.1250000), wk =   0.0625000
        k(    4) = (  -0.3750000   0.8750000  -0.1250000), wk =   0.0000000
        k(    5) = (   0.3750000  -0.3750000   0.6250000), wk =   0.0625000
        k(    6) = (   0.3750000   0.1250000   0.6250000), wk =   0.0000000
        k(    7) = (   0.1250000  -0.1250000   0.3750000), wk =   0.0625000
        k(    8) = (   0.1250000   0.3750000   0.3750000), wk =   0.0000000
        k(    9) = (  -0.1250000   0.6250000   0.1250000), wk =   0.0312500
        k(   10) = (  -0.1250000   1.1250000   0.1250000), wk =   0.0000000
        k(   11) = (   0.6250000  -0.1250000   0.8750000), wk =   0.0625000
        k(   12) = (   0.6250000   0.3750000   0.8750000), wk =   0.0000000
        k(   13) = (   0.3750000   0.1250000   0.6250000), wk =   0.0625000
        k(   14) = (   0.3750000   0.6250000   0.6250000), wk =   0.0000000
        k(   15) = (  -0.1250000  -0.8750000   0.1250000), wk =   0.0312500
        k(   16) = (  -0.1250000  -0.3750000   0.1250000), wk =   0.0000000
        k(   17) = (  -0.3750000   0.3750000   0.3750000), wk =   0.0312500
        k(   18) = (  -0.3750000   0.8750000   0.3750000), wk =   0.0000000
        k(   19) = (   0.3750000  -0.3750000   1.1250000), wk =   0.0625000
        k(   20) = (   0.3750000   0.1250000   1.1250000), wk =   0.0000000
        k(   21) = (  -0.1250000  -0.1250000   0.1250000), wk =   0.0312500
        k(   22) = (  -0.1250000   0.3750000   0.1250000), wk =   0.0000000
        k(   23) = (   0.1250000  -0.3750000   0.3750000), wk =   0.0625000
        k(   24) = (   0.1250000   0.1250000   0.3750000), wk =   0.0000000
        k(   25) = (   0.3750000  -0.1250000   0.3750000), wk =   0.0312500
        k(   26) = (   0.3750000   0.3750000   0.3750000), wk =   0.0000000
        k(   27) = (   0.3750000   0.1250000   0.3750000), wk =   0.0312500
        k(   28) = (   0.3750000   0.6250000   0.3750000), wk =   0.0000000
        k(   29) = (  -0.6250000   0.3750000  -0.3750000), wk =   0.0625000
        k(   30) = (  -0.6250000   0.8750000  -0.3750000), wk =   0.0000000
        k(   31) = (  -0.3750000   0.6250000  -0.3750000), wk =   0.0312500
        k(   32) = (  -0.3750000   1.1250000  -0.3750000), wk =   0.0000000
        k(   33) = (  -0.3750000  -0.6250000  -0.3750000), wk =   0.0312500
        k(   34) = (  -0.3750000  -0.1250000  -0.3750000), wk =   0.0000000
        k(   35) = (  -0.3750000   0.1250000  -0.1250000), wk =   0.0625000
        k(   36) = (  -0.3750000   0.6250000  -0.1250000), wk =   0.0000000
        k(   37) = (  -0.1250000   0.3750000  -0.1250000), wk =   0.0312500
        k(   38) = (  -0.1250000   0.8750000  -0.1250000), wk =   0.0000000
        k(   39) = (  -0.1250000  -0.3750000  -0.1250000), wk =   0.0312500
        k(   40) = (  -0.1250000   0.1250000  -0.1250000), wk =   0.0000000
        k(   41) = (  -0.1250000  -0.6250000   0.1250000), wk =   0.0312500
        k(   42) = (  -0.1250000  -0.1250000   0.1250000), wk =   0.0000000
        k(   43) = (   0.6250000  -0.1250000  -0.1250000), wk =   0.0625000
        k(   44) = (   0.6250000   0.3750000  -0.1250000), wk =   0.0000000
        k(   45) = (   0.6250000   0.1250000   0.1250000), wk =   0.0625000
        k(   46) = (   0.6250000   0.6250000   0.1250000), wk =   0.0000000
        k(   47) = (  -0.8750000   0.1250000  -0.6250000), wk =   0.0625000
        k(   48) = (  -0.8750000   0.6250000  -0.6250000), wk =   0.0000000
        k(   49) = (  -0.1250000   0.6250000  -0.8750000), wk =   0.0625000
        k(   50) = (  -0.1250000   1.1250000  -0.8750000), wk =   0.0000000
        k(   51) = (  -0.1250000   0.8750000  -0.6250000), wk =   0.0625000
        k(   52) = (  -0.1250000   1.3750000  -0.6250000), wk =   0.0000000
        k(   53) = (  -0.1250000  -0.8750000  -0.6250000), wk =   0.0625000
        k(   54) = (  -0.1250000  -0.3750000  -0.6250000), wk =   0.0000000
        k(   55) = (   0.8750000  -0.6250000   0.1250000), wk =   0.0625000
        k(   56) = (   0.8750000  -0.1250000   0.1250000), wk =   0.0000000
        k(   57) = (  -0.6250000  -0.1250000  -0.3750000), wk =   0.0625000
        k(   58) = (  -0.6250000   0.3750000  -0.3750000), wk =   0.0000000
        k(   59) = (   0.1250000   0.3750000  -0.6250000), wk =   0.0625000
        k(   60) = (   0.1250000   0.8750000  -0.6250000), wk =   0.0000000
        k(   61) = (   0.1250000   0.6250000  -0.3750000), wk =   0.0625000
        k(   62) = (   0.1250000   1.1250000  -0.3750000), wk =   0.0000000
        k(   63) = (   0.1250000  -0.6250000  -0.3750000), wk =   0.0625000
        k(   64) = (   0.1250000  -0.1250000  -0.3750000), wk =   0.0000000
        k(   65) = (   0.6250000  -0.3750000  -0.1250000), wk =   0.0625000
        k(   66) = (   0.6250000   0.1250000  -0.1250000), wk =   0.0000000
        k(   67) = (  -0.1250000   0.8750000   0.1250000), wk =   0.0312500
        k(   68) = (  -0.1250000   1.3750000   0.1250000), wk =   0.0000000
        k(   69) = (  -0.8750000  -0.1250000  -0.1250000), wk =   0.0625000
        k(   70) = (  -0.8750000   0.3750000  -0.1250000), wk =   0.0000000
        k(   71) = (  -0.8750000   0.1250000   0.1250000), wk =   0.0625000
        k(   72) = (  -0.8750000   0.6250000   0.1250000), wk =   0.0000000
        k(   73) = (  -0.3750000  -0.3750000   0.3750000), wk =   0.0312500
        k(   74) = (  -0.3750000   0.1250000   0.3750000), wk =   0.0000000
        k(   75) = (  -1.1250000   0.3750000  -0.3750000), wk =   0.0625000
        k(   76) = (  -1.1250000   0.8750000  -0.3750000), wk =   0.0000000
        k(   77) = (  -0.3750000   1.1250000  -0.3750000), wk =   0.0312500
        k(   78) = (  -0.3750000   1.6250000  -0.3750000), wk =   0.0000000
        k(   79) = (  -0.3750000  -1.1250000  -0.3750000), wk =   0.0312500
        k(   80) = (  -0.3750000  -0.6250000  -0.3750000), wk =   0.0000000

     Dense  grid:    17153 G-vectors     FFT dimensions: (  36,  36,  36)

     Smooth grid:     6081 G-vectors     FFT dimensions: (  25,  25,  25)

     Estimated max dynamical RAM per process >       1.51MB

     Estimated total allocated dynamical RAM >       6.06MB

     The potential is recalculated from file :
     ./_ph0/silicon.10.322.save/charge-density.dat

     Starting wfc are    8 atomic wfcs

     Band Structure Calculation
     Davidson diagonalization with overlap

     ethr =  1.25E-10,  avg # of iterations = 12.2

     total cpu time spent up to now is        3.8 secs

     End of band structure calculation

          k =-0.1250 0.1250 0.1250 (   764 PWs)   bands (ev):

    -5.6256   4.4206   5.7297   5.7297

          k =-0.1250 0.6250 0.1250 (   766 PWs)   bands (ev):

    -4.0626   1.0920   3.3889   3.8428

          k =-0.3750 0.3750-0.1250 (   767 PWs)   bands (ev):

    -4.5964   1.4234   3.7390   5.2489

          k =-0.3750 0.8750-0.1250 (   755 PWs)   bands (ev):

    -2.4179  -0.8738   2.0298   3.1096

          k = 0.3750-0.3750 0.6250 (   763 PWs)   bands (ev):

    -3.4530  -0.6607   3.7612   4.4752

          k = 0.3750 0.1250 0.6250 (   766 PWs)   bands (ev):

    -3.6456   0.2151   2.7460   4.1181

          k = 0.1250-0.1250 0.3750 (   768 PWs)   bands (ev):

    -5.0965   2.8033   4.7189   4.7847

          k = 0.1250 0.3750 0.3750 (   767 PWs)   bands (ev):

    -4.5964   1.4234   3.7390   5.2489

          k =-0.1250 0.6250 0.1250 (   766 PWs)   bands (ev):

    -4.0626   1.0920   3.3889   3.8428

          k =-0.1250 1.1250 0.1250 (   762 PWs)   bands (ev):

    -2.5868  -0.7758   2.6417   3.3749

          k = 0.6250-0.1250 0.8750 (   755 PWs)   bands (ev):

    -2.4179  -0.8738   2.0298   3.1096

          k = 0.6250 0.3750 0.8750 (   766 PWs)   bands (ev):

    -3.6456   0.2151   2.7460   4.1181

          k = 0.3750 0.1250 0.6250 (   766 PWs)   bands (ev):

    -3.6456   0.2151   2.7460   4.1181

          k = 0.3750 0.6250 0.6250 (   763 PWs)   bands (ev):

    -3.4530  -0.6607   3.7612   4.4752

          k =-0.1250-0.8750 0.1250 (   762 PWs)   bands (ev):

    -2.5868  -0.7758   2.6417   3.3749

          k =-0.1250-0.3750 0.1250 (   768 PWs)   bands (ev):

    -5.0965   2.8033   4.7189   4.7847

          k =-0.3750 0.3750 0.3750 (   763 PWs)   bands (ev):

    -4.1620   0.1290   4.9412   4.9412

          k =-0.3750 0.8750 0.3750 (   763 PWs)   bands (ev):

    -2.9561  -0.5728   2.0894   4.1573

          k = 0.3750-0.3750 1.1250 (   763 PWs)   bands (ev):

    -2.9561  -0.5728   2.0894   4.1573

          k = 0.3750 0.1250 1.1250 (   755 PWs)   bands (ev):

    -2.4179  -0.8738   2.0298   3.1096

          k =-0.1250-0.1250 0.1250 (   764 PWs)   bands (ev):

    -5.6256   4.4206   5.7297   5.7297

          k =-0.1250 0.3750 0.1250 (   768 PWs)   bands (ev):

    -5.0965   2.8033   4.7189   4.7847

          k = 0.1250-0.3750 0.3750 (   767 PWs)   bands (ev):

    -4.5964   1.4234   3.7390   5.2489

          k = 0.1250 0.1250 0.3750 (   768 PWs)   bands (ev):

    -5.0965   2.8033   4.7189   4.7847

          k = 0.3750-0.1250 0.3750 (   767 PWs)   bands (ev):

    -4.5964   1.4234   3.7390   5.2489

          k = 0.3750 0.3750 0.3750 (   763 PWs)   bands (ev):

    -4.1620   0.1290   4.9412   4.9412

          k = 0.3750 0.1250 0.3750 (   767 PWs)   bands (ev):

    -4.5964   1.4234   3.7390   5.2489

          k = 0.3750 0.6250 0.3750 (   763 PWs)   bands (ev):

    -3.4530  -0.6607   3.7612   4.4752

          k =-0.6250 0.3750-0.3750 (   763 PWs)   bands (ev):

    -3.4530  -0.6607   3.7612   4.4752

          k =-0.6250 0.8750-0.3750 (   766 PWs)   bands (ev):

    -3.6456   0.2151   2.7460   4.1181

          k =-0.3750 0.6250-0.3750 (   763 PWs)   bands (ev):

    -3.4530  -0.6607   3.7612   4.4752

          k =-0.3750 1.1250-0.3750 (   763 PWs)   bands (ev):

    -2.9561  -0.5728   2.0894   4.1573

          k =-0.3750-0.6250-0.3750 (   763 PWs)   bands (ev):

    -3.4530  -0.6607   3.7612   4.4752

          k =-0.3750-0.1250-0.3750 (   767 PWs)   bands (ev):

    -4.5964   1.4234   3.7390   5.2489

          k =-0.3750 0.1250-0.1250 (   768 PWs)   bands (ev):

    -5.0965   2.8033   4.7189   4.7847

          k =-0.3750 0.6250-0.1250 (   766 PWs)   bands (ev):

    -3.6456   0.2151   2.7460   4.1181

          k =-0.1250 0.3750-0.1250 (   768 PWs)   bands (ev):

    -5.0965   2.8033   4.7189   4.7847

          k =-0.1250 0.8750-0.1250 (   762 PWs)   bands (ev):

    -2.5868  -0.7758   2.6417   3.3749

          k =-0.1250-0.3750-0.1250 (   768 PWs)   bands (ev):

    -5.0965   2.8033   4.7189   4.7847

          k =-0.1250 0.1250-0.1250 (   764 PWs)   bands (ev):

    -5.6256   4.4206   5.7297   5.7297

          k =-0.1250-0.6250 0.1250 (   766 PWs)   bands (ev):

    -4.0626   1.0920   3.3889   3.8428

          k =-0.1250-0.1250 0.1250 (   764 PWs)   bands (ev):

    -5.6256   4.4206   5.7297   5.7297

          k = 0.6250-0.1250-0.1250 (   766 PWs)   bands (ev):

    -4.0626   1.0920   3.3889   3.8428

          k = 0.6250 0.3750-0.1250 (   766 PWs)   bands (ev):

    -3.6456   0.2151   2.7460   4.1181

          k = 0.6250 0.1250 0.1250 (   766 PWs)   bands (ev):

    -4.0626   1.0920   3.3889   3.8428

          k = 0.6250 0.6250 0.1250 (   763 PWs)   bands (ev):

    -2.9561  -0.5728   2.0894   4.1573

          k =-0.8750 0.1250-0.6250 (   755 PWs)   bands (ev):

    -2.4179  -0.8738   2.0298   3.1096

          k =-0.8750 0.6250-0.6250 (   767 PWs)   bands (ev):

    -4.5964   1.4234   3.7390   5.2489

          k =-0.1250 0.6250-0.8750 (   755 PWs)   bands (ev):

    -2.4179  -0.8738   2.0298   3.1096

          k =-0.1250 1.1250-0.8750 (   762 PWs)   bands (ev):

    -2.5868  -0.7758   2.6417   3.3749

          k =-0.1250 0.8750-0.6250 (   755 PWs)   bands (ev):

    -2.4179  -0.8738   2.0298   3.1096

          k =-0.1250 1.3750-0.6250 (   763 PWs)   bands (ev):

    -2.9561  -0.5728   2.0894   4.1573

          k =-0.1250-0.8750-0.6250 (   755 PWs)   bands (ev):

    -2.4179  -0.8738   2.0298   3.1096

          k =-0.1250-0.3750-0.6250 (   766 PWs)   bands (ev):

    -3.6456   0.2151   2.7460   4.1181

          k = 0.8750-0.6250 0.1250 (   755 PWs)   bands (ev):

    -2.4179  -0.8738   2.0298   3.1096

          k = 0.8750-0.1250 0.1250 (   762 PWs)   bands (ev):

    -2.5868  -0.7758   2.6417   3.3749

          k =-0.6250-0.1250-0.3750 (   766 PWs)   bands (ev):

    -3.6456   0.2151   2.7460   4.1181

          k =-0.6250 0.3750-0.3750 (   763 PWs)   bands (ev):

    -3.4530  -0.6607   3.7612   4.4752

          k = 0.1250 0.3750-0.6250 (   766 PWs)   bands (ev):

    -3.6456   0.2151   2.7460   4.1181

          k = 0.1250 0.8750-0.6250 (   755 PWs)   bands (ev):

    -2.4179  -0.8738   2.0298   3.1096

          k = 0.1250 0.6250-0.3750 (   766 PWs)   bands (ev):

    -3.6456   0.2151   2.7460   4.1181

          k = 0.1250 1.1250-0.3750 (   755 PWs)   bands (ev):

    -2.4179  -0.8738   2.0298   3.1096

          k = 0.1250-0.6250-0.3750 (   766 PWs)   bands (ev):

    -3.6456   0.2151   2.7460   4.1181

          k = 0.1250-0.1250-0.3750 (   768 PWs)   bands (ev):

    -5.0965   2.8033   4.7189   4.7847

          k = 0.6250-0.3750-0.1250 (   766 PWs)   bands (ev):

    -3.6456   0.2151   2.7460   4.1181

          k = 0.6250 0.1250-0.1250 (   766 PWs)   bands (ev):

    -4.0626   1.0920   3.3889   3.8428

          k =-0.1250 0.8750 0.1250 (   762 PWs)   bands (ev):

    -2.5868  -0.7758   2.6417   3.3749

          k =-0.1250 1.3750 0.1250 (   766 PWs)   bands (ev):

    -4.0626   1.0920   3.3889   3.8428

          k =-0.8750-0.1250-0.1250 (   762 PWs)   bands (ev):

    -2.5868  -0.7758   2.6417   3.3749

          k =-0.8750 0.3750-0.1250 (   755 PWs)   bands (ev):

    -2.4179  -0.8738   2.0298   3.1096

          k =-0.8750 0.1250 0.1250 (   762 PWs)   bands (ev):

    -2.5868  -0.7758   2.6417   3.3749

          k =-0.8750 0.6250 0.1250 (   755 PWs)   bands (ev):

    -2.4179  -0.8738   2.0298   3.1096

          k =-0.3750-0.3750 0.3750 (   763 PWs)   bands (ev):

    -4.1620   0.1290   4.9412   4.9412

          k =-0.3750 0.1250 0.3750 (   767 PWs)   bands (ev):

    -4.5964   1.4234   3.7390   5.2489

          k =-1.1250 0.3750-0.3750 (   763 PWs)   bands (ev):

    -2.9561  -0.5728   2.0894   4.1573

          k =-1.1250 0.8750-0.3750 (   766 PWs)   bands (ev):

    -4.0626   1.0920   3.3889   3.8428

          k =-0.3750 1.1250-0.3750 (   763 PWs)   bands (ev):

    -2.9561  -0.5728   2.0894   4.1573

          k =-0.3750 1.6250-0.3750 (   763 PWs)   bands (ev):

    -4.1620   0.1290   4.9412   4.9412

          k =-0.3750-1.1250-0.3750 (   763 PWs)   bands (ev):

    -2.9561  -0.5728   2.0894   4.1573

          k =-0.3750-0.6250-0.3750 (   763 PWs)   bands (ev):

    -3.4530  -0.6607   3.7612   4.4752

     highest occupied level (ev):     5.7297

     Writing output data file silicon.10.322.save

                                                                                

     bravais-lattice index     =            2
     lattice parameter (alat)  =      10.3220  a.u.
     unit-cell volume          =     274.9360 (a.u.)^3
     number of atoms/cell      =            2
     number of atomic types    =            1
     kinetic-energy cut-off    =      30.0000  Ry
     charge density cut-off    =     240.0000  Ry
     convergence threshold     =      1.0E-12
     beta                      =       0.7000
     number of iterations used =            4
     Exchange-correlation      = SLA  PW   PBE  PBE ( 1  4  3  4 0 0)


     celldm(1)=   10.32200  celldm(2)=    0.00000  celldm(3)=    0.00000
     celldm(4)=    0.00000  celldm(5)=    0.00000  celldm(6)=    0.00000

     crystal axes: (cart. coord. in units of alat)
               a(1) = ( -0.5000  0.0000  0.5000 )  
               a(2) = (  0.0000  0.5000  0.5000 )  
               a(3) = ( -0.5000  0.5000  0.0000 )  

     reciprocal axes: (cart. coord. in units 2 pi/alat)
               b(1) = ( -1.0000 -1.0000  1.0000 )  
               b(2) = (  1.0000  1.0000  1.0000 )  
               b(3) = ( -1.0000  1.0000 -1.0000 )  


     Atoms inside the unit cell: 

     Cartesian axes

     site n.  atom      mass           positions (alat units)
        1     Si  28.0860   tau(    1) = (    0.00000    0.00000    0.00000  )
        2     Si  28.0860   tau(    2) = (    0.25000    0.25000    0.25000  )

     Computing dynamical matrix for 
                    q = (   0.0000000   0.5000000   0.0000000 )

      8 Sym.Ops. (no q -> -q+G )


     G cutoff =  647.7079  (   4288 G-vectors)     FFT grid: ( 36, 36, 36)
     G cutoff =  323.8540  (   1520 G-vectors)  smooth grid: ( 25, 25, 25)
     number of k points=    80

     PseudoPot. # 1 for Si read from file:
     /home/s1333534/quantum_espresso/qe-6.1/pseudo/si_pbe_v1.uspp.F.UPF.txt
     MD5 check sum: a056efeee980c13900f22a371efd63c1
     Pseudo is Ultrasoft + core correction, Zval =  4.0
     Generated by new atomic code, or converted to UPF format
     Using radial grid of  899 points,  6 beta functions with: 
                l(1) =   0
                l(2) =   0
                l(3) =   1
                l(4) =   1
                l(5) =   2
                l(6) =   2
     Q(r) pseudized with  8 coefficients,  rinner =    0.900   0.900   0.900
                                                       0.900   0.900

     Mode symmetry, C_4v (4mm)  point group:


     Atomic displacements:
     There are   4 irreducible representations

     Representation     1      1 modes -A_1  G_1 D_1  To be done

     Representation     2      1 modes -B_2  G_4 D_2'  To be done

     Representation     3      2 modes -E    G_5 D_5  To be done

     Representation     4      2 modes -E    G_5 D_5  To be done



     Alpha used in Ewald sum =   2.5000
     PHONON       :    37.41s CPU        49.72s WALL



     Representation #  1 mode #   1

     Self-consistent Calculation

      iter #   1 total cpu time :    50.1 secs   av.it.:   6.2
      thresh= 1.000E-02 alpha_mix =  0.700 |ddv_scf|^2 =  5.143E-04

      iter #   2 total cpu time :    50.5 secs   av.it.:   9.2
      thresh= 2.268E-03 alpha_mix =  0.700 |ddv_scf|^2 =  6.816E-03

      iter #   3 total cpu time :    50.9 secs   av.it.:   7.3
      thresh= 8.256E-03 alpha_mix =  0.700 |ddv_scf|^2 =  1.020E-08

      iter #   4 total cpu time :    51.4 secs   av.it.:  10.2
      thresh= 1.010E-05 alpha_mix =  0.700 |ddv_scf|^2 =  1.035E-09

      iter #   5 total cpu time :    52.0 secs   av.it.:   9.6
      thresh= 3.217E-06 alpha_mix =  0.700 |ddv_scf|^2 =  1.145E-10

      iter #   6 total cpu time :    52.4 secs   av.it.:   9.3
      thresh= 1.070E-06 alpha_mix =  0.700 |ddv_scf|^2 =  2.893E-13

     End of self-consistent calculation

     Convergence has been achieved 


     Representation #  2 mode #   2

     Self-consistent Calculation

      iter #   1 total cpu time :    52.8 secs   av.it.:   5.1
      thresh= 1.000E-02 alpha_mix =  0.700 |ddv_scf|^2 =  8.116E-07

      iter #   2 total cpu time :    53.3 secs   av.it.:  10.4
      thresh= 9.009E-05 alpha_mix =  0.700 |ddv_scf|^2 =  2.215E-07

      iter #   3 total cpu time :    53.8 secs   av.it.:   9.9
      thresh= 4.706E-05 alpha_mix =  0.700 |ddv_scf|^2 =  2.254E-09

      iter #   4 total cpu time :    54.3 secs   av.it.:  10.1
      thresh= 4.748E-06 alpha_mix =  0.700 |ddv_scf|^2 =  8.798E-11

      iter #   5 total cpu time :    54.7 secs   av.it.:  10.3
      thresh= 9.380E-07 alpha_mix =  0.700 |ddv_scf|^2 =  5.231E-13

     End of self-consistent calculation

     Convergence has been achieved 


     Representation #  3 modes #   3  4

     Self-consistent Calculation

      iter #   1 total cpu time :    55.5 secs   av.it.:   5.2
      thresh= 1.000E-02 alpha_mix =  0.700 |ddv_scf|^2 =  1.439E-07

      iter #   2 total cpu time :    56.4 secs   av.it.:  11.5
      thresh= 3.793E-05 alpha_mix =  0.700 |ddv_scf|^2 =  1.983E-08

      iter #   3 total cpu time :    57.3 secs   av.it.:  11.1
      thresh= 1.408E-05 alpha_mix =  0.700 |ddv_scf|^2 =  3.340E-10

      iter #   4 total cpu time :    58.2 secs   av.it.:  10.7
      thresh= 1.828E-06 alpha_mix =  0.700 |ddv_scf|^2 =  7.839E-13

     End of self-consistent calculation

     Convergence has been achieved 


     Representation #  4 modes #   5  6

     Self-consistent Calculation

      iter #   1 total cpu time :    58.9 secs   av.it.:   5.3
      thresh= 1.000E-02 alpha_mix =  0.700 |ddv_scf|^2 =  1.319E-07

      iter #   2 total cpu time :    59.9 secs   av.it.:  11.4
      thresh= 3.632E-05 alpha_mix =  0.700 |ddv_scf|^2 =  1.770E-08

      iter #   3 total cpu time :    60.9 secs   av.it.:  11.2
      thresh= 1.330E-05 alpha_mix =  0.700 |ddv_scf|^2 =  3.420E-10

      iter #   4 total cpu time :    61.8 secs   av.it.:  11.0
      thresh= 1.849E-06 alpha_mix =  0.700 |ddv_scf|^2 =  8.442E-13

     End of self-consistent calculation

     Convergence has been achieved 

     Number of q in the star =    6
     List of q in the star:
          1   0.000000000   0.500000000   0.000000000
          2   0.000000000  -0.500000000   0.000000000
          3   0.500000000   0.000000000   0.000000000
          4   0.000000000   0.000000000   0.500000000
          5   0.000000000   0.000000000  -0.500000000
          6  -0.500000000   0.000000000   0.000000000

     Diagonalizing the dynamical matrix

     q = (    0.000000000   0.500000000   0.000000000 ) 

 **************************************************************************
     freq (    1) =       3.762360 [THz] =     125.498831 [cm-1]
     freq (    2) =       3.762360 [THz] =     125.498831 [cm-1]
     freq (    3) =       7.083534 [THz] =     236.281265 [cm-1]
     freq (    4) =      13.880070 [THz] =     462.989303 [cm-1]
     freq (    5) =      13.880070 [THz] =     462.989303 [cm-1]
     freq (    6) =      14.503520 [THz] =     483.785366 [cm-1]
 **************************************************************************

     Mode symmetry, C_4v (4mm)  point group:

     freq (  1 -  2) =        125.5  [cm-1]   --> E    G_5 D_5       
     freq (  3 -  3) =        236.3  [cm-1]   --> A_1  G_1 D_1       
     freq (  4 -  5) =        463.0  [cm-1]   --> E    G_5 D_5       
     freq (  6 -  6) =        483.8  [cm-1]   --> B_2  G_4 D_2'      

     Calculation of q =    0.7500000  -0.2500000   0.7500000

   Info: using nr1, nr2, nr3 values from input

   Info: using nr1, nr2, nr3 values from input

     Parallelization info
     --------------------
     sticks:   dense  smooth     PW     G-vecs:    dense   smooth      PW
     Min         217     109     40                 4288     1520     362
     Max         219     111     41                 4289     1521     366
     Sum         871     439    163                17153     6081    1459



     bravais-lattice index     =            2
     lattice parameter (alat)  =      10.3220  a.u.
     unit-cell volume          =     274.9360 (a.u.)^3
     number of atoms/cell      =            2
     number of atomic types    =            1
     number of electrons       =         8.00
     number of Kohn-Sham states=            4
     kinetic-energy cutoff     =      30.0000  Ry
     charge density cutoff     =     240.0000  Ry
     Exchange-correlation      = SLA  PW   PBE  PBE ( 1  4  3  4 0 0)

     celldm(1)=  10.322000  celldm(2)=   0.000000  celldm(3)=   0.000000
     celldm(4)=   0.000000  celldm(5)=   0.000000  celldm(6)=   0.000000

     crystal axes: (cart. coord. in units of alat)
               a(1) = (  -0.500000   0.000000   0.500000 )  
               a(2) = (   0.000000   0.500000   0.500000 )  
               a(3) = (  -0.500000   0.500000   0.000000 )  

     reciprocal axes: (cart. coord. in units 2 pi/alat)
               b(1) = ( -1.000000 -1.000000  1.000000 )  
               b(2) = (  1.000000  1.000000  1.000000 )  
               b(3) = ( -1.000000  1.000000 -1.000000 )  


     PseudoPot. # 1 for Si read from file:
     /home/s1333534/quantum_espresso/qe-6.1/pseudo/si_pbe_v1.uspp.F.UPF.txt
     MD5 check sum: a056efeee980c13900f22a371efd63c1
     Pseudo is Ultrasoft + core correction, Zval =  4.0
     Generated by new atomic code, or converted to UPF format
     Using radial grid of  899 points,  6 beta functions with: 
                l(1) =   0
                l(2) =   0
                l(3) =   1
                l(4) =   1
                l(5) =   2
                l(6) =   2
     Q(r) pseudized with  8 coefficients,  rinner =    0.900   0.900   0.900
                                                       0.900   0.900

     atomic species   valence    mass     pseudopotential
        Si             4.00    28.08600     Si( 1.00)

     48 Sym. Ops., with inversion, found



   Cartesian axes

     site n.     atom                  positions (alat units)
         1           Si  tau(   1) = (   0.0000000   0.0000000   0.0000000  )
         2           Si  tau(   2) = (   0.2500000   0.2500000   0.2500000  )

     number of k points=   288

     Number of k-points >= 100: set verbosity='high' to print them.

     Dense  grid:    17153 G-vectors     FFT dimensions: (  36,  36,  36)

     Smooth grid:     6081 G-vectors     FFT dimensions: (  25,  25,  25)

     Estimated max dynamical RAM per process >       1.51MB

     Estimated total allocated dynamical RAM >       6.06MB

     The potential is recalculated from file :
     ./_ph0/silicon.10.322.save/charge-density.dat

     Starting wfc are    8 atomic wfcs

     Band Structure Calculation
     Davidson diagonalization with overlap

     ethr =  1.25E-10,  avg # of iterations = 12.1

     total cpu time spent up to now is        7.0 secs

     End of band structure calculation

     Number of k-points >= 100: set verbosity='high' to print the bands.

     highest occupied level (ev):     5.7297

     Writing output data file silicon.10.322.save

                                                                                

     bravais-lattice index     =            2
     lattice parameter (alat)  =      10.3220  a.u.
     unit-cell volume          =     274.9360 (a.u.)^3
     number of atoms/cell      =            2
     number of atomic types    =            1
     kinetic-energy cut-off    =      30.0000  Ry
     charge density cut-off    =     240.0000  Ry
     convergence threshold     =      1.0E-12
     beta                      =       0.7000
     number of iterations used =            4
     Exchange-correlation      = SLA  PW   PBE  PBE ( 1  4  3  4 0 0)


     celldm(1)=   10.32200  celldm(2)=    0.00000  celldm(3)=    0.00000
     celldm(4)=    0.00000  celldm(5)=    0.00000  celldm(6)=    0.00000

     crystal axes: (cart. coord. in units of alat)
               a(1) = ( -0.5000  0.0000  0.5000 )  
               a(2) = (  0.0000  0.5000  0.5000 )  
               a(3) = ( -0.5000  0.5000  0.0000 )  

     reciprocal axes: (cart. coord. in units 2 pi/alat)
               b(1) = ( -1.0000 -1.0000  1.0000 )  
               b(2) = (  1.0000  1.0000  1.0000 )  
               b(3) = ( -1.0000  1.0000 -1.0000 )  


     Atoms inside the unit cell: 

     Cartesian axes

     site n.  atom      mass           positions (alat units)
        1     Si  28.0860   tau(    1) = (    0.00000    0.00000    0.00000  )
        2     Si  28.0860   tau(    2) = (    0.25000    0.25000    0.25000  )

     Computing dynamical matrix for 
                    q = (   0.7500000  -0.2500000   0.7500000 )

      2 Sym.Ops. (no q -> -q+G )


     G cutoff =  647.7079  (   4288 G-vectors)     FFT grid: ( 36, 36, 36)
     G cutoff =  323.8540  (   1520 G-vectors)  smooth grid: ( 25, 25, 25)
     number of k points=   288

     PseudoPot. # 1 for Si read from file:
     /home/s1333534/quantum_espresso/qe-6.1/pseudo/si_pbe_v1.uspp.F.UPF.txt
     MD5 check sum: a056efeee980c13900f22a371efd63c1
     Pseudo is Ultrasoft + core correction, Zval =  4.0
     Generated by new atomic code, or converted to UPF format
     Using radial grid of  899 points,  6 beta functions with: 
                l(1) =   0
                l(2) =   0
                l(3) =   1
                l(4) =   1
                l(5) =   2
                l(6) =   2
     Q(r) pseudized with  8 coefficients,  rinner =    0.900   0.900   0.900
                                                       0.900   0.900

     Mode symmetry, C_s (m)     point group:


     Atomic displacements:
     There are   6 irreducible representations

     Representation     1      1 modes -A'  To be done

     Representation     2      1 modes -A'  To be done

     Representation     3      1 modes -A'  To be done

     Representation     4      1 modes -A'  To be done

     Representation     5      1 modes -A''  To be done

     Representation     6      1 modes -A''  To be done



     Alpha used in Ewald sum =   2.5000
     PHONON       :  0m51.32s CPU     1m 7.80s WALL



     Representation #  1 mode #   1

     Self-consistent Calculation

      iter #   1 total cpu time :    68.7 secs   av.it.:   5.6
      thresh= 1.000E-02 alpha_mix =  0.700 |ddv_scf|^2 =  1.049E-05

      iter #   2 total cpu time :    70.0 secs   av.it.:  10.6
      thresh= 3.238E-04 alpha_mix =  0.700 |ddv_scf|^2 =  2.797E-05

      iter #   3 total cpu time :    71.2 secs   av.it.:   9.2
      thresh= 5.289E-04 alpha_mix =  0.700 |ddv_scf|^2 =  1.877E-07

      iter #   4 total cpu time :    72.4 secs   av.it.:   9.9
      thresh= 4.332E-05 alpha_mix =  0.700 |ddv_scf|^2 =  3.716E-09

      iter #   5 total cpu time :    73.7 secs   av.it.:  10.4
      thresh= 6.096E-06 alpha_mix =  0.700 |ddv_scf|^2 =  6.395E-10

      iter #   6 total cpu time :    75.0 secs   av.it.:  10.3
      thresh= 2.529E-06 alpha_mix =  0.700 |ddv_scf|^2 =  9.669E-12

      iter #   7 total cpu time :    76.3 secs   av.it.:  10.6
      thresh= 3.109E-07 alpha_mix =  0.700 |ddv_scf|^2 =  3.643E-13

     End of self-consistent calculation

     Convergence has been achieved 


     Representation #  2 mode #   2

     Self-consistent Calculation

      iter #   1 total cpu time :    77.3 secs   av.it.:   5.8
      thresh= 1.000E-02 alpha_mix =  0.700 |ddv_scf|^2 =  1.879E-05

      iter #   2 total cpu time :    78.7 secs   av.it.:  10.4
      thresh= 4.334E-04 alpha_mix =  0.700 |ddv_scf|^2 =  5.441E-05

      iter #   3 total cpu time :    79.9 secs   av.it.:   9.0
      thresh= 7.376E-04 alpha_mix =  0.700 |ddv_scf|^2 =  1.263E-07

      iter #   4 total cpu time :    81.1 secs   av.it.:  10.2
      thresh= 3.554E-05 alpha_mix =  0.700 |ddv_scf|^2 =  4.199E-09

      iter #   5 total cpu time :    82.4 secs   av.it.:  10.4
      thresh= 6.480E-06 alpha_mix =  0.700 |ddv_scf|^2 =  8.559E-10

      iter #   6 total cpu time :    83.7 secs   av.it.:  10.3
      thresh= 2.926E-06 alpha_mix =  0.700 |ddv_scf|^2 =  8.866E-12

      iter #   7 total cpu time :    85.0 secs   av.it.:  10.6
      thresh= 2.978E-07 alpha_mix =  0.700 |ddv_scf|^2 =  3.126E-13

     End of self-consistent calculation

     Convergence has been achieved 


     Representation #  3 mode #   3

     Self-consistent Calculation

      iter #   1 total cpu time :    86.1 secs   av.it.:   5.7
      thresh= 1.000E-02 alpha_mix =  0.700 |ddv_scf|^2 =  1.472E-05

      iter #   2 total cpu time :    87.4 secs   av.it.:  10.4
      thresh= 3.837E-04 alpha_mix =  0.700 |ddv_scf|^2 =  4.005E-05

      iter #   3 total cpu time :    88.6 secs   av.it.:   9.0
      thresh= 6.329E-04 alpha_mix =  0.700 |ddv_scf|^2 =  2.205E-07

      iter #   4 total cpu time :    89.9 secs   av.it.:  10.0
      thresh= 4.696E-05 alpha_mix =  0.700 |ddv_scf|^2 =  4.280E-09

      iter #   5 total cpu time :    91.2 secs   av.it.:  10.5
      thresh= 6.542E-06 alpha_mix =  0.700 |ddv_scf|^2 =  8.359E-10

      iter #   6 total cpu time :    92.5 secs   av.it.:  10.3
      thresh= 2.891E-06 alpha_mix =  0.700 |ddv_scf|^2 =  6.192E-12

      iter #   7 total cpu time :    93.7 secs   av.it.:  10.5
      thresh= 2.488E-07 alpha_mix =  0.700 |ddv_scf|^2 =  1.808E-13

     End of self-consistent calculation

     Convergence has been achieved 


     Representation #  4 mode #   4

     Self-consistent Calculation

      iter #   1 total cpu time :    94.7 secs   av.it.:   5.5
      thresh= 1.000E-02 alpha_mix =  0.700 |ddv_scf|^2 =  6.417E-06

      iter #   2 total cpu time :    96.1 secs   av.it.:  10.7
      thresh= 2.533E-04 alpha_mix =  0.700 |ddv_scf|^2 =  1.359E-05

      iter #   3 total cpu time :    97.3 secs   av.it.:   9.4
      thresh= 3.686E-04 alpha_mix =  0.700 |ddv_scf|^2 =  2.942E-07

      iter #   4 total cpu time :    98.6 secs   av.it.:   9.8
      thresh= 5.424E-05 alpha_mix =  0.700 |ddv_scf|^2 =  3.666E-09

      iter #   5 total cpu time :    99.9 secs   av.it.:  10.5
      thresh= 6.055E-06 alpha_mix =  0.700 |ddv_scf|^2 =  6.861E-10

      iter #   6 total cpu time :   101.4 secs   av.it.:  10.4
      thresh= 2.619E-06 alpha_mix =  0.700 |ddv_scf|^2 =  4.080E-12

      iter #   7 total cpu time :   102.7 secs   av.it.:  10.6
      thresh= 2.020E-07 alpha_mix =  0.700 |ddv_scf|^2 =  1.842E-13

     End of self-consistent calculation

     Convergence has been achieved 


     Representation #  5 mode #   5

     Self-consistent Calculation

      iter #   1 total cpu time :   103.7 secs   av.it.:   5.2
      thresh= 1.000E-02 alpha_mix =  0.700 |ddv_scf|^2 =  6.651E-07

      iter #   2 total cpu time :   105.1 secs   av.it.:  10.3
      thresh= 8.155E-05 alpha_mix =  0.700 |ddv_scf|^2 =  1.085E-07

      iter #   3 total cpu time :   106.4 secs   av.it.:  10.1
      thresh= 3.293E-05 alpha_mix =  0.700 |ddv_scf|^2 =  1.447E-09

      iter #   4 total cpu time :   107.7 secs   av.it.:   9.6
      thresh= 3.804E-06 alpha_mix =  0.700 |ddv_scf|^2 =  3.384E-12

      iter #   5 total cpu time :   108.9 secs   av.it.:  10.0
      thresh= 1.840E-07 alpha_mix =  0.700 |ddv_scf|^2 =  9.486E-14

     End of self-consistent calculation

     Convergence has been achieved 


     Representation #  6 mode #   6

     Self-consistent Calculation

      iter #   1 total cpu time :   109.8 secs   av.it.:   5.2
      thresh= 1.000E-02 alpha_mix =  0.700 |ddv_scf|^2 =  6.651E-07

      iter #   2 total cpu time :   111.2 secs   av.it.:  10.3
[...]
        k(   59) = (  -0.8750000   0.1250000  -0.1250000), wk =   0.0625000
        k(   60) = (  -1.3750000  -0.8750000  -0.1250000), wk =   0.0000000
        k(   61) = (  -1.1250000   0.3750000  -0.3750000), wk =   0.0625000
        k(   62) = (  -1.6250000  -0.6250000  -0.3750000), wk =   0.0000000
        k(   63) = (  -0.3750000   0.3750000   1.1250000), wk =   0.0625000
        k(   64) = (  -0.8750000  -0.6250000   1.1250000), wk =   0.0000000

     Dense  grid:    17153 G-vectors     FFT dimensions: (  36,  36,  36)

     Smooth grid:     6081 G-vectors     FFT dimensions: (  25,  25,  25)

     Estimated max dynamical RAM per process >       1.51MB

     Estimated total allocated dynamical RAM >       6.06MB

     The potential is recalculated from file :
     ./_ph0/silicon.10.322.save/charge-density.dat

     Starting wfc are    8 atomic wfcs

     Band Structure Calculation
     Davidson diagonalization with overlap

     ethr =  1.25E-10,  avg # of iterations = 12.1

     total cpu time spent up to now is       10.9 secs

     End of band structure calculation

          k =-0.1250 0.1250 0.1250 (   764 PWs)   bands (ev):

    -5.6256   4.4206   5.7297   5.7297

          k =-0.6250-0.8750 0.1250 (   755 PWs)   bands (ev):

    -2.4179  -0.8738   2.0298   3.1096

          k =-0.3750 0.3750-0.1250 (   767 PWs)   bands (ev):

    -4.5964   1.4234   3.7390   5.2489

          k =-0.8750-0.6250-0.1250 (   755 PWs)   bands (ev):

    -2.4179  -0.8738   2.0298   3.1096

          k = 0.3750-0.3750 0.6250 (   763 PWs)   bands (ev):

    -3.4530  -0.6607   3.7612   4.4752

          k =-0.1250-1.3750 0.6250 (   763 PWs)   bands (ev):

    -2.9561  -0.5728   2.0894   4.1573

          k = 0.1250-0.1250 0.3750 (   768 PWs)   bands (ev):

    -5.0965   2.8033   4.7189   4.7847

          k =-0.3750-1.1250 0.3750 (   763 PWs)   bands (ev):

    -2.9561  -0.5728   2.0894   4.1573

          k =-0.1250 0.6250 0.1250 (   766 PWs)   bands (ev):

    -4.0626   1.0920   3.3889   3.8428

          k =-0.6250-0.3750 0.1250 (   766 PWs)   bands (ev):

    -3.6456   0.2151   2.7460   4.1181

          k = 0.6250-0.1250 0.8750 (   755 PWs)   bands (ev):

    -2.4179  -0.8738   2.0298   3.1096

          k = 0.1250-1.1250 0.8750 (   762 PWs)   bands (ev):

    -2.5868  -0.7758   2.6417   3.3749

          k = 0.3750 0.1250 0.6250 (   766 PWs)   bands (ev):

    -3.6456   0.2151   2.7460   4.1181

          k =-0.1250-0.8750 0.6250 (   755 PWs)   bands (ev):

    -2.4179  -0.8738   2.0298   3.1096

          k =-0.1250-0.8750 0.1250 (   762 PWs)   bands (ev):

    -2.5868  -0.7758   2.6417   3.3749

          k =-0.6250-1.8750 0.1250 (   766 PWs)   bands (ev):

    -4.0626   1.0920   3.3889   3.8428

          k =-0.3750 0.3750 0.3750 (   763 PWs)   bands (ev):

    -4.1620   0.1290   4.9412   4.9412

          k =-0.8750-0.6250 0.3750 (   766 PWs)   bands (ev):

    -3.6456   0.2151   2.7460   4.1181

          k = 0.3750-0.3750 1.1250 (   763 PWs)   bands (ev):

    -2.9561  -0.5728   2.0894   4.1573

          k =-0.1250-1.3750 1.1250 (   755 PWs)   bands (ev):

    -2.4179  -0.8738   2.0298   3.1096

          k = 0.1250-0.3750 0.3750 (   767 PWs)   bands (ev):

    -4.5964   1.4234   3.7390   5.2489

          k =-0.3750-1.3750 0.3750 (   763 PWs)   bands (ev):

    -3.4530  -0.6607   3.7612   4.4752

          k = 0.3750-0.3750-0.1250 (   767 PWs)   bands (ev):

    -4.5964   1.4234   3.7390   5.2489

          k =-0.1250-1.3750-0.1250 (   766 PWs)   bands (ev):

    -4.0626   1.0920   3.3889   3.8428

          k =-0.6250 0.3750-0.3750 (   763 PWs)   bands (ev):

    -3.4530  -0.6607   3.7612   4.4752

          k =-1.1250-0.6250-0.3750 (   766 PWs)   bands (ev):

    -3.6456   0.2151   2.7460   4.1181

          k =-0.3750 0.3750 0.6250 (   763 PWs)   bands (ev):

    -3.4530  -0.6607   3.7612   4.4752

          k =-0.8750-0.6250 0.6250 (   767 PWs)   bands (ev):

    -4.5964   1.4234   3.7390   5.2489

          k =-0.3750 0.1250-0.1250 (   768 PWs)   bands (ev):

    -5.0965   2.8033   4.7189   4.7847

          k =-0.8750-0.8750-0.1250 (   762 PWs)   bands (ev):

    -2.5868  -0.7758   2.6417   3.3749

          k =-0.1250 0.1250 0.3750 (   768 PWs)   bands (ev):

    -5.0965   2.8033   4.7189   4.7847

          k =-0.6250-0.8750 0.3750 (   766 PWs)   bands (ev):

    -3.6456   0.2151   2.7460   4.1181

          k = 0.1250 0.6250-0.1250 (   766 PWs)   bands (ev):

    -4.0626   1.0920   3.3889   3.8428

          k =-0.3750-0.3750-0.1250 (   767 PWs)   bands (ev):

    -4.5964   1.4234   3.7390   5.2489

          k = 0.6250 0.1250-0.1250 (   766 PWs)   bands (ev):

    -4.0626   1.0920   3.3889   3.8428

          k = 0.1250-0.8750-0.1250 (   762 PWs)   bands (ev):

    -2.5868  -0.7758   2.6417   3.3749

          k =-0.8750 0.1250-0.6250 (   755 PWs)   bands (ev):

    -2.4179  -0.8738   2.0298   3.1096

          k =-1.3750-0.8750-0.6250 (   767 PWs)   bands (ev):

    -4.5964   1.4234   3.7390   5.2489

          k = 0.8750-0.1250 0.6250 (   755 PWs)   bands (ev):

    -2.4179  -0.8738   2.0298   3.1096

          k = 0.3750-1.1250 0.6250 (   766 PWs)   bands (ev):

    -3.6456   0.2151   2.7460   4.1181

          k =-0.6250 0.1250 0.8750 (   755 PWs)   bands (ev):

    -2.4179  -0.8738   2.0298   3.1096

          k =-1.1250-0.8750 0.8750 (   764 PWs)   bands (ev):

    -5.6256   4.4206   5.7297   5.7297

          k =-0.1250 0.8750 0.6250 (   755 PWs)   bands (ev):

    -2.4179  -0.8738   2.0298   3.1096

          k =-0.6250-0.1250 0.6250 (   763 PWs)   bands (ev):

    -2.9561  -0.5728   2.0894   4.1573

          k = 0.1250 0.8750-0.6250 (   755 PWs)   bands (ev):

    -2.4179  -0.8738   2.0298   3.1096

          k =-0.3750-0.1250-0.6250 (   766 PWs)   bands (ev):

    -3.6456   0.2151   2.7460   4.1181

          k =-0.6250-0.1250-0.3750 (   766 PWs)   bands (ev):

    -3.6456   0.2151   2.7460   4.1181

          k =-1.1250-1.1250-0.3750 (   766 PWs)   bands (ev):

    -4.0626   1.0920   3.3889   3.8428

          k = 0.6250 0.1250 0.3750 (   766 PWs)   bands (ev):

    -3.6456   0.2151   2.7460   4.1181

          k = 0.1250-0.8750 0.3750 (   755 PWs)   bands (ev):

    -2.4179  -0.8738   2.0298   3.1096

          k =-0.3750-0.1250 0.6250 (   766 PWs)   bands (ev):

    -3.6456   0.2151   2.7460   4.1181

          k =-0.8750-1.1250 0.6250 (   768 PWs)   bands (ev):

    -5.0965   2.8033   4.7189   4.7847

          k = 0.1250 0.6250 0.3750 (   766 PWs)   bands (ev):

    -3.6456   0.2151   2.7460   4.1181

          k =-0.3750-0.3750 0.3750 (   763 PWs)   bands (ev):

    -4.1620   0.1290   4.9412   4.9412

          k =-0.1250 0.6250-0.3750 (   766 PWs)   bands (ev):

    -3.6456   0.2151   2.7460   4.1181

          k =-0.6250-0.3750-0.3750 (   763 PWs)   bands (ev):

    -3.4530  -0.6607   3.7612   4.4752

          k = 0.1250-0.8750-0.1250 (   762 PWs)   bands (ev):

    -2.5868  -0.7758   2.6417   3.3749

          k =-0.3750-1.8750-0.1250 (   768 PWs)   bands (ev):

    -5.0965   2.8033   4.7189   4.7847

          k =-0.8750 0.1250-0.1250 (   762 PWs)   bands (ev):

    -2.5868  -0.7758   2.6417   3.3749

          k =-1.3750-0.8750-0.1250 (   755 PWs)   bands (ev):

    -2.4179  -0.8738   2.0298   3.1096

          k =-1.1250 0.3750-0.3750 (   763 PWs)   bands (ev):

    -2.9561  -0.5728   2.0894   4.1573

          k =-1.6250-0.6250-0.3750 (   763 PWs)   bands (ev):

    -3.4530  -0.6607   3.7612   4.4752

          k =-0.3750 0.3750 1.1250 (   763 PWs)   bands (ev):

    -2.9561  -0.5728   2.0894   4.1573

          k =-0.8750-0.6250 1.1250 (   768 PWs)   bands (ev):

    -5.0965   2.8033   4.7189   4.7847

     highest occupied level (ev):     5.7297

     Writing output data file silicon.10.322.save

                                                                                

     bravais-lattice index     =            2
     lattice parameter (alat)  =      10.3220  a.u.
     unit-cell volume          =     274.9360 (a.u.)^3
     number of atoms/cell      =            2
     number of atomic types    =            1
     kinetic-energy cut-off    =      30.0000  Ry
     charge density cut-off    =     240.0000  Ry
     convergence threshold     =      1.0E-12
     beta                      =       0.7000
     number of iterations used =            4
     Exchange-correlation      = SLA  PW   PBE  PBE ( 1  4  3  4 0 0)


     celldm(1)=   10.32200  celldm(2)=    0.00000  celldm(3)=    0.00000
     celldm(4)=    0.00000  celldm(5)=    0.00000  celldm(6)=    0.00000

     crystal axes: (cart. coord. in units of alat)
               a(1) = ( -0.5000  0.0000  0.5000 )  
               a(2) = (  0.0000  0.5000  0.5000 )  
               a(3) = ( -0.5000  0.5000  0.0000 )  

     reciprocal axes: (cart. coord. in units 2 pi/alat)
               b(1) = ( -1.0000 -1.0000  1.0000 )  
               b(2) = (  1.0000  1.0000  1.0000 )  
               b(3) = ( -1.0000  1.0000 -1.0000 )  


     Atoms inside the unit cell: 

     Cartesian axes

     site n.  atom      mass           positions (alat units)
        1     Si  28.0860   tau(    1) = (    0.00000    0.00000    0.00000  )
        2     Si  28.0860   tau(    2) = (    0.25000    0.25000    0.25000  )

     Computing dynamical matrix for 
                    q = (  -0.5000000  -1.0000000   0.0000000 )

      8 Sym.Ops. (no q -> -q+G )


     G cutoff =  647.7079  (   4288 G-vectors)     FFT grid: ( 36, 36, 36)
     G cutoff =  323.8540  (   1520 G-vectors)  smooth grid: ( 25, 25, 25)
     number of k points=    64

     PseudoPot. # 1 for Si read from file:
     /home/s1333534/quantum_espresso/qe-6.1/pseudo/si_pbe_v1.uspp.F.UPF.txt
     MD5 check sum: a056efeee980c13900f22a371efd63c1
     Pseudo is Ultrasoft + core correction, Zval =  4.0
     Generated by new atomic code, or converted to UPF format
     Using radial grid of  899 points,  6 beta functions with: 
                l(1) =   0
                l(2) =   0
                l(3) =   1
                l(4) =   1
                l(5) =   2
                l(6) =   2
     Q(r) pseudized with  8 coefficients,  rinner =    0.900   0.900   0.900
                                                       0.900   0.900


     Atomic displacements:
     There are   3 irreducible representations

     Representation     1      2 modes -  To be done

     Representation     2      2 modes -  To be done

     Representation     3      2 modes -  To be done



     Alpha used in Ewald sum =   2.5000
     PHONON       :  2m 3.06s CPU     2m34.88s WALL



     Representation #  1 modes #   1  2

     Self-consistent Calculation

      iter #   1 total cpu time :   155.6 secs   av.it.:   5.7
      thresh= 1.000E-02 alpha_mix =  0.700 |ddv_scf|^2 =  1.085E-06

      iter #   2 total cpu time :   156.5 secs   av.it.:  11.6
      thresh= 1.042E-04 alpha_mix =  0.700 |ddv_scf|^2 =  6.144E-07

      iter #   3 total cpu time :   157.3 secs   av.it.:  11.1
      thresh= 7.838E-05 alpha_mix =  0.700 |ddv_scf|^2 =  5.900E-10

      iter #   4 total cpu time :   158.1 secs   av.it.:  11.0
      thresh= 2.429E-06 alpha_mix =  0.700 |ddv_scf|^2 =  2.624E-12

      iter #   5 total cpu time :   158.8 secs   av.it.:  11.1
      thresh= 1.620E-07 alpha_mix =  0.700 |ddv_scf|^2 =  6.928E-14

     End of self-consistent calculation

     Convergence has been achieved 


     Representation #  2 modes #   3  4

     Self-consistent Calculation

      iter #   1 total cpu time :   159.5 secs   av.it.:   5.7
      thresh= 1.000E-02 alpha_mix =  0.700 |ddv_scf|^2 =  1.681E-06

      iter #   2 total cpu time :   160.3 secs   av.it.:  11.6
      thresh= 1.297E-04 alpha_mix =  0.700 |ddv_scf|^2 =  2.273E-06

      iter #   3 total cpu time :   161.1 secs   av.it.:  10.9
      thresh= 1.508E-04 alpha_mix =  0.700 |ddv_scf|^2 =  6.985E-10

      iter #   4 total cpu time :   161.9 secs   av.it.:  11.0
      thresh= 2.643E-06 alpha_mix =  0.700 |ddv_scf|^2 =  1.069E-11

      iter #   5 total cpu time :   162.7 secs   av.it.:  11.1
      thresh= 3.270E-07 alpha_mix =  0.700 |ddv_scf|^2 =  1.782E-13

     End of self-consistent calculation

     Convergence has been achieved 


     Representation #  3 modes #   5  6

     Self-consistent Calculation

      iter #   1 total cpu time :   163.4 secs   av.it.:   5.3
      thresh= 1.000E-02 alpha_mix =  0.700 |ddv_scf|^2 =  4.408E-07

      iter #   2 total cpu time :   164.3 secs   av.it.:  11.6
      thresh= 6.639E-05 alpha_mix =  0.700 |ddv_scf|^2 =  2.576E-07

      iter #   3 total cpu time :   165.1 secs   av.it.:  11.1
      thresh= 5.075E-05 alpha_mix =  0.700 |ddv_scf|^2 =  5.126E-10

      iter #   4 total cpu time :   166.0 secs   av.it.:  11.1
      thresh= 2.264E-06 alpha_mix =  0.700 |ddv_scf|^2 =  6.013E-12

      iter #   5 total cpu time :   166.7 secs   av.it.:  11.1
      thresh= 2.452E-07 alpha_mix =  0.700 |ddv_scf|^2 =  8.332E-14

     End of self-consistent calculation

     Convergence has been achieved 

     Number of q in the star =    6
     List of q in the star:
          1  -0.500000000  -1.000000000   0.000000000
          2   0.000000000   1.000000000   0.500000000
          3   0.000000000  -1.000000000  -0.500000000
          4   0.500000000   1.000000000   0.000000000
          5  -1.000000000  -0.500000000   0.000000000
          6   0.000000000  -0.500000000  -1.000000000

     Diagonalizing the dynamical matrix

     q = (   -0.500000000  -1.000000000   0.000000000 ) 

 **************************************************************************
     freq (    1) =       6.010774 [THz] =     200.497848 [cm-1]
     freq (    2) =       6.010774 [THz] =     200.497848 [cm-1]
     freq (    3) =      10.364963 [THz] =     345.737949 [cm-1]
     freq (    4) =      10.364963 [THz] =     345.737949 [cm-1]
     freq (    5) =      13.623594 [THz] =     454.434191 [cm-1]
     freq (    6) =      13.623594 [THz] =     454.434191 [cm-1]
 **************************************************************************

     init_run     :      1.23s CPU      1.30s WALL (       7 calls)
     electrons    :      7.18s CPU      7.79s WALL (       7 calls)

     Called by init_run:
     wfcinit      :      0.00s CPU      0.03s WALL (       7 calls)
     potinit      :      0.07s CPU      0.09s WALL (       7 calls)

     Called by electrons:
     c_bands      :      7.18s CPU      7.79s WALL (       7 calls)
     v_of_rho     :      0.06s CPU      0.06s WALL (       8 calls)
     newd         :      0.12s CPU      0.12s WALL (       8 calls)

     Called by c_bands:
     init_us_2    :      1.66s CPU      1.60s WALL (   16040 calls)
     cegterg      :      6.02s CPU      6.49s WALL (     796 calls)

     Called by sum_band:

     Called by *egterg:
     h_psi        :     68.69s CPU     73.73s WALL (  154459 calls)
     s_psi        :      5.77s CPU      7.03s WALL (  311320 calls)
     g_psi        :      0.05s CPU      0.07s WALL (    9666 calls)
     cdiaghg      :      0.58s CPU      0.58s WALL (   10462 calls)

     Called by h_psi:
     h_psi:pot    :     68.27s CPU     73.22s WALL (  154459 calls)
     h_psi:calbec :      3.48s CPU      4.00s WALL (  154459 calls)
     vloc_psi     :     60.17s CPU     65.07s WALL (  154459 calls)
     add_vuspsi   :      4.30s CPU      3.68s WALL (  154459 calls)

     General routines
     calbec       :      8.14s CPU      8.52s WALL (  345772 calls)
     fft          :      1.58s CPU      1.64s WALL (    5265 calls)
     ffts         :      0.20s CPU      0.22s WALL (    3320 calls)
     fftw         :     63.36s CPU     67.60s WALL ( 1383910 calls)
     interpolate  :      0.22s CPU      0.24s WALL (     572 calls)
     davcio       :      0.33s CPU      0.90s WALL (   69876 calls)

     Parallel routines
     fft_scatter  :     16.32s CPU     19.63s WALL ( 1392495 calls)

     PHONON       :  2m12.16s CPU     2m47.20s WALL

     INITIALIZATION: 
     phq_setup    :      0.23s CPU      0.41s WALL (       8 calls)
     phq_init     :      6.78s CPU      7.18s WALL (       8 calls)

     phq_init     :      6.78s CPU      7.18s WALL (       8 calls)
     set_drhoc    :      1.82s CPU      1.82s WALL (      24 calls)
     init_vloc    :      0.03s CPU      0.03s WALL (       8 calls)
     init_us_1    :      0.96s CPU      0.97s WALL (       8 calls)
     newd         :      0.12s CPU      0.12s WALL (       8 calls)
     dvanqq       :      1.16s CPU      1.19s WALL (       8 calls)
     drho         :      2.58s CPU      2.67s WALL (       8 calls)

     DYNAMICAL MATRIX:
     dynmat0      :      1.71s CPU      1.85s WALL (       8 calls)
     phqscf       :    111.94s CPU    138.78s WALL (       8 calls)
     dynmatrix    :      0.01s CPU      0.38s WALL (       8 calls)

     phqscf       :    111.94s CPU    138.78s WALL (       8 calls)
     solve_linter :    111.05s CPU    135.86s WALL (      32 calls)
     drhodv       :      0.62s CPU      0.64s WALL (      32 calls)

     dynmat0      :      1.71s CPU      1.85s WALL (       8 calls)
     dynmat_us    :      0.39s CPU      0.39s WALL (       8 calls)
     d2ionq       :      0.04s CPU      0.04s WALL (       8 calls)
     dynmatcc     :      1.27s CPU      1.28s WALL (       8 calls)

     dynmat_us    :      0.39s CPU      0.39s WALL (       8 calls)
     addusdynmat  :      0.00s CPU      0.00s WALL (       8 calls)

     phqscf       :    111.94s CPU    138.78s WALL (       8 calls)
     solve_linter :    111.05s CPU    135.86s WALL (      32 calls)

     solve_linter :    111.05s CPU    135.86s WALL (      32 calls)
     dvqpsi_us    :      2.12s CPU      2.27s WALL (    2508 calls)
     ortho        :      0.89s CPU      1.02s WALL (   13630 calls)
     cgsolve      :     76.29s CPU     83.09s WALL (   13630 calls)
     incdrhoscf   :      6.21s CPU      6.77s WALL (   13630 calls)
     addusddens   :      7.09s CPU      7.14s WALL (     202 calls)
     vpsifft      :      4.49s CPU      4.91s WALL (   11002 calls)
     dv_of_drho   :      1.26s CPU      1.29s WALL (     256 calls)
     mix_pot      :      0.41s CPU      8.49s WALL (     175 calls)
     psymdvscf    :      4.07s CPU      4.12s WALL (     170 calls)
     newdq        :      7.63s CPU      7.66s WALL (     175 calls)
     adddvscf     :      0.46s CPU      0.44s WALL (   11122 calls)
     drhodvus     :      0.01s CPU      0.01s WALL (      32 calls)

     dvqpsi_us    :      2.12s CPU      2.27s WALL (    2508 calls)
     dvqpsi_us_on :      0.91s CPU      0.94s WALL (    2508 calls)

     cgsolve      :     76.29s CPU     83.09s WALL (   13630 calls)
     ch_psi       :     75.19s CPU     81.35s WALL (  143201 calls)

     ch_psi       :     75.19s CPU     81.35s WALL (  143201 calls)
     h_psi        :     68.69s CPU     73.73s WALL (  154459 calls)
     last         :      8.99s CPU      9.16s WALL (  143201 calls)

     h_psi        :     68.69s CPU     73.73s WALL (  154459 calls)
     add_vuspsi   :      4.30s CPU      3.68s WALL (  154459 calls)

     incdrhoscf   :      6.21s CPU      6.77s WALL (   13630 calls)
     addusdbec    :      0.49s CPU      0.53s WALL (   16078 calls)

     drhodvus     :      0.01s CPU      0.01s WALL (      32 calls)

      General routines
     calbec       :      8.14s CPU      8.52s WALL (  345772 calls)
     fft          :      1.58s CPU      1.64s WALL (    5265 calls)
     ffts         :      0.20s CPU      0.22s WALL (    3320 calls)
     fftw         :     63.36s CPU     67.60s WALL ( 1383910 calls)
     davcio       :      0.33s CPU      0.90s WALL (   69876 calls)
     write_rec    :      0.23s CPU     10.85s WALL (     207 calls)


     PHONON       :  2m12.16s CPU     2m47.20s WALL


   This run was terminated on:  15:49:39  10Nov2017            

=------------------------------------------------------------------------------=
   JOB DONE.
=------------------------------------------------------------------------------=
