
     Program PWSCF v.6.1 (svn rev. 13369) starts on 10Nov2017 at 10:14:53 

     This program is part of the open-source Quantum ESPRESSO suite
     for quantum simulation of materials; please cite
         "P. Giannozzi et al., J. Phys.:Condens. Matter 21 395502 (2009);
          URL http://www.quantum-espresso.org", 
     in publications or presentations arising from this work. More details at
     http://www.quantum-espresso.org/quote

     Parallel version (MPI), running on     4 processors
     R & G space division:  proc/nbgrp/npool/nimage =       4
     Waiting for input...
     Reading input from standard input
     Message from routine read_cards :
     DEPRECATED: no units specified in ATOMIC_POSITIONS card
     Message from routine read_cards :
     ATOMIC_POSITIONS: units set to alat

     Current dimensions of program PWSCF are:
     Max number of different atomic species (ntypx) = 10
     Max number of k-points (npk) =  40000
     Max angular momentum in pseudopotentials (lmaxx) =  3

     Subspace diagonalization in iterative solution of the eigenvalue problem:
     a serial algorithm will be used


     Parallelization info
     --------------------
     sticks:   dense  smooth     PW     G-vecs:    dense   smooth      PW
     Min         222     109     37                 4369     1545     309
     Max         223     110     38                 4370     1546     312
     Sum         889     439    151                17477     6183    1243



     bravais-lattice index     =            2
     lattice parameter (alat)  =      10.3700  a.u.
     unit-cell volume          =     278.7894 (a.u.)^3
     number of atoms/cell      =            2
     number of atomic types    =            1
     number of electrons       =         8.00
     number of Kohn-Sham states=            4
     kinetic-energy cutoff     =      30.0000  Ry
     charge density cutoff     =     240.0000  Ry
     convergence threshold     =      1.0E-08
     mixing beta               =       0.7000
     number of iterations used =            8  plain     mixing
     Exchange-correlation      = SLA  PW   PBE  PBE ( 1  4  3  4 0 0)

     celldm(1)=  10.370000  celldm(2)=   0.000000  celldm(3)=   0.000000
     celldm(4)=   0.000000  celldm(5)=   0.000000  celldm(6)=   0.000000

     crystal axes: (cart. coord. in units of alat)
               a(1) = (  -0.500000   0.000000   0.500000 )  
               a(2) = (   0.000000   0.500000   0.500000 )  
               a(3) = (  -0.500000   0.500000   0.000000 )  

     reciprocal axes: (cart. coord. in units 2 pi/alat)
               b(1) = ( -1.000000 -1.000000  1.000000 )  
               b(2) = (  1.000000  1.000000  1.000000 )  
               b(3) = ( -1.000000  1.000000 -1.000000 )  


     PseudoPot. # 1 for Si read from file:
     /home/max/quantum_espresso/qe-6.1/pseudo/si_pbe_v1.uspp.F.UPF.txt
     MD5 check sum: a056efeee980c13900f22a371efd63c1
     Pseudo is Ultrasoft + core correction, Zval =  4.0
     Generated by new atomic code, or converted to UPF format
     Using radial grid of  899 points,  6 beta functions with: 
                l(1) =   0
                l(2) =   0
                l(3) =   1
                l(4) =   1
                l(5) =   2
                l(6) =   2
     Q(r) pseudized with  8 coefficients,  rinner =    0.900   0.900   0.900
                                                       0.900   0.900

     atomic species   valence    mass     pseudopotential
        Si             4.00    28.08600     Si( 1.00)

     48 Sym. Ops., with inversion, found (24 have fractional translation)



   Cartesian axes

     site n.     atom                  positions (alat units)
         1           Si  tau(   1) = (   0.0000000   0.0000000   0.0000000  )
         2           Si  tau(   2) = (   0.2500000   0.2500000   0.2500000  )

     number of k points=    28
                       cart. coord. in units 2pi/alat
        k(    1) = (  -0.0833333   0.0833333   0.0833333), wk =   0.0185185
        k(    2) = (  -0.2500000   0.2500000  -0.0833333), wk =   0.0555556
        k(    3) = (  -0.4166667   0.4166667  -0.2500000), wk =   0.0555556
        k(    4) = (   0.4166667  -0.4166667   0.5833333), wk =   0.0555556
        k(    5) = (   0.2500000  -0.2500000   0.4166667), wk =   0.0555556
        k(    6) = (   0.0833333  -0.0833333   0.2500000), wk =   0.0555556
        k(    7) = (  -0.0833333   0.4166667   0.0833333), wk =   0.0555556
        k(    8) = (  -0.2500000   0.5833333  -0.0833333), wk =   0.1111111
        k(    9) = (   0.5833333  -0.2500000   0.7500000), wk =   0.1111111
        k(   10) = (   0.4166667  -0.0833333   0.5833333), wk =   0.1111111
        k(   11) = (   0.2500000   0.0833333   0.4166667), wk =   0.1111111
        k(   12) = (  -0.0833333   0.7500000   0.0833333), wk =   0.0555556
        k(   13) = (   0.7500000  -0.0833333   0.9166667), wk =   0.1111111
        k(   14) = (   0.5833333   0.0833333   0.7500000), wk =   0.1111111
        k(   15) = (   0.4166667   0.2500000   0.5833333), wk =   0.1111111
        k(   16) = (  -0.0833333  -0.9166667   0.0833333), wk =   0.0555556
        k(   17) = (  -0.2500000  -0.7500000  -0.0833333), wk =   0.1111111
        k(   18) = (  -0.0833333  -0.5833333   0.0833333), wk =   0.0555556
        k(   19) = (  -0.2500000   0.2500000   0.2500000), wk =   0.0185185
        k(   20) = (  -0.4166667   0.4166667   0.0833333), wk =   0.0555556
        k(   21) = (   0.4166667  -0.4166667   0.9166667), wk =   0.0555556
        k(   22) = (   0.2500000  -0.2500000   0.7500000), wk =   0.0555556
        k(   23) = (  -0.2500000   0.5833333   0.2500000), wk =   0.0555556
        k(   24) = (   0.5833333  -0.2500000   1.0833333), wk =   0.1111111
        k(   25) = (   0.4166667  -0.0833333   0.9166667), wk =   0.1111111
        k(   26) = (  -0.2500000  -1.0833333   0.2500000), wk =   0.0555556
        k(   27) = (  -0.4166667   0.4166667   0.4166667), wk =   0.0185185
        k(   28) = (   0.4166667  -0.4166667   1.2500000), wk =   0.0555556

     Dense  grid:    17477 G-vectors     FFT dimensions: (  40,  40,  40)

     Smooth grid:     6183 G-vectors     FFT dimensions: (  25,  25,  25)

     Estimated max dynamical RAM per process >       3.38MB

     Estimated total allocated dynamical RAM >      13.52MB

     Initial potential from superposition of free atoms

     starting charge    7.99866, renormalised to    8.00000
     Starting wfc are    8 randomized atomic wfcs

     total cpu time spent up to now is        0.5 secs

     per-process dynamical memory:     9.9 Mb

     Self-consistent Calculation

     iteration #  1     ecut=    30.00 Ry     beta=0.70
     Davidson diagonalization with overlap
     ethr =  1.00E-02,  avg # of iterations =  2.0

     Threshold (ethr) on eigenvalues was too large:
     Diagonalizing with lowered threshold

     Davidson diagonalization with overlap
     ethr =  6.65E-04,  avg # of iterations =  1.0

     total cpu time spent up to now is        0.9 secs

     total energy              =     -19.19118984 Ry
     Harris-Foulkes estimate   =     -19.20322625 Ry
     estimated scf accuracy    <       0.05274713 Ry

     iteration #  2     ecut=    30.00 Ry     beta=0.70
     Davidson diagonalization with overlap
     ethr =  6.59E-04,  avg # of iterations =  1.0

     total cpu time spent up to now is        1.3 secs

     total energy              =     -19.19290178 Ry
     Harris-Foulkes estimate   =     -19.19306885 Ry
     estimated scf accuracy    <       0.00245045 Ry

     iteration #  3     ecut=    30.00 Ry     beta=0.70
     Davidson diagonalization with overlap
     ethr =  3.06E-05,  avg # of iterations =  2.2

     total cpu time spent up to now is        1.5 secs

     total energy              =     -19.19323866 Ry
     Harris-Foulkes estimate   =     -19.19325080 Ry
     estimated scf accuracy    <       0.00003985 Ry

     iteration #  4     ecut=    30.00 Ry     beta=0.70
     Davidson diagonalization with overlap
     ethr =  4.98E-07,  avg # of iterations =  3.4

     total cpu time spent up to now is        1.8 secs

     total energy              =     -19.19327380 Ry
     Harris-Foulkes estimate   =     -19.19327446 Ry
     estimated scf accuracy    <       0.00000262 Ry

     iteration #  5     ecut=    30.00 Ry     beta=0.70
     Davidson diagonalization with overlap
     ethr =  3.28E-08,  avg # of iterations =  2.0

     total cpu time spent up to now is        2.1 secs

     total energy              =     -19.19327415 Ry
     Harris-Foulkes estimate   =     -19.19327415 Ry
     estimated scf accuracy    <       0.00000001 Ry

     iteration #  6     ecut=    30.00 Ry     beta=0.70
     Davidson diagonalization with overlap
     ethr =  1.26E-10,  avg # of iterations =  4.0

     total cpu time spent up to now is        2.4 secs

     End of self-consistent calculation

          k =-0.0833 0.0833 0.0833 (   770 PWs)   bands (ev):

    -5.7872   5.0112   5.7316   5.7316

          k =-0.2500 0.2500-0.0833 (   779 PWs)   bands (ev):

    -5.3221   2.9537   4.5271   5.5228

          k =-0.4167 0.4167-0.2500 (   775 PWs)   bands (ev):

    -4.2592   0.2539   4.0650   4.9000

          k = 0.4167-0.4167 0.5833 (   777 PWs)   bands (ev):

    -3.5857  -0.8565   4.1252   4.5299

          k = 0.2500-0.2500 0.4167 (   776 PWs)   bands (ev):

    -4.6591   1.0800   4.5919   4.6129

          k = 0.0833-0.0833 0.2500 (   781 PWs)   bands (ev):

    -5.5523   3.9463   5.1043   5.2763

          k =-0.0833 0.4167 0.0833 (   779 PWs)   bands (ev):

    -5.0866   2.7500   4.3702   4.3921

          k =-0.2500 0.5833-0.0833 (   776 PWs)   bands (ev):

    -4.1992   0.9438   3.0895   4.0127

          k = 0.5833-0.2500 0.7500 (   772 PWs)   bands (ev):

    -3.1189  -0.7522   2.4943   3.7936

          k = 0.4167-0.0833 0.5833 (   775 PWs)   bands (ev):

    -3.8165   0.2710   2.4630   4.2648

          k = 0.2500 0.0833 0.4167 (   778 PWs)   bands (ev):

    -4.8670   1.9398   3.7685   4.9116

          k =-0.0833 0.7500 0.0833 (   775 PWs)   bands (ev):

    -3.5040   0.1197   3.0586   3.3860

          k = 0.7500-0.0833 0.9167 (   766 PWs)   bands (ev):

    -2.3405  -1.1916   2.2448   2.9941

          k = 0.5833 0.0833 0.7500 (   767 PWs)   bands (ev):

    -2.7087  -0.8516   1.7721   3.5249

          k = 0.4167 0.2500 0.5833 (   775 PWs)   bands (ev):

    -3.7104  -0.3775   3.3672   4.3586

          k =-0.0833-0.9167 0.0833 (   770 PWs)   bands (ev):

    -2.4269  -1.1980   2.7962   3.1752

          k =-0.2500-0.7500-0.0833 (   772 PWs)   bands (ev):

    -3.3414  -0.0962   2.5529   3.3264

          k =-0.0833-0.5833 0.0833 (   782 PWs)   bands (ev):

    -4.3987   1.4610   3.5873   3.7992

          k =-0.2500 0.2500 0.2500 (   784 PWs)   bands (ev):

    -5.0984   2.0006   5.1311   5.1311

          k =-0.4167 0.4167 0.0833 (   783 PWs)   bands (ev):

    -4.4366   1.0690   3.0537   4.9636

          k = 0.4167-0.4167 0.9167 (   773 PWs)   bands (ev):

    -3.2913  -0.3503   1.9791   4.1989

          k = 0.2500-0.2500 0.7500 (   777 PWs)   bands (ev):

    -3.2390  -0.4284   2.4409   3.7300

          k =-0.2500 0.5833 0.2500 (   779 PWs)   bands (ev):

    -4.0242   0.2833   3.4941   4.0943

          k = 0.5833-0.2500 1.0833 (   767 PWs)   bands (ev):

    -3.0495  -0.4711   2.0783   3.3269

          k = 0.4167-0.0833 0.9167 (   764 PWs)   bands (ev):

    -2.2409  -1.1993   1.9259   2.6798

          k =-0.2500-1.0833 0.2500 (   768 PWs)   bands (ev):

    -2.4471  -1.1001   1.8027   3.5400

          k =-0.4167 0.4167 0.4167 (   769 PWs)   bands (ev):

    -3.9417  -0.4668   4.7486   4.7486

          k = 0.4167-0.4167 1.2500 (   776 PWs)   bands (ev):

    -3.3553  -0.7701   2.9536   4.3218

     highest occupied level (ev):     5.7316

!    total energy              =     -19.19327418 Ry
     Harris-Foulkes estimate   =     -19.19327418 Ry
     estimated scf accuracy    <          4.4E-10 Ry

     The total energy is the sum of the following terms:

     one-electron contribution =       4.87048428 Ry
     hartree contribution      =       1.14325777 Ry
     xc contribution           =      -8.58430288 Ry
     ewald contribution        =     -16.62271335 Ry

     convergence has been achieved in   6 iterations

     Writing output data file silicon.10.37.save

     init_run     :      0.36s CPU      0.40s WALL (       1 calls)
     electrons    :      1.50s CPU      1.90s WALL (       1 calls)

     Called by init_run:
     wfcinit      :      0.08s CPU      0.09s WALL (       1 calls)
     potinit      :      0.03s CPU      0.03s WALL (       1 calls)

     Called by electrons:
     c_bands      :      0.88s CPU      1.15s WALL (       7 calls)
     sum_band     :      0.34s CPU      0.42s WALL (       7 calls)
     v_of_rho     :      0.13s CPU      0.16s WALL (       7 calls)
     newd         :      0.16s CPU      0.19s WALL (       7 calls)
     mix_rho      :      0.01s CPU      0.01s WALL (       7 calls)

     Called by c_bands:
     init_us_2    :      0.06s CPU      0.07s WALL (     420 calls)
     cegterg      :      0.75s CPU      0.98s WALL (     196 calls)

     Called by sum_band:
     sum_band:bec :      0.00s CPU      0.00s WALL (     196 calls)
     addusdens    :      0.16s CPU      0.19s WALL (       7 calls)

     Called by *egterg:
     h_psi        :      0.64s CPU      0.84s WALL (     661 calls)
     s_psi        :      0.05s CPU      0.06s WALL (     661 calls)
     g_psi        :      0.00s CPU      0.00s WALL (     437 calls)
     cdiaghg      :      0.04s CPU      0.05s WALL (     605 calls)

     Called by h_psi:
     h_psi:pot    :      0.64s CPU      0.84s WALL (     661 calls)
     h_psi:calbec :      0.08s CPU      0.10s WALL (     661 calls)
     vloc_psi     :      0.50s CPU      0.67s WALL (     661 calls)
     add_vuspsi   :      0.06s CPU      0.06s WALL (     661 calls)

     General routines
     calbec       :      0.10s CPU      0.13s WALL (     857 calls)
     fft          :      0.09s CPU      0.12s WALL (     112 calls)
     ffts         :      0.00s CPU      0.00s WALL (      14 calls)
     fftw         :      0.50s CPU      0.68s WALL (    5704 calls)
     interpolate  :      0.01s CPU      0.01s WALL (      14 calls)
     davcio       :      0.00s CPU      0.00s WALL (      28 calls)

     Parallel routines
     fft_scatter  :      0.23s CPU      0.39s WALL (    5830 calls)

     PWSCF        :     2.08s CPU         2.53s WALL


   This run was terminated on:  10:14:55  10Nov2017            

=------------------------------------------------------------------------------=
   JOB DONE.
=------------------------------------------------------------------------------=
