
     Program PWSCF v.6.1 (svn rev. 13369) starts on 10Nov2017 at 10: 3:20 

     This program is part of the open-source Quantum ESPRESSO suite
     for quantum simulation of materials; please cite
         "P. Giannozzi et al., J. Phys.:Condens. Matter 21 395502 (2009);
          URL http://www.quantum-espresso.org", 
     in publications or presentations arising from this work. More details at
     http://www.quantum-espresso.org/quote

     Parallel version (MPI), running on     4 processors
     R & G space division:  proc/nbgrp/npool/nimage =       4
     Waiting for input...
     Reading input from standard input
     Message from routine read_cards :
     DEPRECATED: no units specified in ATOMIC_POSITIONS card
     Message from routine read_cards :
     ATOMIC_POSITIONS: units set to alat

     Current dimensions of program PWSCF are:
     Max number of different atomic species (ntypx) = 10
     Max number of k-points (npk) =  40000
     Max angular momentum in pseudopotentials (lmaxx) =  3

     Subspace diagonalization in iterative solution of the eigenvalue problem:
     a serial algorithm will be used


     Parallelization info
     --------------------
     sticks:   dense  smooth     PW     G-vecs:    dense   smooth      PW
     Min         133      66     22                 2024      722     152
     Max         134      67     23                 2025      724     153
     Sum         535     265     91                 8099     2891     609



     bravais-lattice index     =            2
     lattice parameter (alat)  =      10.3950  a.u.
     unit-cell volume          =     280.8106 (a.u.)^3
     number of atoms/cell      =            2
     number of atomic types    =            1
     number of electrons       =         8.00
     number of Kohn-Sham states=            4
     kinetic-energy cutoff     =      18.0000  Ry
     charge density cutoff     =     144.0000  Ry
     convergence threshold     =      1.0E-08
     mixing beta               =       0.7000
     number of iterations used =            8  plain     mixing
     Exchange-correlation      = SLA  PW   PBE  PBE ( 1  4  3  4 0 0)

     celldm(1)=  10.395000  celldm(2)=   0.000000  celldm(3)=   0.000000
     celldm(4)=   0.000000  celldm(5)=   0.000000  celldm(6)=   0.000000

     crystal axes: (cart. coord. in units of alat)
               a(1) = (  -0.500000   0.000000   0.500000 )  
               a(2) = (   0.000000   0.500000   0.500000 )  
               a(3) = (  -0.500000   0.500000   0.000000 )  

     reciprocal axes: (cart. coord. in units 2 pi/alat)
               b(1) = ( -1.000000 -1.000000  1.000000 )  
               b(2) = (  1.000000  1.000000  1.000000 )  
               b(3) = ( -1.000000  1.000000 -1.000000 )  


     PseudoPot. # 1 for Si read from file:
     /home/max/quantum_espresso/qe-6.1/pseudo/si_pbe_v1.uspp.F.UPF.txt
     MD5 check sum: a056efeee980c13900f22a371efd63c1
     Pseudo is Ultrasoft + core correction, Zval =  4.0
     Generated by new atomic code, or converted to UPF format
     Using radial grid of  899 points,  6 beta functions with: 
                l(1) =   0
                l(2) =   0
                l(3) =   1
                l(4) =   1
                l(5) =   2
                l(6) =   2
     Q(r) pseudized with  8 coefficients,  rinner =    0.900   0.900   0.900
                                                       0.900   0.900

     atomic species   valence    mass     pseudopotential
        Si             4.00    28.08600     Si( 1.00)

     24 Sym. Ops. (no inversion) found
          (note: 24 additional sym.ops. were found but ignored
           their fractional translations are incommensurate with FFT grid)


   Cartesian axes

     site n.     atom                  positions (alat units)
         1           Si  tau(   1) = (   0.0000000   0.0000000   0.0000000  )
         2           Si  tau(   2) = (   0.2500000   0.2500000   0.2500000  )

     number of k points=    60
                       cart. coord. in units 2pi/alat
        k(    1) = (  -0.0625000   0.0625000   0.0625000), wk =   0.0078125
        k(    2) = (  -0.1875000   0.1875000  -0.0625000), wk =   0.0234375
        k(    3) = (  -0.3125000   0.3125000  -0.1875000), wk =   0.0234375
        k(    4) = (  -0.4375000   0.4375000  -0.3125000), wk =   0.0234375
        k(    5) = (   0.4375000  -0.4375000   0.5625000), wk =   0.0234375
        k(    6) = (   0.3125000  -0.3125000   0.4375000), wk =   0.0234375
        k(    7) = (   0.1875000  -0.1875000   0.3125000), wk =   0.0234375
        k(    8) = (   0.0625000  -0.0625000   0.1875000), wk =   0.0234375
        k(    9) = (  -0.0625000   0.3125000   0.0625000), wk =   0.0234375
        k(   10) = (  -0.1875000   0.4375000  -0.0625000), wk =   0.0468750
        k(   11) = (  -0.3125000   0.5625000  -0.1875000), wk =   0.0468750
        k(   12) = (   0.5625000  -0.3125000   0.6875000), wk =   0.0468750
        k(   13) = (   0.4375000  -0.1875000   0.5625000), wk =   0.0468750
        k(   14) = (   0.3125000  -0.0625000   0.4375000), wk =   0.0468750
        k(   15) = (   0.1875000   0.0625000   0.3125000), wk =   0.0468750
        k(   16) = (  -0.0625000   0.5625000   0.0625000), wk =   0.0234375
        k(   17) = (  -0.1875000   0.6875000  -0.0625000), wk =   0.0468750
        k(   18) = (   0.6875000  -0.1875000   0.8125000), wk =   0.0468750
        k(   19) = (   0.5625000  -0.0625000   0.6875000), wk =   0.0468750
        k(   20) = (   0.4375000   0.0625000   0.5625000), wk =   0.0468750
        k(   21) = (   0.3125000   0.1875000   0.4375000), wk =   0.0468750
        k(   22) = (  -0.0625000   0.8125000   0.0625000), wk =   0.0234375
        k(   23) = (   0.8125000  -0.0625000   0.9375000), wk =   0.0468750
        k(   24) = (   0.6875000   0.0625000   0.8125000), wk =   0.0468750
        k(   25) = (   0.5625000   0.1875000   0.6875000), wk =   0.0468750
        k(   26) = (   0.4375000   0.3125000   0.5625000), wk =   0.0468750
        k(   27) = (  -0.0625000  -0.9375000   0.0625000), wk =   0.0234375
        k(   28) = (  -0.1875000  -0.8125000  -0.0625000), wk =   0.0468750
        k(   29) = (  -0.3125000  -0.6875000  -0.1875000), wk =   0.0468750
        k(   30) = (  -0.0625000  -0.6875000   0.0625000), wk =   0.0234375
        k(   31) = (  -0.1875000  -0.5625000  -0.0625000), wk =   0.0468750
        k(   32) = (  -0.0625000  -0.4375000   0.0625000), wk =   0.0234375
        k(   33) = (  -0.1875000   0.1875000   0.1875000), wk =   0.0078125
        k(   34) = (  -0.3125000   0.3125000   0.0625000), wk =   0.0234375
        k(   35) = (  -0.4375000   0.4375000  -0.0625000), wk =   0.0234375
        k(   36) = (   0.4375000  -0.4375000   0.8125000), wk =   0.0234375
        k(   37) = (   0.3125000  -0.3125000   0.6875000), wk =   0.0234375
        k(   38) = (   0.1875000  -0.1875000   0.5625000), wk =   0.0234375
        k(   39) = (  -0.1875000   0.4375000   0.1875000), wk =   0.0234375
        k(   40) = (  -0.3125000   0.5625000   0.0625000), wk =   0.0468750
        k(   41) = (   0.5625000  -0.3125000   0.9375000), wk =   0.0468750
        k(   42) = (   0.4375000  -0.1875000   0.8125000), wk =   0.0468750
        k(   43) = (   0.3125000  -0.0625000   0.6875000), wk =   0.0468750
        k(   44) = (  -0.1875000   0.6875000   0.1875000), wk =   0.0234375
        k(   45) = (   0.6875000  -0.1875000   1.0625000), wk =   0.0468750
        k(   46) = (   0.5625000  -0.0625000   0.9375000), wk =   0.0468750
        k(   47) = (   0.4375000   0.0625000   0.8125000), wk =   0.0468750
        k(   48) = (  -0.1875000  -1.0625000   0.1875000), wk =   0.0234375
        k(   49) = (  -0.3125000  -0.9375000   0.0625000), wk =   0.0468750
        k(   50) = (  -0.1875000  -0.8125000   0.1875000), wk =   0.0234375
        k(   51) = (  -0.3125000   0.3125000   0.3125000), wk =   0.0078125
        k(   52) = (  -0.4375000   0.4375000   0.1875000), wk =   0.0234375
        k(   53) = (   0.4375000  -0.4375000   1.0625000), wk =   0.0234375
        k(   54) = (   0.3125000  -0.3125000   0.9375000), wk =   0.0234375
        k(   55) = (  -0.3125000   0.5625000   0.3125000), wk =   0.0234375
        k(   56) = (   0.5625000  -0.3125000   1.1875000), wk =   0.0468750
        k(   57) = (   0.4375000  -0.1875000   1.0625000), wk =   0.0468750
        k(   58) = (  -0.3125000  -1.1875000   0.3125000), wk =   0.0234375
        k(   59) = (  -0.4375000   0.4375000   0.4375000), wk =   0.0078125
        k(   60) = (   0.4375000  -0.4375000   1.3125000), wk =   0.0234375

     Dense  grid:     8099 G-vectors     FFT dimensions: (  30,  30,  30)

     Smooth grid:     2891 G-vectors     FFT dimensions: (  20,  20,  20)

     Estimated max dynamical RAM per process >       1.73MB

     Estimated total allocated dynamical RAM >       6.94MB

     Initial potential from superposition of free atoms

     starting charge    7.99866, renormalised to    8.00000
     Starting wfc are    8 randomized atomic wfcs

     total cpu time spent up to now is        0.4 secs

     per-process dynamical memory:     8.6 Mb

     Self-consistent Calculation

     iteration #  1     ecut=    18.00 Ry     beta=0.70
     Davidson diagonalization with overlap
     ethr =  1.00E-02,  avg # of iterations =  2.0

     Threshold (ethr) on eigenvalues was too large:
     Diagonalizing with lowered threshold

     Davidson diagonalization with overlap
     ethr =  6.55E-04,  avg # of iterations =  1.1

     total cpu time spent up to now is        0.7 secs

     total energy              =     -19.18917102 Ry
     Harris-Foulkes estimate   =     -19.20086493 Ry
     estimated scf accuracy    <       0.05221567 Ry

     iteration #  2     ecut=    18.00 Ry     beta=0.70
     Davidson diagonalization with overlap
     ethr =  6.53E-04,  avg # of iterations =  1.0

     total cpu time spent up to now is        0.9 secs

     total energy              =     -19.19076994 Ry
     Harris-Foulkes estimate   =     -19.19093965 Ry
     estimated scf accuracy    <       0.00245003 Ry

     iteration #  3     ecut=    18.00 Ry     beta=0.70
     Davidson diagonalization with overlap
     ethr =  3.06E-05,  avg # of iterations =  1.9

     total cpu time spent up to now is        1.2 secs

     total energy              =     -19.19103317 Ry
     Harris-Foulkes estimate   =     -19.19104508 Ry
     estimated scf accuracy    <       0.00003867 Ry

     iteration #  4     ecut=    18.00 Ry     beta=0.70
     Davidson diagonalization with overlap
     ethr =  4.83E-07,  avg # of iterations =  2.8

     total cpu time spent up to now is        1.9 secs

     total energy              =     -19.19105599 Ry
     Harris-Foulkes estimate   =     -19.19105641 Ry
     estimated scf accuracy    <       0.00000187 Ry

     iteration #  5     ecut=    18.00 Ry     beta=0.70
     Davidson diagonalization with overlap
     ethr =  2.34E-08,  avg # of iterations =  2.2

     total cpu time spent up to now is        2.1 secs

     total energy              =     -19.19105641 Ry
     Harris-Foulkes estimate   =     -19.19105643 Ry
     estimated scf accuracy    <       0.00000005 Ry

     iteration #  6     ecut=    18.00 Ry     beta=0.70
     Davidson diagonalization with overlap
     ethr =  5.70E-10,  avg # of iterations =  2.7

     total cpu time spent up to now is        2.4 secs

     End of self-consistent calculation

          k =-0.0625 0.0625 0.0625 (   338 PWs)   bands (ev):

    -5.8480   5.2672   5.7189   5.7189

          k =-0.1875 0.1875-0.0625 (   353 PWs)   bands (ev):

    -5.5865   3.7724   4.9316   5.6013

          k =-0.3125 0.3125-0.1875 (   356 PWs)   bands (ev):

    -4.9542   1.5881   4.4499   5.1479

          k =-0.4375 0.4375-0.3125 (   360 PWs)   bands (ev):

    -4.0758  -0.2565   4.2345   4.7489

          k = 0.4375-0.4375 0.5625 (   360 PWs)   bands (ev):

    -3.6423  -0.9376   4.2814   4.5362

          k = 0.3125-0.3125 0.4375 (   357 PWs)   bands (ev):

    -4.3760   0.2881   4.5581   4.5617

          k = 0.1875-0.1875 0.3125 (   357 PWs)   bands (ev):

    -5.2021   2.3034   4.8309   5.0178

          k = 0.0625-0.0625 0.1875 (   344 PWs)   bands (ev):

    -5.7164   4.5162   5.3039   5.4538

          k =-0.0625 0.3125 0.0625 (   354 PWs)   bands (ev):

    -5.4542   3.6210   4.7587   4.8341

          k =-0.1875 0.4375-0.0625 (   357 PWs)   bands (ev):

    -4.9417   2.1433   3.8094   4.5810

          k =-0.3125 0.5625-0.1875 (   361 PWs)   bands (ev):

    -4.1176   0.3296   3.3165   4.1822

          k = 0.5625-0.3125 0.6875 (   368 PWs)   bands (ev):

    -3.3793  -0.8470   3.0306   4.0919

          k = 0.4375-0.1875 0.5625 (   363 PWs)   bands (ev):

    -3.8225  -0.1766   2.9630   4.3689

          k = 0.3125-0.0625 0.4375 (   359 PWs)   bands (ev):

    -4.6998   1.5081   3.2667   4.8637

          k = 0.1875 0.0625 0.3125 (   359 PWs)   bands (ev):

    -5.3272   2.9628   4.3673   5.2280

          k =-0.0625 0.5625 0.0625 (   355 PWs)   bands (ev):

    -4.5496   1.6344   3.6706   3.7892

          k =-0.1875 0.6875-0.0625 (   359 PWs)   bands (ev):

    -3.8150   0.4211   2.9038   3.4512

          k = 0.6875-0.1875 0.8125 (   365 PWs)   bands (ev):

    -2.9414  -0.7461   2.0838   3.4202

          k = 0.5625-0.0625 0.6875 (   367 PWs)   bands (ev):

    -3.0122  -0.6537   1.7418   3.7556

          k = 0.4375 0.0625 0.5625 (   365 PWs)   bands (ev):

    -3.8855   0.2849   2.3281   4.3260

          k = 0.3125 0.1875 0.4375 (   358 PWs)   bands (ev):

    -4.5896   0.9254   3.9161   4.7660

          k =-0.0625 0.8125 0.0625 (   362 PWs)   bands (ev):

    -3.1751  -0.4266   2.9979   3.2076

          k = 0.8125-0.0625 0.9375 (   363 PWs)   bands (ev):

    -2.2870  -1.3958   2.4574   2.9720

          k = 0.6875 0.0625 0.8125 (   369 PWs)   bands (ev):

    -2.3873  -1.2306   1.7493   3.2797

          k = 0.5625 0.1875 0.6875 (   365 PWs)   bands (ev):

    -3.1282  -0.8119   2.2749   3.8665

          k = 0.4375 0.3125 0.5625 (   365 PWs)   bands (ev):

    -3.7227  -0.6519   3.7404   4.4387

          k =-0.0625-0.9375 0.0625 (   362 PWs)   bands (ev):

    -2.3359  -1.4117   2.8631   3.0887

          k =-0.1875-0.8125-0.0625 (   359 PWs)   bands (ev):

    -3.0924  -0.4889   2.6103   3.1284

          k =-0.3125-0.6875-0.1875 (   364 PWs)   bands (ev):

    -3.5559  -0.2170   2.6614   3.7133

          k =-0.0625-0.6875 0.0625 (   358 PWs)   bands (ev):

    -3.9175   0.5989   3.2675   3.4430

          k =-0.1875-0.5625-0.0625 (   356 PWs)   bands (ev):

    -4.4352   1.3015   3.3126   3.9474

          k =-0.0625-0.4375 0.0625 (   351 PWs)   bands (ev):

    -5.0638   2.6520   4.2020   4.2356

          k =-0.1875 0.1875 0.1875 (   359 PWs)   bands (ev):

    -5.4578   3.0626   5.2864   5.2864

          k =-0.3125 0.3125 0.0625 (   360 PWs)   bands (ev):

    -5.0744   2.2272   3.8075   5.3011

          k =-0.4375 0.4375-0.0625 (   362 PWs)   bands (ev):

    -4.3444   0.8784   2.7503   4.8073

          k = 0.4375-0.4375 0.8125 (   367 PWs)   bands (ev):

    -3.4736  -0.5726   2.5934   4.2885

          k = 0.3125-0.3125 0.6875 (   365 PWs)   bands (ev):

    -3.4582  -0.6004   2.8841   3.9785

          k = 0.1875-0.1875 0.5625 (   358 PWs)   bands (ev):

    -4.3271   0.8753   3.4857   3.9562

          k =-0.1875 0.4375 0.1875 (   362 PWs)   bands (ev):

    -4.8233   1.5759   4.2921   4.3661

          k =-0.3125 0.5625 0.0625 (   360 PWs)   bands (ev):

    -4.2106   0.8085   2.8059   4.1737

          k = 0.5625-0.3125 0.9375 (   364 PWs)   bands (ev):

    -3.3410  -0.2762   2.0360   3.6211

          k = 0.4375-0.1875 0.8125 (   369 PWs)   bands (ev):

    -2.8670  -0.8737   2.0357   3.3167

          k = 0.3125-0.0625 0.6875 (   362 PWs)   bands (ev):

    -3.6180   0.1054   2.4515   3.4911

          k =-0.1875 0.6875 0.1875 (   360 PWs)   bands (ev):

    -3.7244   0.1644   2.7759   3.6322

          k = 0.6875-0.1875 1.0625 (   363 PWs)   bands (ev):

    -2.9390  -0.6262   2.2157   2.9682

          k = 0.5625-0.0625 0.9375 (   370 PWs)   bands (ev):

    -2.1516  -1.3688   1.9080   2.4802

          k = 0.4375 0.0625 0.8125 (   367 PWs)   bands (ev):

    -2.7404  -0.8282   1.8977   2.9439

          k =-0.1875-1.0625 0.1875 (   364 PWs)   bands (ev):

    -2.3095  -1.3453   2.0094   3.2964

          k =-0.3125-0.9375 0.0625 (   366 PWs)   bands (ev):

    -2.2111  -1.3772   2.1010   2.6880

          k =-0.1875-0.8125 0.1875 (   362 PWs)   bands (ev):

    -3.0337  -0.5873   2.2673   3.4095

          k =-0.3125 0.3125 0.3125 (   359 PWs)   bands (ev):

    -4.7187   0.8999   4.8795   4.8795

          k =-0.4375 0.4375 0.1875 (   360 PWs)   bands (ev):

    -4.2501   0.3288   3.4419   4.7927

          k = 0.4375-0.4375 1.0625 (   367 PWs)   bands (ev):

    -3.4766  -0.2092   1.9573   4.2260

          k = 0.3125-0.3125 0.9375 (   364 PWs)   bands (ev):

    -2.6753  -0.9801   1.6311   3.6918

          k =-0.3125 0.5625 0.3125 (   368 PWs)   bands (ev):

    -3.9445  -0.2170   3.7658   4.2432

          k = 0.5625-0.3125 1.1875 (   367 PWs)   bands (ev):

    -3.3393  -0.5783   2.4903   3.7815

          k = 0.4375-0.1875 1.0625 (   370 PWs)   bands (ev):

    -2.5400  -1.0480   1.7210   3.0863

          k =-0.3125-1.1875 0.3125 (   363 PWs)   bands (ev):

    -2.9893  -0.8555   2.1109   3.7896

          k =-0.4375 0.4375 0.4375 (   356 PWs)   bands (ev):

    -3.8530  -0.7076   4.6617   4.6617

          k = 0.4375-0.4375 1.3125 (   365 PWs)   bands (ev):

    -3.5114  -0.8830   3.4568   4.4003

     highest occupied level (ev):     5.7189

!    total energy              =     -19.19105644 Ry
     Harris-Foulkes estimate   =     -19.19105644 Ry
     estimated scf accuracy    <          6.6E-09 Ry

     The total energy is the sum of the following terms:

     one-electron contribution =       4.81733161 Ry
     hartree contribution      =       1.14903422 Ry
     xc contribution           =      -8.57468655 Ry
     ewald contribution        =     -16.58273572 Ry

     convergence has been achieved in   6 iterations

     Writing output data file silicon.10.395.save

     init_run     :      0.27s CPU      0.30s WALL (       1 calls)
     electrons    :      1.41s CPU      2.06s WALL (       1 calls)

     Called by init_run:
     wfcinit      :      0.08s CPU      0.08s WALL (       1 calls)
     potinit      :      0.02s CPU      0.02s WALL (       1 calls)

     Called by electrons:
     c_bands      :      1.02s CPU      1.50s WALL (       7 calls)
     sum_band     :      0.23s CPU      0.33s WALL (       7 calls)
     v_of_rho     :      0.07s CPU      0.09s WALL (       7 calls)
     newd         :      0.09s CPU      0.13s WALL (       7 calls)
     mix_rho      :      0.00s CPU      0.01s WALL (       7 calls)

     Called by c_bands:
     init_us_2    :      0.06s CPU      0.07s WALL (     900 calls)
     cegterg      :      0.87s CPU      1.32s WALL (     420 calls)

     Called by sum_band:
     sum_band:bec :      0.00s CPU      0.01s WALL (     420 calls)
     addusdens    :      0.08s CPU      0.12s WALL (       7 calls)

     Called by *egterg:
     h_psi        :      0.59s CPU      0.88s WALL (    1300 calls)
     s_psi        :      0.06s CPU      0.07s WALL (    1300 calls)
     g_psi        :      0.00s CPU      0.00s WALL (     820 calls)
     cdiaghg      :      0.12s CPU      0.16s WALL (    1180 calls)

     Called by h_psi:
     h_psi:pot    :      0.58s CPU      0.87s WALL (    1300 calls)
     h_psi:calbec :      0.10s CPU      0.16s WALL (    1300 calls)
     vloc_psi     :      0.42s CPU      0.64s WALL (    1300 calls)
     add_vuspsi   :      0.06s CPU      0.07s WALL (    1300 calls)

     General routines
     calbec       :      0.13s CPU      0.21s WALL (    1720 calls)
     fft          :      0.08s CPU      0.13s WALL (     112 calls)
     ffts         :      0.00s CPU      0.00s WALL (      14 calls)
     fftw         :      0.41s CPU      0.64s WALL (   11624 calls)
     interpolate  :      0.01s CPU      0.01s WALL (      14 calls)
     davcio       :      0.00s CPU      0.00s WALL (      60 calls)

     Parallel routines
     fft_scatter  :      0.28s CPU      0.54s WALL (   11750 calls)

     PWSCF        :     1.94s CPU         2.63s WALL


   This run was terminated on:  10: 3:23  10Nov2017            

=------------------------------------------------------------------------------=
   JOB DONE.
=------------------------------------------------------------------------------=
