
     Program PWSCF v.6.1 (svn rev. 13369) starts on 10Nov2017 at 10:30:53 

     This program is part of the open-source Quantum ESPRESSO suite
     for quantum simulation of materials; please cite
         "P. Giannozzi et al., J. Phys.:Condens. Matter 21 395502 (2009);
          URL http://www.quantum-espresso.org", 
     in publications or presentations arising from this work. More details at
     http://www.quantum-espresso.org/quote

     Parallel version (MPI), running on     4 processors
     R & G space division:  proc/nbgrp/npool/nimage =       4
     Waiting for input...
     Reading input from standard input
     Message from routine read_cards :
     DEPRECATED: no units specified in ATOMIC_POSITIONS card
     Message from routine read_cards :
     ATOMIC_POSITIONS: units set to alat

     Current dimensions of program PWSCF are:
     Max number of different atomic species (ntypx) = 10
     Max number of k-points (npk) =  40000
     Max angular momentum in pseudopotentials (lmaxx) =  3

     Subspace diagonalization in iterative solution of the eigenvalue problem:
     a serial algorithm will be used


     Parallelization info
     --------------------
     sticks:   dense  smooth     PW     G-vecs:    dense   smooth      PW
     Min         217     108     37                 4288     1495     301
     Max         219     109     38                 4289     1498     304
     Sum         871     433    151                17153     5985    1211



     bravais-lattice index     =            2
     lattice parameter (alat)  =      10.3080  a.u.
     unit-cell volume          =     273.8188 (a.u.)^3
     number of atoms/cell      =            2
     number of atomic types    =            1
     number of electrons       =         8.00
     number of Kohn-Sham states=            4
     kinetic-energy cutoff     =      30.0000  Ry
     charge density cutoff     =     240.0000  Ry
     convergence threshold     =      1.0E-08
     mixing beta               =       0.7000
     number of iterations used =            8  plain     mixing
     Exchange-correlation      = SLA  PW   PBE  PBE ( 1  4  3  4 0 0)

     celldm(1)=  10.308000  celldm(2)=   0.000000  celldm(3)=   0.000000
     celldm(4)=   0.000000  celldm(5)=   0.000000  celldm(6)=   0.000000

     crystal axes: (cart. coord. in units of alat)
               a(1) = (  -0.500000   0.000000   0.500000 )  
               a(2) = (   0.000000   0.500000   0.500000 )  
               a(3) = (  -0.500000   0.500000   0.000000 )  

     reciprocal axes: (cart. coord. in units 2 pi/alat)
               b(1) = ( -1.000000 -1.000000  1.000000 )  
               b(2) = (  1.000000  1.000000  1.000000 )  
               b(3) = ( -1.000000  1.000000 -1.000000 )  


     PseudoPot. # 1 for Si read from file:
     /home/max/quantum_espresso/qe-6.1/pseudo/si_pbe_v1.uspp.F.UPF.txt
     MD5 check sum: a056efeee980c13900f22a371efd63c1
     Pseudo is Ultrasoft + core correction, Zval =  4.0
     Generated by new atomic code, or converted to UPF format
     Using radial grid of  899 points,  6 beta functions with: 
                l(1) =   0
                l(2) =   0
                l(3) =   1
                l(4) =   1
                l(5) =   2
                l(6) =   2
     Q(r) pseudized with  8 coefficients,  rinner =    0.900   0.900   0.900
                                                       0.900   0.900

     atomic species   valence    mass     pseudopotential
        Si             4.00    28.08600     Si( 1.00)

     48 Sym. Ops., with inversion, found (24 have fractional translation)



   Cartesian axes

     site n.     atom                  positions (alat units)
         1           Si  tau(   1) = (   0.0000000   0.0000000   0.0000000  )
         2           Si  tau(   2) = (   0.2500000   0.2500000   0.2500000  )

     number of k points=    28
                       cart. coord. in units 2pi/alat
        k(    1) = (  -0.0833333   0.0833333   0.0833333), wk =   0.0185185
        k(    2) = (  -0.2500000   0.2500000  -0.0833333), wk =   0.0555556
        k(    3) = (  -0.4166667   0.4166667  -0.2500000), wk =   0.0555556
        k(    4) = (   0.4166667  -0.4166667   0.5833333), wk =   0.0555556
        k(    5) = (   0.2500000  -0.2500000   0.4166667), wk =   0.0555556
        k(    6) = (   0.0833333  -0.0833333   0.2500000), wk =   0.0555556
        k(    7) = (  -0.0833333   0.4166667   0.0833333), wk =   0.0555556
        k(    8) = (  -0.2500000   0.5833333  -0.0833333), wk =   0.1111111
        k(    9) = (   0.5833333  -0.2500000   0.7500000), wk =   0.1111111
        k(   10) = (   0.4166667  -0.0833333   0.5833333), wk =   0.1111111
        k(   11) = (   0.2500000   0.0833333   0.4166667), wk =   0.1111111
        k(   12) = (  -0.0833333   0.7500000   0.0833333), wk =   0.0555556
        k(   13) = (   0.7500000  -0.0833333   0.9166667), wk =   0.1111111
        k(   14) = (   0.5833333   0.0833333   0.7500000), wk =   0.1111111
        k(   15) = (   0.4166667   0.2500000   0.5833333), wk =   0.1111111
        k(   16) = (  -0.0833333  -0.9166667   0.0833333), wk =   0.0555556
        k(   17) = (  -0.2500000  -0.7500000  -0.0833333), wk =   0.1111111
        k(   18) = (  -0.0833333  -0.5833333   0.0833333), wk =   0.0555556
        k(   19) = (  -0.2500000   0.2500000   0.2500000), wk =   0.0185185
        k(   20) = (  -0.4166667   0.4166667   0.0833333), wk =   0.0555556
        k(   21) = (   0.4166667  -0.4166667   0.9166667), wk =   0.0555556
        k(   22) = (   0.2500000  -0.2500000   0.7500000), wk =   0.0555556
        k(   23) = (  -0.2500000   0.5833333   0.2500000), wk =   0.0555556
        k(   24) = (   0.5833333  -0.2500000   1.0833333), wk =   0.1111111
        k(   25) = (   0.4166667  -0.0833333   0.9166667), wk =   0.1111111
        k(   26) = (  -0.2500000  -1.0833333   0.2500000), wk =   0.0555556
        k(   27) = (  -0.4166667   0.4166667   0.4166667), wk =   0.0185185
        k(   28) = (   0.4166667  -0.4166667   1.2500000), wk =   0.0555556

     Dense  grid:    17153 G-vectors     FFT dimensions: (  36,  36,  36)

     Smooth grid:     5985 G-vectors     FFT dimensions: (  25,  25,  25)

     Estimated max dynamical RAM per process >       3.04MB

     Estimated total allocated dynamical RAM >      12.16MB

     Initial potential from superposition of free atoms

     starting charge    7.99866, renormalised to    8.00000
     Starting wfc are    8 randomized atomic wfcs

     total cpu time spent up to now is        0.5 secs

     per-process dynamical memory:     9.9 Mb

     Self-consistent Calculation

     iteration #  1     ecut=    30.00 Ry     beta=0.70
     Davidson diagonalization with overlap
     ethr =  1.00E-02,  avg # of iterations =  2.0

     Threshold (ethr) on eigenvalues was too large:
     Diagonalizing with lowered threshold

     Davidson diagonalization with overlap
     ethr =  6.85E-04,  avg # of iterations =  1.0

     total cpu time spent up to now is        1.2 secs

     total energy              =     -19.19111503 Ry
     Harris-Foulkes estimate   =     -19.20387432 Ry
     estimated scf accuracy    <       0.05430431 Ry

     iteration #  2     ecut=    30.00 Ry     beta=0.70
     Davidson diagonalization with overlap
     ethr =  6.79E-04,  avg # of iterations =  1.0

     total cpu time spent up to now is        1.6 secs

     total energy              =     -19.19293988 Ry
     Harris-Foulkes estimate   =     -19.19310805 Ry
     estimated scf accuracy    <       0.00244655 Ry

     iteration #  3     ecut=    30.00 Ry     beta=0.70
     Davidson diagonalization with overlap
     ethr =  3.06E-05,  avg # of iterations =  2.1

     total cpu time spent up to now is        1.9 secs

     total energy              =     -19.19328773 Ry
     Harris-Foulkes estimate   =     -19.19330047 Ry
     estimated scf accuracy    <       0.00004218 Ry

     iteration #  4     ecut=    30.00 Ry     beta=0.70
     Davidson diagonalization with overlap
     ethr =  5.27E-07,  avg # of iterations =  3.4

     total cpu time spent up to now is        2.2 secs

     total energy              =     -19.19332577 Ry
     Harris-Foulkes estimate   =     -19.19332653 Ry
     estimated scf accuracy    <       0.00000295 Ry

     iteration #  5     ecut=    30.00 Ry     beta=0.70
     Davidson diagonalization with overlap
     ethr =  3.68E-08,  avg # of iterations =  2.0

     total cpu time spent up to now is        2.4 secs

     End of self-consistent calculation

          k =-0.0833 0.0833 0.0833 (   749 PWs)   bands (ev):

    -5.7231   5.1964   5.9131   5.9131

          k =-0.2500 0.2500-0.0833 (   763 PWs)   bands (ev):

    -5.2505   3.1241   4.6876   5.7036

          k =-0.4167 0.4167-0.2500 (   764 PWs)   bands (ev):

    -4.1685   0.3824   4.2245   5.0712

          k = 0.4167-0.4167 0.5833 (   764 PWs)   bands (ev):

    -3.4786  -0.7504   4.2891   4.6940

          k = 0.2500-0.2500 0.4167 (   769 PWs)   bands (ev):

    -4.5762   1.2222   4.7544   4.7846

          k = 0.0833-0.0833 0.2500 (   765 PWs)   bands (ev):

    -5.4845   4.1295   5.2730   5.4555

          k =-0.0833 0.4167 0.0833 (   768 PWs)   bands (ev):

    -5.0113   2.9321   4.5320   4.5488

          k =-0.2500 0.5833-0.0833 (   763 PWs)   bands (ev):

    -4.1090   1.1036   3.2256   4.1646

          k = 0.5833-0.2500 0.7500 (   757 PWs)   bands (ev):

    -3.0049  -0.6293   2.6264   3.9399

          k = 0.4167-0.0833 0.5833 (   764 PWs)   bands (ev):

    -3.7186   0.4172   2.5878   4.4215

          k = 0.2500 0.0833 0.4167 (   765 PWs)   bands (ev):

    -4.7880   2.1034   3.9168   5.0831

          k =-0.0833 0.7500 0.0833 (   763 PWs)   bands (ev):

    -3.4032   0.2781   3.1914   3.5275

          k = 0.7500-0.0833 0.9167 (   751 PWs)   bands (ev):

    -2.2184  -1.0522   2.3583   3.1255

          k = 0.5833 0.0833 0.7500 (   750 PWs)   bands (ev):

    -2.5883  -0.7155   1.8785   3.6662

          k = 0.4167 0.2500 0.5833 (   763 PWs)   bands (ev):

    -3.6085  -0.2562   3.5181   4.5181

          k =-0.0833-0.9167 0.0833 (   763 PWs)   bands (ev):

    -2.3084  -1.0597   2.9241   3.3137

          k =-0.2500-0.7500-0.0833 (   760 PWs)   bands (ev):

    -3.2366   0.0571   2.6757   3.4632

          k =-0.0833-0.5833 0.0833 (   760 PWs)   bands (ev):

    -4.3125   1.6356   3.7311   3.9468

          k =-0.2500 0.2500 0.2500 (   769 PWs)   bands (ev):

    -5.0231   2.1532   5.3037   5.3037

          k =-0.4167 0.4167 0.0833 (   761 PWs)   bands (ev):

    -4.3500   1.2212   3.1897   5.1351

          k = 0.4167-0.4167 0.9167 (   763 PWs)   bands (ev):

    -3.1826  -0.2122   2.0931   4.3557

          k = 0.2500-0.2500 0.7500 (   763 PWs)   bands (ev):

    -3.1303  -0.2911   2.5665   3.8779

          k =-0.2500 0.5833 0.2500 (   765 PWs)   bands (ev):

    -3.9300   0.4207   3.6471   4.2481

          k = 0.5833-0.2500 1.0833 (   757 PWs)   bands (ev):

    -2.9374  -0.3275   2.1929   3.4617

          k = 0.4167-0.0833 0.9167 (   753 PWs)   bands (ev):

    -2.1140  -1.0600   2.0322   2.8008

          k =-0.2500-1.0833 0.2500 (   752 PWs)   bands (ev):

    -2.3231  -0.9643   1.9070   3.6848

          k =-0.4167 0.4167 0.4167 (   769 PWs)   bands (ev):

    -3.8433  -0.3536   4.9173   4.9173

          k = 0.4167-0.4167 1.2500 (   761 PWs)   bands (ev):

    -3.2447  -0.6557   3.0964   4.4813

     highest occupied level (ev):     5.9131

!    total energy              =     -19.19332616 Ry
     Harris-Foulkes estimate   =     -19.19332615 Ry
     estimated scf accuracy    <          9.1E-09 Ry

     The total energy is the sum of the following terms:

     one-electron contribution =       5.00743153 Ry
     hartree contribution      =       1.12733424 Ry
     xc contribution           =      -8.60539718 Ry
     ewald contribution        =     -16.72269475 Ry

     convergence has been achieved in   5 iterations

     Writing output data file silicon.10.308.save

     init_run     :      0.36s CPU      0.39s WALL (       1 calls)
     electrons    :      1.27s CPU      1.91s WALL (       1 calls)

     Called by init_run:
     wfcinit      :      0.08s CPU      0.09s WALL (       1 calls)
     potinit      :      0.02s CPU      0.02s WALL (       1 calls)

     Called by electrons:
     c_bands      :      0.79s CPU      1.19s WALL (       6 calls)
     sum_band     :      0.29s CPU      0.46s WALL (       6 calls)
     v_of_rho     :      0.08s CPU      0.11s WALL (       6 calls)
     newd         :      0.13s CPU      0.17s WALL (       6 calls)
     mix_rho      :      0.01s CPU      0.01s WALL (       6 calls)

     Called by c_bands:
     init_us_2    :      0.05s CPU      0.05s WALL (     364 calls)
     cegterg      :      0.66s CPU      1.04s WALL (     168 calls)

     Called by sum_band:
     sum_band:bec :      0.00s CPU      0.00s WALL (     168 calls)
     addusdens    :      0.13s CPU      0.16s WALL (       6 calls)

     Called by *egterg:
     h_psi        :      0.57s CPU      0.87s WALL (     518 calls)
     s_psi        :      0.04s CPU      0.05s WALL (     518 calls)
     g_psi        :      0.00s CPU      0.00s WALL (     322 calls)
     cdiaghg      :      0.04s CPU      0.06s WALL (     462 calls)

     Called by h_psi:
     h_psi:pot    :      0.57s CPU      0.87s WALL (     518 calls)
     h_psi:calbec :      0.06s CPU      0.10s WALL (     518 calls)
     vloc_psi     :      0.46s CPU      0.72s WALL (     518 calls)
     add_vuspsi   :      0.04s CPU      0.05s WALL (     518 calls)

     General routines
     calbec       :      0.08s CPU      0.14s WALL (     686 calls)
     fft          :      0.06s CPU      0.09s WALL (      96 calls)
     ffts         :      0.00s CPU      0.00s WALL (      12 calls)
     fftw         :      0.48s CPU      0.82s WALL (    4610 calls)
     interpolate  :      0.01s CPU      0.01s WALL (      12 calls)
     davcio       :      0.00s CPU      0.00s WALL (      28 calls)

     Parallel routines
     fft_scatter  :      0.26s CPU      0.59s WALL (    4718 calls)

     PWSCF        :     1.83s CPU         2.54s WALL


   This run was terminated on:  10:30:55  10Nov2017            

=------------------------------------------------------------------------------=
   JOB DONE.
=------------------------------------------------------------------------------=
