
     Program PWSCF v.6.1 (svn rev. 13369) starts on 10Nov2017 at 10:15:16 

     This program is part of the open-source Quantum ESPRESSO suite
     for quantum simulation of materials; please cite
         "P. Giannozzi et al., J. Phys.:Condens. Matter 21 395502 (2009);
          URL http://www.quantum-espresso.org", 
     in publications or presentations arising from this work. More details at
     http://www.quantum-espresso.org/quote

     Parallel version (MPI), running on     4 processors
     R & G space division:  proc/nbgrp/npool/nimage =       4
     Waiting for input...
     Reading input from standard input
     Message from routine read_cards :
     DEPRECATED: no units specified in ATOMIC_POSITIONS card
     Message from routine read_cards :
     ATOMIC_POSITIONS: units set to alat

     Current dimensions of program PWSCF are:
     Max number of different atomic species (ntypx) = 10
     Max number of k-points (npk) =  40000
     Max angular momentum in pseudopotentials (lmaxx) =  3

     Subspace diagonalization in iterative solution of the eigenvalue problem:
     a serial algorithm will be used


     Parallelization info
     --------------------
     sticks:   dense  smooth     PW     G-vecs:    dense   smooth      PW
     Min         228     112     37                 4482     1575     309
     Max         229     114     38                 4484     1576     312
     Sum         913     451    151                17933     6303    1243



     bravais-lattice index     =            2
     lattice parameter (alat)  =      10.4500  a.u.
     unit-cell volume          =     285.2915 (a.u.)^3
     number of atoms/cell      =            2
     number of atomic types    =            1
     number of electrons       =         8.00
     number of Kohn-Sham states=            4
     kinetic-energy cutoff     =      30.0000  Ry
     charge density cutoff     =     240.0000  Ry
     convergence threshold     =      1.0E-08
     mixing beta               =       0.7000
     number of iterations used =            8  plain     mixing
     Exchange-correlation      = SLA  PW   PBE  PBE ( 1  4  3  4 0 0)

     celldm(1)=  10.450000  celldm(2)=   0.000000  celldm(3)=   0.000000
     celldm(4)=   0.000000  celldm(5)=   0.000000  celldm(6)=   0.000000

     crystal axes: (cart. coord. in units of alat)
               a(1) = (  -0.500000   0.000000   0.500000 )  
               a(2) = (   0.000000   0.500000   0.500000 )  
               a(3) = (  -0.500000   0.500000   0.000000 )  

     reciprocal axes: (cart. coord. in units 2 pi/alat)
               b(1) = ( -1.000000 -1.000000  1.000000 )  
               b(2) = (  1.000000  1.000000  1.000000 )  
               b(3) = ( -1.000000  1.000000 -1.000000 )  


     PseudoPot. # 1 for Si read from file:
     /home/max/quantum_espresso/qe-6.1/pseudo/si_pbe_v1.uspp.F.UPF.txt
     MD5 check sum: a056efeee980c13900f22a371efd63c1
     Pseudo is Ultrasoft + core correction, Zval =  4.0
     Generated by new atomic code, or converted to UPF format
     Using radial grid of  899 points,  6 beta functions with: 
                l(1) =   0
                l(2) =   0
                l(3) =   1
                l(4) =   1
                l(5) =   2
                l(6) =   2
     Q(r) pseudized with  8 coefficients,  rinner =    0.900   0.900   0.900
                                                       0.900   0.900

     atomic species   valence    mass     pseudopotential
        Si             4.00    28.08600     Si( 1.00)

     48 Sym. Ops., with inversion, found (24 have fractional translation)



   Cartesian axes

     site n.     atom                  positions (alat units)
         1           Si  tau(   1) = (   0.0000000   0.0000000   0.0000000  )
         2           Si  tau(   2) = (   0.2500000   0.2500000   0.2500000  )

     number of k points=    28
                       cart. coord. in units 2pi/alat
        k(    1) = (  -0.0833333   0.0833333   0.0833333), wk =   0.0185185
        k(    2) = (  -0.2500000   0.2500000  -0.0833333), wk =   0.0555556
        k(    3) = (  -0.4166667   0.4166667  -0.2500000), wk =   0.0555556
        k(    4) = (   0.4166667  -0.4166667   0.5833333), wk =   0.0555556
        k(    5) = (   0.2500000  -0.2500000   0.4166667), wk =   0.0555556
        k(    6) = (   0.0833333  -0.0833333   0.2500000), wk =   0.0555556
        k(    7) = (  -0.0833333   0.4166667   0.0833333), wk =   0.0555556
        k(    8) = (  -0.2500000   0.5833333  -0.0833333), wk =   0.1111111
        k(    9) = (   0.5833333  -0.2500000   0.7500000), wk =   0.1111111
        k(   10) = (   0.4166667  -0.0833333   0.5833333), wk =   0.1111111
        k(   11) = (   0.2500000   0.0833333   0.4166667), wk =   0.1111111
        k(   12) = (  -0.0833333   0.7500000   0.0833333), wk =   0.0555556
        k(   13) = (   0.7500000  -0.0833333   0.9166667), wk =   0.1111111
        k(   14) = (   0.5833333   0.0833333   0.7500000), wk =   0.1111111
        k(   15) = (   0.4166667   0.2500000   0.5833333), wk =   0.1111111
        k(   16) = (  -0.0833333  -0.9166667   0.0833333), wk =   0.0555556
        k(   17) = (  -0.2500000  -0.7500000  -0.0833333), wk =   0.1111111
        k(   18) = (  -0.0833333  -0.5833333   0.0833333), wk =   0.0555556
        k(   19) = (  -0.2500000   0.2500000   0.2500000), wk =   0.0185185
        k(   20) = (  -0.4166667   0.4166667   0.0833333), wk =   0.0555556
        k(   21) = (   0.4166667  -0.4166667   0.9166667), wk =   0.0555556
        k(   22) = (   0.2500000  -0.2500000   0.7500000), wk =   0.0555556
        k(   23) = (  -0.2500000   0.5833333   0.2500000), wk =   0.0555556
        k(   24) = (   0.5833333  -0.2500000   1.0833333), wk =   0.1111111
        k(   25) = (   0.4166667  -0.0833333   0.9166667), wk =   0.1111111
        k(   26) = (  -0.2500000  -1.0833333   0.2500000), wk =   0.0555556
        k(   27) = (  -0.4166667   0.4166667   0.4166667), wk =   0.0185185
        k(   28) = (   0.4166667  -0.4166667   1.2500000), wk =   0.0555556

     Dense  grid:    17933 G-vectors     FFT dimensions: (  40,  40,  40)

     Smooth grid:     6303 G-vectors     FFT dimensions: (  25,  25,  25)

     Estimated max dynamical RAM per process >       3.44MB

     Estimated total allocated dynamical RAM >      13.75MB

     Initial potential from superposition of free atoms

     starting charge    7.99866, renormalised to    8.00000
     Starting wfc are    8 randomized atomic wfcs

     total cpu time spent up to now is        0.5 secs

     per-process dynamical memory:     9.9 Mb

     Self-consistent Calculation

     iteration #  1     ecut=    30.00 Ry     beta=0.70
     Davidson diagonalization with overlap
     ethr =  1.00E-02,  avg # of iterations =  2.0

     Threshold (ethr) on eigenvalues was too large:
     Diagonalizing with lowered threshold

     Davidson diagonalization with overlap
     ethr =  6.40E-04,  avg # of iterations =  1.0

     total cpu time spent up to now is        0.9 secs

     total energy              =     -19.19055083 Ry
     Harris-Foulkes estimate   =     -19.20167694 Ry
     estimated scf accuracy    <       0.05077241 Ry

     iteration #  2     ecut=    30.00 Ry     beta=0.70
     Davidson diagonalization with overlap
     ethr =  6.35E-04,  avg # of iterations =  1.0

     total cpu time spent up to now is        1.2 secs

     total energy              =     -19.19209794 Ry
     Harris-Foulkes estimate   =     -19.19226602 Ry
     estimated scf accuracy    <       0.00245305 Ry

     iteration #  3     ecut=    30.00 Ry     beta=0.70
     Davidson diagonalization with overlap
     ethr =  3.07E-05,  avg # of iterations =  2.1

     total cpu time spent up to now is        1.6 secs

     total energy              =     -19.19240705 Ry
     Harris-Foulkes estimate   =     -19.19241668 Ry
     estimated scf accuracy    <       0.00003551 Ry

     iteration #  4     ecut=    30.00 Ry     beta=0.70
     Davidson diagonalization with overlap
     ethr =  4.44E-07,  avg # of iterations =  3.5

     total cpu time spent up to now is        1.9 secs

     total energy              =     -19.19244326 Ry
     Harris-Foulkes estimate   =     -19.19244358 Ry
     estimated scf accuracy    <       0.00000148 Ry

     iteration #  5     ecut=    30.00 Ry     beta=0.70
     Davidson diagonalization with overlap
     ethr =  1.85E-08,  avg # of iterations =  2.1

     total cpu time spent up to now is        2.2 secs

     End of self-consistent calculation

          k =-0.0833 0.0833 0.0833 (   797 PWs)   bands (ev):

    -5.8675   4.7770   5.5037   5.5037

          k =-0.2500 0.2500-0.0833 (   803 PWs)   bands (ev):

    -5.4117   2.7380   4.3258   5.2960

          k =-0.4167 0.4167-0.2500 (   792 PWs)   bands (ev):

    -4.3731   0.0913   3.8650   4.6855

          k = 0.4167-0.4167 0.5833 (   793 PWs)   bands (ev):

    -3.7201  -0.9909   3.9197   4.3242

          k = 0.2500-0.2500 0.4167 (   794 PWs)   bands (ev):

    -4.7632   0.9001   4.3881   4.3977

          k = 0.0833-0.0833 0.2500 (   795 PWs)   bands (ev):

    -5.6372   3.7141   4.8925   5.0517

          k =-0.0833 0.4167 0.0833 (   804 PWs)   bands (ev):

    -5.1808   2.5194   4.1676   4.1956

          k =-0.2500 0.5833-0.0833 (   794 PWs)   bands (ev):

    -4.3124   0.7420   2.9192   3.8222

          k = 0.5833-0.2500 0.7500 (   794 PWs)   bands (ev):

    -3.2617  -0.9078   2.3292   3.6100

          k = 0.4167-0.0833 0.5833 (   790 PWs)   bands (ev):

    -3.9394   0.0863   2.3069   4.0682

          k = 0.2500 0.0833 0.4167 (   796 PWs)   bands (ev):

    -4.9661   1.7328   3.5827   4.6966

          k =-0.0833 0.7500 0.0833 (   787 PWs)   bands (ev):

    -3.6306  -0.0797   2.8921   3.2086

          k = 0.7500-0.0833 0.9167 (   783 PWs)   bands (ev):

    -2.4940  -1.3669   2.1023   2.8294

          k = 0.5833 0.0833 0.7500 (   792 PWs)   bands (ev):

    -2.8596  -1.0233   1.6387   3.3476

          k = 0.4167 0.2500 0.5833 (   794 PWs)   bands (ev):

    -3.8382  -0.5310   3.1783   4.1586

          k =-0.0833-0.9167 0.0833 (   781 PWs)   bands (ev):

    -2.5758  -1.3720   2.6357   3.0017

          k =-0.2500-0.7500-0.0833 (   788 PWs)   bands (ev):

    -3.4730  -0.2892   2.3991   3.1547

          k =-0.0833-0.5833 0.0833 (   804 PWs)   bands (ev):

    -4.5070   1.2409   3.4072   3.6142

          k =-0.2500 0.2500 0.2500 (   797 PWs)   bands (ev):

    -5.1929   1.8074   4.9145   4.9145

          k =-0.4167 0.4167 0.0833 (   799 PWs)   bands (ev):

    -4.5454   0.8766   2.8834   4.7485

          k = 0.4167-0.4167 0.9167 (   790 PWs)   bands (ev):

    -3.4278  -0.5247   1.8364   4.0023

          k = 0.2500-0.2500 0.7500 (   788 PWs)   bands (ev):

    -3.3755  -0.6019   2.2837   3.5448

          k =-0.2500 0.5833 0.2500 (   799 PWs)   bands (ev):

    -4.1425   0.1096   3.3027   3.9014

          k = 0.5833-0.2500 1.0833 (   789 PWs)   bands (ev):

    -3.1902  -0.6522   1.9348   3.1577

          k = 0.4167-0.0833 0.9167 (   780 PWs)   bands (ev):

    -2.4001  -1.3745   1.7924   2.5279

          k =-0.2500-1.0833 0.2500 (   788 PWs)   bands (ev):

    -2.6027  -1.2711   1.6719   3.3586

          k =-0.4167 0.4167 0.4167 (   796 PWs)   bands (ev):

    -4.0651  -0.6098   4.5371   4.5371

          k = 0.4167-0.4167 1.2500 (   791 PWs)   bands (ev):

    -3.4938  -0.9150   2.7748   4.1219

     highest occupied level (ev):     5.5037

!    total energy              =     -19.19244350 Ry
     Harris-Foulkes estimate   =     -19.19244350 Ry
     estimated scf accuracy    <          4.1E-09 Ry

     The total energy is the sum of the following terms:

     one-electron contribution =       4.69690492 Ry
     hartree contribution      =       1.16373756 Ry
     xc contribution           =      -8.55762786 Ry
     ewald contribution        =     -16.49545813 Ry

     convergence has been achieved in   5 iterations

     Writing output data file silicon.10.45.save

     init_run     :      0.36s CPU      0.42s WALL (       1 calls)
     electrons    :      1.35s CPU      1.69s WALL (       1 calls)

     Called by init_run:
     wfcinit      :      0.09s CPU      0.09s WALL (       1 calls)
     potinit      :      0.03s CPU      0.03s WALL (       1 calls)

     Called by electrons:
     c_bands      :      0.81s CPU      1.04s WALL (       6 calls)
     sum_band     :      0.31s CPU      0.38s WALL (       6 calls)
     v_of_rho     :      0.11s CPU      0.12s WALL (       6 calls)
     newd         :      0.13s CPU      0.16s WALL (       6 calls)
     mix_rho      :      0.01s CPU      0.01s WALL (       6 calls)

     Called by c_bands:
     init_us_2    :      0.05s CPU      0.06s WALL (     364 calls)
     cegterg      :      0.69s CPU      0.89s WALL (     168 calls)

     Called by sum_band:
     sum_band:bec :      0.00s CPU      0.00s WALL (     168 calls)
     addusdens    :      0.14s CPU      0.17s WALL (       6 calls)

     Called by *egterg:
     h_psi        :      0.61s CPU      0.78s WALL (     524 calls)
     s_psi        :      0.05s CPU      0.05s WALL (     524 calls)
     g_psi        :      0.00s CPU      0.00s WALL (     328 calls)
     cdiaghg      :      0.04s CPU      0.04s WALL (     468 calls)

     Called by h_psi:
     h_psi:pot    :      0.60s CPU      0.77s WALL (     524 calls)
     h_psi:calbec :      0.07s CPU      0.09s WALL (     524 calls)
     vloc_psi     :      0.48s CPU      0.63s WALL (     524 calls)
     add_vuspsi   :      0.05s CPU      0.05s WALL (     524 calls)

     General routines
     calbec       :      0.09s CPU      0.12s WALL (     692 calls)
     fft          :      0.08s CPU      0.11s WALL (      96 calls)
     ffts         :      0.00s CPU      0.00s WALL (      12 calls)
     fftw         :      0.48s CPU      0.64s WALL (    4642 calls)
     interpolate  :      0.01s CPU      0.03s WALL (      12 calls)
     davcio       :      0.00s CPU      0.00s WALL (      28 calls)

     Parallel routines
     fft_scatter  :      0.25s CPU      0.42s WALL (    4750 calls)

     PWSCF        :     1.93s CPU         2.33s WALL


   This run was terminated on:  10:15:19  10Nov2017            

=------------------------------------------------------------------------------=
   JOB DONE.
=------------------------------------------------------------------------------=
