
     Program PWSCF v.6.1 (svn rev. 13369) starts on 10Nov2017 at 10: 3:28 

     This program is part of the open-source Quantum ESPRESSO suite
     for quantum simulation of materials; please cite
         "P. Giannozzi et al., J. Phys.:Condens. Matter 21 395502 (2009);
          URL http://www.quantum-espresso.org", 
     in publications or presentations arising from this work. More details at
     http://www.quantum-espresso.org/quote

     Parallel version (MPI), running on     4 processors
     R & G space division:  proc/nbgrp/npool/nimage =       4
     Waiting for input...
     Reading input from standard input
     Message from routine read_cards :
     DEPRECATED: no units specified in ATOMIC_POSITIONS card
     Message from routine read_cards :
     ATOMIC_POSITIONS: units set to alat

     Current dimensions of program PWSCF are:
     Max number of different atomic species (ntypx) = 10
     Max number of k-points (npk) =  40000
     Max angular momentum in pseudopotentials (lmaxx) =  3

     Subspace diagonalization in iterative solution of the eigenvalue problem:
     a serial algorithm will be used


     Parallelization info
     --------------------
     sticks:   dense  smooth     PW     G-vecs:    dense   smooth      PW
     Min         133      66     22                 2024      722     152
     Max         134      67     23                 2025      724     153
     Sum         535     265     91                 8099     2891     609



     bravais-lattice index     =            2
     lattice parameter (alat)  =      10.3980  a.u.
     unit-cell volume          =     281.0538 (a.u.)^3
     number of atoms/cell      =            2
     number of atomic types    =            1
     number of electrons       =         8.00
     number of Kohn-Sham states=            4
     kinetic-energy cutoff     =      18.0000  Ry
     charge density cutoff     =     144.0000  Ry
     convergence threshold     =      1.0E-08
     mixing beta               =       0.7000
     number of iterations used =            8  plain     mixing
     Exchange-correlation      = SLA  PW   PBE  PBE ( 1  4  3  4 0 0)

     celldm(1)=  10.398000  celldm(2)=   0.000000  celldm(3)=   0.000000
     celldm(4)=   0.000000  celldm(5)=   0.000000  celldm(6)=   0.000000

     crystal axes: (cart. coord. in units of alat)
               a(1) = (  -0.500000   0.000000   0.500000 )  
               a(2) = (   0.000000   0.500000   0.500000 )  
               a(3) = (  -0.500000   0.500000   0.000000 )  

     reciprocal axes: (cart. coord. in units 2 pi/alat)
               b(1) = ( -1.000000 -1.000000  1.000000 )  
               b(2) = (  1.000000  1.000000  1.000000 )  
               b(3) = ( -1.000000  1.000000 -1.000000 )  


     PseudoPot. # 1 for Si read from file:
     /home/max/quantum_espresso/qe-6.1/pseudo/si_pbe_v1.uspp.F.UPF.txt
     MD5 check sum: a056efeee980c13900f22a371efd63c1
     Pseudo is Ultrasoft + core correction, Zval =  4.0
     Generated by new atomic code, or converted to UPF format
     Using radial grid of  899 points,  6 beta functions with: 
                l(1) =   0
                l(2) =   0
                l(3) =   1
                l(4) =   1
                l(5) =   2
                l(6) =   2
     Q(r) pseudized with  8 coefficients,  rinner =    0.900   0.900   0.900
                                                       0.900   0.900

     atomic species   valence    mass     pseudopotential
        Si             4.00    28.08600     Si( 1.00)

     24 Sym. Ops. (no inversion) found
          (note: 24 additional sym.ops. were found but ignored
           their fractional translations are incommensurate with FFT grid)


   Cartesian axes

     site n.     atom                  positions (alat units)
         1           Si  tau(   1) = (   0.0000000   0.0000000   0.0000000  )
         2           Si  tau(   2) = (   0.2500000   0.2500000   0.2500000  )

     number of k points=    60
                       cart. coord. in units 2pi/alat
        k(    1) = (  -0.0625000   0.0625000   0.0625000), wk =   0.0078125
        k(    2) = (  -0.1875000   0.1875000  -0.0625000), wk =   0.0234375
        k(    3) = (  -0.3125000   0.3125000  -0.1875000), wk =   0.0234375
        k(    4) = (  -0.4375000   0.4375000  -0.3125000), wk =   0.0234375
        k(    5) = (   0.4375000  -0.4375000   0.5625000), wk =   0.0234375
        k(    6) = (   0.3125000  -0.3125000   0.4375000), wk =   0.0234375
        k(    7) = (   0.1875000  -0.1875000   0.3125000), wk =   0.0234375
        k(    8) = (   0.0625000  -0.0625000   0.1875000), wk =   0.0234375
        k(    9) = (  -0.0625000   0.3125000   0.0625000), wk =   0.0234375
        k(   10) = (  -0.1875000   0.4375000  -0.0625000), wk =   0.0468750
        k(   11) = (  -0.3125000   0.5625000  -0.1875000), wk =   0.0468750
        k(   12) = (   0.5625000  -0.3125000   0.6875000), wk =   0.0468750
        k(   13) = (   0.4375000  -0.1875000   0.5625000), wk =   0.0468750
        k(   14) = (   0.3125000  -0.0625000   0.4375000), wk =   0.0468750
        k(   15) = (   0.1875000   0.0625000   0.3125000), wk =   0.0468750
        k(   16) = (  -0.0625000   0.5625000   0.0625000), wk =   0.0234375
        k(   17) = (  -0.1875000   0.6875000  -0.0625000), wk =   0.0468750
        k(   18) = (   0.6875000  -0.1875000   0.8125000), wk =   0.0468750
        k(   19) = (   0.5625000  -0.0625000   0.6875000), wk =   0.0468750
        k(   20) = (   0.4375000   0.0625000   0.5625000), wk =   0.0468750
        k(   21) = (   0.3125000   0.1875000   0.4375000), wk =   0.0468750
        k(   22) = (  -0.0625000   0.8125000   0.0625000), wk =   0.0234375
        k(   23) = (   0.8125000  -0.0625000   0.9375000), wk =   0.0468750
        k(   24) = (   0.6875000   0.0625000   0.8125000), wk =   0.0468750
        k(   25) = (   0.5625000   0.1875000   0.6875000), wk =   0.0468750
        k(   26) = (   0.4375000   0.3125000   0.5625000), wk =   0.0468750
        k(   27) = (  -0.0625000  -0.9375000   0.0625000), wk =   0.0234375
        k(   28) = (  -0.1875000  -0.8125000  -0.0625000), wk =   0.0468750
        k(   29) = (  -0.3125000  -0.6875000  -0.1875000), wk =   0.0468750
        k(   30) = (  -0.0625000  -0.6875000   0.0625000), wk =   0.0234375
        k(   31) = (  -0.1875000  -0.5625000  -0.0625000), wk =   0.0468750
        k(   32) = (  -0.0625000  -0.4375000   0.0625000), wk =   0.0234375
        k(   33) = (  -0.1875000   0.1875000   0.1875000), wk =   0.0078125
        k(   34) = (  -0.3125000   0.3125000   0.0625000), wk =   0.0234375
        k(   35) = (  -0.4375000   0.4375000  -0.0625000), wk =   0.0234375
        k(   36) = (   0.4375000  -0.4375000   0.8125000), wk =   0.0234375
        k(   37) = (   0.3125000  -0.3125000   0.6875000), wk =   0.0234375
        k(   38) = (   0.1875000  -0.1875000   0.5625000), wk =   0.0234375
        k(   39) = (  -0.1875000   0.4375000   0.1875000), wk =   0.0234375
        k(   40) = (  -0.3125000   0.5625000   0.0625000), wk =   0.0468750
        k(   41) = (   0.5625000  -0.3125000   0.9375000), wk =   0.0468750
        k(   42) = (   0.4375000  -0.1875000   0.8125000), wk =   0.0468750
        k(   43) = (   0.3125000  -0.0625000   0.6875000), wk =   0.0468750
        k(   44) = (  -0.1875000   0.6875000   0.1875000), wk =   0.0234375
        k(   45) = (   0.6875000  -0.1875000   1.0625000), wk =   0.0468750
        k(   46) = (   0.5625000  -0.0625000   0.9375000), wk =   0.0468750
        k(   47) = (   0.4375000   0.0625000   0.8125000), wk =   0.0468750
        k(   48) = (  -0.1875000  -1.0625000   0.1875000), wk =   0.0234375
        k(   49) = (  -0.3125000  -0.9375000   0.0625000), wk =   0.0468750
        k(   50) = (  -0.1875000  -0.8125000   0.1875000), wk =   0.0234375
        k(   51) = (  -0.3125000   0.3125000   0.3125000), wk =   0.0078125
        k(   52) = (  -0.4375000   0.4375000   0.1875000), wk =   0.0234375
        k(   53) = (   0.4375000  -0.4375000   1.0625000), wk =   0.0234375
        k(   54) = (   0.3125000  -0.3125000   0.9375000), wk =   0.0234375
        k(   55) = (  -0.3125000   0.5625000   0.3125000), wk =   0.0234375
        k(   56) = (   0.5625000  -0.3125000   1.1875000), wk =   0.0468750
        k(   57) = (   0.4375000  -0.1875000   1.0625000), wk =   0.0468750
        k(   58) = (  -0.3125000  -1.1875000   0.3125000), wk =   0.0234375
        k(   59) = (  -0.4375000   0.4375000   0.4375000), wk =   0.0078125
        k(   60) = (   0.4375000  -0.4375000   1.3125000), wk =   0.0234375

     Dense  grid:     8099 G-vectors     FFT dimensions: (  30,  30,  30)

     Smooth grid:     2891 G-vectors     FFT dimensions: (  20,  20,  20)

     Estimated max dynamical RAM per process >       1.73MB

     Estimated total allocated dynamical RAM >       6.94MB

     Initial potential from superposition of free atoms

     starting charge    7.99866, renormalised to    8.00000
     Starting wfc are    8 randomized atomic wfcs

     total cpu time spent up to now is        0.4 secs

     per-process dynamical memory:     8.6 Mb

     Self-consistent Calculation

     iteration #  1     ecut=    18.00 Ry     beta=0.70
     Davidson diagonalization with overlap
     ethr =  1.00E-02,  avg # of iterations =  2.0

     Threshold (ethr) on eigenvalues was too large:
     Diagonalizing with lowered threshold

     Davidson diagonalization with overlap
     ethr =  6.55E-04,  avg # of iterations =  1.1

     total cpu time spent up to now is        0.7 secs

     total energy              =     -19.18914875 Ry
     Harris-Foulkes estimate   =     -19.20080822 Ry
     estimated scf accuracy    <       0.05213431 Ry

     iteration #  2     ecut=    18.00 Ry     beta=0.70
     Davidson diagonalization with overlap
     ethr =  6.52E-04,  avg # of iterations =  1.0

     total cpu time spent up to now is        0.9 secs

     total energy              =     -19.19074555 Ry
     Harris-Foulkes estimate   =     -19.19091536 Ry
     estimated scf accuracy    <       0.00245229 Ry

     iteration #  3     ecut=    18.00 Ry     beta=0.70
     Davidson diagonalization with overlap
     ethr =  3.07E-05,  avg # of iterations =  1.9

     total cpu time spent up to now is        1.0 secs

     total energy              =     -19.19100979 Ry
     Harris-Foulkes estimate   =     -19.19102196 Ry
     estimated scf accuracy    <       0.00003883 Ry

     iteration #  4     ecut=    18.00 Ry     beta=0.70
     Davidson diagonalization with overlap
     ethr =  4.85E-07,  avg # of iterations =  2.8

     total cpu time spent up to now is        1.3 secs

     total energy              =     -19.19103296 Ry
     Harris-Foulkes estimate   =     -19.19103341 Ry
     estimated scf accuracy    <       0.00000201 Ry

     iteration #  5     ecut=    18.00 Ry     beta=0.70
     Davidson diagonalization with overlap
     ethr =  2.51E-08,  avg # of iterations =  2.1

     total cpu time spent up to now is        1.5 secs

     total energy              =     -19.19103338 Ry
     Harris-Foulkes estimate   =     -19.19103339 Ry
     estimated scf accuracy    <       0.00000004 Ry

     iteration #  6     ecut=    18.00 Ry     beta=0.70
     Davidson diagonalization with overlap
     ethr =  5.57E-10,  avg # of iterations =  2.8

     total cpu time spent up to now is        2.2 secs

     End of self-consistent calculation

          k =-0.0625 0.0625 0.0625 (   338 PWs)   bands (ev):

    -5.8510   5.2584   5.7103   5.7103

          k =-0.1875 0.1875-0.0625 (   353 PWs)   bands (ev):

    -5.5897   3.7639   4.9237   5.5926

          k =-0.3125 0.3125-0.1875 (   356 PWs)   bands (ev):

    -4.9579   1.5809   4.4422   5.1396

          k =-0.4375 0.4375-0.3125 (   360 PWs)   bands (ev):

    -4.0803  -0.2622   4.2268   4.7408

          k = 0.4375-0.4375 0.5625 (   360 PWs)   bands (ev):

    -3.6473  -0.9425   4.2735   4.5284

          k = 0.3125-0.3125 0.4375 (   357 PWs)   bands (ev):

    -4.3802   0.2820   4.5504   4.5537

          k = 0.1875-0.1875 0.3125 (   357 PWs)   bands (ev):

    -5.2056   2.2958   4.8231   5.0094

          k = 0.0625-0.0625 0.1875 (   346 PWs)   bands (ev):

    -5.7195   4.5066   5.2956   5.4451

          k =-0.0625 0.3125 0.0625 (   354 PWs)   bands (ev):

    -5.4575   3.6120   4.7510   4.8260

          k =-0.1875 0.4375-0.0625 (   357 PWs)   bands (ev):

    -4.9454   2.1352   3.8024   4.5732

          k =-0.3125 0.5625-0.1875 (   361 PWs)   bands (ev):

    -4.1220   0.3230   3.3094   4.1748

          k = 0.5625-0.3125 0.6875 (   368 PWs)   bands (ev):

    -3.3846  -0.8524   3.0237   4.0846

          k = 0.4375-0.1875 0.5625 (   364 PWs)   bands (ev):

    -3.8272  -0.1828   2.9563   4.3611

          k = 0.3125-0.0625 0.4375 (   361 PWs)   bands (ev):

    -4.7038   1.5004   3.2600   4.8556

          k = 0.1875 0.0625 0.3125 (   359 PWs)   bands (ev):

    -5.3306   2.9545   4.3598   5.2195

          k =-0.0625 0.5625 0.0625 (   355 PWs)   bands (ev):

    -4.5536   1.6259   3.6637   3.7822

          k =-0.1875 0.6875-0.0625 (   359 PWs)   bands (ev):

    -3.8196   0.4135   2.8976   3.4445

          k = 0.6875-0.1875 0.8125 (   367 PWs)   bands (ev):

    -2.9471  -0.7526   2.0783   3.4135

          k = 0.5625-0.0625 0.6875 (   369 PWs)   bands (ev):

    -3.0181  -0.6603   1.7367   3.7485

          k = 0.4375 0.0625 0.5625 (   365 PWs)   bands (ev):

    -3.8901   0.2778   2.3223   4.3185

          k = 0.3125 0.1875 0.4375 (   358 PWs)   bands (ev):

    -4.5936   0.9187   3.9087   4.7580

          k =-0.0625 0.8125 0.0625 (   364 PWs)   bands (ev):

    -3.1803  -0.4340   2.9915   3.2010

          k = 0.8125-0.0625 0.9375 (   363 PWs)   bands (ev):

    -2.2928  -1.4023   2.4517   2.9657

          k = 0.6875 0.0625 0.8125 (   369 PWs)   bands (ev):

    -2.3932  -1.2371   1.7444   3.2732

          k = 0.5625 0.1875 0.6875 (   365 PWs)   bands (ev):

    -3.1336  -0.8177   2.2689   3.8594

          k = 0.4375 0.3125 0.5625 (   365 PWs)   bands (ev):

    -3.7276  -0.6573   3.7329   4.4310

          k =-0.0625-0.9375 0.0625 (   362 PWs)   bands (ev):

    -2.3416  -1.4181   2.8569   3.0822

          k =-0.1875-0.8125-0.0625 (   359 PWs)   bands (ev):

    -3.0975  -0.4961   2.6044   3.1220

          k =-0.3125-0.6875-0.1875 (   364 PWs)   bands (ev):

    -3.5608  -0.2236   2.6551   3.7064

          k =-0.0625-0.6875 0.0625 (   358 PWs)   bands (ev):

    -3.9219   0.5911   3.2609   3.4362

          k =-0.1875-0.5625-0.0625 (   356 PWs)   bands (ev):

    -4.4393   1.2935   3.3060   3.9402

          k =-0.0625-0.4375 0.0625 (   351 PWs)   bands (ev):

    -5.0674   2.6431   4.1946   4.2283

          k =-0.1875 0.1875 0.1875 (   359 PWs)   bands (ev):

    -5.4611   3.0547   5.2781   5.2781

          k =-0.3125 0.3125 0.0625 (   360 PWs)   bands (ev):

    -5.0779   2.2193   3.8005   5.2927

          k =-0.4375 0.4375-0.0625 (   362 PWs)   bands (ev):

    -4.3486   0.8712   2.7441   4.7993

          k = 0.4375-0.4375 0.8125 (   367 PWs)   bands (ev):

    -3.4786  -0.5785   2.5871   4.2809

          k = 0.3125-0.3125 0.6875 (   368 PWs)   bands (ev):

    -3.4634  -0.6064   2.8773   3.9708

          k = 0.1875-0.1875 0.5625 (   358 PWs)   bands (ev):

    -4.3313   0.8680   3.4786   3.9491

          k =-0.1875 0.4375 0.1875 (   362 PWs)   bands (ev):

    -4.8271   1.5685   4.2842   4.3586

          k =-0.3125 0.5625 0.0625 (   361 PWs)   bands (ev):

    -4.2150   0.8009   2.7997   4.1663

          k = 0.5625-0.3125 0.9375 (   367 PWs)   bands (ev):

    -3.3463  -0.2834   2.0306   3.6143

          k = 0.4375-0.1875 0.8125 (   369 PWs)   bands (ev):

    -2.8726  -0.8799   2.0301   3.3103

          k = 0.3125-0.0625 0.6875 (   362 PWs)   bands (ev):

    -3.6228   0.0981   2.4457   3.4845

          k =-0.1875 0.6875 0.1875 (   362 PWs)   bands (ev):

    -3.7291   0.1569   2.7694   3.6252

          k = 0.6875-0.1875 1.0625 (   363 PWs)   bands (ev):

    -2.9444  -0.6332   2.2102   2.9621

          k = 0.5625-0.0625 0.9375 (   370 PWs)   bands (ev):

    -2.1577  -1.3754   1.9029   2.4746

          k = 0.4375 0.0625 0.8125 (   367 PWs)   bands (ev):

    -2.7460  -0.8350   1.8925   2.9378

          k =-0.1875-1.0625 0.1875 (   364 PWs)   bands (ev):

    -2.3153  -1.3517   2.0042   3.2897

          k =-0.3125-0.9375 0.0625 (   366 PWs)   bands (ev):

    -2.2171  -1.3837   2.0957   2.6821

          k =-0.1875-0.8125 0.1875 (   362 PWs)   bands (ev):

    -3.0390  -0.5943   2.2618   3.4027

          k =-0.3125 0.3125 0.3125 (   359 PWs)   bands (ev):

    -4.7226   0.8933   4.8714   4.8714

          k =-0.4375 0.4375 0.1875 (   362 PWs)   bands (ev):

    -4.2546   0.3223   3.4348   4.7846

          k = 0.4375-0.4375 1.0625 (   367 PWs)   bands (ev):

    -3.4816  -0.2160   1.9520   4.2185

          k = 0.3125-0.3125 0.9375 (   364 PWs)   bands (ev):

    -2.6811  -0.9866   1.6262   3.6848

          k =-0.3125 0.5625 0.3125 (   368 PWs)   bands (ev):

    -3.9491  -0.2229   3.7582   4.2357

          k = 0.5625-0.3125 1.1875 (   367 PWs)   bands (ev):

    -3.3444  -0.5844   2.4840   3.7746

          k = 0.4375-0.1875 1.0625 (   370 PWs)   bands (ev):

    -2.5458  -1.0546   1.7161   3.0800

          k =-0.3125-1.1875 0.3125 (   363 PWs)   bands (ev):

    -2.9948  -0.8615   2.1052   3.7825

          k =-0.4375 0.4375 0.4375 (   356 PWs)   bands (ev):

    -3.8578  -0.7128   4.6537   4.6537

          k = 0.4375-0.4375 1.3125 (   365 PWs)   bands (ev):

    -3.5165  -0.8882   3.4495   4.3927

     highest occupied level (ev):     5.7103

!    total energy              =     -19.19103340 Ry
     Harris-Foulkes estimate   =     -19.19103340 Ry
     estimated scf accuracy    <          7.3E-09 Ry

     The total energy is the sum of the following terms:

     one-electron contribution =       4.81079632 Ry
     hartree contribution      =       1.14980604 Ry
     xc contribution           =      -8.57368444 Ry
     ewald contribution        =     -16.57795132 Ry

     convergence has been achieved in   6 iterations

     Writing output data file silicon.10.398.save

     init_run     :      0.26s CPU      0.29s WALL (       1 calls)
     electrons    :      1.25s CPU      1.82s WALL (       1 calls)

     Called by init_run:
     wfcinit      :      0.07s CPU      0.08s WALL (       1 calls)
     potinit      :      0.01s CPU      0.01s WALL (       1 calls)

     Called by electrons:
     c_bands      :      0.89s CPU      1.35s WALL (       7 calls)
     sum_band     :      0.22s CPU      0.30s WALL (       7 calls)
     v_of_rho     :      0.06s CPU      0.07s WALL (       7 calls)
     newd         :      0.08s CPU      0.11s WALL (       7 calls)
     mix_rho      :      0.00s CPU      0.00s WALL (       7 calls)

     Called by c_bands:
     init_us_2    :      0.05s CPU      0.07s WALL (     900 calls)
     cegterg      :      0.76s CPU      1.18s WALL (     420 calls)

     Called by sum_band:
     sum_band:bec :      0.00s CPU      0.01s WALL (     420 calls)
     addusdens    :      0.07s CPU      0.09s WALL (       7 calls)

     Called by *egterg:
     h_psi        :      0.53s CPU      0.78s WALL (    1300 calls)
     s_psi        :      0.05s CPU      0.06s WALL (    1300 calls)
     g_psi        :      0.00s CPU      0.00s WALL (     820 calls)
     cdiaghg      :      0.08s CPU      0.11s WALL (    1180 calls)

     Called by h_psi:
     h_psi:pot    :      0.53s CPU      0.78s WALL (    1300 calls)
     h_psi:calbec :      0.09s CPU      0.15s WALL (    1300 calls)
     vloc_psi     :      0.38s CPU      0.55s WALL (    1300 calls)
     add_vuspsi   :      0.06s CPU      0.06s WALL (    1300 calls)

     General routines
     calbec       :      0.12s CPU      0.21s WALL (    1720 calls)
     fft          :      0.06s CPU      0.08s WALL (     112 calls)
     ffts         :      0.00s CPU      0.00s WALL (      14 calls)
     fftw         :      0.37s CPU      0.56s WALL (   11622 calls)
     interpolate  :      0.00s CPU      0.01s WALL (      14 calls)
     davcio       :      0.00s CPU      0.00s WALL (      60 calls)

     Parallel routines
     fft_scatter  :      0.23s CPU      0.40s WALL (   11748 calls)

     PWSCF        :     1.77s CPU         2.40s WALL


   This run was terminated on:  10: 3:30  10Nov2017            

=------------------------------------------------------------------------------=
   JOB DONE.
=------------------------------------------------------------------------------=
