
     Program PHONON v.6.1 (svn rev. 13369) starts on  9Nov2017 at 17:16:42 

     This program is part of the open-source Quantum ESPRESSO suite
     for quantum simulation of materials; please cite
         "P. Giannozzi et al., J. Phys.:Condens. Matter 21 395502 (2009);
          URL http://www.quantum-espresso.org", 
     in publications or presentations arising from this work. More details at
     http://www.quantum-espresso.org/quote

     Parallel version (MPI), running on     4 processors
     R & G space division:  proc/nbgrp/npool/nimage =       4

     Reading data from directory:
     ./silicon.10.392.save

   Info: using nr1, nr2, nr3 values from input

   Info: using nr1, nr2, nr3 values from input

     IMPORTANT: XC functional enforced from input :
     Exchange-correlation      = SLA  PW   PBE  PBE ( 1  4  3  4 0 0)
     Any further DFT definition will be discarded
     Please, verify this is what you really want


     Parallelization info
     --------------------
     sticks:   dense  smooth     PW     G-vecs:    dense   smooth      PW
     Min          66      66     22                  722      722     152
     Max          67      67     23                  724      724     153
     Sum         265     265     91                 2891     2891     609


     Check: negative/imaginary core charge=   -0.000006    0.000000


     Dynamical matrices for ( 4, 4, 4)  uniform grid of q-points
     (   8q-points):
       N         xq(1)         xq(2)         xq(3) 
       1   0.000000000   0.000000000   0.000000000
       2  -0.250000000   0.250000000  -0.250000000
       3   0.500000000  -0.500000000   0.500000000
       4   0.000000000   0.500000000   0.000000000
       5   0.750000000  -0.250000000   0.750000000
       6   0.500000000   0.000000000   0.500000000
       7   0.000000000  -1.000000000   0.000000000
       8  -0.500000000  -1.000000000   0.000000000

     Calculation of q =    0.0000000   0.0000000   0.0000000

                                                                                

     bravais-lattice index     =            2
     lattice parameter (alat)  =      10.3920  a.u.
     unit-cell volume          =     280.5675 (a.u.)^3
     number of atoms/cell      =            2
     number of atomic types    =            1
     kinetic-energy cut-off    =      18.0000  Ry
     charge density cut-off    =      72.0000  Ry
     convergence threshold     =      1.0E-12
     beta                      =       0.7000
     number of iterations used =            4
     Exchange-correlation      = SLA  PW   PBE  PBE ( 1  4  3  4 0 0)


     celldm(1)=   10.39200  celldm(2)=    0.00000  celldm(3)=    0.00000
     celldm(4)=    0.00000  celldm(5)=    0.00000  celldm(6)=    0.00000

     crystal axes: (cart. coord. in units of alat)
               a(1) = ( -0.5000  0.0000  0.5000 )  
               a(2) = (  0.0000  0.5000  0.5000 )  
               a(3) = ( -0.5000  0.5000  0.0000 )  

     reciprocal axes: (cart. coord. in units 2 pi/alat)
               b(1) = ( -1.0000 -1.0000  1.0000 )  
               b(2) = (  1.0000  1.0000  1.0000 )  
               b(3) = ( -1.0000  1.0000 -1.0000 )  


     Atoms inside the unit cell: 

     Cartesian axes

     site n.  atom      mass           positions (alat units)
        1     Si  28.0860   tau(    1) = (    0.00000    0.00000    0.00000  )
        2     Si  28.0860   tau(    2) = (    0.25000    0.25000    0.25000  )

     Computing dynamical matrix for 
                    q = (   0.0000000   0.0000000   0.0000000 )

     49 Sym.Ops. (with q -> -q+G )


     G cutoff =  196.9568  (    722 G-vectors)     FFT grid: ( 20, 20, 20)
     number of k points=    10

     PseudoPot. # 1 for Si read from file:
     /home/max/quantum_espresso/qe-6.1/pseudo/si_pbe_v1.uspp.F.UPF.txt
     MD5 check sum: a056efeee980c13900f22a371efd63c1
     Pseudo is Ultrasoft + core correction, Zval =  4.0
     Generated by new atomic code, or converted to UPF format
     Using radial grid of  899 points,  6 beta functions with: 
                l(1) =   0
                l(2) =   0
                l(3) =   1
                l(4) =   1
                l(5) =   2
                l(6) =   2
     Q(r) pseudized with  8 coefficients,  rinner =    0.900   0.900   0.900
                                                       0.900   0.900

     Mode symmetry, O_h (m-3m)  point group:


     Electric field:
     Dielectric constant
     Born effective charges in two ways 


     Atomic displacements:
     There are   2 irreducible representations

     Representation     1      3 modes -T_2g G_25' G_5+  To be done

     Representation     2      3 modes -T_1u G_15  G_4-  To be done



     Alpha used in Ewald sum =   0.7000
     PHONON       :     0.39s CPU         0.41s WALL


     Electric Fields Calculation

      iter #   1 total cpu time :     0.8 secs   av.it.:   5.6
      thresh= 1.000E-02 alpha_mix =  0.700 |ddv_scf|^2 =  9.537E-07

      iter #   2 total cpu time :     1.0 secs   av.it.:   9.9
      thresh= 9.766E-05 alpha_mix =  0.700 |ddv_scf|^2 =  6.205E-08

      iter #   3 total cpu time :     1.1 secs   av.it.:   9.8
      thresh= 2.491E-05 alpha_mix =  0.700 |ddv_scf|^2 =  4.925E-09

      iter #   4 total cpu time :     1.4 secs   av.it.:   9.0
      thresh= 7.018E-06 alpha_mix =  0.700 |ddv_scf|^2 =  2.982E-11

      iter #   5 total cpu time :     1.8 secs   av.it.:   9.1
      thresh= 5.461E-07 alpha_mix =  0.700 |ddv_scf|^2 =  1.540E-14

     End of electric fields calculation

          Dielectric constant in cartesian axis 

          (      14.001496292       0.000000000       0.000000000 )
          (       0.000000000      14.001496292       0.000000000 )
          (       0.000000000       0.000000000      14.001496292 )

          Effective charges (d Force / dE) in cartesian axis

           atom      1   Si 
      Ex  (       -0.03378       -0.00000       -0.00000 )
      Ey  (       -0.00000       -0.03378        0.00000 )
      Ez  (        0.00000        0.00000       -0.03378 )
           atom      2   Si 
      Ex  (       -0.03378       -0.00000       -0.00000 )
      Ey  (        0.00000       -0.03378       -0.00000 )
      Ez  (       -0.00000       -0.00000       -0.03378 )


     Representation #  1 modes #   1  2  3

     Self-consistent Calculation

      iter #   1 total cpu time :     2.2 secs   av.it.:   4.9
      thresh= 1.000E-02 alpha_mix =  0.700 |ddv_scf|^2 =  1.848E-07

      iter #   2 total cpu time :     2.4 secs   av.it.:  10.0
      thresh= 4.299E-05 alpha_mix =  0.700 |ddv_scf|^2 =  1.019E-08

      iter #   3 total cpu time :     2.5 secs   av.it.:   9.5
      thresh= 1.010E-05 alpha_mix =  0.700 |ddv_scf|^2 =  7.050E-10

      iter #   4 total cpu time :     2.7 secs   av.it.:   9.1
      thresh= 2.655E-06 alpha_mix =  0.700 |ddv_scf|^2 =  1.813E-12

      iter #   5 total cpu time :     2.9 secs   av.it.:   9.4
      thresh= 1.346E-07 alpha_mix =  0.700 |ddv_scf|^2 =  1.531E-14

     End of self-consistent calculation

     Convergence has been achieved 


     Representation #  2 modes #   4  5  6

     Self-consistent Calculation

      iter #   1 total cpu time :     3.1 secs   av.it.:   5.0
      thresh= 1.000E-02 alpha_mix =  0.700 |ddv_scf|^2 =  1.917E-07

      iter #   2 total cpu time :     3.4 secs   av.it.:   9.6
      thresh= 4.378E-05 alpha_mix =  0.700 |ddv_scf|^2 =  1.580E-08

      iter #   3 total cpu time :     3.8 secs   av.it.:   9.2
      thresh= 1.257E-05 alpha_mix =  0.700 |ddv_scf|^2 =  9.492E-10

      iter #   4 total cpu time :     4.0 secs   av.it.:   9.5
      thresh= 3.081E-06 alpha_mix =  0.700 |ddv_scf|^2 =  5.523E-12

      iter #   5 total cpu time :     4.1 secs   av.it.:   9.1
      thresh= 2.350E-07 alpha_mix =  0.700 |ddv_scf|^2 =  5.047E-15

     End of self-consistent calculation

     Convergence has been achieved 

     Number of q in the star =    1
     List of q in the star:
          1   0.000000000   0.000000000   0.000000000

          Dielectric constant in cartesian axis 

          (      14.001496292       0.000000000       0.000000000 )
          (       0.000000000      14.001496292       0.000000000 )
          (       0.000000000       0.000000000      14.001496292 )

          Effective charges (d Force / dE) in cartesian axis

           atom      1   Si 
      Ex  (       -0.03378       -0.00000       -0.00000 )
      Ey  (       -0.00000       -0.03378        0.00000 )
      Ez  (        0.00000        0.00000       -0.03378 )
           atom      2   Si 
      Ex  (       -0.03378       -0.00000       -0.00000 )
      Ey  (        0.00000       -0.03378       -0.00000 )
      Ez  (       -0.00000       -0.00000       -0.03378 )

          Effective charges (d P / du) in cartesian axis 

           atom      1   Si 
      Px  (       -0.07574        0.00000        0.00000 )
      Py  (        0.00000       -0.07574       -0.00000 )
      Pz  (        0.00000        0.00000       -0.07574 )
           atom      2   Si 
      Px  (       -0.07574        0.00000        0.00000 )
      Py  (        0.00000       -0.07574       -0.00000 )
      Pz  (        0.00000       -0.00000       -0.07574 )

     Diagonalizing the dynamical matrix

     q = (    0.000000000   0.000000000   0.000000000 ) 

 **************************************************************************
     freq (    1) =       1.790775 [THz] =      59.733838 [cm-1]
     freq (    2) =       1.790775 [THz] =      59.733838 [cm-1]
     freq (    3) =       1.790775 [THz] =      59.733838 [cm-1]
     freq (    4) =      15.598493 [THz] =     520.309708 [cm-1]
     freq (    5) =      15.598493 [THz] =     520.309708 [cm-1]
     freq (    6) =      15.598493 [THz] =     520.309708 [cm-1]
 **************************************************************************

     Mode symmetry, O_h (m-3m)  point group:

     freq (  1 -  3) =         59.7  [cm-1]   --> T_1u G_15  G_4- I  
     freq (  4 -  6) =        520.3  [cm-1]   --> T_2g G_25' G_5+ R  

     Calculation of q =   -0.2500000   0.2500000  -0.2500000

   Info: using nr1, nr2, nr3 values from input

   Info: using nr1, nr2, nr3 values from input

     Parallelization info
     --------------------
     sticks:   dense  smooth     PW     G-vecs:    dense   smooth      PW
     Min          66      66     24                  722      722     161
     Max          67      67     25                  724      724     162
     Sum         265     265     97                 2891     2891     645



     bravais-lattice index     =            2
     lattice parameter (alat)  =      10.3920  a.u.
     unit-cell volume          =     280.5675 (a.u.)^3
     number of atoms/cell      =            2
     number of atomic types    =            1
     number of electrons       =         8.00
     number of Kohn-Sham states=            4
     kinetic-energy cutoff     =      18.0000  Ry
     charge density cutoff     =      72.0000  Ry
     Exchange-correlation      = SLA  PW   PBE  PBE ( 1  4  3  4 0 0)

     celldm(1)=  10.392000  celldm(2)=   0.000000  celldm(3)=   0.000000
     celldm(4)=   0.000000  celldm(5)=   0.000000  celldm(6)=   0.000000

     crystal axes: (cart. coord. in units of alat)
               a(1) = (  -0.500000   0.000000   0.500000 )  
               a(2) = (   0.000000   0.500000   0.500000 )  
               a(3) = (  -0.500000   0.500000   0.000000 )  

     reciprocal axes: (cart. coord. in units 2 pi/alat)
               b(1) = ( -1.000000 -1.000000  1.000000 )  
               b(2) = (  1.000000  1.000000  1.000000 )  
               b(3) = ( -1.000000  1.000000 -1.000000 )  


     PseudoPot. # 1 for Si read from file:
     /home/max/quantum_espresso/qe-6.1/pseudo/si_pbe_v1.uspp.F.UPF.txt
     MD5 check sum: a056efeee980c13900f22a371efd63c1
     Pseudo is Ultrasoft + core correction, Zval =  4.0
     Generated by new atomic code, or converted to UPF format
     Using radial grid of  899 points,  6 beta functions with: 
                l(1) =   0
                l(2) =   0
                l(3) =   1
                l(4) =   1
                l(5) =   2
                l(6) =   2
     Q(r) pseudized with  8 coefficients,  rinner =    0.900   0.900   0.900
                                                       0.900   0.900

     atomic species   valence    mass     pseudopotential
        Si             4.00    28.08600     Si( 1.00)

     48 Sym. Ops., with inversion, found



   Cartesian axes

     site n.     atom                  positions (alat units)
         1           Si  tau(   1) = (   0.0000000   0.0000000   0.0000000  )
         2           Si  tau(   2) = (   0.2500000   0.2500000   0.2500000  )

     number of k points=   120

     Number of k-points >= 100: set verbosity='high' to print them.

     Dense  grid:     2891 G-vectors     FFT dimensions: (  20,  20,  20)

     Estimated max dynamical RAM per process >       0.33MB

     Estimated total allocated dynamical RAM >       1.33MB

     Check: negative/imaginary core charge=   -0.000006    0.000000

     The potential is recalculated from file :
     ./_ph0/silicon.10.392.save/charge-density.dat

     Starting wfc are    8 atomic wfcs

     Band Structure Calculation
     Davidson diagonalization with overlap

     ethr =  1.25E-10,  avg # of iterations = 11.7

     total cpu time spent up to now is        0.8 secs

     End of band structure calculation

     Number of k-points >= 100: set verbosity='high' to print the bands.

     highest occupied level (ev):     5.5327

     Writing output data file silicon.10.392.save

                                                                                

     bravais-lattice index     =            2
     lattice parameter (alat)  =      10.3920  a.u.
     unit-cell volume          =     280.5675 (a.u.)^3
     number of atoms/cell      =            2
     number of atomic types    =            1
     kinetic-energy cut-off    =      18.0000  Ry
     charge density cut-off    =      72.0000  Ry
     convergence threshold     =      1.0E-12
     beta                      =       0.7000
     number of iterations used =            4
     Exchange-correlation      = SLA  PW   PBE  PBE ( 1  4  3  4 0 0)


     celldm(1)=   10.39200  celldm(2)=    0.00000  celldm(3)=    0.00000
     celldm(4)=    0.00000  celldm(5)=    0.00000  celldm(6)=    0.00000

     crystal axes: (cart. coord. in units of alat)
               a(1) = ( -0.5000  0.0000  0.5000 )  
               a(2) = (  0.0000  0.5000  0.5000 )  
               a(3) = ( -0.5000  0.5000  0.0000 )  

     reciprocal axes: (cart. coord. in units 2 pi/alat)
               b(1) = ( -1.0000 -1.0000  1.0000 )  
               b(2) = (  1.0000  1.0000  1.0000 )  
               b(3) = ( -1.0000  1.0000 -1.0000 )  


     Atoms inside the unit cell: 

     Cartesian axes

     site n.  atom      mass           positions (alat units)
        1     Si  28.0860   tau(    1) = (    0.00000    0.00000    0.00000  )
        2     Si  28.0860   tau(    2) = (    0.25000    0.25000    0.25000  )

     Computing dynamical matrix for 
                    q = (  -0.2500000   0.2500000  -0.2500000 )

      6 Sym.Ops. (no q -> -q+G )


     G cutoff =  196.9568  (    722 G-vectors)     FFT grid: ( 20, 20, 20)
     number of k points=   120

     PseudoPot. # 1 for Si read from file:
     /home/max/quantum_espresso/qe-6.1/pseudo/si_pbe_v1.uspp.F.UPF.txt
     MD5 check sum: a056efeee980c13900f22a371efd63c1
     Pseudo is Ultrasoft + core correction, Zval =  4.0
     Generated by new atomic code, or converted to UPF format
     Using radial grid of  899 points,  6 beta functions with: 
                l(1) =   0
                l(2) =   0
                l(3) =   1
                l(4) =   1
                l(5) =   2
                l(6) =   2
     Q(r) pseudized with  8 coefficients,  rinner =    0.900   0.900   0.900
                                                       0.900   0.900

     Mode symmetry, C_3v (3m)   point group:


     Atomic displacements:
     There are   4 irreducible representations

     Representation     1      1 modes -A_1  L_1  To be done

     Representation     2      1 modes -A_1  L_1  To be done

     Representation     3      2 modes -E    L_3  To be done

     Representation     4      2 modes -E    L_3  To be done



     Alpha used in Ewald sum =   0.7000
     PHONON       :     5.27s CPU         5.73s WALL



     Representation #  1 mode #   1

     Self-consistent Calculation

      iter #   1 total cpu time :     5.9 secs   av.it.:   5.5
      thresh= 1.000E-02 alpha_mix =  0.700 |ddv_scf|^2 =  2.431E-03

      iter #   2 total cpu time :     6.2 secs   av.it.:   7.5
      thresh= 4.931E-03 alpha_mix =  0.700 |ddv_scf|^2 =  3.695E-02

      iter #   3 total cpu time :     6.4 secs   av.it.:   6.3
      thresh= 1.000E-02 alpha_mix =  0.700 |ddv_scf|^2 =  1.712E-06

      iter #   4 total cpu time :     6.7 secs   av.it.:   8.2
      thresh= 1.308E-04 alpha_mix =  0.700 |ddv_scf|^2 =  1.143E-07

      iter #   5 total cpu time :     6.9 secs   av.it.:   8.1
      thresh= 3.381E-05 alpha_mix =  0.700 |ddv_scf|^2 =  4.387E-09

      iter #   6 total cpu time :     7.2 secs   av.it.:   8.0
      thresh= 6.623E-06 alpha_mix =  0.700 |ddv_scf|^2 =  3.350E-09

      iter #   7 total cpu time :     7.7 secs   av.it.:   6.3
      thresh= 5.788E-06 alpha_mix =  0.700 |ddv_scf|^2 =  6.944E-10

      iter #   8 total cpu time :     8.0 secs   av.it.:   7.2
      thresh= 2.635E-06 alpha_mix =  0.700 |ddv_scf|^2 =  4.075E-12

      iter #   9 total cpu time :     8.2 secs   av.it.:   7.2
      thresh= 2.019E-07 alpha_mix =  0.700 |ddv_scf|^2 =  1.792E-13

     End of self-consistent calculation

     Convergence has been achieved 


     Representation #  2 mode #   2

     Self-consistent Calculation

      iter #   1 total cpu time :     8.4 secs   av.it.:   5.5
      thresh= 1.000E-02 alpha_mix =  0.700 |ddv_scf|^2 =  2.431E-03

      iter #   2 total cpu time :     8.7 secs   av.it.:   7.5
      thresh= 4.931E-03 alpha_mix =  0.700 |ddv_scf|^2 =  3.695E-02

      iter #   3 total cpu time :     8.9 secs   av.it.:   6.3
      thresh= 1.000E-02 alpha_mix =  0.700 |ddv_scf|^2 =  1.712E-06

      iter #   4 total cpu time :     9.2 secs   av.it.:   8.2
      thresh= 1.308E-04 alpha_mix =  0.700 |ddv_scf|^2 =  1.143E-07

      iter #   5 total cpu time :     9.8 secs   av.it.:   8.1
      thresh= 3.381E-05 alpha_mix =  0.700 |ddv_scf|^2 =  4.387E-09

      iter #   6 total cpu time :    10.0 secs   av.it.:   8.0
      thresh= 6.623E-06 alpha_mix =  0.700 |ddv_scf|^2 =  3.350E-09

      iter #   7 total cpu time :    10.2 secs   av.it.:   6.3
      thresh= 5.788E-06 alpha_mix =  0.700 |ddv_scf|^2 =  6.944E-10

      iter #   8 total cpu time :    10.5 secs   av.it.:   7.2
      thresh= 2.635E-06 alpha_mix =  0.700 |ddv_scf|^2 =  4.075E-12

      iter #   9 total cpu time :    10.7 secs   av.it.:   7.2
      thresh= 2.019E-07 alpha_mix =  0.700 |ddv_scf|^2 =  1.792E-13

     End of self-consistent calculation

     Convergence has been achieved 


     Representation #  3 modes #   3  4

     Self-consistent Calculation

      iter #   1 total cpu time :    11.1 secs   av.it.:   4.9
      thresh= 1.000E-02 alpha_mix =  0.700 |ddv_scf|^2 =  5.344E-07

      iter #   2 total cpu time :    12.0 secs   av.it.:   9.6
      thresh= 7.310E-05 alpha_mix =  0.700 |ddv_scf|^2 =  4.000E-08

      iter #   3 total cpu time :    12.6 secs   av.it.:   9.2
      thresh= 2.000E-05 alpha_mix =  0.700 |ddv_scf|^2 =  3.437E-09

      iter #   4 total cpu time :    13.1 secs   av.it.:   9.0
      thresh= 5.862E-06 alpha_mix =  0.700 |ddv_scf|^2 =  1.136E-11

      iter #   5 total cpu time :    14.0 secs   av.it.:   9.2
      thresh= 3.370E-07 alpha_mix =  0.700 |ddv_scf|^2 =  5.086E-13

     End of self-consistent calculation

     Convergence has been achieved 


     Representation #  4 modes #   5  6

     Self-consistent Calculation

      iter #   1 total cpu time :    14.4 secs   av.it.:   5.0
      thresh= 1.000E-02 alpha_mix =  0.700 |ddv_scf|^2 =  5.342E-07

      iter #   2 total cpu time :    15.0 secs   av.it.:   9.7
      thresh= 7.309E-05 alpha_mix =  0.700 |ddv_scf|^2 =  3.994E-08

      iter #   3 total cpu time :    15.9 secs   av.it.:   9.4
      thresh= 1.999E-05 alpha_mix =  0.700 |ddv_scf|^2 =  3.432E-09

      iter #   4 total cpu time :    16.4 secs   av.it.:   9.1
      thresh= 5.859E-06 alpha_mix =  0.700 |ddv_scf|^2 =  1.136E-11

      iter #   5 total cpu time :    17.0 secs   av.it.:   9.3
      thresh= 3.370E-07 alpha_mix =  0.700 |ddv_scf|^2 =  5.084E-13

     End of self-consistent calculation

     Convergence has been achieved 

     Number of q in the star =    8
     List of q in the star:
          1  -0.250000000   0.250000000  -0.250000000
          2   0.250000000  -0.250000000  -0.250000000
          3   0.250000000  -0.250000000   0.250000000
          4   0.250000000   0.250000000   0.250000000
          5  -0.250000000  -0.250000000  -0.250000000
          6  -0.250000000  -0.250000000   0.250000000
          7  -0.250000000   0.250000000   0.250000000
          8   0.250000000   0.250000000  -0.250000000

     Diagonalizing the dynamical matrix

     q = (   -0.250000000   0.250000000  -0.250000000 ) 

 **************************************************************************
     freq (    1) =       3.409178 [THz] =     113.717949 [cm-1]
     freq (    2) =       3.409178 [THz] =     113.717949 [cm-1]
     freq (    3) =       6.829124 [THz] =     227.795041 [cm-1]
     freq (    4) =      14.694296 [THz] =     490.148950 [cm-1]
     freq (    5) =      14.978076 [THz] =     499.614827 [cm-1]
     freq (    6) =      14.978076 [THz] =     499.614827 [cm-1]
 **************************************************************************

     Mode symmetry, C_3v (3m)   point group:

     freq (  1 -  2) =        113.7  [cm-1]   --> E    L_3           
     freq (  3 -  3) =        227.8  [cm-1]   --> A_1  L_1           
     freq (  4 -  4) =        490.1  [cm-1]   --> A_1  L_1           
     freq (  5 -  6) =        499.6  [cm-1]   --> E    L_3           

     Calculation of q =    0.5000000  -0.5000000   0.5000000

   Info: using nr1, nr2, nr3 values from input

   Info: using nr1, nr2, nr3 values from input

     Parallelization info
     --------------------
     sticks:   dense  smooth     PW     G-vecs:    dense   smooth      PW
     Min          66      66     27                  722      722     186
     Max          67      67     28                  724      724     189
     Sum         265     265    109                 2891     2891     749



     bravais-lattice index     =            2
     lattice parameter (alat)  =      10.3920  a.u.
     unit-cell volume          =     280.5675 (a.u.)^3
     number of atoms/cell      =            2
     number of atomic types    =            1
     number of electrons       =         8.00
     number of Kohn-Sham states=            4
     kinetic-energy cutoff     =      18.0000  Ry
     charge density cutoff     =      72.0000  Ry
     Exchange-correlation      = SLA  PW   PBE  PBE ( 1  4  3  4 0 0)

     celldm(1)=  10.392000  celldm(2)=   0.000000  celldm(3)=   0.000000
     celldm(4)=   0.000000  celldm(5)=   0.000000  celldm(6)=   0.000000

     crystal axes: (cart. coord. in units of alat)
               a(1) = (  -0.500000   0.000000   0.500000 )  
               a(2) = (   0.000000   0.500000   0.500000 )  
               a(3) = (  -0.500000   0.500000   0.000000 )  

     reciprocal axes: (cart. coord. in units 2 pi/alat)
               b(1) = ( -1.000000 -1.000000  1.000000 )  
               b(2) = (  1.000000  1.000000  1.000000 )  
               b(3) = ( -1.000000  1.000000 -1.000000 )  


     PseudoPot. # 1 for Si read from file:
     /home/max/quantum_espresso/qe-6.1/pseudo/si_pbe_v1.uspp.F.UPF.txt
     MD5 check sum: a056efeee980c13900f22a371efd63c1
     Pseudo is Ultrasoft + core correction, Zval =  4.0
     Generated by new atomic code, or converted to UPF format
     Using radial grid of  899 points,  6 beta functions with: 
                l(1) =   0
                l(2) =   0
                l(3) =   1
                l(4) =   1
                l(5) =   2
                l(6) =   2
     Q(r) pseudized with  8 coefficients,  rinner =    0.900   0.900   0.900
                                                       0.900   0.900

     atomic species   valence    mass     pseudopotential
        Si             4.00    28.08600     Si( 1.00)

     48 Sym. Ops., with inversion, found



   Cartesian axes

     site n.     atom                  positions (alat units)
         1           Si  tau(   1) = (   0.0000000   0.0000000   0.0000000  )
         2           Si  tau(   2) = (   0.2500000   0.2500000   0.2500000  )

     number of k points=    60
                       cart. coord. in units 2pi/alat
        k(    1) = (  -0.1250000   0.1250000   0.1250000), wk =   0.0468750
        k(    2) = (   0.3750000  -0.3750000   0.6250000), wk =   0.0000000
        k(    3) = (  -0.3750000   0.3750000  -0.1250000), wk =   0.0468750
        k(    4) = (   0.1250000  -0.1250000   0.3750000), wk =   0.0000000
        k(    5) = (   0.3750000  -0.3750000   0.6250000), wk =   0.0468750
        k(    6) = (   0.8750000  -0.8750000   1.1250000), wk =   0.0000000
        k(    7) = (   0.1250000  -0.1250000   0.3750000), wk =   0.0468750
        k(    8) = (   0.6250000  -0.6250000   0.8750000), wk =   0.0000000
        k(    9) = (  -0.1250000   0.6250000   0.1250000), wk =   0.0937500
        k(   10) = (   0.3750000   0.1250000   0.6250000), wk =   0.0000000
        k(   11) = (   0.6250000  -0.1250000   0.8750000), wk =   0.0937500
        k(   12) = (   1.1250000  -0.6250000   1.3750000), wk =   0.0000000
        k(   13) = (   0.3750000   0.1250000   0.6250000), wk =   0.0937500
        k(   14) = (   0.8750000  -0.3750000   1.1250000), wk =   0.0000000
        k(   15) = (  -0.1250000  -0.8750000   0.1250000), wk =   0.0937500
        k(   16) = (   0.3750000  -1.3750000   0.6250000), wk =   0.0000000
        k(   17) = (  -0.3750000   0.3750000   0.3750000), wk =   0.0468750
        k(   18) = (   0.1250000  -0.1250000   0.8750000), wk =   0.0000000
        k(   19) = (   0.3750000  -0.3750000   1.1250000), wk =   0.0468750
        k(   20) = (   0.8750000  -0.8750000   1.6250000), wk =   0.0000000
        k(   21) = (   0.1250000  -0.1250000   0.1250000), wk =   0.0156250
        k(   22) = (   0.6250000  -0.6250000   0.6250000), wk =   0.0000000
        k(   23) = (  -0.3750000  -0.3750000  -0.1250000), wk =   0.0937500
        k(   24) = (   0.1250000  -0.8750000   0.3750000), wk =   0.0000000
        k(   25) = (  -0.1250000  -0.3750000   0.3750000), wk =   0.0468750
        k(   26) = (   0.3750000  -0.8750000   0.8750000), wk =   0.0000000
        k(   27) = (   0.3750000   0.3750000   0.6250000), wk =   0.0937500
        k(   28) = (   0.8750000  -0.1250000   1.1250000), wk =   0.0000000
        k(   29) = (   0.6250000   0.3750000  -0.3750000), wk =   0.0468750
        k(   30) = (   1.1250000  -0.1250000   0.1250000), wk =   0.0000000
        k(   31) = (   0.1250000   0.1250000   0.3750000), wk =   0.0937500
        k(   32) = (   0.6250000  -0.3750000   0.8750000), wk =   0.0000000
        k(   33) = (   0.3750000   0.1250000  -0.1250000), wk =   0.0468750
        k(   34) = (   0.8750000  -0.3750000   0.3750000), wk =   0.0000000
        k(   35) = (  -0.1250000  -0.6250000  -0.1250000), wk =   0.0468750
        k(   36) = (   0.3750000  -1.1250000   0.3750000), wk =   0.0000000
        k(   37) = (   0.1250000  -0.6250000   0.1250000), wk =   0.0468750
        k(   38) = (   0.6250000  -1.1250000   0.6250000), wk =   0.0000000
        k(   39) = (   0.6250000   0.1250000   0.8750000), wk =   0.0937500
        k(   40) = (   1.1250000  -0.3750000   1.3750000), wk =   0.0000000
        k(   41) = (  -0.8750000   0.1250000   0.6250000), wk =   0.0937500
        k(   42) = (  -0.3750000  -0.3750000   1.1250000), wk =   0.0000000
        k(   43) = (   0.8750000   0.1250000  -0.6250000), wk =   0.0937500
        k(   44) = (   1.3750000  -0.3750000  -0.1250000), wk =   0.0000000
        k(   45) = (   0.3750000  -0.1250000   0.6250000), wk =   0.0937500
        k(   46) = (   0.8750000  -0.6250000   1.1250000), wk =   0.0000000
        k(   47) = (  -0.6250000  -0.1250000   0.3750000), wk =   0.0937500
        k(   48) = (  -0.1250000  -0.6250000   0.8750000), wk =   0.0000000
        k(   49) = (   0.6250000  -0.1250000  -0.3750000), wk =   0.0937500
        k(   50) = (   1.1250000  -0.6250000   0.1250000), wk =   0.0000000
        k(   51) = (  -0.1250000   0.8750000  -0.1250000), wk =   0.0468750
        k(   52) = (   0.3750000   0.3750000   0.3750000), wk =   0.0000000
        k(   53) = (   0.1250000   0.8750000   0.1250000), wk =   0.0468750
        k(   54) = (   0.6250000   0.3750000   0.6250000), wk =   0.0000000
        k(   55) = (   0.3750000  -0.3750000   0.3750000), wk =   0.0156250
        k(   56) = (   0.8750000  -0.8750000   0.8750000), wk =   0.0000000
        k(   57) = (   0.3750000   0.3750000   1.1250000), wk =   0.0937500
        k(   58) = (   0.8750000  -0.1250000   1.6250000), wk =   0.0000000
        k(   59) = (   1.1250000   0.3750000  -0.3750000), wk =   0.0468750
        k(   60) = (   1.6250000  -0.1250000   0.1250000), wk =   0.0000000

     Dense  grid:     2891 G-vectors     FFT dimensions: (  20,  20,  20)

     Estimated max dynamical RAM per process >       0.33MB

     Estimated total allocated dynamical RAM >       1.33MB

     Check: negative/imaginary core charge=   -0.000006    0.000000

     The potential is recalculated from file :
     ./_ph0/silicon.10.392.save/charge-density.dat

     Starting wfc are    8 atomic wfcs

     Band Structure Calculation
     Davidson diagonalization with overlap

     ethr =  1.25E-10,  avg # of iterations = 11.7

     total cpu time spent up to now is        1.6 secs

     End of band structure calculation

          k =-0.1250 0.1250 0.1250 (   347 PWs)   bands (ev):

    -5.6921   4.2226   5.5327   5.5327

          k = 0.3750-0.3750 0.6250 (   364 PWs)   bands (ev):

    -3.5713  -0.7774   3.5914   4.2993

          k =-0.3750 0.3750-0.1250 (   356 PWs)   bands (ev):

    -4.6836   1.2584   3.5808   5.0553

          k = 0.1250-0.1250 0.3750 (   358 PWs)   bands (ev):

    -5.1734   2.6115   4.5438   4.5977

          k = 0.3750-0.3750 0.6250 (   364 PWs)   bands (ev):

    -3.5713  -0.7774   3.5914   4.2993

          k = 0.8750-0.8750 1.1250 (   347 PWs)   bands (ev):

    -5.6921   4.2226   5.5327   5.5327

          k = 0.1250-0.1250 0.3750 (   358 PWs)   bands (ev):

    -5.1734   2.6115   4.5438   4.5977

          k = 0.6250-0.6250 0.8750 (   356 PWs)   bands (ev):

    -4.6836   1.2584   3.5808   5.0553

          k =-0.1250 0.6250 0.1250 (   357 PWs)   bands (ev):

    -4.1596   0.9051   3.2425   3.6836

          k = 0.3750 0.1250 0.6250 (   362 PWs)   bands (ev):

    -3.7539   0.0581   2.6098   3.9552

          k = 0.6250-0.1250 0.8750 (   368 PWs)   bands (ev):

    -2.5542  -1.0307   1.9231   2.9752

          k = 1.1250-0.6250 1.3750 (   356 PWs)   bands (ev):

    -4.6836   1.2584   3.5808   5.0553

          k = 0.3750 0.1250 0.6250 (   362 PWs)   bands (ev):

    -3.7539   0.0581   2.6098   3.9552

          k = 0.8750-0.3750 1.1250 (   357 PWs)   bands (ev):

    -4.1596   0.9051   3.2425   3.6836

          k =-0.1250-0.8750 0.1250 (   362 PWs)   bands (ev):

    -2.7134  -0.9372   2.5175   3.2236

          k = 0.3750-1.3750 0.6250 (   364 PWs)   bands (ev):

    -3.5713  -0.7774   3.5914   4.2993

          k =-0.3750 0.3750 0.3750 (   359 PWs)   bands (ev):

    -4.2609  -0.0010   4.7537   4.7537

          k = 0.1250-0.1250 0.8750 (   362 PWs)   bands (ev):

    -2.7134  -0.9372   2.5175   3.2236

          k = 0.3750-0.3750 1.1250 (   365 PWs)   bands (ev):

    -3.0835  -0.7160   1.9730   3.9893

          k = 0.8750-0.8750 1.6250 (   357 PWs)   bands (ev):

    -4.1596   0.9051   3.2425   3.6836

          k = 0.1250-0.1250 0.1250 (   347 PWs)   bands (ev):

    -5.6921   4.2226   5.5327   5.5327

          k = 0.6250-0.6250 0.6250 (   359 PWs)   bands (ev):

    -4.2609  -0.0010   4.7537   4.7537

          k =-0.3750-0.3750-0.1250 (   356 PWs)   bands (ev):

    -4.6836   1.2584   3.5808   5.0553

          k = 0.1250-0.8750 0.3750 (   368 PWs)   bands (ev):

    -2.5542  -1.0307   1.9231   2.9752

          k =-0.1250-0.3750 0.3750 (   356 PWs)   bands (ev):

    -4.6836   1.2584   3.5808   5.0553

          k = 0.3750-0.8750 0.8750 (   357 PWs)   bands (ev):

    -4.1596   0.9051   3.2425   3.6836

          k = 0.3750 0.3750 0.6250 (   364 PWs)   bands (ev):

    -3.5713  -0.7774   3.5914   4.2993

          k = 0.8750-0.1250 1.1250 (   362 PWs)   bands (ev):

    -2.7134  -0.9372   2.5175   3.2236

          k = 0.6250 0.3750-0.3750 (   364 PWs)   bands (ev):

    -3.5713  -0.7774   3.5914   4.2993

          k = 1.1250-0.1250 0.1250 (   362 PWs)   bands (ev):

    -2.7134  -0.9372   2.5175   3.2236

          k = 0.1250 0.1250 0.3750 (   358 PWs)   bands (ev):

    -5.1734   2.6115   4.5438   4.5977

          k = 0.6250-0.3750 0.8750 (   362 PWs)   bands (ev):

    -3.7539   0.0581   2.6098   3.9552

          k = 0.3750 0.1250-0.1250 (   358 PWs)   bands (ev):

    -5.1734   2.6115   4.5438   4.5977

          k = 0.8750-0.3750 0.3750 (   365 PWs)   bands (ev):

    -3.0835  -0.7160   1.9730   3.9893

          k =-0.1250-0.6250-0.1250 (   357 PWs)   bands (ev):

    -4.1596   0.9051   3.2425   3.6836

          k = 0.3750-1.1250 0.3750 (   365 PWs)   bands (ev):

    -3.0835  -0.7160   1.9730   3.9893

          k = 0.1250-0.6250 0.1250 (   357 PWs)   bands (ev):

    -4.1596   0.9051   3.2425   3.6836

          k = 0.6250-1.1250 0.6250 (   356 PWs)   bands (ev):

    -4.6836   1.2584   3.5808   5.0553

          k = 0.6250 0.1250 0.8750 (   368 PWs)   bands (ev):

    -2.5542  -1.0307   1.9231   2.9752

          k = 1.1250-0.3750 1.3750 (   362 PWs)   bands (ev):

    -3.7539   0.0581   2.6098   3.9552

          k =-0.8750 0.1250 0.6250 (   368 PWs)   bands (ev):

    -2.5542  -1.0307   1.9231   2.9752

          k =-0.3750-0.3750 1.1250 (   365 PWs)   bands (ev):

    -3.0835  -0.7160   1.9730   3.9893

          k = 0.8750 0.1250-0.6250 (   368 PWs)   bands (ev):

    -2.5542  -1.0307   1.9231   2.9752

          k = 1.3750-0.3750-0.1250 (   362 PWs)   bands (ev):

    -3.7539   0.0581   2.6098   3.9552

          k = 0.3750-0.1250 0.6250 (   362 PWs)   bands (ev):

    -3.7539   0.0581   2.6098   3.9552

          k = 0.8750-0.6250 1.1250 (   358 PWs)   bands (ev):

    -5.1734   2.6115   4.5438   4.5977

          k =-0.6250-0.1250 0.3750 (   362 PWs)   bands (ev):

    -3.7539   0.0581   2.6098   3.9552

          k =-0.1250-0.6250 0.8750 (   368 PWs)   bands (ev):

    -2.5542  -1.0307   1.9231   2.9752

          k = 0.6250-0.1250-0.3750 (   362 PWs)   bands (ev):

    -3.7539   0.0581   2.6098   3.9552

          k = 1.1250-0.6250 0.1250 (   368 PWs)   bands (ev):

    -2.5542  -1.0307   1.9231   2.9752

          k =-0.1250 0.8750-0.1250 (   362 PWs)   bands (ev):

    -2.7134  -0.9372   2.5175   3.2236

          k = 0.3750 0.3750 0.3750 (   359 PWs)   bands (ev):

    -4.2609  -0.0010   4.7537   4.7537

          k = 0.1250 0.8750 0.1250 (   362 PWs)   bands (ev):

    -2.7134  -0.9372   2.5175   3.2236

          k = 0.6250 0.3750 0.6250 (   364 PWs)   bands (ev):

    -3.5713  -0.7774   3.5914   4.2993

          k = 0.3750-0.3750 0.3750 (   359 PWs)   bands (ev):

    -4.2609  -0.0010   4.7537   4.7537

          k = 0.8750-0.8750 0.8750 (   347 PWs)   bands (ev):

    -5.6921   4.2226   5.5327   5.5327

          k = 0.3750 0.3750 1.1250 (   365 PWs)   bands (ev):

    -3.0835  -0.7160   1.9730   3.9893

          k = 0.8750-0.1250 1.6250 (   368 PWs)   bands (ev):

    -2.5542  -1.0307   1.9231   2.9752

          k = 1.1250 0.3750-0.3750 (   365 PWs)   bands (ev):

    -3.0835  -0.7160   1.9730   3.9893

          k = 1.6250-0.1250 0.1250 (   358 PWs)   bands (ev):

    -5.1734   2.6115   4.5438   4.5977

     highest occupied level (ev):     5.5327

     Writing output data file silicon.10.392.save

                                                                                

     bravais-lattice index     =            2
     lattice parameter (alat)  =      10.3920  a.u.
     unit-cell volume          =     280.5675 (a.u.)^3
     number of atoms/cell      =            2
     number of atomic types    =            1
     kinetic-energy cut-off    =      18.0000  Ry
     charge density cut-off    =      72.0000  Ry
     convergence threshold     =      1.0E-12
     beta                      =       0.7000
     number of iterations used =            4
     Exchange-correlation      = SLA  PW   PBE  PBE ( 1  4  3  4 0 0)


     celldm(1)=   10.39200  celldm(2)=    0.00000  celldm(3)=    0.00000
     celldm(4)=    0.00000  celldm(5)=    0.00000  celldm(6)=    0.00000

     crystal axes: (cart. coord. in units of alat)
               a(1) = ( -0.5000  0.0000  0.5000 )  
               a(2) = (  0.0000  0.5000  0.5000 )  
               a(3) = ( -0.5000  0.5000  0.0000 )  

     reciprocal axes: (cart. coord. in units 2 pi/alat)
               b(1) = ( -1.0000 -1.0000  1.0000 )  
               b(2) = (  1.0000  1.0000  1.0000 )  
               b(3) = ( -1.0000  1.0000 -1.0000 )  


     Atoms inside the unit cell: 

     Cartesian axes

     site n.  atom      mass           positions (alat units)
        1     Si  28.0860   tau(    1) = (    0.00000    0.00000    0.00000  )
        2     Si  28.0860   tau(    2) = (    0.25000    0.25000    0.25000  )

     Computing dynamical matrix for 
                    q = (   0.5000000  -0.5000000   0.5000000 )

     13 Sym.Ops. (with q -> -q+G )


     G cutoff =  196.9568  (    722 G-vectors)     FFT grid: ( 20, 20, 20)
     number of k points=    60

     PseudoPot. # 1 for Si read from file:
     /home/max/quantum_espresso/qe-6.1/pseudo/si_pbe_v1.uspp.F.UPF.txt
     MD5 check sum: a056efeee980c13900f22a371efd63c1
     Pseudo is Ultrasoft + core correction, Zval =  4.0
     Generated by new atomic code, or converted to UPF format
     Using radial grid of  899 points,  6 beta functions with: 
                l(1) =   0
                l(2) =   0
                l(3) =   1
                l(4) =   1
                l(5) =   2
                l(6) =   2
     Q(r) pseudized with  8 coefficients,  rinner =    0.900   0.900   0.900
                                                       0.900   0.900


     Atomic displacements:
     There are   4 irreducible representations

     Representation     1      1 modes -  To be done

     Representation     2      1 modes -  To be done

     Representation     3      2 modes -  To be done

     Representation     4      2 modes -  To be done



     Alpha used in Ewald sum =   0.7000
     PHONON       :    16.30s CPU        18.07s WALL



     Representation #  1 mode #   1

     Self-consistent Calculation

      iter #   1 total cpu time :    18.2 secs   av.it.:   4.8
      thresh= 1.000E-02 alpha_mix =  0.700 |ddv_scf|^2 =  2.434E-05

      iter #   2 total cpu time :    18.3 secs   av.it.:   8.4
      thresh= 4.934E-04 alpha_mix =  0.700 |ddv_scf|^2 =  2.219E-05

      iter #   3 total cpu time :    18.5 secs   av.it.:   7.5
      thresh= 4.711E-04 alpha_mix =  0.700 |ddv_scf|^2 =  3.779E-08

      iter #   4 total cpu time :    18.6 secs   av.it.:   7.6
      thresh= 1.944E-05 alpha_mix =  0.700 |ddv_scf|^2 =  1.333E-10

      iter #   5 total cpu time :    18.7 secs   av.it.:   7.9
      thresh= 1.155E-06 alpha_mix =  0.700 |ddv_scf|^2 =  3.854E-12

      iter #   6 total cpu time :    18.9 secs   av.it.:   7.8
      thresh= 1.963E-07 alpha_mix =  0.700 |ddv_scf|^2 =  7.591E-14

     End of self-consistent calculation

     Convergence has been achieved 


     Representation #  2 mode #   2

     Self-consistent Calculation

      iter #   1 total cpu time :    19.0 secs   av.it.:   5.7
      thresh= 1.000E-02 alpha_mix =  0.700 |ddv_scf|^2 =  3.400E-04

      iter #   2 total cpu time :    19.2 secs   av.it.:   8.3
      thresh= 1.844E-03 alpha_mix =  0.700 |ddv_scf|^2 =  1.051E-03

      iter #   3 total cpu time :    19.3 secs   av.it.:   7.1
      thresh= 3.242E-03 alpha_mix =  0.700 |ddv_scf|^2 =  1.376E-07

      iter #   4 total cpu time :    19.7 secs   av.it.:   8.2
      thresh= 3.709E-05 alpha_mix =  0.700 |ddv_scf|^2 =  9.498E-09

      iter #   5 total cpu time :    19.9 secs   av.it.:   8.4
      thresh= 9.746E-06 alpha_mix =  0.700 |ddv_scf|^2 =  1.466E-10

      iter #   6 total cpu time :    20.0 secs   av.it.:   8.2
      thresh= 1.211E-06 alpha_mix =  0.700 |ddv_scf|^2 =  3.414E-12

      iter #   7 total cpu time :    20.2 secs   av.it.:   7.7
      thresh= 1.848E-07 alpha_mix =  0.700 |ddv_scf|^2 =  6.645E-15

     End of self-consistent calculation

     Convergence has been achieved 


     Representation #  3 modes #   3  4

     Self-consistent Calculation

      iter #   1 total cpu time :    20.4 secs   av.it.:   4.7
      thresh= 1.000E-02 alpha_mix =  0.700 |ddv_scf|^2 =  3.399E-07

      iter #   2 total cpu time :    20.7 secs   av.it.:   9.0
      thresh= 5.830E-05 alpha_mix =  0.700 |ddv_scf|^2 =  2.926E-08

      iter #   3 total cpu time :    20.9 secs   av.it.:   8.3
      thresh= 1.711E-05 alpha_mix =  0.700 |ddv_scf|^2 =  5.113E-10

      iter #   4 total cpu time :    21.2 secs   av.it.:   8.9
      thresh= 2.261E-06 alpha_mix =  0.700 |ddv_scf|^2 =  6.425E-12

      iter #   5 total cpu time :    21.9 secs   av.it.:   8.7
      thresh= 2.535E-07 alpha_mix =  0.700 |ddv_scf|^2 =  3.560E-14

     End of self-consistent calculation

     Convergence has been achieved 


     Representation #  4 modes #   5  6

     Self-consistent Calculation

      iter #   1 total cpu time :    22.1 secs   av.it.:   4.9
      thresh= 1.000E-02 alpha_mix =  0.700 |ddv_scf|^2 =  9.407E-07

      iter #   2 total cpu time :    22.4 secs   av.it.:   9.5
      thresh= 9.699E-05 alpha_mix =  0.700 |ddv_scf|^2 =  7.476E-08

      iter #   3 total cpu time :    22.7 secs   av.it.:   9.3
      thresh= 2.734E-05 alpha_mix =  0.700 |ddv_scf|^2 =  4.444E-09

      iter #   4 total cpu time :    23.0 secs   av.it.:   8.6
      thresh= 6.666E-06 alpha_mix =  0.700 |ddv_scf|^2 =  6.474E-12

      iter #   5 total cpu time :    23.3 secs   av.it.:   8.8
      thresh= 2.544E-07 alpha_mix =  0.700 |ddv_scf|^2 =  2.539E-14

     End of self-consistent calculation

     Convergence has been achieved 

     Number of q in the star =    4
     List of q in the star:
          1   0.500000000  -0.500000000   0.500000000
          2   0.500000000   0.500000000   0.500000000
          3  -0.500000000   0.500000000   0.500000000
          4   0.500000000   0.500000000  -0.500000000

     Diagonalizing the dynamical matrix

     q = (    0.500000000  -0.500000000   0.500000000 ) 

 **************************************************************************
     freq (    1) =       5.080682 [THz] =     169.473313 [cm-1]
     freq (    2) =       5.080682 [THz] =     169.473313 [cm-1]
     freq (    3) =      11.925646 [THz] =     397.796716 [cm-1]
     freq (    4) =      12.176968 [THz] =     406.179930 [cm-1]
     freq (    5) =      14.747033 [THz] =     491.908060 [cm-1]
     freq (    6) =      14.747033 [THz] =     491.908060 [cm-1]
 **************************************************************************

     Calculation of q =    0.0000000   0.5000000   0.0000000

   Info: using nr1, nr2, nr3 values from input

   Info: using nr1, nr2, nr3 values from input

     Parallelization info
     --------------------
     sticks:   dense  smooth     PW     G-vecs:    dense   smooth      PW
     Min          66      66     27                  722      722     181
     Max          67      67     28                  724      724     182
     Sum         265     265    109                 2891     2891     725



     bravais-lattice index     =            2
     lattice parameter (alat)  =      10.3920  a.u.
     unit-cell volume          =     280.5675 (a.u.)^3
     number of atoms/cell      =            2
     number of atomic types    =            1
     number of electrons       =         8.00
     number of Kohn-Sham states=            4
     kinetic-energy cutoff     =      18.0000  Ry
     charge density cutoff     =      72.0000  Ry
     Exchange-correlation      = SLA  PW   PBE  PBE ( 1  4  3  4 0 0)

     celldm(1)=  10.392000  celldm(2)=   0.000000  celldm(3)=   0.000000
     celldm(4)=   0.000000  celldm(5)=   0.000000  celldm(6)=   0.000000

     crystal axes: (cart. coord. in units of alat)
               a(1) = (  -0.500000   0.000000   0.500000 )  
               a(2) = (   0.000000   0.500000   0.500000 )  
               a(3) = (  -0.500000   0.500000   0.000000 )  

     reciprocal axes: (cart. coord. in units 2 pi/alat)
               b(1) = ( -1.000000 -1.000000  1.000000 )  
               b(2) = (  1.000000  1.000000  1.000000 )  
               b(3) = ( -1.000000  1.000000 -1.000000 )  


     PseudoPot. # 1 for Si read from file:
     /home/max/quantum_espresso/qe-6.1/pseudo/si_pbe_v1.uspp.F.UPF.txt
     MD5 check sum: a056efeee980c13900f22a371efd63c1
     Pseudo is Ultrasoft + core correction, Zval =  4.0
     Generated by new atomic code, or converted to UPF format
     Using radial grid of  899 points,  6 beta functions with: 
                l(1) =   0
                l(2) =   0
                l(3) =   1
                l(4) =   1
                l(5) =   2
                l(6) =   2
     Q(r) pseudized with  8 coefficients,  rinner =    0.900   0.900   0.900
                                                       0.900   0.900

     atomic species   valence    mass     pseudopotential
        Si             4.00    28.08600     Si( 1.00)

     48 Sym. Ops., with inversion, found



   Cartesian axes

     site n.     atom                  positions (alat units)
         1           Si  tau(   1) = (   0.0000000   0.0000000   0.0000000  )
         2           Si  tau(   2) = (   0.2500000   0.2500000   0.2500000  )

     number of k points=    80
                       cart. coord. in units 2pi/alat
        k(    1) = (  -0.1250000   0.1250000   0.1250000), wk =   0.0312500
        k(    2) = (  -0.1250000   0.6250000   0.1250000), wk =   0.0000000
        k(    3) = (  -0.3750000   0.3750000  -0.1250000), wk =   0.0625000
        k(    4) = (  -0.3750000   0.8750000  -0.1250000), wk =   0.0000000
        k(    5) = (   0.3750000  -0.3750000   0.6250000), wk =   0.0625000
        k(    6) = (   0.3750000   0.1250000   0.6250000), wk =   0.0000000
        k(    7) = (   0.1250000  -0.1250000   0.3750000), wk =   0.0625000
        k(    8) = (   0.1250000   0.3750000   0.3750000), wk =   0.0000000
        k(    9) = (  -0.1250000   0.6250000   0.1250000), wk =   0.0312500
        k(   10) = (  -0.1250000   1.1250000   0.1250000), wk =   0.0000000
        k(   11) = (   0.6250000  -0.1250000   0.8750000), wk =   0.0625000
        k(   12) = (   0.6250000   0.3750000   0.8750000), wk =   0.0000000
        k(   13) = (   0.3750000   0.1250000   0.6250000), wk =   0.0625000
        k(   14) = (   0.3750000   0.6250000   0.6250000), wk =   0.0000000
        k(   15) = (  -0.1250000  -0.8750000   0.1250000), wk =   0.0312500
        k(   16) = (  -0.1250000  -0.3750000   0.1250000), wk =   0.0000000
        k(   17) = (  -0.3750000   0.3750000   0.3750000), wk =   0.0312500
        k(   18) = (  -0.3750000   0.8750000   0.3750000), wk =   0.0000000
        k(   19) = (   0.3750000  -0.3750000   1.1250000), wk =   0.0625000
        k(   20) = (   0.3750000   0.1250000   1.1250000), wk =   0.0000000
        k(   21) = (  -0.1250000  -0.1250000   0.1250000), wk =   0.0312500
        k(   22) = (  -0.1250000   0.3750000   0.1250000), wk =   0.0000000
        k(   23) = (   0.1250000  -0.3750000   0.3750000), wk =   0.0625000
        k(   24) = (   0.1250000   0.1250000   0.3750000), wk =   0.0000000
        k(   25) = (   0.3750000  -0.1250000   0.3750000), wk =   0.0312500
        k(   26) = (   0.3750000   0.3750000   0.3750000), wk =   0.0000000
        k(   27) = (   0.3750000   0.1250000   0.3750000), wk =   0.0312500
        k(   28) = (   0.3750000   0.6250000   0.3750000), wk =   0.0000000
        k(   29) = (  -0.6250000   0.3750000  -0.3750000), wk =   0.0625000
        k(   30) = (  -0.6250000   0.8750000  -0.3750000), wk =   0.0000000
        k(   31) = (  -0.3750000   0.6250000  -0.3750000), wk =   0.0312500
        k(   32) = (  -0.3750000   1.1250000  -0.3750000), wk =   0.0000000
        k(   33) = (  -0.3750000  -0.6250000  -0.3750000), wk =   0.0312500
        k(   34) = (  -0.3750000  -0.1250000  -0.3750000), wk =   0.0000000
        k(   35) = (  -0.3750000   0.1250000  -0.1250000), wk =   0.0625000
        k(   36) = (  -0.3750000   0.6250000  -0.1250000), wk =   0.0000000
        k(   37) = (  -0.1250000   0.3750000  -0.1250000), wk =   0.0312500
        k(   38) = (  -0.1250000   0.8750000  -0.1250000), wk =   0.0000000
        k(   39) = (  -0.1250000  -0.3750000  -0.1250000), wk =   0.0312500
        k(   40) = (  -0.1250000   0.1250000  -0.1250000), wk =   0.0000000
        k(   41) = (  -0.1250000  -0.6250000   0.1250000), wk =   0.0312500
        k(   42) = (  -0.1250000  -0.1250000   0.1250000), wk =   0.0000000
        k(   43) = (   0.6250000  -0.1250000  -0.1250000), wk =   0.0625000
        k(   44) = (   0.6250000   0.3750000  -0.1250000), wk =   0.0000000
        k(   45) = (   0.6250000   0.1250000   0.1250000), wk =   0.0625000
        k(   46) = (   0.6250000   0.6250000   0.1250000), wk =   0.0000000
        k(   47) = (  -0.8750000   0.1250000  -0.6250000), wk =   0.0625000
        k(   48) = (  -0.8750000   0.6250000  -0.6250000), wk =   0.0000000
        k(   49) = (  -0.1250000   0.6250000  -0.8750000), wk =   0.0625000
        k(   50) = (  -0.1250000   1.1250000  -0.8750000), wk =   0.0000000
        k(   51) = (  -0.1250000   0.8750000  -0.6250000), wk =   0.0625000
        k(   52) = (  -0.1250000   1.3750000  -0.6250000), wk =   0.0000000
        k(   53) = (  -0.1250000  -0.8750000  -0.6250000), wk =   0.0625000
        k(   54) = (  -0.1250000  -0.3750000  -0.6250000), wk =   0.0000000
        k(   55) = (   0.8750000  -0.6250000   0.1250000), wk =   0.0625000
        k(   56) = (   0.8750000  -0.1250000   0.1250000), wk =   0.0000000
        k(   57) = (  -0.6250000  -0.1250000  -0.3750000), wk =   0.0625000
        k(   58) = (  -0.6250000   0.3750000  -0.3750000), wk =   0.0000000
        k(   59) = (   0.1250000   0.3750000  -0.6250000), wk =   0.0625000
        k(   60) = (   0.1250000   0.8750000  -0.6250000), wk =   0.0000000
        k(   61) = (   0.1250000   0.6250000  -0.3750000), wk =   0.0625000
        k(   62) = (   0.1250000   1.1250000  -0.3750000), wk =   0.0000000
        k(   63) = (   0.1250000  -0.6250000  -0.3750000), wk =   0.0625000
        k(   64) = (   0.1250000  -0.1250000  -0.3750000), wk =   0.0000000
        k(   65) = (   0.6250000  -0.3750000  -0.1250000), wk =   0.0625000
        k(   66) = (   0.6250000   0.1250000  -0.1250000), wk =   0.0000000
        k(   67) = (  -0.1250000   0.8750000   0.1250000), wk =   0.0312500
        k(   68) = (  -0.1250000   1.3750000   0.1250000), wk =   0.0000000
        k(   69) = (  -0.8750000  -0.1250000  -0.1250000), wk =   0.0625000
        k(   70) = (  -0.8750000   0.3750000  -0.1250000), wk =   0.0000000
        k(   71) = (  -0.8750000   0.1250000   0.1250000), wk =   0.0625000
        k(   72) = (  -0.8750000   0.6250000   0.1250000), wk =   0.0000000
        k(   73) = (  -0.3750000  -0.3750000   0.3750000), wk =   0.0312500
        k(   74) = (  -0.3750000   0.1250000   0.3750000), wk =   0.0000000
        k(   75) = (  -1.1250000   0.3750000  -0.3750000), wk =   0.0625000
        k(   76) = (  -1.1250000   0.8750000  -0.3750000), wk =   0.0000000
        k(   77) = (  -0.3750000   1.1250000  -0.3750000), wk =   0.0312500
        k(   78) = (  -0.3750000   1.6250000  -0.3750000), wk =   0.0000000
        k(   79) = (  -0.3750000  -1.1250000  -0.3750000), wk =   0.0312500
        k(   80) = (  -0.3750000  -0.6250000  -0.3750000), wk =   0.0000000

     Dense  grid:     2891 G-vectors     FFT dimensions: (  20,  20,  20)

     Estimated max dynamical RAM per process >       0.33MB

     Estimated total allocated dynamical RAM >       1.33MB

     Check: negative/imaginary core charge=   -0.000006    0.000000

     The potential is recalculated from file :
     ./_ph0/silicon.10.392.save/charge-density.dat

     Starting wfc are    8 atomic wfcs

     Band Structure Calculation
     Davidson diagonalization with overlap

     ethr =  1.25E-10,  avg # of iterations = 11.7

     total cpu time spent up to now is        2.5 secs

     End of band structure calculation

          k =-0.1250 0.1250 0.1250 (   347 PWs)   bands (ev):

    -5.6921   4.2226   5.5327   5.5327

          k =-0.1250 0.6250 0.1250 (   357 PWs)   bands (ev):

    -4.1596   0.9051   3.2425   3.6836

          k =-0.3750 0.3750-0.1250 (   356 PWs)   bands (ev):

    -4.6836   1.2584   3.5808   5.0553

          k =-0.3750 0.8750-0.1250 (   368 PWs)   bands (ev):

    -2.5542  -1.0307   1.9231   2.9752

          k = 0.3750-0.3750 0.6250 (   364 PWs)   bands (ev):

    -3.5713  -0.7774   3.5914   4.2993

          k = 0.3750 0.1250 0.6250 (   362 PWs)   bands (ev):

    -3.7539   0.0581   2.6098   3.9552

          k = 0.1250-0.1250 0.3750 (   358 PWs)   bands (ev):

    -5.1734   2.6115   4.5438   4.5977

          k = 0.1250 0.3750 0.3750 (   356 PWs)   bands (ev):

    -4.6836   1.2584   3.5808   5.0553

          k =-0.1250 0.6250 0.1250 (   357 PWs)   bands (ev):

    -4.1596   0.9051   3.2425   3.6836

          k =-0.1250 1.1250 0.1250 (   362 PWs)   bands (ev):

    -2.7134  -0.9372   2.5175   3.2236

          k = 0.6250-0.1250 0.8750 (   368 PWs)   bands (ev):

    -2.5542  -1.0307   1.9231   2.9752

          k = 0.6250 0.3750 0.8750 (   362 PWs)   bands (ev):

    -3.7539   0.0581   2.6098   3.9552

          k = 0.3750 0.1250 0.6250 (   362 PWs)   bands (ev):

    -3.7539   0.0581   2.6098   3.9552

          k = 0.3750 0.6250 0.6250 (   364 PWs)   bands (ev):

    -3.5713  -0.7774   3.5914   4.2993

          k =-0.1250-0.8750 0.1250 (   362 PWs)   bands (ev):

    -2.7134  -0.9372   2.5175   3.2236

          k =-0.1250-0.3750 0.1250 (   358 PWs)   bands (ev):

    -5.1734   2.6115   4.5438   4.5977

          k =-0.3750 0.3750 0.3750 (   359 PWs)   bands (ev):

    -4.2609  -0.0010   4.7537   4.7537

          k =-0.3750 0.8750 0.3750 (   365 PWs)   bands (ev):

    -3.0835  -0.7160   1.9730   3.9893

          k = 0.3750-0.3750 1.1250 (   365 PWs)   bands (ev):

    -3.0835  -0.7160   1.9730   3.9893

          k = 0.3750 0.1250 1.1250 (   368 PWs)   bands (ev):

    -2.5542  -1.0307   1.9231   2.9752

          k =-0.1250-0.1250 0.1250 (   347 PWs)   bands (ev):

    -5.6921   4.2226   5.5327   5.5327

          k =-0.1250 0.3750 0.1250 (   358 PWs)   bands (ev):

    -5.1734   2.6115   4.5438   4.5977

          k = 0.1250-0.3750 0.3750 (   356 PWs)   bands (ev):

    -4.6836   1.2584   3.5808   5.0553

          k = 0.1250 0.1250 0.3750 (   358 PWs)   bands (ev):

    -5.1734   2.6115   4.5438   4.5977

          k = 0.3750-0.1250 0.3750 (   356 PWs)   bands (ev):

    -4.6836   1.2584   3.5808   5.0553

          k = 0.3750 0.3750 0.3750 (   359 PWs)   bands (ev):

    -4.2609  -0.0010   4.7537   4.7537

          k = 0.3750 0.1250 0.3750 (   356 PWs)   bands (ev):

    -4.6836   1.2584   3.5808   5.0553

          k = 0.3750 0.6250 0.3750 (   364 PWs)   bands (ev):

    -3.5713  -0.7774   3.5914   4.2993

          k =-0.6250 0.3750-0.3750 (   364 PWs)   bands (ev):

    -3.5713  -0.7774   3.5914   4.2993

          k =-0.6250 0.8750-0.3750 (   362 PWs)   bands (ev):

    -3.7539   0.0581   2.6098   3.9552

          k =-0.3750 0.6250-0.3750 (   364 PWs)   bands (ev):

    -3.5713  -0.7774   3.5914   4.2993

          k =-0.3750 1.1250-0.3750 (   365 PWs)   bands (ev):

    -3.0835  -0.7160   1.9730   3.9893

          k =-0.3750-0.6250-0.3750 (   364 PWs)   bands (ev):

    -3.5713  -0.7774   3.5914   4.2993

          k =-0.3750-0.1250-0.3750 (   356 PWs)   bands (ev):

    -4.6836   1.2584   3.5808   5.0553

          k =-0.3750 0.1250-0.1250 (   358 PWs)   bands (ev):

    -5.1734   2.6115   4.5438   4.5977

          k =-0.3750 0.6250-0.1250 (   362 PWs)   bands (ev):

    -3.7539   0.0581   2.6098   3.9552

          k =-0.1250 0.3750-0.1250 (   358 PWs)   bands (ev):

    -5.1734   2.6115   4.5438   4.5977

          k =-0.1250 0.8750-0.1250 (   362 PWs)   bands (ev):

    -2.7134  -0.9372   2.5175   3.2236

          k =-0.1250-0.3750-0.1250 (   358 PWs)   bands (ev):

    -5.1734   2.6115   4.5438   4.5977

          k =-0.1250 0.1250-0.1250 (   347 PWs)   bands (ev):

    -5.6921   4.2226   5.5327   5.5327

          k =-0.1250-0.6250 0.1250 (   357 PWs)   bands (ev):

    -4.1596   0.9051   3.2425   3.6836

          k =-0.1250-0.1250 0.1250 (   347 PWs)   bands (ev):

    -5.6921   4.2226   5.5327   5.5327

          k = 0.6250-0.1250-0.1250 (   357 PWs)   bands (ev):

    -4.1596   0.9051   3.2425   3.6836

          k = 0.6250 0.3750-0.1250 (   362 PWs)   bands (ev):

    -3.7539   0.0581   2.6098   3.9552

          k = 0.6250 0.1250 0.1250 (   357 PWs)   bands (ev):

    -4.1596   0.9051   3.2425   3.6836

          k = 0.6250 0.6250 0.1250 (   365 PWs)   bands (ev):

    -3.0835  -0.7160   1.9730   3.9893

          k =-0.8750 0.1250-0.6250 (   368 PWs)   bands (ev):

    -2.5542  -1.0307   1.9231   2.9752

          k =-0.8750 0.6250-0.6250 (   356 PWs)   bands (ev):

    -4.6836   1.2584   3.5808   5.0553

          k =-0.1250 0.6250-0.8750 (   368 PWs)   bands (ev):

    -2.5542  -1.0307   1.9231   2.9752

          k =-0.1250 1.1250-0.8750 (   362 PWs)   bands (ev):

    -2.7134  -0.9372   2.5175   3.2236

          k =-0.1250 0.8750-0.6250 (   368 PWs)   bands (ev):

    -2.5542  -1.0307   1.9231   2.9752

          k =-0.1250 1.3750-0.6250 (   365 PWs)   bands (ev):

    -3.0835  -0.7160   1.9730   3.9893

          k =-0.1250-0.8750-0.6250 (   368 PWs)   bands (ev):

    -2.5542  -1.0307   1.9231   2.9752

          k =-0.1250-0.3750-0.6250 (   362 PWs)   bands (ev):

    -3.7539   0.0581   2.6098   3.9552

          k = 0.8750-0.6250 0.1250 (   368 PWs)   bands (ev):

    -2.5542  -1.0307   1.9231   2.9752

          k = 0.8750-0.1250 0.1250 (   362 PWs)   bands (ev):

    -2.7134  -0.9372   2.5175   3.2236

          k =-0.6250-0.1250-0.3750 (   362 PWs)   bands (ev):

    -3.7539   0.0581   2.6098   3.9552

          k =-0.6250 0.3750-0.3750 (   364 PWs)   bands (ev):

    -3.5713  -0.7774   3.5914   4.2993

          k = 0.1250 0.3750-0.6250 (   362 PWs)   bands (ev):

    -3.7539   0.0581   2.6098   3.9552

          k = 0.1250 0.8750-0.6250 (   368 PWs)   bands (ev):

    -2.5542  -1.0307   1.9231   2.9752

          k = 0.1250 0.6250-0.3750 (   362 PWs)   bands (ev):

    -3.7539   0.0581   2.6098   3.9552

          k = 0.1250 1.1250-0.3750 (   368 PWs)   bands (ev):

    -2.5542  -1.0307   1.9231   2.9752

          k = 0.1250-0.6250-0.3750 (   362 PWs)   bands (ev):

    -3.7539   0.0581   2.6098   3.9552

          k = 0.1250-0.1250-0.3750 (   358 PWs)   bands (ev):

    -5.1734   2.6115   4.5438   4.5977

          k = 0.6250-0.3750-0.1250 (   362 PWs)   bands (ev):

    -3.7539   0.0581   2.6098   3.9552

          k = 0.6250 0.1250-0.1250 (   357 PWs)   bands (ev):

    -4.1596   0.9051   3.2425   3.6836

          k =-0.1250 0.8750 0.1250 (   362 PWs)   bands (ev):

    -2.7134  -0.9372   2.5175   3.2236

          k =-0.1250 1.3750 0.1250 (   357 PWs)   bands (ev):

    -4.1596   0.9051   3.2425   3.6836

          k =-0.8750-0.1250-0.1250 (   362 PWs)   bands (ev):

    -2.7134  -0.9372   2.5175   3.2236

          k =-0.8750 0.3750-0.1250 (   368 PWs)   bands (ev):

    -2.5542  -1.0307   1.9231   2.9752

          k =-0.8750 0.1250 0.1250 (   362 PWs)   bands (ev):

    -2.7134  -0.9372   2.5175   3.2236

          k =-0.8750 0.6250 0.1250 (   368 PWs)   bands (ev):

    -2.5542  -1.0307   1.9231   2.9752

          k =-0.3750-0.3750 0.3750 (   359 PWs)   bands (ev):

    -4.2609  -0.0010   4.7537   4.7537

          k =-0.3750 0.1250 0.3750 (   356 PWs)   bands (ev):

    -4.6836   1.2584   3.5808   5.0553

          k =-1.1250 0.3750-0.3750 (   365 PWs)   bands (ev):

    -3.0835  -0.7160   1.9730   3.9893

          k =-1.1250 0.8750-0.3750 (   357 PWs)   bands (ev):

    -4.1596   0.9051   3.2425   3.6836

          k =-0.3750 1.1250-0.3750 (   365 PWs)   bands (ev):

    -3.0835  -0.7160   1.9730   3.9893

          k =-0.3750 1.6250-0.3750 (   359 PWs)   bands (ev):

    -4.2609  -0.0010   4.7537   4.7537

          k =-0.3750-1.1250-0.3750 (   365 PWs)   bands (ev):

    -3.0835  -0.7160   1.9730   3.9893

          k =-0.3750-0.6250-0.3750 (   364 PWs)   bands (ev):

    -3.5713  -0.7774   3.5914   4.2993

     highest occupied level (ev):     5.5327

     Writing output data file silicon.10.392.save

                                                                                

     bravais-lattice index     =            2
     lattice parameter (alat)  =      10.3920  a.u.
     unit-cell volume          =     280.5675 (a.u.)^3
     number of atoms/cell      =            2
     number of atomic types    =            1
     kinetic-energy cut-off    =      18.0000  Ry
     charge density cut-off    =      72.0000  Ry
     convergence threshold     =      1.0E-12
     beta                      =       0.7000
     number of iterations used =            4
     Exchange-correlation      = SLA  PW   PBE  PBE ( 1  4  3  4 0 0)


     celldm(1)=   10.39200  celldm(2)=    0.00000  celldm(3)=    0.00000
     celldm(4)=    0.00000  celldm(5)=    0.00000  celldm(6)=    0.00000

     crystal axes: (cart. coord. in units of alat)
               a(1) = ( -0.5000  0.0000  0.5000 )  
               a(2) = (  0.0000  0.5000  0.5000 )  
               a(3) = ( -0.5000  0.5000  0.0000 )  

     reciprocal axes: (cart. coord. in units 2 pi/alat)
               b(1) = ( -1.0000 -1.0000  1.0000 )  
               b(2) = (  1.0000  1.0000  1.0000 )  
               b(3) = ( -1.0000  1.0000 -1.0000 )  


     Atoms inside the unit cell: 

     Cartesian axes

     site n.  atom      mass           positions (alat units)
        1     Si  28.0860   tau(    1) = (    0.00000    0.00000    0.00000  )
        2     Si  28.0860   tau(    2) = (    0.25000    0.25000    0.25000  )

     Computing dynamical matrix for 
                    q = (   0.0000000   0.5000000   0.0000000 )

      8 Sym.Ops. (no q -> -q+G )


     G cutoff =  196.9568  (    722 G-vectors)     FFT grid: ( 20, 20, 20)
     number of k points=    80

     PseudoPot. # 1 for Si read from file:
     /home/max/quantum_espresso/qe-6.1/pseudo/si_pbe_v1.uspp.F.UPF.txt
     MD5 check sum: a056efeee980c13900f22a371efd63c1
     Pseudo is Ultrasoft + core correction, Zval =  4.0
     Generated by new atomic code, or converted to UPF format
     Using radial grid of  899 points,  6 beta functions with: 
                l(1) =   0
                l(2) =   0
                l(3) =   1
                l(4) =   1
                l(5) =   2
                l(6) =   2
     Q(r) pseudized with  8 coefficients,  rinner =    0.900   0.900   0.900
                                                       0.900   0.900

     Mode symmetry, C_4v (4mm)  point group:


     Atomic displacements:
     There are   4 irreducible representations

     Representation     1      1 modes -A_1  G_1 D_1  To be done

     Representation     2      1 modes -B_2  G_4 D_2'  To be done

     Representation     3      2 modes -E    G_5 D_5  To be done

     Representation     4      2 modes -E    G_5 D_5  To be done



     Alpha used in Ewald sum =   0.7000
     PHONON       :    22.10s CPU        24.46s WALL



     Representation #  1 mode #   1

     Self-consistent Calculation

      iter #   1 total cpu time :    24.6 secs   av.it.:   5.8
      thresh= 1.000E-02 alpha_mix =  0.700 |ddv_scf|^2 =  2.928E-03

      iter #   2 total cpu time :    24.8 secs   av.it.:   7.7
      thresh= 5.411E-03 alpha_mix =  0.700 |ddv_scf|^2 =  3.885E-02

      iter #   3 total cpu time :    25.0 secs   av.it.:   6.8
      thresh= 1.000E-02 alpha_mix =  0.700 |ddv_scf|^2 =  1.534E-07

      iter #   4 total cpu time :    25.1 secs   av.it.:   8.2
      thresh= 3.917E-05 alpha_mix =  0.700 |ddv_scf|^2 =  1.534E-08

      iter #   5 total cpu time :    25.4 secs   av.it.:   7.8
      thresh= 1.238E-05 alpha_mix =  0.700 |ddv_scf|^2 =  7.063E-10

      iter #   6 total cpu time :    25.8 secs   av.it.:   7.9
      thresh= 2.658E-06 alpha_mix =  0.700 |ddv_scf|^2 =  2.734E-12

      iter #   7 total cpu time :    26.0 secs   av.it.:   8.0
      thresh= 1.654E-07 alpha_mix =  0.700 |ddv_scf|^2 =  4.964E-13

     End of self-consistent calculation

     Convergence has been achieved 


     Representation #  2 mode #   2

     Self-consistent Calculation

      iter #   1 total cpu time :    26.2 secs   av.it.:   4.9
      thresh= 1.000E-02 alpha_mix =  0.700 |ddv_scf|^2 =  5.126E-06

      iter #   2 total cpu time :    26.3 secs   av.it.:   8.7
      thresh= 2.264E-04 alpha_mix =  0.700 |ddv_scf|^2 =  1.338E-06

      iter #   3 total cpu time :    26.5 secs   av.it.:   8.6
      thresh= 1.157E-04 alpha_mix =  0.700 |ddv_scf|^2 =  3.116E-08

      iter #   4 total cpu time :    26.7 secs   av.it.:   8.2
      thresh= 1.765E-05 alpha_mix =  0.700 |ddv_scf|^2 =  7.458E-10

      iter #   5 total cpu time :    26.9 secs   av.it.:   8.6
      thresh= 2.731E-06 alpha_mix =  0.700 |ddv_scf|^2 =  7.796E-12

      iter #   6 total cpu time :    27.1 secs   av.it.:   7.9
      thresh= 2.792E-07 alpha_mix =  0.700 |ddv_scf|^2 =  1.017E-13

     End of self-consistent calculation

     Convergence has been achieved 


     Representation #  3 modes #   3  4

     Self-consistent Calculation

      iter #   1 total cpu time :    27.7 secs   av.it.:   5.0
      thresh= 1.000E-02 alpha_mix =  0.700 |ddv_scf|^2 =  9.391E-07

      iter #   2 total cpu time :    28.1 secs   av.it.:   9.8
      thresh= 9.691E-05 alpha_mix =  0.700 |ddv_scf|^2 =  1.192E-07

      iter #   3 total cpu time :    28.5 secs   av.it.:   9.5
      thresh= 3.453E-05 alpha_mix =  0.700 |ddv_scf|^2 =  4.903E-09

      iter #   4 total cpu time :    28.9 secs   av.it.:   8.9
      thresh= 7.002E-06 alpha_mix =  0.700 |ddv_scf|^2 =  8.781E-12

      iter #   5 total cpu time :    29.3 secs   av.it.:   9.1
      thresh= 2.963E-07 alpha_mix =  0.700 |ddv_scf|^2 =  3.005E-13

     End of self-consistent calculation

     Convergence has been achieved 


     Representation #  4 modes #   5  6

     Self-consistent Calculation

      iter #   1 total cpu time :    29.9 secs   av.it.:   5.0
      thresh= 1.000E-02 alpha_mix =  0.700 |ddv_scf|^2 =  9.417E-07

      iter #   2 total cpu time :    30.3 secs   av.it.:   9.8
      thresh= 9.704E-05 alpha_mix =  0.700 |ddv_scf|^2 =  1.196E-07

      iter #   3 total cpu time :    30.7 secs   av.it.:   9.5
      thresh= 3.458E-05 alpha_mix =  0.700 |ddv_scf|^2 =  7.299E-09

      iter #   4 total cpu time :    31.1 secs   av.it.:   8.9
      thresh= 8.543E-06 alpha_mix =  0.700 |ddv_scf|^2 =  1.541E-11

      iter #   5 total cpu time :    31.8 secs   av.it.:   9.2
      thresh= 3.925E-07 alpha_mix =  0.700 |ddv_scf|^2 =  4.554E-14

     End of self-consistent calculation

     Convergence has been achieved 

     Number of q in the star =    6
     List of q in the star:
          1   0.000000000   0.500000000   0.000000000
          2   0.000000000  -0.500000000   0.000000000
          3   0.500000000   0.000000000   0.000000000
          4   0.000000000   0.000000000   0.500000000
          5   0.000000000   0.000000000  -0.500000000
          6  -0.500000000   0.000000000   0.000000000

     Diagonalizing the dynamical matrix

     q = (    0.000000000   0.500000000   0.000000000 ) 

 **************************************************************************
     freq (    1) =       4.408041 [THz] =     147.036421 [cm-1]
     freq (    2) =       4.408041 [THz] =     147.036421 [cm-1]
     freq (    3) =       7.009981 [THz] =     233.827799 [cm-1]
     freq (    4) =      14.255632 [THz] =     475.516711 [cm-1]
     freq (    5) =      14.255632 [THz] =     475.516711 [cm-1]
     freq (    6) =      14.951911 [THz] =     498.742071 [cm-1]
 **************************************************************************

     Mode symmetry, C_4v (4mm)  point group:

     freq (  1 -  2) =        147.0  [cm-1]   --> E    G_5 D_5       
     freq (  3 -  3) =        233.8  [cm-1]   --> A_1  G_1 D_1       
     freq (  4 -  5) =        475.5  [cm-1]   --> E    G_5 D_5       
     freq (  6 -  6) =        498.7  [cm-1]   --> B_2  G_4 D_2'      

     Calculation of q =    0.7500000  -0.2500000   0.7500000

   Info: using nr1, nr2, nr3 values from input

   Info: using nr1, nr2, nr3 values from input

     Parallelization info
     --------------------
     sticks:   dense  smooth     PW     G-vecs:    dense   smooth      PW
     Min          65      65     30                  722      722     216
     Max          67      67     31                  723      723     218
     Sum         265     265    121                 2891     2891     869



     bravais-lattice index     =            2
     lattice parameter (alat)  =      10.3920  a.u.
     unit-cell volume          =     280.5675 (a.u.)^3
     number of atoms/cell      =            2
     number of atomic types    =            1
     number of electrons       =         8.00
     number of Kohn-Sham states=            4
     kinetic-energy cutoff     =      18.0000  Ry
     charge density cutoff     =      72.0000  Ry
     Exchange-correlation      = SLA  PW   PBE  PBE ( 1  4  3  4 0 0)

     celldm(1)=  10.392000  celldm(2)=   0.000000  celldm(3)=   0.000000
     celldm(4)=   0.000000  celldm(5)=   0.000000  celldm(6)=   0.000000

     crystal axes: (cart. coord. in units of alat)
               a(1) = (  -0.500000   0.000000   0.500000 )  
               a(2) = (   0.000000   0.500000   0.500000 )  
               a(3) = (  -0.500000   0.500000   0.000000 )  

     reciprocal axes: (cart. coord. in units 2 pi/alat)
               b(1) = ( -1.000000 -1.000000  1.000000 )  
               b(2) = (  1.000000  1.000000  1.000000 )  
               b(3) = ( -1.000000  1.000000 -1.000000 )  


     PseudoPot. # 1 for Si read from file:
     /home/max/quantum_espresso/qe-6.1/pseudo/si_pbe_v1.uspp.F.UPF.txt
     MD5 check sum: a056efeee980c13900f22a371efd63c1
     Pseudo is Ultrasoft + core correction, Zval =  4.0
     Generated by new atomic code, or converted to UPF format
     Using radial grid of  899 points,  6 beta functions with: 
                l(1) =   0
                l(2) =   0
                l(3) =   1
                l(4) =   1
                l(5) =   2
                l(6) =   2
     Q(r) pseudized with  8 coefficients,  rinner =    0.900   0.900   0.900
                                                       0.900   0.900

     atomic species   valence    mass     pseudopotential
        Si             4.00    28.08600     Si( 1.00)

     48 Sym. Ops., with inversion, found



   Cartesian axes

     site n.     atom                  positions (alat units)
         1           Si  tau(   1) = (   0.0000000   0.0000000   0.0000000  )
         2           Si  tau(   2) = (   0.2500000   0.2500000   0.2500000  )

     number of k points=   288

     Number of k-points >= 100: set verbosity='high' to print them.

     Dense  grid:     2891 G-vectors     FFT dimensions: (  20,  20,  20)

     Estimated max dynamical RAM per process >       0.33MB

     Estimated total allocated dynamical RAM >       1.33MB

     Check: negative/imaginary core charge=   -0.000006    0.000000

     The potential is recalculated from file :
     ./_ph0/silicon.10.392.save/charge-density.dat

     Starting wfc are    8 atomic wfcs

     Band Structure Calculation
     Davidson diagonalization with overlap

     ethr =  1.25E-10,  avg # of iterations = 11.6

     total cpu time spent up to now is        4.8 secs

     End of band structure calculation

     Number of k-points >= 100: set verbosity='high' to print the bands.

     highest occupied level (ev):     5.5327

     Writing output data file silicon.10.392.save

                                                                                

     bravais-lattice index     =            2
     lattice parameter (alat)  =      10.3920  a.u.
     unit-cell volume          =     280.5675 (a.u.)^3
     number of atoms/cell      =            2
     number of atomic types    =            1
     kinetic-energy cut-off    =      18.0000  Ry
     charge density cut-off    =      72.0000  Ry
     convergence threshold     =      1.0E-12
     beta                      =       0.7000
     number of iterations used =            4
     Exchange-correlation      = SLA  PW   PBE  PBE ( 1  4  3  4 0 0)


     celldm(1)=   10.39200  celldm(2)=    0.00000  celldm(3)=    0.00000
     celldm(4)=    0.00000  celldm(5)=    0.00000  celldm(6)=    0.00000

     crystal axes: (cart. coord. in units of alat)
               a(1) = ( -0.5000  0.0000  0.5000 )  
               a(2) = (  0.0000  0.5000  0.5000 )  
               a(3) = ( -0.5000  0.5000  0.0000 )  

     reciprocal axes: (cart. coord. in units 2 pi/alat)
               b(1) = ( -1.0000 -1.0000  1.0000 )  
               b(2) = (  1.0000  1.0000  1.0000 )  
               b(3) = ( -1.0000  1.0000 -1.0000 )  


     Atoms inside the unit cell: 

     Cartesian axes

     site n.  atom      mass           positions (alat units)
        1     Si  28.0860   tau(    1) = (    0.00000    0.00000    0.00000  )
        2     Si  28.0860   tau(    2) = (    0.25000    0.25000    0.25000  )

     Computing dynamical matrix for 
                    q = (   0.7500000  -0.2500000   0.7500000 )

      2 Sym.Ops. (no q -> -q+G )


     G cutoff =  196.9568  (    723 G-vectors)     FFT grid: ( 20, 20, 20)
     number of k points=   288

     PseudoPot. # 1 for Si read from file:
     /home/max/quantum_espresso/qe-6.1/pseudo/si_pbe_v1.uspp.F.UPF.txt
     MD5 check sum: a056efeee980c13900f22a371efd63c1
     Pseudo is Ultrasoft + core correction, Zval =  4.0
     Generated by new atomic code, or converted to UPF format
     Using radial grid of  899 points,  6 beta functions with: 
                l(1) =   0
                l(2) =   0
                l(3) =   1
                l(4) =   1
                l(5) =   2
                l(6) =   2
     Q(r) pseudized with  8 coefficients,  rinner =    0.900   0.900   0.900
                                                       0.900   0.900

     Mode symmetry, C_s (m)     point group:


     Atomic displacements:
     There are   6 irreducible representations

     Representation     1      1 modes -A'  To be done

     Representation     2      1 modes -A'  To be done

     Representation     3      1 modes -A'  To be done

     Representation     4      1 modes -A'  To be done

     Representation     5      1 modes -A''  To be done

     Representation     6      1 modes -A''  To be done



     Alpha used in Ewald sum =   0.7000
     PHONON       :    31.46s CPU        34.71s WALL



     Representation #  1 mode #   1

     Self-consistent Calculation

      iter #   1 total cpu time :    35.2 secs   av.it.:   5.3
      thresh= 1.000E-02 alpha_mix =  0.700 |ddv_scf|^2 =  6.040E-05

      iter #   2 total cpu time :    36.2 secs   av.it.:   8.9
      thresh= 7.772E-04 alpha_mix =  0.700 |ddv_scf|^2 =  1.599E-04

      iter #   3 total cpu time :    36.8 secs   av.it.:   7.6
      thresh= 1.265E-03 alpha_mix =  0.700 |ddv_scf|^2 =  1.127E-06

      iter #   4 total cpu time :    37.7 secs   av.it.:   8.4
      thresh= 1.062E-04 alpha_mix =  0.700 |ddv_scf|^2 =  5.676E-08

      iter #   5 total cpu time :    38.4 secs   av.it.:   8.3
      thresh= 2.382E-05 alpha_mix =  0.700 |ddv_scf|^2 =  7.241E-09

      iter #   6 total cpu time :    39.0 secs   av.it.:   8.5
      thresh= 8.509E-06 alpha_mix =  0.700 |ddv_scf|^2 =  9.211E-11

      iter #   7 total cpu time :    40.0 secs   av.it.:   8.7
      thresh= 9.598E-07 alpha_mix =  0.700 |ddv_scf|^2 =  3.155E-12

      iter #   8 total cpu time :    40.7 secs   av.it.:   8.6
      thresh= 1.776E-07 alpha_mix =  0.700 |ddv_scf|^2 =  1.878E-13

     End of self-consistent calculation

     Convergence has been achieved 


     Representation #  2 mode #   2

     Self-consistent Calculation

      iter #   1 total cpu time :    41.2 secs   av.it.:   5.4
      thresh= 1.000E-02 alpha_mix =  0.700 |ddv_scf|^2 =  1.074E-04

      iter #   2 total cpu time :    42.2 secs   av.it.:   8.7
      thresh= 1.036E-03 alpha_mix =  0.700 |ddv_scf|^2 =  3.081E-04

      iter #   3 total cpu time :    42.7 secs   av.it.:   7.4
      thresh= 1.755E-03 alpha_mix =  0.700 |ddv_scf|^2 =  7.973E-07

      iter #   4 total cpu time :    43.6 secs   av.it.:   8.5
      thresh= 8.929E-05 alpha_mix =  0.700 |ddv_scf|^2 =  5.532E-08

      iter #   5 total cpu time :    44.4 secs   av.it.:   8.2
      thresh= 2.352E-05 alpha_mix =  0.700 |ddv_scf|^2 =  1.048E-08

      iter #   6 total cpu time :    45.0 secs   av.it.:   8.5
      thresh= 1.024E-05 alpha_mix =  0.700 |ddv_scf|^2 =  8.959E-11

      iter #   7 total cpu time :    46.0 secs   av.it.:   8.8
      thresh= 9.465E-07 alpha_mix =  0.700 |ddv_scf|^2 =  2.835E-12

      iter #   8 total cpu time :    46.6 secs   av.it.:   8.6
      thresh= 1.684E-07 alpha_mix =  0.700 |ddv_scf|^2 =  6.341E-13

     End of self-consistent calculation

     Convergence has been achieved 


     Representation #  3 mode #   3

     Self-consistent Calculation

      iter #   1 total cpu time :    47.2 secs   av.it.:   5.3
      thresh= 1.000E-02 alpha_mix =  0.700 |ddv_scf|^2 =  8.420E-05

      iter #   2 total cpu time :    48.1 secs   av.it.:   8.8
      thresh= 9.176E-04 alpha_mix =  0.700 |ddv_scf|^2 =  2.256E-04

      iter #   3 total cpu time :    48.7 secs   av.it.:   7.4
      thresh= 1.502E-03 alpha_mix =  0.700 |ddv_scf|^2 =  1.358E-06

      iter #   4 total cpu time :    49.7 secs   av.it.:   8.2
      thresh= 1.166E-04 alpha_mix =  0.700 |ddv_scf|^2 =  5.675E-08

      iter #   5 total cpu time :    50.3 secs   av.it.:   8.4
      thresh= 2.382E-05 alpha_mix =  0.700 |ddv_scf|^2 =  1.083E-08

      iter #   6 total cpu time :    51.0 secs   av.it.:   8.5
      thresh= 1.040E-05 alpha_mix =  0.700 |ddv_scf|^2 =  5.074E-11

      iter #   7 total cpu time :    51.9 secs   av.it.:   8.7
      thresh= 7.123E-07 alpha_mix =  0.700 |ddv_scf|^2 =  2.004E-12

      iter #   8 total cpu time :    52.6 secs   av.it.:   8.8
      thresh= 1.416E-07 alpha_mix =  0.700 |ddv_scf|^2 =  4.586E-13

     End of self-consistent calculation

     Convergence has been achieved 


     Representation #  4 mode #   4

     Self-consistent Calculation

      iter #   1 total cpu time :    53.1 secs   av.it.:   5.2
      thresh= 1.000E-02 alpha_mix =  0.700 |ddv_scf|^2 =  3.721E-05

      iter #   2 total cpu time :    54.1 secs   av.it.:   8.9
[...]
        k(   59) = (  -0.8750000   0.1250000  -0.1250000), wk =   0.0625000
        k(   60) = (  -1.3750000  -0.8750000  -0.1250000), wk =   0.0000000
        k(   61) = (  -1.1250000   0.3750000  -0.3750000), wk =   0.0625000
        k(   62) = (  -1.6250000  -0.6250000  -0.3750000), wk =   0.0000000
        k(   63) = (  -0.3750000   0.3750000   1.1250000), wk =   0.0625000
        k(   64) = (  -0.8750000  -0.6250000   1.1250000), wk =   0.0000000

     Dense  grid:     2891 G-vectors     FFT dimensions: (  20,  20,  20)

     Estimated max dynamical RAM per process >       0.33MB

     Estimated total allocated dynamical RAM >       1.33MB

     Check: negative/imaginary core charge=   -0.000006    0.000000

     The potential is recalculated from file :
     ./_ph0/silicon.10.392.save/charge-density.dat

     Starting wfc are    8 atomic wfcs

     Band Structure Calculation
     Davidson diagonalization with overlap

     ethr =  1.25E-10,  avg # of iterations = 11.6

     total cpu time spent up to now is        6.9 secs

     End of band structure calculation

          k =-0.1250 0.1250 0.1250 (   347 PWs)   bands (ev):

    -5.6921   4.2226   5.5327   5.5327

          k =-0.6250-0.8750 0.1250 (   368 PWs)   bands (ev):

    -2.5542  -1.0307   1.9231   2.9752

          k =-0.3750 0.3750-0.1250 (   356 PWs)   bands (ev):

    -4.6836   1.2584   3.5808   5.0553

          k =-0.8750-0.6250-0.1250 (   368 PWs)   bands (ev):

    -2.5542  -1.0307   1.9231   2.9752

          k = 0.3750-0.3750 0.6250 (   364 PWs)   bands (ev):

    -3.5713  -0.7774   3.5914   4.2993

          k =-0.1250-1.3750 0.6250 (   365 PWs)   bands (ev):

    -3.0835  -0.7160   1.9730   3.9893

          k = 0.1250-0.1250 0.3750 (   358 PWs)   bands (ev):

    -5.1734   2.6115   4.5438   4.5977

          k =-0.3750-1.1250 0.3750 (   365 PWs)   bands (ev):

    -3.0835  -0.7160   1.9730   3.9893

          k =-0.1250 0.6250 0.1250 (   357 PWs)   bands (ev):

    -4.1596   0.9051   3.2425   3.6836

          k =-0.6250-0.3750 0.1250 (   362 PWs)   bands (ev):

    -3.7539   0.0581   2.6098   3.9552

          k = 0.6250-0.1250 0.8750 (   368 PWs)   bands (ev):

    -2.5542  -1.0307   1.9231   2.9752

          k = 0.1250-1.1250 0.8750 (   362 PWs)   bands (ev):

    -2.7134  -0.9372   2.5175   3.2236

          k = 0.3750 0.1250 0.6250 (   362 PWs)   bands (ev):

    -3.7539   0.0581   2.6098   3.9552

          k =-0.1250-0.8750 0.6250 (   368 PWs)   bands (ev):

    -2.5542  -1.0307   1.9231   2.9752

          k =-0.1250-0.8750 0.1250 (   362 PWs)   bands (ev):

    -2.7134  -0.9372   2.5175   3.2236

          k =-0.6250-1.8750 0.1250 (   357 PWs)   bands (ev):

    -4.1596   0.9051   3.2425   3.6836

          k =-0.3750 0.3750 0.3750 (   359 PWs)   bands (ev):

    -4.2609  -0.0010   4.7537   4.7537

          k =-0.8750-0.6250 0.3750 (   362 PWs)   bands (ev):

    -3.7539   0.0581   2.6098   3.9552

          k = 0.3750-0.3750 1.1250 (   365 PWs)   bands (ev):

    -3.0835  -0.7160   1.9730   3.9893

          k =-0.1250-1.3750 1.1250 (   368 PWs)   bands (ev):

    -2.5542  -1.0307   1.9231   2.9752

          k = 0.1250-0.3750 0.3750 (   356 PWs)   bands (ev):

    -4.6836   1.2584   3.5808   5.0553

          k =-0.3750-1.3750 0.3750 (   364 PWs)   bands (ev):

    -3.5713  -0.7774   3.5914   4.2993

          k = 0.3750-0.3750-0.1250 (   356 PWs)   bands (ev):

    -4.6836   1.2584   3.5808   5.0553

          k =-0.1250-1.3750-0.1250 (   357 PWs)   bands (ev):

    -4.1596   0.9051   3.2425   3.6836

          k =-0.6250 0.3750-0.3750 (   364 PWs)   bands (ev):

    -3.5713  -0.7774   3.5914   4.2993

          k =-1.1250-0.6250-0.3750 (   362 PWs)   bands (ev):

    -3.7539   0.0581   2.6098   3.9552

          k =-0.3750 0.3750 0.6250 (   364 PWs)   bands (ev):

    -3.5713  -0.7774   3.5914   4.2993

          k =-0.8750-0.6250 0.6250 (   356 PWs)   bands (ev):

    -4.6836   1.2584   3.5808   5.0553

          k =-0.3750 0.1250-0.1250 (   358 PWs)   bands (ev):

    -5.1734   2.6115   4.5438   4.5977

          k =-0.8750-0.8750-0.1250 (   362 PWs)   bands (ev):

    -2.7134  -0.9372   2.5175   3.2236

          k =-0.1250 0.1250 0.3750 (   358 PWs)   bands (ev):

    -5.1734   2.6115   4.5438   4.5977

          k =-0.6250-0.8750 0.3750 (   362 PWs)   bands (ev):

    -3.7539   0.0581   2.6098   3.9552

          k = 0.1250 0.6250-0.1250 (   357 PWs)   bands (ev):

    -4.1596   0.9051   3.2425   3.6836

          k =-0.3750-0.3750-0.1250 (   356 PWs)   bands (ev):

    -4.6836   1.2584   3.5808   5.0553

          k = 0.6250 0.1250-0.1250 (   357 PWs)   bands (ev):

    -4.1596   0.9051   3.2425   3.6836

          k = 0.1250-0.8750-0.1250 (   362 PWs)   bands (ev):

    -2.7134  -0.9372   2.5175   3.2236

          k =-0.8750 0.1250-0.6250 (   368 PWs)   bands (ev):

    -2.5542  -1.0307   1.9231   2.9752

          k =-1.3750-0.8750-0.6250 (   356 PWs)   bands (ev):

    -4.6836   1.2584   3.5808   5.0553

          k = 0.8750-0.1250 0.6250 (   368 PWs)   bands (ev):

    -2.5542  -1.0307   1.9231   2.9752

          k = 0.3750-1.1250 0.6250 (   362 PWs)   bands (ev):

    -3.7539   0.0581   2.6098   3.9552

          k =-0.6250 0.1250 0.8750 (   368 PWs)   bands (ev):

    -2.5542  -1.0307   1.9231   2.9752

          k =-1.1250-0.8750 0.8750 (   347 PWs)   bands (ev):

    -5.6921   4.2226   5.5327   5.5327

          k =-0.1250 0.8750 0.6250 (   368 PWs)   bands (ev):

    -2.5542  -1.0307   1.9231   2.9752

          k =-0.6250-0.1250 0.6250 (   365 PWs)   bands (ev):

    -3.0835  -0.7160   1.9730   3.9893

          k = 0.1250 0.8750-0.6250 (   368 PWs)   bands (ev):

    -2.5542  -1.0307   1.9231   2.9752

          k =-0.3750-0.1250-0.6250 (   362 PWs)   bands (ev):

    -3.7539   0.0581   2.6098   3.9552

          k =-0.6250-0.1250-0.3750 (   362 PWs)   bands (ev):

    -3.7539   0.0581   2.6098   3.9552

          k =-1.1250-1.1250-0.3750 (   357 PWs)   bands (ev):

    -4.1596   0.9051   3.2425   3.6836

          k = 0.6250 0.1250 0.3750 (   362 PWs)   bands (ev):

    -3.7539   0.0581   2.6098   3.9552

          k = 0.1250-0.8750 0.3750 (   368 PWs)   bands (ev):

    -2.5542  -1.0307   1.9231   2.9752

          k =-0.3750-0.1250 0.6250 (   362 PWs)   bands (ev):

    -3.7539   0.0581   2.6098   3.9552

          k =-0.8750-1.1250 0.6250 (   358 PWs)   bands (ev):

    -5.1734   2.6115   4.5438   4.5977

          k = 0.1250 0.6250 0.3750 (   362 PWs)   bands (ev):

    -3.7539   0.0581   2.6098   3.9552

          k =-0.3750-0.3750 0.3750 (   359 PWs)   bands (ev):

    -4.2609  -0.0010   4.7537   4.7537

          k =-0.1250 0.6250-0.3750 (   362 PWs)   bands (ev):

    -3.7539   0.0581   2.6098   3.9552

          k =-0.6250-0.3750-0.3750 (   364 PWs)   bands (ev):

    -3.5713  -0.7774   3.5914   4.2993

          k = 0.1250-0.8750-0.1250 (   362 PWs)   bands (ev):

    -2.7134  -0.9372   2.5175   3.2236

          k =-0.3750-1.8750-0.1250 (   358 PWs)   bands (ev):

    -5.1734   2.6115   4.5438   4.5977

          k =-0.8750 0.1250-0.1250 (   362 PWs)   bands (ev):

    -2.7134  -0.9372   2.5175   3.2236

          k =-1.3750-0.8750-0.1250 (   368 PWs)   bands (ev):

    -2.5542  -1.0307   1.9231   2.9752

          k =-1.1250 0.3750-0.3750 (   365 PWs)   bands (ev):

    -3.0835  -0.7160   1.9730   3.9893

          k =-1.6250-0.6250-0.3750 (   364 PWs)   bands (ev):

    -3.5713  -0.7774   3.5914   4.2993

          k =-0.3750 0.3750 1.1250 (   365 PWs)   bands (ev):

    -3.0835  -0.7160   1.9730   3.9893

          k =-0.8750-0.6250 1.1250 (   358 PWs)   bands (ev):

    -5.1734   2.6115   4.5438   4.5977

     highest occupied level (ev):     5.5327

     Writing output data file silicon.10.392.save

                                                                                

     bravais-lattice index     =            2
     lattice parameter (alat)  =      10.3920  a.u.
     unit-cell volume          =     280.5675 (a.u.)^3
     number of atoms/cell      =            2
     number of atomic types    =            1
     kinetic-energy cut-off    =      18.0000  Ry
     charge density cut-off    =      72.0000  Ry
     convergence threshold     =      1.0E-12
     beta                      =       0.7000
     number of iterations used =            4
     Exchange-correlation      = SLA  PW   PBE  PBE ( 1  4  3  4 0 0)


     celldm(1)=   10.39200  celldm(2)=    0.00000  celldm(3)=    0.00000
     celldm(4)=    0.00000  celldm(5)=    0.00000  celldm(6)=    0.00000

     crystal axes: (cart. coord. in units of alat)
               a(1) = ( -0.5000  0.0000  0.5000 )  
               a(2) = (  0.0000  0.5000  0.5000 )  
               a(3) = ( -0.5000  0.5000  0.0000 )  

     reciprocal axes: (cart. coord. in units 2 pi/alat)
               b(1) = ( -1.0000 -1.0000  1.0000 )  
               b(2) = (  1.0000  1.0000  1.0000 )  
               b(3) = ( -1.0000  1.0000 -1.0000 )  


     Atoms inside the unit cell: 

     Cartesian axes

     site n.  atom      mass           positions (alat units)
        1     Si  28.0860   tau(    1) = (    0.00000    0.00000    0.00000  )
        2     Si  28.0860   tau(    2) = (    0.25000    0.25000    0.25000  )

     Computing dynamical matrix for 
                    q = (  -0.5000000  -1.0000000   0.0000000 )

      8 Sym.Ops. (no q -> -q+G )


     G cutoff =  196.9568  (    722 G-vectors)     FFT grid: ( 20, 20, 20)
     number of k points=    64

     PseudoPot. # 1 for Si read from file:
     /home/max/quantum_espresso/qe-6.1/pseudo/si_pbe_v1.uspp.F.UPF.txt
     MD5 check sum: a056efeee980c13900f22a371efd63c1
     Pseudo is Ultrasoft + core correction, Zval =  4.0
     Generated by new atomic code, or converted to UPF format
     Using radial grid of  899 points,  6 beta functions with: 
                l(1) =   0
                l(2) =   0
                l(3) =   1
                l(4) =   1
                l(5) =   2
                l(6) =   2
     Q(r) pseudized with  8 coefficients,  rinner =    0.900   0.900   0.900
                                                       0.900   0.900


     Atomic displacements:
     There are   3 irreducible representations

     Representation     1      2 modes -  To be done

     Representation     2      2 modes -  To be done

     Representation     3      2 modes -  To be done



     Alpha used in Ewald sum =   0.7000
     PHONON       :  1m19.46s CPU     1m26.94s WALL



     Representation #  1 modes #   1  2

     Self-consistent Calculation

      iter #   1 total cpu time :    87.2 secs   av.it.:   5.3
      thresh= 1.000E-02 alpha_mix =  0.700 |ddv_scf|^2 =  6.274E-06

      iter #   2 total cpu time :    87.9 secs   av.it.:   9.8
      thresh= 2.505E-04 alpha_mix =  0.700 |ddv_scf|^2 =  3.379E-06

      iter #   3 total cpu time :    88.2 secs   av.it.:   9.3
      thresh= 1.838E-04 alpha_mix =  0.700 |ddv_scf|^2 =  8.446E-09

      iter #   4 total cpu time :    88.5 secs   av.it.:   9.1
      thresh= 9.190E-06 alpha_mix =  0.700 |ddv_scf|^2 =  2.382E-11

      iter #   5 total cpu time :    88.8 secs   av.it.:   9.0
      thresh= 4.880E-07 alpha_mix =  0.700 |ddv_scf|^2 =  7.172E-13

     End of self-consistent calculation

     Convergence has been achieved 


     Representation #  2 modes #   3  4

     Self-consistent Calculation

      iter #   1 total cpu time :    89.0 secs   av.it.:   5.2
      thresh= 1.000E-02 alpha_mix =  0.700 |ddv_scf|^2 =  9.715E-06

      iter #   2 total cpu time :    89.5 secs   av.it.:   9.9
      thresh= 3.117E-04 alpha_mix =  0.700 |ddv_scf|^2 =  1.318E-05

      iter #   3 total cpu time :    90.0 secs   av.it.:   9.1
      thresh= 3.630E-04 alpha_mix =  0.700 |ddv_scf|^2 =  1.013E-08

      iter #   4 total cpu time :    90.3 secs   av.it.:   8.9
      thresh= 1.006E-05 alpha_mix =  0.700 |ddv_scf|^2 =  9.485E-11

      iter #   5 total cpu time :    90.6 secs   av.it.:   9.4
      thresh= 9.739E-07 alpha_mix =  0.700 |ddv_scf|^2 =  1.841E-12

      iter #   6 total cpu time :    91.0 secs   av.it.:   9.1
      thresh= 1.357E-07 alpha_mix =  0.700 |ddv_scf|^2 =  1.640E-14

     End of self-consistent calculation

     Convergence has been achieved 


     Representation #  3 modes #   5  6

     Self-consistent Calculation

      iter #   1 total cpu time :    91.2 secs   av.it.:   5.1
      thresh= 1.000E-02 alpha_mix =  0.700 |ddv_scf|^2 =  2.618E-06

      iter #   2 total cpu time :    91.9 secs   av.it.:   9.7
      thresh= 1.618E-04 alpha_mix =  0.700 |ddv_scf|^2 =  1.426E-06

      iter #   3 total cpu time :    92.2 secs   av.it.:   9.1
      thresh= 1.194E-04 alpha_mix =  0.700 |ddv_scf|^2 =  8.121E-09

      iter #   4 total cpu time :    92.5 secs   av.it.:   8.7
      thresh= 9.011E-06 alpha_mix =  0.700 |ddv_scf|^2 =  4.488E-11

      iter #   5 total cpu time :    92.8 secs   av.it.:   9.1
      thresh= 6.699E-07 alpha_mix =  0.700 |ddv_scf|^2 =  7.146E-13

     End of self-consistent calculation

     Convergence has been achieved 

     Number of q in the star =    6
     List of q in the star:
          1  -0.500000000  -1.000000000   0.000000000
          2   0.000000000   1.000000000   0.500000000
          3   0.000000000  -1.000000000  -0.500000000
          4   0.500000000   1.000000000   0.000000000
          5  -1.000000000  -0.500000000   0.000000000
          6   0.000000000  -0.500000000  -1.000000000

     Diagonalizing the dynamical matrix

     q = (   -0.500000000  -1.000000000   0.000000000 ) 

 **************************************************************************
     freq (    1) =       7.780760 [THz] =     259.538221 [cm-1]
     freq (    2) =       7.780760 [THz] =     259.538221 [cm-1]
     freq (    3) =      11.043774 [THz] =     368.380632 [cm-1]
     freq (    4) =      11.043774 [THz] =     368.380632 [cm-1]
     freq (    5) =      13.781435 [THz] =     459.699189 [cm-1]
     freq (    6) =      13.781435 [THz] =     459.699189 [cm-1]
 **************************************************************************

     init_run     :      0.59s CPU      0.66s WALL (       7 calls)
     electrons    :      4.86s CPU      5.43s WALL (       7 calls)

     Called by init_run:
     wfcinit      :      0.00s CPU      0.00s WALL (       7 calls)
     potinit      :      0.02s CPU      0.02s WALL (       7 calls)

     Called by electrons:
     c_bands      :      4.86s CPU      5.42s WALL (       7 calls)
     v_of_rho     :      0.01s CPU      0.01s WALL (       8 calls)
     newd         :      0.03s CPU      0.03s WALL (       8 calls)

     Called by c_bands:
     init_us_2    :      0.68s CPU      0.77s WALL (   17588 calls)
     cegterg      :      4.13s CPU      4.63s WALL (     796 calls)

     Called by sum_band:

     Called by *egterg:
     h_psi        :     46.40s CPU     50.54s WALL (  152274 calls)
     s_psi        :      5.79s CPU      6.17s WALL (  309268 calls)
     g_psi        :      0.03s CPU      0.03s WALL (    9268 calls)
     cdiaghg      :      0.47s CPU      0.50s WALL (   10064 calls)

     Called by h_psi:
     h_psi:pot    :     46.21s CPU     50.34s WALL (  152274 calls)
     h_psi:calbec :      5.13s CPU      5.65s WALL (  152274 calls)
     vloc_psi     :     37.96s CPU     41.40s WALL (  152274 calls)
     add_vuspsi   :      2.90s CPU      3.08s WALL (  152274 calls)

     General routines
     calbec       :     11.16s CPU     12.29s WALL (  345640 calls)
     fft          :      0.76s CPU      0.88s WALL (    5239 calls)
     ffts         :      0.14s CPU      0.15s WALL (    2748 calls)
     fftw         :     44.28s CPU     48.35s WALL ( 1378690 calls)
     davcio       :      0.32s CPU      0.34s WALL (   79045 calls)

     Parallel routines
     fft_scatter  :     12.85s CPU     14.84s WALL ( 1386677 calls)

     PHONON       :  1m25.01s CPU     1m32.81s WALL

     INITIALIZATION: 
     phq_setup    :      0.05s CPU      0.05s WALL (       8 calls)
     phq_init     :      2.14s CPU      2.35s WALL (       8 calls)

     phq_init     :      2.14s CPU      2.35s WALL (       8 calls)
     set_drhoc    :      0.29s CPU      0.32s WALL (      24 calls)
     init_vloc    :      0.01s CPU      0.01s WALL (       8 calls)
     init_us_1    :      0.49s CPU      0.54s WALL (       8 calls)
     newd         :      0.03s CPU      0.03s WALL (       8 calls)
     dvanqq       :      0.24s CPU      0.24s WALL (       8 calls)
     drho         :      1.10s CPU      1.20s WALL (       8 calls)

     DYNAMICAL MATRIX:
     dynmat0      :      0.56s CPU      0.66s WALL (       8 calls)
     phqscf       :     74.64s CPU     81.47s WALL (       8 calls)
     dynmatrix    :      0.01s CPU      0.02s WALL (       8 calls)

     phqscf       :     74.64s CPU     81.47s WALL (       8 calls)
     solve_linter :     73.89s CPU     80.67s WALL (      32 calls)
     drhodv       :      0.54s CPU      0.58s WALL (      32 calls)

     dynmat0      :      0.56s CPU      0.66s WALL (       8 calls)
     dynmat_us    :      0.34s CPU      0.42s WALL (       8 calls)
     d2ionq       :      0.01s CPU      0.01s WALL (       8 calls)
     dynmatcc     :      0.21s CPU      0.23s WALL (       8 calls)

     dynmat_us    :      0.34s CPU      0.42s WALL (       8 calls)
     addusdynmat  :      0.00s CPU      0.00s WALL (       8 calls)

     phqscf       :     74.64s CPU     81.47s WALL (       8 calls)
     solve_linter :     73.89s CPU     80.67s WALL (      32 calls)

     solve_linter :     73.89s CPU     80.67s WALL (      32 calls)
     dvqpsi_us    :      1.63s CPU      1.76s WALL (    2508 calls)
     ortho        :      1.36s CPU      1.49s WALL (   15550 calls)
     cgsolve      :     57.86s CPU     63.25s WALL (   15550 calls)
     incdrhoscf   :      4.93s CPU      5.40s WALL (   15550 calls)
     addusddens   :      1.29s CPU      1.40s WALL (     228 calls)
     vpsifft      :      3.80s CPU      4.15s WALL (   12922 calls)
     dv_of_drho   :      0.28s CPU      0.28s WALL (     295 calls)
     mix_pot      :      0.08s CPU      0.10s WALL (     201 calls)
     psymdvscf    :      0.82s CPU      0.84s WALL (     196 calls)
     newdq        :      1.30s CPU      1.37s WALL (     201 calls)
     adddvscf     :      0.47s CPU      0.50s WALL (   13042 calls)
     drhodvus     :      0.01s CPU      0.01s WALL (      32 calls)

     dvqpsi_us    :      1.63s CPU      1.76s WALL (    2508 calls)
     dvqpsi_us_on :      0.83s CPU      0.87s WALL (    2508 calls)

     cgsolve      :     57.86s CPU     63.25s WALL (   15550 calls)
     ch_psi       :     55.45s CPU     60.38s WALL (  141414 calls)

     ch_psi       :     55.45s CPU     60.38s WALL (  141414 calls)
     h_psi        :     46.40s CPU     50.54s WALL (  152274 calls)
     last         :      9.40s CPU     10.40s WALL (  141414 calls)

     h_psi        :     46.40s CPU     50.54s WALL (  152274 calls)
     add_vuspsi   :      2.90s CPU      3.08s WALL (  152274 calls)

     incdrhoscf   :      4.93s CPU      5.40s WALL (   15550 calls)
     addusdbec    :      0.71s CPU      0.79s WALL (   17998 calls)

     drhodvus     :      0.01s CPU      0.01s WALL (      32 calls)

      General routines
     calbec       :     11.16s CPU     12.29s WALL (  345640 calls)
     fft          :      0.76s CPU      0.88s WALL (    5239 calls)
     ffts         :      0.14s CPU      0.15s WALL (    2748 calls)
     fftw         :     44.28s CPU     48.35s WALL ( 1378690 calls)
     davcio       :      0.32s CPU      0.34s WALL (   79045 calls)
     write_rec    :      0.23s CPU      0.24s WALL (     233 calls)


     PHONON       :  1m25.01s CPU     1m32.81s WALL


   This run was terminated on:  17:18:15   9Nov2017            

=------------------------------------------------------------------------------=
   JOB DONE.
=------------------------------------------------------------------------------=
