
     Program PHONON v.6.1 (svn rev. 13369) starts on  9Nov2017 at 17:52:24 

     This program is part of the open-source Quantum ESPRESSO suite
     for quantum simulation of materials; please cite
         "P. Giannozzi et al., J. Phys.:Condens. Matter 21 395502 (2009);
          URL http://www.quantum-espresso.org", 
     in publications or presentations arising from this work. More details at
     http://www.quantum-espresso.org/quote

     Parallel version (MPI), running on     4 processors
     R & G space division:  proc/nbgrp/npool/nimage =       4

     Reading data from directory:
     ./silicon.10.409.save

   Info: using nr1, nr2, nr3 values from input

   Info: using nr1, nr2, nr3 values from input

     IMPORTANT: XC functional enforced from input :
     Exchange-correlation      = SLA  PW   PBE  PBE ( 1  4  3  4 0 0)
     Any further DFT definition will be discarded
     Please, verify this is what you really want


     Parallelization info
     --------------------
     sticks:   dense  smooth     PW     G-vecs:    dense   smooth      PW
     Min          66      66     22                  722      722     152
     Max          67      67     23                  724      724     153
     Sum         265     265     91                 2891     2891     609


     Check: negative/imaginary core charge=   -0.000006    0.000000


     Dynamical matrices for ( 4, 4, 4)  uniform grid of q-points
     (   8q-points):
       N         xq(1)         xq(2)         xq(3) 
       1   0.000000000   0.000000000   0.000000000
       2  -0.250000000   0.250000000  -0.250000000
       3   0.500000000  -0.500000000   0.500000000
       4   0.000000000   0.500000000   0.000000000
       5   0.750000000  -0.250000000   0.750000000
       6   0.500000000   0.000000000   0.500000000
       7   0.000000000  -1.000000000   0.000000000
       8  -0.500000000  -1.000000000   0.000000000

     Calculation of q =    0.0000000   0.0000000   0.0000000

                                                                                

     bravais-lattice index     =            2
     lattice parameter (alat)  =      10.4090  a.u.
     unit-cell volume          =     281.9467 (a.u.)^3
     number of atoms/cell      =            2
     number of atomic types    =            1
     kinetic-energy cut-off    =      18.0000  Ry
     charge density cut-off    =      72.0000  Ry
     convergence threshold     =      1.0E-12
     beta                      =       0.7000
     number of iterations used =            4
     Exchange-correlation      = SLA  PW   PBE  PBE ( 1  4  3  4 0 0)


     celldm(1)=   10.40900  celldm(2)=    0.00000  celldm(3)=    0.00000
     celldm(4)=    0.00000  celldm(5)=    0.00000  celldm(6)=    0.00000

     crystal axes: (cart. coord. in units of alat)
               a(1) = ( -0.5000  0.0000  0.5000 )  
               a(2) = (  0.0000  0.5000  0.5000 )  
               a(3) = ( -0.5000  0.5000  0.0000 )  

     reciprocal axes: (cart. coord. in units 2 pi/alat)
               b(1) = ( -1.0000 -1.0000  1.0000 )  
               b(2) = (  1.0000  1.0000  1.0000 )  
               b(3) = ( -1.0000  1.0000 -1.0000 )  


     Atoms inside the unit cell: 

     Cartesian axes

     site n.  atom      mass           positions (alat units)
        1     Si  28.0860   tau(    1) = (    0.00000    0.00000    0.00000  )
        2     Si  28.0860   tau(    2) = (    0.25000    0.25000    0.25000  )

     Computing dynamical matrix for 
                    q = (   0.0000000   0.0000000   0.0000000 )

     49 Sym.Ops. (with q -> -q+G )


     G cutoff =  197.6017  (    722 G-vectors)     FFT grid: ( 20, 20, 20)
     number of k points=    10

     PseudoPot. # 1 for Si read from file:
     /home/max/quantum_espresso/qe-6.1/pseudo/si_pbe_v1.uspp.F.UPF.txt
     MD5 check sum: a056efeee980c13900f22a371efd63c1
     Pseudo is Ultrasoft + core correction, Zval =  4.0
     Generated by new atomic code, or converted to UPF format
     Using radial grid of  899 points,  6 beta functions with: 
                l(1) =   0
                l(2) =   0
                l(3) =   1
                l(4) =   1
                l(5) =   2
                l(6) =   2
     Q(r) pseudized with  8 coefficients,  rinner =    0.900   0.900   0.900
                                                       0.900   0.900

     Mode symmetry, O_h (m-3m)  point group:


     Electric field:
     Dielectric constant
     Born effective charges in two ways 


     Atomic displacements:
     There are   2 irreducible representations

     Representation     1      3 modes -T_2g G_25' G_5+  To be done

     Representation     2      3 modes -T_1u G_15  G_4-  To be done



     Alpha used in Ewald sum =   0.7000
     PHONON       :     0.44s CPU         0.55s WALL


     Electric Fields Calculation

      iter #   1 total cpu time :     0.9 secs   av.it.:   5.6
      thresh= 1.000E-02 alpha_mix =  0.700 |ddv_scf|^2 =  9.605E-07

      iter #   2 total cpu time :     1.1 secs   av.it.:   9.9
      thresh= 9.801E-05 alpha_mix =  0.700 |ddv_scf|^2 =  6.287E-08

      iter #   3 total cpu time :     1.3 secs   av.it.:   9.8
      thresh= 2.507E-05 alpha_mix =  0.700 |ddv_scf|^2 =  4.998E-09

      iter #   4 total cpu time :     1.5 secs   av.it.:   9.0
      thresh= 7.070E-06 alpha_mix =  0.700 |ddv_scf|^2 =  3.032E-11

      iter #   5 total cpu time :     1.6 secs   av.it.:   9.2
      thresh= 5.506E-07 alpha_mix =  0.700 |ddv_scf|^2 =  1.551E-14

     End of electric fields calculation

          Dielectric constant in cartesian axis 

          (      14.044097614       0.000000000      -0.000000000 )
          (      -0.000000000      14.044097614       0.000000000 )
          (      -0.000000000       0.000000000      14.044097614 )

          Effective charges (d Force / dE) in cartesian axis

           atom      1   Si 
      Ex  (       -0.03338       -0.00000       -0.00000 )
      Ey  (        0.00000       -0.03338       -0.00000 )
      Ez  (       -0.00000       -0.00000       -0.03338 )
           atom      2   Si 
      Ex  (       -0.03338        0.00000        0.00000 )
      Ey  (        0.00000       -0.03338       -0.00000 )
      Ez  (        0.00000       -0.00000       -0.03338 )


     Representation #  1 modes #   1  2  3

     Self-consistent Calculation

      iter #   1 total cpu time :     2.0 secs   av.it.:   5.0
      thresh= 1.000E-02 alpha_mix =  0.700 |ddv_scf|^2 =  1.857E-07

      iter #   2 total cpu time :     2.2 secs   av.it.:  10.0
      thresh= 4.309E-05 alpha_mix =  0.700 |ddv_scf|^2 =  1.028E-08

      iter #   3 total cpu time :     2.5 secs   av.it.:   9.5
      thresh= 1.014E-05 alpha_mix =  0.700 |ddv_scf|^2 =  7.109E-10

      iter #   4 total cpu time :     2.7 secs   av.it.:   9.1
      thresh= 2.666E-06 alpha_mix =  0.700 |ddv_scf|^2 =  1.834E-12

      iter #   5 total cpu time :     2.9 secs   av.it.:   9.4
      thresh= 1.354E-07 alpha_mix =  0.700 |ddv_scf|^2 =  1.547E-14

     End of self-consistent calculation

     Convergence has been achieved 


     Representation #  2 modes #   4  5  6

     Self-consistent Calculation

      iter #   1 total cpu time :     3.1 secs   av.it.:   5.0
      thresh= 1.000E-02 alpha_mix =  0.700 |ddv_scf|^2 =  1.934E-07

      iter #   2 total cpu time :     3.3 secs   av.it.:   9.6
      thresh= 4.398E-05 alpha_mix =  0.700 |ddv_scf|^2 =  1.601E-08

      iter #   3 total cpu time :     3.5 secs   av.it.:   9.2
      thresh= 1.265E-05 alpha_mix =  0.700 |ddv_scf|^2 =  9.597E-10

      iter #   4 total cpu time :     3.6 secs   av.it.:   9.5
      thresh= 3.098E-06 alpha_mix =  0.700 |ddv_scf|^2 =  5.589E-12

      iter #   5 total cpu time :     3.8 secs   av.it.:   9.1
      thresh= 2.364E-07 alpha_mix =  0.700 |ddv_scf|^2 =  5.145E-15

     End of self-consistent calculation

     Convergence has been achieved 

     Number of q in the star =    1
     List of q in the star:
          1   0.000000000   0.000000000   0.000000000

          Dielectric constant in cartesian axis 

          (      14.044097614       0.000000000      -0.000000000 )
          (      -0.000000000      14.044097614       0.000000000 )
          (      -0.000000000       0.000000000      14.044097614 )

          Effective charges (d Force / dE) in cartesian axis

           atom      1   Si 
      Ex  (       -0.03338       -0.00000       -0.00000 )
      Ey  (        0.00000       -0.03338       -0.00000 )
      Ez  (       -0.00000       -0.00000       -0.03338 )
           atom      2   Si 
      Ex  (       -0.03338        0.00000        0.00000 )
      Ey  (        0.00000       -0.03338       -0.00000 )
      Ez  (        0.00000       -0.00000       -0.03338 )

          Effective charges (d P / du) in cartesian axis 

           atom      1   Si 
      Px  (       -0.07615        0.00000        0.00000 )
      Py  (        0.00000       -0.07615        0.00000 )
      Pz  (        0.00000       -0.00000       -0.07615 )
           atom      2   Si 
      Px  (       -0.07615        0.00000        0.00000 )
      Py  (        0.00000       -0.07615       -0.00000 )
      Pz  (        0.00000       -0.00000       -0.07615 )

     Diagonalizing the dynamical matrix

     q = (    0.000000000   0.000000000   0.000000000 ) 

 **************************************************************************
     freq (    1) =       1.759676 [THz] =      58.696475 [cm-1]
     freq (    2) =       1.759676 [THz] =      58.696475 [cm-1]
     freq (    3) =       1.759676 [THz] =      58.696475 [cm-1]
     freq (    4) =      15.537531 [THz] =     518.276232 [cm-1]
     freq (    5) =      15.537531 [THz] =     518.276232 [cm-1]
     freq (    6) =      15.537531 [THz] =     518.276232 [cm-1]
 **************************************************************************

     Mode symmetry, O_h (m-3m)  point group:

     freq (  1 -  3) =         58.7  [cm-1]   --> T_1u G_15  G_4- I  
     freq (  4 -  6) =        518.3  [cm-1]   --> T_2g G_25' G_5+ R  

     Calculation of q =   -0.2500000   0.2500000  -0.2500000

   Info: using nr1, nr2, nr3 values from input

   Info: using nr1, nr2, nr3 values from input

     Parallelization info
     --------------------
     sticks:   dense  smooth     PW     G-vecs:    dense   smooth      PW
     Min          66      66     27                  722      722     175
     Max          67      67     28                  724      724     176
     Sum         265     265    109                 2891     2891     701



     bravais-lattice index     =            2
     lattice parameter (alat)  =      10.4090  a.u.
     unit-cell volume          =     281.9467 (a.u.)^3
     number of atoms/cell      =            2
     number of atomic types    =            1
     number of electrons       =         8.00
     number of Kohn-Sham states=            4
     kinetic-energy cutoff     =      18.0000  Ry
     charge density cutoff     =      72.0000  Ry
     Exchange-correlation      = SLA  PW   PBE  PBE ( 1  4  3  4 0 0)

     celldm(1)=  10.409000  celldm(2)=   0.000000  celldm(3)=   0.000000
     celldm(4)=   0.000000  celldm(5)=   0.000000  celldm(6)=   0.000000

     crystal axes: (cart. coord. in units of alat)
               a(1) = (  -0.500000   0.000000   0.500000 )  
               a(2) = (   0.000000   0.500000   0.500000 )  
               a(3) = (  -0.500000   0.500000   0.000000 )  

     reciprocal axes: (cart. coord. in units 2 pi/alat)
               b(1) = ( -1.000000 -1.000000  1.000000 )  
               b(2) = (  1.000000  1.000000  1.000000 )  
               b(3) = ( -1.000000  1.000000 -1.000000 )  


     PseudoPot. # 1 for Si read from file:
     /home/max/quantum_espresso/qe-6.1/pseudo/si_pbe_v1.uspp.F.UPF.txt
     MD5 check sum: a056efeee980c13900f22a371efd63c1
     Pseudo is Ultrasoft + core correction, Zval =  4.0
     Generated by new atomic code, or converted to UPF format
     Using radial grid of  899 points,  6 beta functions with: 
                l(1) =   0
                l(2) =   0
                l(3) =   1
                l(4) =   1
                l(5) =   2
                l(6) =   2
     Q(r) pseudized with  8 coefficients,  rinner =    0.900   0.900   0.900
                                                       0.900   0.900

     atomic species   valence    mass     pseudopotential
        Si             4.00    28.08600     Si( 1.00)

     48 Sym. Ops., with inversion, found



   Cartesian axes

     site n.     atom                  positions (alat units)
         1           Si  tau(   1) = (   0.0000000   0.0000000   0.0000000  )
         2           Si  tau(   2) = (   0.2500000   0.2500000   0.2500000  )

     number of k points=   120

     Number of k-points >= 100: set verbosity='high' to print them.

     Dense  grid:     2891 G-vectors     FFT dimensions: (  20,  20,  20)

     Estimated max dynamical RAM per process >       0.33MB

     Estimated total allocated dynamical RAM >       1.34MB

     Check: negative/imaginary core charge=   -0.000006    0.000000

     The potential is recalculated from file :
     ./_ph0/silicon.10.409.save/charge-density.dat

     Starting wfc are    8 atomic wfcs

     Band Structure Calculation
     Davidson diagonalization with overlap

     ethr =  1.25E-10,  avg # of iterations = 11.7

     total cpu time spent up to now is        0.9 secs

     End of band structure calculation

     Number of k-points >= 100: set verbosity='high' to print the bands.

     highest occupied level (ev):     5.4846

     Writing output data file silicon.10.409.save

                                                                                

     bravais-lattice index     =            2
     lattice parameter (alat)  =      10.4090  a.u.
     unit-cell volume          =     281.9467 (a.u.)^3
     number of atoms/cell      =            2
     number of atomic types    =            1
     kinetic-energy cut-off    =      18.0000  Ry
     charge density cut-off    =      72.0000  Ry
     convergence threshold     =      1.0E-12
     beta                      =       0.7000
     number of iterations used =            4
     Exchange-correlation      = SLA  PW   PBE  PBE ( 1  4  3  4 0 0)


     celldm(1)=   10.40900  celldm(2)=    0.00000  celldm(3)=    0.00000
     celldm(4)=    0.00000  celldm(5)=    0.00000  celldm(6)=    0.00000

     crystal axes: (cart. coord. in units of alat)
               a(1) = ( -0.5000  0.0000  0.5000 )  
               a(2) = (  0.0000  0.5000  0.5000 )  
               a(3) = ( -0.5000  0.5000  0.0000 )  

     reciprocal axes: (cart. coord. in units 2 pi/alat)
               b(1) = ( -1.0000 -1.0000  1.0000 )  
               b(2) = (  1.0000  1.0000  1.0000 )  
               b(3) = ( -1.0000  1.0000 -1.0000 )  


     Atoms inside the unit cell: 

     Cartesian axes

     site n.  atom      mass           positions (alat units)
        1     Si  28.0860   tau(    1) = (    0.00000    0.00000    0.00000  )
        2     Si  28.0860   tau(    2) = (    0.25000    0.25000    0.25000  )

     Computing dynamical matrix for 
                    q = (  -0.2500000   0.2500000  -0.2500000 )

      6 Sym.Ops. (no q -> -q+G )


     G cutoff =  197.6017  (    722 G-vectors)     FFT grid: ( 20, 20, 20)
     number of k points=   120

     PseudoPot. # 1 for Si read from file:
     /home/max/quantum_espresso/qe-6.1/pseudo/si_pbe_v1.uspp.F.UPF.txt
     MD5 check sum: a056efeee980c13900f22a371efd63c1
     Pseudo is Ultrasoft + core correction, Zval =  4.0
     Generated by new atomic code, or converted to UPF format
     Using radial grid of  899 points,  6 beta functions with: 
                l(1) =   0
                l(2) =   0
                l(3) =   1
                l(4) =   1
                l(5) =   2
                l(6) =   2
     Q(r) pseudized with  8 coefficients,  rinner =    0.900   0.900   0.900
                                                       0.900   0.900

     Mode symmetry, C_3v (3m)   point group:


     Atomic displacements:
     There are   4 irreducible representations

     Representation     1      1 modes -A_1  L_1  To be done

     Representation     2      1 modes -A_1  L_1  To be done

     Representation     3      2 modes -E    L_3  To be done

     Representation     4      2 modes -E    L_3  To be done



     Alpha used in Ewald sum =   0.7000
     PHONON       :     4.88s CPU         5.24s WALL



     Representation #  1 mode #   1

     Self-consistent Calculation

      iter #   1 total cpu time :     5.5 secs   av.it.:   5.5
      thresh= 1.000E-02 alpha_mix =  0.700 |ddv_scf|^2 =  2.422E-03

      iter #   2 total cpu time :     5.7 secs   av.it.:   7.5
      thresh= 4.922E-03 alpha_mix =  0.700 |ddv_scf|^2 =  3.689E-02

      iter #   3 total cpu time :     5.9 secs   av.it.:   6.3
      thresh= 1.000E-02 alpha_mix =  0.700 |ddv_scf|^2 =  1.687E-06

      iter #   4 total cpu time :     6.2 secs   av.it.:   8.2
      thresh= 1.299E-04 alpha_mix =  0.700 |ddv_scf|^2 =  1.137E-07

      iter #   5 total cpu time :     6.6 secs   av.it.:   8.1
      thresh= 3.372E-05 alpha_mix =  0.700 |ddv_scf|^2 =  4.567E-09

      iter #   6 total cpu time :     6.9 secs   av.it.:   8.1
      thresh= 6.758E-06 alpha_mix =  0.700 |ddv_scf|^2 =  3.405E-09

      iter #   7 total cpu time :     7.1 secs   av.it.:   6.4
      thresh= 5.835E-06 alpha_mix =  0.700 |ddv_scf|^2 =  7.400E-10

      iter #   8 total cpu time :     7.3 secs   av.it.:   7.1
      thresh= 2.720E-06 alpha_mix =  0.700 |ddv_scf|^2 =  4.730E-12

      iter #   9 total cpu time :     7.6 secs   av.it.:   7.2
      thresh= 2.175E-07 alpha_mix =  0.700 |ddv_scf|^2 =  2.408E-13

     End of self-consistent calculation

     Convergence has been achieved 


     Representation #  2 mode #   2

     Self-consistent Calculation

      iter #   1 total cpu time :     7.8 secs   av.it.:   5.5
      thresh= 1.000E-02 alpha_mix =  0.700 |ddv_scf|^2 =  2.422E-03

      iter #   2 total cpu time :     8.1 secs   av.it.:   7.5
      thresh= 4.922E-03 alpha_mix =  0.700 |ddv_scf|^2 =  3.689E-02

      iter #   3 total cpu time :     8.4 secs   av.it.:   6.3
      thresh= 1.000E-02 alpha_mix =  0.700 |ddv_scf|^2 =  1.687E-06

      iter #   4 total cpu time :     8.7 secs   av.it.:   8.2
      thresh= 1.299E-04 alpha_mix =  0.700 |ddv_scf|^2 =  1.137E-07

      iter #   5 total cpu time :     9.0 secs   av.it.:   8.1
      thresh= 3.372E-05 alpha_mix =  0.700 |ddv_scf|^2 =  4.567E-09

      iter #   6 total cpu time :     9.2 secs   av.it.:   8.1
      thresh= 6.758E-06 alpha_mix =  0.700 |ddv_scf|^2 =  3.405E-09

      iter #   7 total cpu time :     9.6 secs   av.it.:   6.4
      thresh= 5.835E-06 alpha_mix =  0.700 |ddv_scf|^2 =  7.400E-10

      iter #   8 total cpu time :     9.9 secs   av.it.:   7.1
      thresh= 2.720E-06 alpha_mix =  0.700 |ddv_scf|^2 =  4.730E-12

      iter #   9 total cpu time :    10.1 secs   av.it.:   7.2
      thresh= 2.175E-07 alpha_mix =  0.700 |ddv_scf|^2 =  2.408E-13

     End of self-consistent calculation

     Convergence has been achieved 


     Representation #  3 modes #   3  4

     Self-consistent Calculation

      iter #   1 total cpu time :    10.7 secs   av.it.:   4.9
      thresh= 1.000E-02 alpha_mix =  0.700 |ddv_scf|^2 =  5.370E-07

      iter #   2 total cpu time :    11.3 secs   av.it.:   9.5
      thresh= 7.328E-05 alpha_mix =  0.700 |ddv_scf|^2 =  4.032E-08

      iter #   3 total cpu time :    11.9 secs   av.it.:   9.3
      thresh= 2.008E-05 alpha_mix =  0.700 |ddv_scf|^2 =  3.477E-09

      iter #   4 total cpu time :    12.6 secs   av.it.:   8.9
      thresh= 5.897E-06 alpha_mix =  0.700 |ddv_scf|^2 =  1.147E-11

      iter #   5 total cpu time :    13.2 secs   av.it.:   9.2
      thresh= 3.387E-07 alpha_mix =  0.700 |ddv_scf|^2 =  5.102E-13

     End of self-consistent calculation

     Convergence has been achieved 


     Representation #  4 modes #   5  6

     Self-consistent Calculation

      iter #   1 total cpu time :    13.6 secs   av.it.:   5.0
      thresh= 1.000E-02 alpha_mix =  0.700 |ddv_scf|^2 =  5.369E-07

      iter #   2 total cpu time :    14.2 secs   av.it.:   9.7
      thresh= 7.327E-05 alpha_mix =  0.700 |ddv_scf|^2 =  4.027E-08

      iter #   3 total cpu time :    14.9 secs   av.it.:   9.4
      thresh= 2.007E-05 alpha_mix =  0.700 |ddv_scf|^2 =  3.473E-09

      iter #   4 total cpu time :    15.5 secs   av.it.:   9.1
      thresh= 5.893E-06 alpha_mix =  0.700 |ddv_scf|^2 =  1.149E-11

      iter #   5 total cpu time :    16.1 secs   av.it.:   9.3
      thresh= 3.389E-07 alpha_mix =  0.700 |ddv_scf|^2 =  5.110E-13

     End of self-consistent calculation

     Convergence has been achieved 

     Number of q in the star =    8
     List of q in the star:
          1  -0.250000000   0.250000000  -0.250000000
          2   0.250000000  -0.250000000  -0.250000000
          3   0.250000000  -0.250000000   0.250000000
          4   0.250000000   0.250000000   0.250000000
          5  -0.250000000  -0.250000000  -0.250000000
          6  -0.250000000  -0.250000000   0.250000000
          7  -0.250000000   0.250000000   0.250000000
          8   0.250000000   0.250000000  -0.250000000

     Diagonalizing the dynamical matrix

     q = (   -0.250000000   0.250000000  -0.250000000 ) 

 **************************************************************************
     freq (    1) =       3.401204 [THz] =     113.451938 [cm-1]
     freq (    2) =       3.401204 [THz] =     113.451938 [cm-1]
     freq (    3) =       6.803384 [THz] =     226.936463 [cm-1]
     freq (    4) =      14.639139 [THz] =     488.309125 [cm-1]
     freq (    5) =      14.910997 [THz] =     497.377331 [cm-1]
     freq (    6) =      14.910997 [THz] =     497.377331 [cm-1]
 **************************************************************************

     Mode symmetry, C_3v (3m)   point group:

     freq (  1 -  2) =        113.5  [cm-1]   --> E    L_3           
     freq (  3 -  3) =        226.9  [cm-1]   --> A_1  L_1           
     freq (  4 -  4) =        488.3  [cm-1]   --> A_1  L_1           
     freq (  5 -  6) =        497.4  [cm-1]   --> E    L_3           

     Calculation of q =    0.5000000  -0.5000000   0.5000000

   Info: using nr1, nr2, nr3 values from input

   Info: using nr1, nr2, nr3 values from input

     Parallelization info
     --------------------
     sticks:   dense  smooth     PW     G-vecs:    dense   smooth      PW
     Min          66      66     27                  722      722     186
     Max          67      67     28                  724      724     189
     Sum         265     265    109                 2891     2891     749



     bravais-lattice index     =            2
     lattice parameter (alat)  =      10.4090  a.u.
     unit-cell volume          =     281.9467 (a.u.)^3
     number of atoms/cell      =            2
     number of atomic types    =            1
     number of electrons       =         8.00
     number of Kohn-Sham states=            4
     kinetic-energy cutoff     =      18.0000  Ry
     charge density cutoff     =      72.0000  Ry
     Exchange-correlation      = SLA  PW   PBE  PBE ( 1  4  3  4 0 0)

     celldm(1)=  10.409000  celldm(2)=   0.000000  celldm(3)=   0.000000
     celldm(4)=   0.000000  celldm(5)=   0.000000  celldm(6)=   0.000000

     crystal axes: (cart. coord. in units of alat)
               a(1) = (  -0.500000   0.000000   0.500000 )  
               a(2) = (   0.000000   0.500000   0.500000 )  
               a(3) = (  -0.500000   0.500000   0.000000 )  

     reciprocal axes: (cart. coord. in units 2 pi/alat)
               b(1) = ( -1.000000 -1.000000  1.000000 )  
               b(2) = (  1.000000  1.000000  1.000000 )  
               b(3) = ( -1.000000  1.000000 -1.000000 )  


     PseudoPot. # 1 for Si read from file:
     /home/max/quantum_espresso/qe-6.1/pseudo/si_pbe_v1.uspp.F.UPF.txt
     MD5 check sum: a056efeee980c13900f22a371efd63c1
     Pseudo is Ultrasoft + core correction, Zval =  4.0
     Generated by new atomic code, or converted to UPF format
     Using radial grid of  899 points,  6 beta functions with: 
                l(1) =   0
                l(2) =   0
                l(3) =   1
                l(4) =   1
                l(5) =   2
                l(6) =   2
     Q(r) pseudized with  8 coefficients,  rinner =    0.900   0.900   0.900
                                                       0.900   0.900

     atomic species   valence    mass     pseudopotential
        Si             4.00    28.08600     Si( 1.00)

     48 Sym. Ops., with inversion, found



   Cartesian axes

     site n.     atom                  positions (alat units)
         1           Si  tau(   1) = (   0.0000000   0.0000000   0.0000000  )
         2           Si  tau(   2) = (   0.2500000   0.2500000   0.2500000  )

     number of k points=    60
                       cart. coord. in units 2pi/alat
        k(    1) = (  -0.1250000   0.1250000   0.1250000), wk =   0.0468750
        k(    2) = (   0.3750000  -0.3750000   0.6250000), wk =   0.0000000
        k(    3) = (  -0.3750000   0.3750000  -0.1250000), wk =   0.0468750
        k(    4) = (   0.1250000  -0.1250000   0.3750000), wk =   0.0000000
        k(    5) = (   0.3750000  -0.3750000   0.6250000), wk =   0.0468750
        k(    6) = (   0.8750000  -0.8750000   1.1250000), wk =   0.0000000
        k(    7) = (   0.1250000  -0.1250000   0.3750000), wk =   0.0468750
        k(    8) = (   0.6250000  -0.6250000   0.8750000), wk =   0.0000000
        k(    9) = (  -0.1250000   0.6250000   0.1250000), wk =   0.0937500
        k(   10) = (   0.3750000   0.1250000   0.6250000), wk =   0.0000000
        k(   11) = (   0.6250000  -0.1250000   0.8750000), wk =   0.0937500
        k(   12) = (   1.1250000  -0.6250000   1.3750000), wk =   0.0000000
        k(   13) = (   0.3750000   0.1250000   0.6250000), wk =   0.0937500
        k(   14) = (   0.8750000  -0.3750000   1.1250000), wk =   0.0000000
        k(   15) = (  -0.1250000  -0.8750000   0.1250000), wk =   0.0937500
        k(   16) = (   0.3750000  -1.3750000   0.6250000), wk =   0.0000000
        k(   17) = (  -0.3750000   0.3750000   0.3750000), wk =   0.0468750
        k(   18) = (   0.1250000  -0.1250000   0.8750000), wk =   0.0000000
        k(   19) = (   0.3750000  -0.3750000   1.1250000), wk =   0.0468750
        k(   20) = (   0.8750000  -0.8750000   1.6250000), wk =   0.0000000
        k(   21) = (   0.1250000  -0.1250000   0.1250000), wk =   0.0156250
        k(   22) = (   0.6250000  -0.6250000   0.6250000), wk =   0.0000000
        k(   23) = (  -0.3750000  -0.3750000  -0.1250000), wk =   0.0937500
        k(   24) = (   0.1250000  -0.8750000   0.3750000), wk =   0.0000000
        k(   25) = (  -0.1250000  -0.3750000   0.3750000), wk =   0.0468750
        k(   26) = (   0.3750000  -0.8750000   0.8750000), wk =   0.0000000
        k(   27) = (   0.3750000   0.3750000   0.6250000), wk =   0.0937500
        k(   28) = (   0.8750000  -0.1250000   1.1250000), wk =   0.0000000
        k(   29) = (   0.6250000   0.3750000  -0.3750000), wk =   0.0468750
        k(   30) = (   1.1250000  -0.1250000   0.1250000), wk =   0.0000000
        k(   31) = (   0.1250000   0.1250000   0.3750000), wk =   0.0937500
        k(   32) = (   0.6250000  -0.3750000   0.8750000), wk =   0.0000000
        k(   33) = (   0.3750000   0.1250000  -0.1250000), wk =   0.0468750
        k(   34) = (   0.8750000  -0.3750000   0.3750000), wk =   0.0000000
        k(   35) = (  -0.1250000  -0.6250000  -0.1250000), wk =   0.0468750
        k(   36) = (   0.3750000  -1.1250000   0.3750000), wk =   0.0000000
        k(   37) = (   0.1250000  -0.6250000   0.1250000), wk =   0.0468750
        k(   38) = (   0.6250000  -1.1250000   0.6250000), wk =   0.0000000
        k(   39) = (   0.6250000   0.1250000   0.8750000), wk =   0.0937500
        k(   40) = (   1.1250000  -0.3750000   1.3750000), wk =   0.0000000
        k(   41) = (  -0.8750000   0.1250000   0.6250000), wk =   0.0937500
        k(   42) = (  -0.3750000  -0.3750000   1.1250000), wk =   0.0000000
        k(   43) = (   0.8750000   0.1250000  -0.6250000), wk =   0.0937500
        k(   44) = (   1.3750000  -0.3750000  -0.1250000), wk =   0.0000000
        k(   45) = (   0.3750000  -0.1250000   0.6250000), wk =   0.0937500
        k(   46) = (   0.8750000  -0.6250000   1.1250000), wk =   0.0000000
        k(   47) = (  -0.6250000  -0.1250000   0.3750000), wk =   0.0937500
        k(   48) = (  -0.1250000  -0.6250000   0.8750000), wk =   0.0000000
        k(   49) = (   0.6250000  -0.1250000  -0.3750000), wk =   0.0937500
        k(   50) = (   1.1250000  -0.6250000   0.1250000), wk =   0.0000000
        k(   51) = (  -0.1250000   0.8750000  -0.1250000), wk =   0.0468750
        k(   52) = (   0.3750000   0.3750000   0.3750000), wk =   0.0000000
        k(   53) = (   0.1250000   0.8750000   0.1250000), wk =   0.0468750
        k(   54) = (   0.6250000   0.3750000   0.6250000), wk =   0.0000000
        k(   55) = (   0.3750000  -0.3750000   0.3750000), wk =   0.0156250
        k(   56) = (   0.8750000  -0.8750000   0.8750000), wk =   0.0000000
        k(   57) = (   0.3750000   0.3750000   1.1250000), wk =   0.0937500
        k(   58) = (   0.8750000  -0.1250000   1.6250000), wk =   0.0000000
        k(   59) = (   1.1250000   0.3750000  -0.3750000), wk =   0.0468750
        k(   60) = (   1.6250000  -0.1250000   0.1250000), wk =   0.0000000

     Dense  grid:     2891 G-vectors     FFT dimensions: (  20,  20,  20)

     Estimated max dynamical RAM per process >       0.33MB

     Estimated total allocated dynamical RAM >       1.34MB

     Check: negative/imaginary core charge=   -0.000006    0.000000

     The potential is recalculated from file :
     ./_ph0/silicon.10.409.save/charge-density.dat

     Starting wfc are    8 atomic wfcs

     Band Structure Calculation
     Davidson diagonalization with overlap

     ethr =  1.25E-10,  avg # of iterations = 11.7

     total cpu time spent up to now is        1.7 secs

     End of band structure calculation

          k =-0.1250 0.1250 0.1250 (   353 PWs)   bands (ev):

    -5.7101   4.1731   5.4846   5.4846

          k = 0.3750-0.3750 0.6250 (   364 PWs)   bands (ev):

    -3.6000  -0.8075   3.5494   4.2565

          k =-0.3750 0.3750-0.1250 (   362 PWs)   bands (ev):

    -4.7064   1.2178   3.5409   5.0084

          k = 0.1250-0.1250 0.3750 (   358 PWs)   bands (ev):

    -5.1933   2.5650   4.5009   4.5521

          k = 0.3750-0.3750 0.6250 (   364 PWs)   bands (ev):

    -3.6000  -0.8075   3.5494   4.2565

          k = 0.8750-0.8750 1.1250 (   353 PWs)   bands (ev):

    -5.7101   4.1731   5.4846   5.4846

          k = 0.1250-0.1250 0.3750 (   358 PWs)   bands (ev):

    -5.1933   2.5650   4.5009   4.5521

          k = 0.6250-0.6250 0.8750 (   362 PWs)   bands (ev):

    -4.7064   1.2178   3.5409   5.0084

          k =-0.1250 0.6250 0.1250 (   357 PWs)   bands (ev):

    -4.1840   0.8605   3.2055   3.6444

          k = 0.3750 0.1250 0.6250 (   365 PWs)   bands (ev):

    -3.7809   0.0193   2.5748   3.9148

          k = 0.6250-0.1250 0.8750 (   368 PWs)   bands (ev):

    -2.5870  -1.0683   1.8941   2.9407

          k = 1.1250-0.6250 1.3750 (   362 PWs)   bands (ev):

    -4.7064   1.2178   3.5409   5.0084

          k = 0.3750 0.1250 0.6250 (   365 PWs)   bands (ev):

    -3.7809   0.0193   2.5748   3.9148

          k = 0.8750-0.3750 1.1250 (   357 PWs)   bands (ev):

    -4.1840   0.8605   3.2055   3.6444

          k =-0.1250-0.8750 0.1250 (   364 PWs)   bands (ev):

    -2.7444  -0.9760   2.4851   3.1862

          k = 0.3750-1.3750 0.6250 (   364 PWs)   bands (ev):

    -3.6000  -0.8075   3.5494   4.2565

          k =-0.3750 0.3750 0.3750 (   359 PWs)   bands (ev):

    -4.2855  -0.0341   4.7084   4.7084

          k = 0.1250-0.1250 0.8750 (   364 PWs)   bands (ev):

    -2.7444  -0.9760   2.4851   3.1862

          k = 0.3750-0.3750 1.1250 (   369 PWs)   bands (ev):

    -3.1143  -0.7516   1.9418   3.9478

          k = 0.8750-0.8750 1.6250 (   357 PWs)   bands (ev):

    -4.1840   0.8605   3.2055   3.6444

          k = 0.1250-0.1250 0.1250 (   353 PWs)   bands (ev):

    -5.7101   4.1731   5.4846   5.4846

          k = 0.6250-0.6250 0.6250 (   359 PWs)   bands (ev):

    -4.2855  -0.0341   4.7084   4.7084

          k =-0.3750-0.3750-0.1250 (   362 PWs)   bands (ev):

    -4.7064   1.2178   3.5409   5.0084

          k = 0.1250-0.8750 0.3750 (   368 PWs)   bands (ev):

    -2.5870  -1.0683   1.8941   2.9407

          k =-0.1250-0.3750 0.3750 (   362 PWs)   bands (ev):

    -4.7064   1.2178   3.5409   5.0084

          k = 0.3750-0.8750 0.8750 (   357 PWs)   bands (ev):

    -4.1840   0.8605   3.2055   3.6444

          k = 0.3750 0.3750 0.6250 (   364 PWs)   bands (ev):

    -3.6000  -0.8075   3.5494   4.2565

          k = 0.8750-0.1250 1.1250 (   364 PWs)   bands (ev):

    -2.7444  -0.9760   2.4851   3.1862

          k = 0.6250 0.3750-0.3750 (   364 PWs)   bands (ev):

    -3.6000  -0.8075   3.5494   4.2565

          k = 1.1250-0.1250 0.1250 (   364 PWs)   bands (ev):

    -2.7444  -0.9760   2.4851   3.1862

          k = 0.1250 0.1250 0.3750 (   358 PWs)   bands (ev):

    -5.1933   2.5650   4.5009   4.5521

          k = 0.6250-0.3750 0.8750 (   365 PWs)   bands (ev):

    -3.7809   0.0193   2.5748   3.9148

          k = 0.3750 0.1250-0.1250 (   358 PWs)   bands (ev):

    -5.1933   2.5650   4.5009   4.5521

          k = 0.8750-0.3750 0.3750 (   369 PWs)   bands (ev):

    -3.1143  -0.7516   1.9418   3.9478

          k =-0.1250-0.6250-0.1250 (   357 PWs)   bands (ev):

    -4.1840   0.8605   3.2055   3.6444

          k = 0.3750-1.1250 0.3750 (   369 PWs)   bands (ev):

    -3.1143  -0.7516   1.9418   3.9478

          k = 0.1250-0.6250 0.1250 (   357 PWs)   bands (ev):

    -4.1840   0.8605   3.2055   3.6444

          k = 0.6250-1.1250 0.6250 (   362 PWs)   bands (ev):

    -4.7064   1.2178   3.5409   5.0084

          k = 0.6250 0.1250 0.8750 (   368 PWs)   bands (ev):

    -2.5870  -1.0683   1.8941   2.9407

          k = 1.1250-0.3750 1.3750 (   365 PWs)   bands (ev):

    -3.7809   0.0193   2.5748   3.9148

          k =-0.8750 0.1250 0.6250 (   368 PWs)   bands (ev):

    -2.5870  -1.0683   1.8941   2.9407

          k =-0.3750-0.3750 1.1250 (   369 PWs)   bands (ev):

    -3.1143  -0.7516   1.9418   3.9478

          k = 0.8750 0.1250-0.6250 (   368 PWs)   bands (ev):

    -2.5870  -1.0683   1.8941   2.9407

          k = 1.3750-0.3750-0.1250 (   365 PWs)   bands (ev):

    -3.7809   0.0193   2.5748   3.9148

          k = 0.3750-0.1250 0.6250 (   365 PWs)   bands (ev):

    -3.7809   0.0193   2.5748   3.9148

          k = 0.8750-0.6250 1.1250 (   358 PWs)   bands (ev):

    -5.1933   2.5650   4.5009   4.5521

          k =-0.6250-0.1250 0.3750 (   365 PWs)   bands (ev):

    -3.7809   0.0193   2.5748   3.9148

          k =-0.1250-0.6250 0.8750 (   368 PWs)   bands (ev):

    -2.5870  -1.0683   1.8941   2.9407

          k = 0.6250-0.1250-0.3750 (   365 PWs)   bands (ev):

    -3.7809   0.0193   2.5748   3.9148

          k = 1.1250-0.6250 0.1250 (   368 PWs)   bands (ev):

    -2.5870  -1.0683   1.8941   2.9407

          k =-0.1250 0.8750-0.1250 (   364 PWs)   bands (ev):

    -2.7444  -0.9760   2.4851   3.1862

          k = 0.3750 0.3750 0.3750 (   359 PWs)   bands (ev):

    -4.2855  -0.0341   4.7084   4.7084

          k = 0.1250 0.8750 0.1250 (   364 PWs)   bands (ev):

    -2.7444  -0.9760   2.4851   3.1862

          k = 0.6250 0.3750 0.6250 (   364 PWs)   bands (ev):

    -3.6000  -0.8075   3.5494   4.2565

          k = 0.3750-0.3750 0.3750 (   359 PWs)   bands (ev):

    -4.2855  -0.0341   4.7084   4.7084

          k = 0.8750-0.8750 0.8750 (   353 PWs)   bands (ev):

    -5.7101   4.1731   5.4846   5.4846

          k = 0.3750 0.3750 1.1250 (   369 PWs)   bands (ev):

    -3.1143  -0.7516   1.9418   3.9478

          k = 0.8750-0.1250 1.6250 (   368 PWs)   bands (ev):

    -2.5870  -1.0683   1.8941   2.9407

          k = 1.1250 0.3750-0.3750 (   369 PWs)   bands (ev):

    -3.1143  -0.7516   1.9418   3.9478

          k = 1.6250-0.1250 0.1250 (   358 PWs)   bands (ev):

    -5.1933   2.5650   4.5009   4.5521

     highest occupied level (ev):     5.4846

     Writing output data file silicon.10.409.save

                                                                                

     bravais-lattice index     =            2
     lattice parameter (alat)  =      10.4090  a.u.
     unit-cell volume          =     281.9467 (a.u.)^3
     number of atoms/cell      =            2
     number of atomic types    =            1
     kinetic-energy cut-off    =      18.0000  Ry
     charge density cut-off    =      72.0000  Ry
     convergence threshold     =      1.0E-12
     beta                      =       0.7000
     number of iterations used =            4
     Exchange-correlation      = SLA  PW   PBE  PBE ( 1  4  3  4 0 0)


     celldm(1)=   10.40900  celldm(2)=    0.00000  celldm(3)=    0.00000
     celldm(4)=    0.00000  celldm(5)=    0.00000  celldm(6)=    0.00000

     crystal axes: (cart. coord. in units of alat)
               a(1) = ( -0.5000  0.0000  0.5000 )  
               a(2) = (  0.0000  0.5000  0.5000 )  
               a(3) = ( -0.5000  0.5000  0.0000 )  

     reciprocal axes: (cart. coord. in units 2 pi/alat)
               b(1) = ( -1.0000 -1.0000  1.0000 )  
               b(2) = (  1.0000  1.0000  1.0000 )  
               b(3) = ( -1.0000  1.0000 -1.0000 )  


     Atoms inside the unit cell: 

     Cartesian axes

     site n.  atom      mass           positions (alat units)
        1     Si  28.0860   tau(    1) = (    0.00000    0.00000    0.00000  )
        2     Si  28.0860   tau(    2) = (    0.25000    0.25000    0.25000  )

     Computing dynamical matrix for 
                    q = (   0.5000000  -0.5000000   0.5000000 )

     13 Sym.Ops. (with q -> -q+G )


     G cutoff =  197.6017  (    722 G-vectors)     FFT grid: ( 20, 20, 20)
     number of k points=    60

     PseudoPot. # 1 for Si read from file:
     /home/max/quantum_espresso/qe-6.1/pseudo/si_pbe_v1.uspp.F.UPF.txt
     MD5 check sum: a056efeee980c13900f22a371efd63c1
     Pseudo is Ultrasoft + core correction, Zval =  4.0
     Generated by new atomic code, or converted to UPF format
     Using radial grid of  899 points,  6 beta functions with: 
                l(1) =   0
                l(2) =   0
                l(3) =   1
                l(4) =   1
                l(5) =   2
                l(6) =   2
     Q(r) pseudized with  8 coefficients,  rinner =    0.900   0.900   0.900
                                                       0.900   0.900


     Atomic displacements:
     There are   4 irreducible representations

     Representation     1      1 modes -  To be done

     Representation     2      1 modes -  To be done

     Representation     3      2 modes -  To be done

     Representation     4      2 modes -  To be done



     Alpha used in Ewald sum =   0.7000
     PHONON       :    15.77s CPU        17.00s WALL



     Representation #  1 mode #   1

     Self-consistent Calculation

      iter #   1 total cpu time :    17.1 secs   av.it.:   4.8
      thresh= 1.000E-02 alpha_mix =  0.700 |ddv_scf|^2 =  2.425E-05

      iter #   2 total cpu time :    17.3 secs   av.it.:   8.4
      thresh= 4.925E-04 alpha_mix =  0.700 |ddv_scf|^2 =  2.222E-05

      iter #   3 total cpu time :    17.4 secs   av.it.:   7.5
      thresh= 4.714E-04 alpha_mix =  0.700 |ddv_scf|^2 =  3.835E-08

      iter #   4 total cpu time :    17.5 secs   av.it.:   7.6
      thresh= 1.958E-05 alpha_mix =  0.700 |ddv_scf|^2 =  1.429E-10

      iter #   5 total cpu time :    17.7 secs   av.it.:   7.9
      thresh= 1.195E-06 alpha_mix =  0.700 |ddv_scf|^2 =  4.030E-12

      iter #   6 total cpu time :    17.8 secs   av.it.:   7.7
      thresh= 2.008E-07 alpha_mix =  0.700 |ddv_scf|^2 =  7.337E-14

     End of self-consistent calculation

     Convergence has been achieved 


     Representation #  2 mode #   2

     Self-consistent Calculation

      iter #   1 total cpu time :    17.9 secs   av.it.:   5.7
      thresh= 1.000E-02 alpha_mix =  0.700 |ddv_scf|^2 =  3.399E-04

      iter #   2 total cpu time :    18.1 secs   av.it.:   8.3
      thresh= 1.844E-03 alpha_mix =  0.700 |ddv_scf|^2 =  1.052E-03

      iter #   3 total cpu time :    18.2 secs   av.it.:   7.1
      thresh= 3.243E-03 alpha_mix =  0.700 |ddv_scf|^2 =  1.450E-07

      iter #   4 total cpu time :    18.5 secs   av.it.:   8.2
      thresh= 3.807E-05 alpha_mix =  0.700 |ddv_scf|^2 =  1.001E-08

      iter #   5 total cpu time :    18.7 secs   av.it.:   8.4
      thresh= 1.001E-05 alpha_mix =  0.700 |ddv_scf|^2 =  1.540E-10

      iter #   6 total cpu time :    18.8 secs   av.it.:   8.2
      thresh= 1.241E-06 alpha_mix =  0.700 |ddv_scf|^2 =  3.684E-12

      iter #   7 total cpu time :    18.9 secs   av.it.:   7.6
      thresh= 1.919E-07 alpha_mix =  0.700 |ddv_scf|^2 =  1.425E-14

     End of self-consistent calculation

     Convergence has been achieved 


     Representation #  3 modes #   3  4

     Self-consistent Calculation

      iter #   1 total cpu time :    19.2 secs   av.it.:   4.7
      thresh= 1.000E-02 alpha_mix =  0.700 |ddv_scf|^2 =  3.429E-07

      iter #   2 total cpu time :    19.5 secs   av.it.:   9.0
      thresh= 5.856E-05 alpha_mix =  0.700 |ddv_scf|^2 =  2.960E-08

      iter #   3 total cpu time :    19.7 secs   av.it.:   8.3
      thresh= 1.721E-05 alpha_mix =  0.700 |ddv_scf|^2 =  5.140E-10

      iter #   4 total cpu time :    20.0 secs   av.it.:   8.9
      thresh= 2.267E-06 alpha_mix =  0.700 |ddv_scf|^2 =  6.466E-12

      iter #   5 total cpu time :    20.5 secs   av.it.:   8.7
      thresh= 2.543E-07 alpha_mix =  0.700 |ddv_scf|^2 =  3.610E-14

     End of self-consistent calculation

     Convergence has been achieved 


     Representation #  4 modes #   5  6

     Self-consistent Calculation

      iter #   1 total cpu time :    20.7 secs   av.it.:   4.9
      thresh= 1.000E-02 alpha_mix =  0.700 |ddv_scf|^2 =  9.423E-07

      iter #   2 total cpu time :    21.0 secs   av.it.:   9.5
      thresh= 9.707E-05 alpha_mix =  0.700 |ddv_scf|^2 =  7.494E-08

      iter #   3 total cpu time :    21.3 secs   av.it.:   9.3
      thresh= 2.738E-05 alpha_mix =  0.700 |ddv_scf|^2 =  4.495E-09

      iter #   4 total cpu time :    21.6 secs   av.it.:   8.5
      thresh= 6.705E-06 alpha_mix =  0.700 |ddv_scf|^2 =  6.561E-12

      iter #   5 total cpu time :    21.9 secs   av.it.:   8.9
      thresh= 2.562E-07 alpha_mix =  0.700 |ddv_scf|^2 =  2.571E-14

     End of self-consistent calculation

     Convergence has been achieved 

     Number of q in the star =    4
     List of q in the star:
          1   0.500000000  -0.500000000   0.500000000
          2   0.500000000   0.500000000   0.500000000
          3  -0.500000000   0.500000000   0.500000000
          4   0.500000000   0.500000000  -0.500000000

     Diagonalizing the dynamical matrix

     q = (    0.500000000  -0.500000000   0.500000000 ) 

 **************************************************************************
     freq (    1) =       5.115102 [THz] =     170.621429 [cm-1]
     freq (    2) =       5.115102 [THz] =     170.621429 [cm-1]
     freq (    3) =      11.874920 [THz] =     396.104687 [cm-1]
     freq (    4) =      12.177635 [THz] =     406.202191 [cm-1]
     freq (    5) =      14.676072 [THz] =     489.541079 [cm-1]
     freq (    6) =      14.676072 [THz] =     489.541079 [cm-1]
 **************************************************************************

     Calculation of q =    0.0000000   0.5000000   0.0000000

   Info: using nr1, nr2, nr3 values from input

   Info: using nr1, nr2, nr3 values from input

     Parallelization info
     --------------------
     sticks:   dense  smooth     PW     G-vecs:    dense   smooth      PW
     Min          66      66     27                  722      722     181
     Max          67      67     28                  724      724     182
     Sum         265     265    109                 2891     2891     725



     bravais-lattice index     =            2
     lattice parameter (alat)  =      10.4090  a.u.
     unit-cell volume          =     281.9467 (a.u.)^3
     number of atoms/cell      =            2
     number of atomic types    =            1
     number of electrons       =         8.00
     number of Kohn-Sham states=            4
     kinetic-energy cutoff     =      18.0000  Ry
     charge density cutoff     =      72.0000  Ry
     Exchange-correlation      = SLA  PW   PBE  PBE ( 1  4  3  4 0 0)

     celldm(1)=  10.409000  celldm(2)=   0.000000  celldm(3)=   0.000000
     celldm(4)=   0.000000  celldm(5)=   0.000000  celldm(6)=   0.000000

     crystal axes: (cart. coord. in units of alat)
               a(1) = (  -0.500000   0.000000   0.500000 )  
               a(2) = (   0.000000   0.500000   0.500000 )  
               a(3) = (  -0.500000   0.500000   0.000000 )  

     reciprocal axes: (cart. coord. in units 2 pi/alat)
               b(1) = ( -1.000000 -1.000000  1.000000 )  
               b(2) = (  1.000000  1.000000  1.000000 )  
               b(3) = ( -1.000000  1.000000 -1.000000 )  


     PseudoPot. # 1 for Si read from file:
     /home/max/quantum_espresso/qe-6.1/pseudo/si_pbe_v1.uspp.F.UPF.txt
     MD5 check sum: a056efeee980c13900f22a371efd63c1
     Pseudo is Ultrasoft + core correction, Zval =  4.0
     Generated by new atomic code, or converted to UPF format
     Using radial grid of  899 points,  6 beta functions with: 
                l(1) =   0
                l(2) =   0
                l(3) =   1
                l(4) =   1
                l(5) =   2
                l(6) =   2
     Q(r) pseudized with  8 coefficients,  rinner =    0.900   0.900   0.900
                                                       0.900   0.900

     atomic species   valence    mass     pseudopotential
        Si             4.00    28.08600     Si( 1.00)

     48 Sym. Ops., with inversion, found



   Cartesian axes

     site n.     atom                  positions (alat units)
         1           Si  tau(   1) = (   0.0000000   0.0000000   0.0000000  )
         2           Si  tau(   2) = (   0.2500000   0.2500000   0.2500000  )

     number of k points=    80
                       cart. coord. in units 2pi/alat
        k(    1) = (  -0.1250000   0.1250000   0.1250000), wk =   0.0312500
        k(    2) = (  -0.1250000   0.6250000   0.1250000), wk =   0.0000000
        k(    3) = (  -0.3750000   0.3750000  -0.1250000), wk =   0.0625000
        k(    4) = (  -0.3750000   0.8750000  -0.1250000), wk =   0.0000000
        k(    5) = (   0.3750000  -0.3750000   0.6250000), wk =   0.0625000
        k(    6) = (   0.3750000   0.1250000   0.6250000), wk =   0.0000000
        k(    7) = (   0.1250000  -0.1250000   0.3750000), wk =   0.0625000
        k(    8) = (   0.1250000   0.3750000   0.3750000), wk =   0.0000000
        k(    9) = (  -0.1250000   0.6250000   0.1250000), wk =   0.0312500
        k(   10) = (  -0.1250000   1.1250000   0.1250000), wk =   0.0000000
        k(   11) = (   0.6250000  -0.1250000   0.8750000), wk =   0.0625000
        k(   12) = (   0.6250000   0.3750000   0.8750000), wk =   0.0000000
        k(   13) = (   0.3750000   0.1250000   0.6250000), wk =   0.0625000
        k(   14) = (   0.3750000   0.6250000   0.6250000), wk =   0.0000000
        k(   15) = (  -0.1250000  -0.8750000   0.1250000), wk =   0.0312500
        k(   16) = (  -0.1250000  -0.3750000   0.1250000), wk =   0.0000000
        k(   17) = (  -0.3750000   0.3750000   0.3750000), wk =   0.0312500
        k(   18) = (  -0.3750000   0.8750000   0.3750000), wk =   0.0000000
        k(   19) = (   0.3750000  -0.3750000   1.1250000), wk =   0.0625000
        k(   20) = (   0.3750000   0.1250000   1.1250000), wk =   0.0000000
        k(   21) = (  -0.1250000  -0.1250000   0.1250000), wk =   0.0312500
        k(   22) = (  -0.1250000   0.3750000   0.1250000), wk =   0.0000000
        k(   23) = (   0.1250000  -0.3750000   0.3750000), wk =   0.0625000
        k(   24) = (   0.1250000   0.1250000   0.3750000), wk =   0.0000000
        k(   25) = (   0.3750000  -0.1250000   0.3750000), wk =   0.0312500
        k(   26) = (   0.3750000   0.3750000   0.3750000), wk =   0.0000000
        k(   27) = (   0.3750000   0.1250000   0.3750000), wk =   0.0312500
        k(   28) = (   0.3750000   0.6250000   0.3750000), wk =   0.0000000
        k(   29) = (  -0.6250000   0.3750000  -0.3750000), wk =   0.0625000
        k(   30) = (  -0.6250000   0.8750000  -0.3750000), wk =   0.0000000
        k(   31) = (  -0.3750000   0.6250000  -0.3750000), wk =   0.0312500
        k(   32) = (  -0.3750000   1.1250000  -0.3750000), wk =   0.0000000
        k(   33) = (  -0.3750000  -0.6250000  -0.3750000), wk =   0.0312500
        k(   34) = (  -0.3750000  -0.1250000  -0.3750000), wk =   0.0000000
        k(   35) = (  -0.3750000   0.1250000  -0.1250000), wk =   0.0625000
        k(   36) = (  -0.3750000   0.6250000  -0.1250000), wk =   0.0000000
        k(   37) = (  -0.1250000   0.3750000  -0.1250000), wk =   0.0312500
        k(   38) = (  -0.1250000   0.8750000  -0.1250000), wk =   0.0000000
        k(   39) = (  -0.1250000  -0.3750000  -0.1250000), wk =   0.0312500
        k(   40) = (  -0.1250000   0.1250000  -0.1250000), wk =   0.0000000
        k(   41) = (  -0.1250000  -0.6250000   0.1250000), wk =   0.0312500
        k(   42) = (  -0.1250000  -0.1250000   0.1250000), wk =   0.0000000
        k(   43) = (   0.6250000  -0.1250000  -0.1250000), wk =   0.0625000
        k(   44) = (   0.6250000   0.3750000  -0.1250000), wk =   0.0000000
        k(   45) = (   0.6250000   0.1250000   0.1250000), wk =   0.0625000
        k(   46) = (   0.6250000   0.6250000   0.1250000), wk =   0.0000000
        k(   47) = (  -0.8750000   0.1250000  -0.6250000), wk =   0.0625000
        k(   48) = (  -0.8750000   0.6250000  -0.6250000), wk =   0.0000000
        k(   49) = (  -0.1250000   0.6250000  -0.8750000), wk =   0.0625000
        k(   50) = (  -0.1250000   1.1250000  -0.8750000), wk =   0.0000000
        k(   51) = (  -0.1250000   0.8750000  -0.6250000), wk =   0.0625000
        k(   52) = (  -0.1250000   1.3750000  -0.6250000), wk =   0.0000000
        k(   53) = (  -0.1250000  -0.8750000  -0.6250000), wk =   0.0625000
        k(   54) = (  -0.1250000  -0.3750000  -0.6250000), wk =   0.0000000
        k(   55) = (   0.8750000  -0.6250000   0.1250000), wk =   0.0625000
        k(   56) = (   0.8750000  -0.1250000   0.1250000), wk =   0.0000000
        k(   57) = (  -0.6250000  -0.1250000  -0.3750000), wk =   0.0625000
        k(   58) = (  -0.6250000   0.3750000  -0.3750000), wk =   0.0000000
        k(   59) = (   0.1250000   0.3750000  -0.6250000), wk =   0.0625000
        k(   60) = (   0.1250000   0.8750000  -0.6250000), wk =   0.0000000
        k(   61) = (   0.1250000   0.6250000  -0.3750000), wk =   0.0625000
        k(   62) = (   0.1250000   1.1250000  -0.3750000), wk =   0.0000000
        k(   63) = (   0.1250000  -0.6250000  -0.3750000), wk =   0.0625000
        k(   64) = (   0.1250000  -0.1250000  -0.3750000), wk =   0.0000000
        k(   65) = (   0.6250000  -0.3750000  -0.1250000), wk =   0.0625000
        k(   66) = (   0.6250000   0.1250000  -0.1250000), wk =   0.0000000
        k(   67) = (  -0.1250000   0.8750000   0.1250000), wk =   0.0312500
        k(   68) = (  -0.1250000   1.3750000   0.1250000), wk =   0.0000000
        k(   69) = (  -0.8750000  -0.1250000  -0.1250000), wk =   0.0625000
        k(   70) = (  -0.8750000   0.3750000  -0.1250000), wk =   0.0000000
        k(   71) = (  -0.8750000   0.1250000   0.1250000), wk =   0.0625000
        k(   72) = (  -0.8750000   0.6250000   0.1250000), wk =   0.0000000
        k(   73) = (  -0.3750000  -0.3750000   0.3750000), wk =   0.0312500
        k(   74) = (  -0.3750000   0.1250000   0.3750000), wk =   0.0000000
        k(   75) = (  -1.1250000   0.3750000  -0.3750000), wk =   0.0625000
        k(   76) = (  -1.1250000   0.8750000  -0.3750000), wk =   0.0000000
        k(   77) = (  -0.3750000   1.1250000  -0.3750000), wk =   0.0312500
        k(   78) = (  -0.3750000   1.6250000  -0.3750000), wk =   0.0000000
        k(   79) = (  -0.3750000  -1.1250000  -0.3750000), wk =   0.0312500
        k(   80) = (  -0.3750000  -0.6250000  -0.3750000), wk =   0.0000000

     Dense  grid:     2891 G-vectors     FFT dimensions: (  20,  20,  20)

     Estimated max dynamical RAM per process >       0.33MB

     Estimated total allocated dynamical RAM >       1.34MB

     Check: negative/imaginary core charge=   -0.000006    0.000000

     The potential is recalculated from file :
     ./_ph0/silicon.10.409.save/charge-density.dat

     Starting wfc are    8 atomic wfcs

     Band Structure Calculation
     Davidson diagonalization with overlap

     ethr =  1.25E-10,  avg # of iterations = 11.7

     total cpu time spent up to now is        2.5 secs

     End of band structure calculation

          k =-0.1250 0.1250 0.1250 (   353 PWs)   bands (ev):

    -5.7101   4.1731   5.4846   5.4846

          k =-0.1250 0.6250 0.1250 (   357 PWs)   bands (ev):

    -4.1840   0.8605   3.2055   3.6444

          k =-0.3750 0.3750-0.1250 (   362 PWs)   bands (ev):

    -4.7064   1.2178   3.5409   5.0084

          k =-0.3750 0.8750-0.1250 (   368 PWs)   bands (ev):

    -2.5870  -1.0683   1.8941   2.9407

          k = 0.3750-0.3750 0.6250 (   364 PWs)   bands (ev):

    -3.6000  -0.8075   3.5494   4.2565

          k = 0.3750 0.1250 0.6250 (   365 PWs)   bands (ev):

    -3.7809   0.0193   2.5748   3.9148

          k = 0.1250-0.1250 0.3750 (   358 PWs)   bands (ev):

    -5.1933   2.5650   4.5009   4.5521

          k = 0.1250 0.3750 0.3750 (   362 PWs)   bands (ev):

    -4.7064   1.2178   3.5409   5.0084

          k =-0.1250 0.6250 0.1250 (   357 PWs)   bands (ev):

    -4.1840   0.8605   3.2055   3.6444

          k =-0.1250 1.1250 0.1250 (   364 PWs)   bands (ev):

    -2.7444  -0.9760   2.4851   3.1862

          k = 0.6250-0.1250 0.8750 (   368 PWs)   bands (ev):

    -2.5870  -1.0683   1.8941   2.9407

          k = 0.6250 0.3750 0.8750 (   365 PWs)   bands (ev):

    -3.7809   0.0193   2.5748   3.9148

          k = 0.3750 0.1250 0.6250 (   365 PWs)   bands (ev):

    -3.7809   0.0193   2.5748   3.9148

          k = 0.3750 0.6250 0.6250 (   364 PWs)   bands (ev):

    -3.6000  -0.8075   3.5494   4.2565

          k =-0.1250-0.8750 0.1250 (   364 PWs)   bands (ev):

    -2.7444  -0.9760   2.4851   3.1862

          k =-0.1250-0.3750 0.1250 (   358 PWs)   bands (ev):

    -5.1933   2.5650   4.5009   4.5521

          k =-0.3750 0.3750 0.3750 (   359 PWs)   bands (ev):

    -4.2855  -0.0341   4.7084   4.7084

          k =-0.3750 0.8750 0.3750 (   369 PWs)   bands (ev):

    -3.1143  -0.7516   1.9418   3.9478

          k = 0.3750-0.3750 1.1250 (   369 PWs)   bands (ev):

    -3.1143  -0.7516   1.9418   3.9478

          k = 0.3750 0.1250 1.1250 (   368 PWs)   bands (ev):

    -2.5870  -1.0683   1.8941   2.9407

          k =-0.1250-0.1250 0.1250 (   353 PWs)   bands (ev):

    -5.7101   4.1731   5.4846   5.4846

          k =-0.1250 0.3750 0.1250 (   358 PWs)   bands (ev):

    -5.1933   2.5650   4.5009   4.5521

          k = 0.1250-0.3750 0.3750 (   362 PWs)   bands (ev):

    -4.7064   1.2178   3.5409   5.0084

          k = 0.1250 0.1250 0.3750 (   358 PWs)   bands (ev):

    -5.1933   2.5650   4.5009   4.5521

          k = 0.3750-0.1250 0.3750 (   362 PWs)   bands (ev):

    -4.7064   1.2178   3.5409   5.0084

          k = 0.3750 0.3750 0.3750 (   359 PWs)   bands (ev):

    -4.2855  -0.0341   4.7084   4.7084

          k = 0.3750 0.1250 0.3750 (   362 PWs)   bands (ev):

    -4.7064   1.2178   3.5409   5.0084

          k = 0.3750 0.6250 0.3750 (   364 PWs)   bands (ev):

    -3.6000  -0.8075   3.5494   4.2565

          k =-0.6250 0.3750-0.3750 (   364 PWs)   bands (ev):

    -3.6000  -0.8075   3.5494   4.2565

          k =-0.6250 0.8750-0.3750 (   365 PWs)   bands (ev):

    -3.7809   0.0193   2.5748   3.9148

          k =-0.3750 0.6250-0.3750 (   364 PWs)   bands (ev):

    -3.6000  -0.8075   3.5494   4.2565

          k =-0.3750 1.1250-0.3750 (   369 PWs)   bands (ev):

    -3.1143  -0.7516   1.9418   3.9478

          k =-0.3750-0.6250-0.3750 (   364 PWs)   bands (ev):

    -3.6000  -0.8075   3.5494   4.2565

          k =-0.3750-0.1250-0.3750 (   362 PWs)   bands (ev):

    -4.7064   1.2178   3.5409   5.0084

          k =-0.3750 0.1250-0.1250 (   358 PWs)   bands (ev):

    -5.1933   2.5650   4.5009   4.5521

          k =-0.3750 0.6250-0.1250 (   365 PWs)   bands (ev):

    -3.7809   0.0193   2.5748   3.9148

          k =-0.1250 0.3750-0.1250 (   358 PWs)   bands (ev):

    -5.1933   2.5650   4.5009   4.5521

          k =-0.1250 0.8750-0.1250 (   364 PWs)   bands (ev):

    -2.7444  -0.9760   2.4851   3.1862

          k =-0.1250-0.3750-0.1250 (   358 PWs)   bands (ev):

    -5.1933   2.5650   4.5009   4.5521

          k =-0.1250 0.1250-0.1250 (   353 PWs)   bands (ev):

    -5.7101   4.1731   5.4846   5.4846

          k =-0.1250-0.6250 0.1250 (   357 PWs)   bands (ev):

    -4.1840   0.8605   3.2055   3.6444

          k =-0.1250-0.1250 0.1250 (   353 PWs)   bands (ev):

    -5.7101   4.1731   5.4846   5.4846

          k = 0.6250-0.1250-0.1250 (   357 PWs)   bands (ev):

    -4.1840   0.8605   3.2055   3.6444

          k = 0.6250 0.3750-0.1250 (   365 PWs)   bands (ev):

    -3.7809   0.0193   2.5748   3.9148

          k = 0.6250 0.1250 0.1250 (   357 PWs)   bands (ev):

    -4.1840   0.8605   3.2055   3.6444

          k = 0.6250 0.6250 0.1250 (   369 PWs)   bands (ev):

    -3.1143  -0.7516   1.9418   3.9478

          k =-0.8750 0.1250-0.6250 (   368 PWs)   bands (ev):

    -2.5870  -1.0683   1.8941   2.9407

          k =-0.8750 0.6250-0.6250 (   362 PWs)   bands (ev):

    -4.7064   1.2178   3.5409   5.0084

          k =-0.1250 0.6250-0.8750 (   368 PWs)   bands (ev):

    -2.5870  -1.0683   1.8941   2.9407

          k =-0.1250 1.1250-0.8750 (   364 PWs)   bands (ev):

    -2.7444  -0.9760   2.4851   3.1862

          k =-0.1250 0.8750-0.6250 (   368 PWs)   bands (ev):

    -2.5870  -1.0683   1.8941   2.9407

          k =-0.1250 1.3750-0.6250 (   369 PWs)   bands (ev):

    -3.1143  -0.7516   1.9418   3.9478

          k =-0.1250-0.8750-0.6250 (   368 PWs)   bands (ev):

    -2.5870  -1.0683   1.8941   2.9407

          k =-0.1250-0.3750-0.6250 (   365 PWs)   bands (ev):

    -3.7809   0.0193   2.5748   3.9148

          k = 0.8750-0.6250 0.1250 (   368 PWs)   bands (ev):

    -2.5870  -1.0683   1.8941   2.9407

          k = 0.8750-0.1250 0.1250 (   364 PWs)   bands (ev):

    -2.7444  -0.9760   2.4851   3.1862

          k =-0.6250-0.1250-0.3750 (   365 PWs)   bands (ev):

    -3.7809   0.0193   2.5748   3.9148

          k =-0.6250 0.3750-0.3750 (   364 PWs)   bands (ev):

    -3.6000  -0.8075   3.5494   4.2565

          k = 0.1250 0.3750-0.6250 (   365 PWs)   bands (ev):

    -3.7809   0.0193   2.5748   3.9148

          k = 0.1250 0.8750-0.6250 (   368 PWs)   bands (ev):

    -2.5870  -1.0683   1.8941   2.9407

          k = 0.1250 0.6250-0.3750 (   365 PWs)   bands (ev):

    -3.7809   0.0193   2.5748   3.9148

          k = 0.1250 1.1250-0.3750 (   368 PWs)   bands (ev):

    -2.5870  -1.0683   1.8941   2.9407

          k = 0.1250-0.6250-0.3750 (   365 PWs)   bands (ev):

    -3.7809   0.0193   2.5748   3.9148

          k = 0.1250-0.1250-0.3750 (   358 PWs)   bands (ev):

    -5.1933   2.5650   4.5009   4.5521

          k = 0.6250-0.3750-0.1250 (   365 PWs)   bands (ev):

    -3.7809   0.0193   2.5748   3.9148

          k = 0.6250 0.1250-0.1250 (   357 PWs)   bands (ev):

    -4.1840   0.8605   3.2055   3.6444

          k =-0.1250 0.8750 0.1250 (   364 PWs)   bands (ev):

    -2.7444  -0.9760   2.4851   3.1862

          k =-0.1250 1.3750 0.1250 (   357 PWs)   bands (ev):

    -4.1840   0.8605   3.2055   3.6444

          k =-0.8750-0.1250-0.1250 (   364 PWs)   bands (ev):

    -2.7444  -0.9760   2.4851   3.1862

          k =-0.8750 0.3750-0.1250 (   368 PWs)   bands (ev):

    -2.5870  -1.0683   1.8941   2.9407

          k =-0.8750 0.1250 0.1250 (   364 PWs)   bands (ev):

    -2.7444  -0.9760   2.4851   3.1862

          k =-0.8750 0.6250 0.1250 (   368 PWs)   bands (ev):

    -2.5870  -1.0683   1.8941   2.9407

          k =-0.3750-0.3750 0.3750 (   359 PWs)   bands (ev):

    -4.2855  -0.0341   4.7084   4.7084

          k =-0.3750 0.1250 0.3750 (   362 PWs)   bands (ev):

    -4.7064   1.2178   3.5409   5.0084

          k =-1.1250 0.3750-0.3750 (   369 PWs)   bands (ev):

    -3.1143  -0.7516   1.9418   3.9478

          k =-1.1250 0.8750-0.3750 (   357 PWs)   bands (ev):

    -4.1840   0.8605   3.2055   3.6444

          k =-0.3750 1.1250-0.3750 (   369 PWs)   bands (ev):

    -3.1143  -0.7516   1.9418   3.9478

          k =-0.3750 1.6250-0.3750 (   359 PWs)   bands (ev):

    -4.2855  -0.0341   4.7084   4.7084

          k =-0.3750-1.1250-0.3750 (   369 PWs)   bands (ev):

    -3.1143  -0.7516   1.9418   3.9478

          k =-0.3750-0.6250-0.3750 (   364 PWs)   bands (ev):

    -3.6000  -0.8075   3.5494   4.2565

     highest occupied level (ev):     5.4846

     Writing output data file silicon.10.409.save

                                                                                

     bravais-lattice index     =            2
     lattice parameter (alat)  =      10.4090  a.u.
     unit-cell volume          =     281.9467 (a.u.)^3
     number of atoms/cell      =            2
     number of atomic types    =            1
     kinetic-energy cut-off    =      18.0000  Ry
     charge density cut-off    =      72.0000  Ry
     convergence threshold     =      1.0E-12
     beta                      =       0.7000
     number of iterations used =            4
     Exchange-correlation      = SLA  PW   PBE  PBE ( 1  4  3  4 0 0)


     celldm(1)=   10.40900  celldm(2)=    0.00000  celldm(3)=    0.00000
     celldm(4)=    0.00000  celldm(5)=    0.00000  celldm(6)=    0.00000

     crystal axes: (cart. coord. in units of alat)
               a(1) = ( -0.5000  0.0000  0.5000 )  
               a(2) = (  0.0000  0.5000  0.5000 )  
               a(3) = ( -0.5000  0.5000  0.0000 )  

     reciprocal axes: (cart. coord. in units 2 pi/alat)
               b(1) = ( -1.0000 -1.0000  1.0000 )  
               b(2) = (  1.0000  1.0000  1.0000 )  
               b(3) = ( -1.0000  1.0000 -1.0000 )  


     Atoms inside the unit cell: 

     Cartesian axes

     site n.  atom      mass           positions (alat units)
        1     Si  28.0860   tau(    1) = (    0.00000    0.00000    0.00000  )
        2     Si  28.0860   tau(    2) = (    0.25000    0.25000    0.25000  )

     Computing dynamical matrix for 
                    q = (   0.0000000   0.5000000   0.0000000 )

      8 Sym.Ops. (no q -> -q+G )


     G cutoff =  197.6017  (    722 G-vectors)     FFT grid: ( 20, 20, 20)
     number of k points=    80

     PseudoPot. # 1 for Si read from file:
     /home/max/quantum_espresso/qe-6.1/pseudo/si_pbe_v1.uspp.F.UPF.txt
     MD5 check sum: a056efeee980c13900f22a371efd63c1
     Pseudo is Ultrasoft + core correction, Zval =  4.0
     Generated by new atomic code, or converted to UPF format
     Using radial grid of  899 points,  6 beta functions with: 
                l(1) =   0
                l(2) =   0
                l(3) =   1
                l(4) =   1
                l(5) =   2
                l(6) =   2
     Q(r) pseudized with  8 coefficients,  rinner =    0.900   0.900   0.900
                                                       0.900   0.900

     Mode symmetry, C_4v (4mm)  point group:


     Atomic displacements:
     There are   4 irreducible representations

     Representation     1      1 modes -A_1  G_1 D_1  To be done

     Representation     2      1 modes -B_2  G_4 D_2'  To be done

     Representation     3      2 modes -E    G_5 D_5  To be done

     Representation     4      2 modes -E    G_5 D_5  To be done



     Alpha used in Ewald sum =   0.7000
     PHONON       :    21.36s CPU        22.95s WALL



     Representation #  1 mode #   1

     Self-consistent Calculation

      iter #   1 total cpu time :    23.1 secs   av.it.:   5.8
      thresh= 1.000E-02 alpha_mix =  0.700 |ddv_scf|^2 =  2.918E-03

      iter #   2 total cpu time :    23.3 secs   av.it.:   7.6
      thresh= 5.402E-03 alpha_mix =  0.700 |ddv_scf|^2 =  3.882E-02

      iter #   3 total cpu time :    23.4 secs   av.it.:   6.7
      thresh= 1.000E-02 alpha_mix =  0.700 |ddv_scf|^2 =  1.464E-07

      iter #   4 total cpu time :    23.6 secs   av.it.:   8.1
      thresh= 3.826E-05 alpha_mix =  0.700 |ddv_scf|^2 =  1.660E-08

      iter #   5 total cpu time :    23.8 secs   av.it.:   7.8
      thresh= 1.289E-05 alpha_mix =  0.700 |ddv_scf|^2 =  6.739E-10

      iter #   6 total cpu time :    24.0 secs   av.it.:   8.0
      thresh= 2.596E-06 alpha_mix =  0.700 |ddv_scf|^2 =  2.577E-12

      iter #   7 total cpu time :    24.2 secs   av.it.:   8.0
      thresh= 1.605E-07 alpha_mix =  0.700 |ddv_scf|^2 =  4.988E-13

     End of self-consistent calculation

     Convergence has been achieved 


     Representation #  2 mode #   2

     Self-consistent Calculation

      iter #   1 total cpu time :    24.5 secs   av.it.:   4.9
      thresh= 1.000E-02 alpha_mix =  0.700 |ddv_scf|^2 =  5.134E-06

      iter #   2 total cpu time :    24.7 secs   av.it.:   8.7
      thresh= 2.266E-04 alpha_mix =  0.700 |ddv_scf|^2 =  1.348E-06

      iter #   3 total cpu time :    24.9 secs   av.it.:   8.5
      thresh= 1.161E-04 alpha_mix =  0.700 |ddv_scf|^2 =  3.185E-08

      iter #   4 total cpu time :    25.0 secs   av.it.:   8.2
      thresh= 1.785E-05 alpha_mix =  0.700 |ddv_scf|^2 =  7.762E-10

      iter #   5 total cpu time :    25.2 secs   av.it.:   8.6
      thresh= 2.786E-06 alpha_mix =  0.700 |ddv_scf|^2 =  8.173E-12

      iter #   6 total cpu time :    25.4 secs   av.it.:   7.8
      thresh= 2.859E-07 alpha_mix =  0.700 |ddv_scf|^2 =  9.618E-14

     End of self-consistent calculation

     Convergence has been achieved 


     Representation #  3 modes #   3  4

     Self-consistent Calculation

      iter #   1 total cpu time :    25.7 secs   av.it.:   5.0
      thresh= 1.000E-02 alpha_mix =  0.700 |ddv_scf|^2 =  9.393E-07

      iter #   2 total cpu time :    26.1 secs   av.it.:   9.8
      thresh= 9.692E-05 alpha_mix =  0.700 |ddv_scf|^2 =  1.192E-07

      iter #   3 total cpu time :    26.7 secs   av.it.:   9.5
      thresh= 3.453E-05 alpha_mix =  0.700 |ddv_scf|^2 =  4.964E-09

      iter #   4 total cpu time :    27.0 secs   av.it.:   8.9
      thresh= 7.045E-06 alpha_mix =  0.700 |ddv_scf|^2 =  8.874E-12

      iter #   5 total cpu time :    27.4 secs   av.it.:   9.1
      thresh= 2.979E-07 alpha_mix =  0.700 |ddv_scf|^2 =  3.026E-13

     End of self-consistent calculation

     Convergence has been achieved 


     Representation #  4 modes #   5  6

     Self-consistent Calculation

      iter #   1 total cpu time :    27.7 secs   av.it.:   5.0
      thresh= 1.000E-02 alpha_mix =  0.700 |ddv_scf|^2 =  9.437E-07

      iter #   2 total cpu time :    28.1 secs   av.it.:   9.8
      thresh= 9.714E-05 alpha_mix =  0.700 |ddv_scf|^2 =  1.198E-07

      iter #   3 total cpu time :    28.7 secs   av.it.:   9.5
      thresh= 3.461E-05 alpha_mix =  0.700 |ddv_scf|^2 =  7.414E-09

      iter #   4 total cpu time :    29.1 secs   av.it.:   8.9
      thresh= 8.611E-06 alpha_mix =  0.700 |ddv_scf|^2 =  1.555E-11

      iter #   5 total cpu time :    29.5 secs   av.it.:   9.2
      thresh= 3.943E-07 alpha_mix =  0.700 |ddv_scf|^2 =  4.606E-14

     End of self-consistent calculation

     Convergence has been achieved 

     Number of q in the star =    6
     List of q in the star:
          1   0.000000000   0.500000000   0.000000000
          2   0.000000000  -0.500000000   0.000000000
          3   0.500000000   0.000000000   0.000000000
          4   0.000000000   0.000000000   0.500000000
          5   0.000000000   0.000000000  -0.500000000
          6  -0.500000000   0.000000000   0.000000000

     Diagonalizing the dynamical matrix

     q = (    0.000000000   0.500000000   0.000000000 ) 

 **************************************************************************
     freq (    1) =       4.403434 [THz] =     146.882734 [cm-1]
     freq (    2) =       4.403434 [THz] =     146.882734 [cm-1]
     freq (    3) =       6.988752 [THz] =     233.119666 [cm-1]
     freq (    4) =      14.183195 [THz] =     473.100452 [cm-1]
     freq (    5) =      14.183195 [THz] =     473.100452 [cm-1]
     freq (    6) =      14.895851 [THz] =     496.872120 [cm-1]
 **************************************************************************

     Mode symmetry, C_4v (4mm)  point group:

     freq (  1 -  2) =        146.9  [cm-1]   --> E    G_5 D_5       
     freq (  3 -  3) =        233.1  [cm-1]   --> A_1  G_1 D_1       
     freq (  4 -  5) =        473.1  [cm-1]   --> E    G_5 D_5       
     freq (  6 -  6) =        496.9  [cm-1]   --> B_2  G_4 D_2'      

     Calculation of q =    0.7500000  -0.2500000   0.7500000

   Info: using nr1, nr2, nr3 values from input

   Info: using nr1, nr2, nr3 values from input

     Parallelization info
     --------------------
     sticks:   dense  smooth     PW     G-vecs:    dense   smooth      PW
     Min          65      65     30                  722      722     216
     Max          67      67     31                  723      723     218
     Sum         265     265    121                 2891     2891     869



     bravais-lattice index     =            2
     lattice parameter (alat)  =      10.4090  a.u.
     unit-cell volume          =     281.9467 (a.u.)^3
     number of atoms/cell      =            2
     number of atomic types    =            1
     number of electrons       =         8.00
     number of Kohn-Sham states=            4
     kinetic-energy cutoff     =      18.0000  Ry
     charge density cutoff     =      72.0000  Ry
     Exchange-correlation      = SLA  PW   PBE  PBE ( 1  4  3  4 0 0)

     celldm(1)=  10.409000  celldm(2)=   0.000000  celldm(3)=   0.000000
     celldm(4)=   0.000000  celldm(5)=   0.000000  celldm(6)=   0.000000

     crystal axes: (cart. coord. in units of alat)
               a(1) = (  -0.500000   0.000000   0.500000 )  
               a(2) = (   0.000000   0.500000   0.500000 )  
               a(3) = (  -0.500000   0.500000   0.000000 )  

     reciprocal axes: (cart. coord. in units 2 pi/alat)
               b(1) = ( -1.000000 -1.000000  1.000000 )  
               b(2) = (  1.000000  1.000000  1.000000 )  
               b(3) = ( -1.000000  1.000000 -1.000000 )  


     PseudoPot. # 1 for Si read from file:
     /home/max/quantum_espresso/qe-6.1/pseudo/si_pbe_v1.uspp.F.UPF.txt
     MD5 check sum: a056efeee980c13900f22a371efd63c1
     Pseudo is Ultrasoft + core correction, Zval =  4.0
     Generated by new atomic code, or converted to UPF format
     Using radial grid of  899 points,  6 beta functions with: 
                l(1) =   0
                l(2) =   0
                l(3) =   1
                l(4) =   1
                l(5) =   2
                l(6) =   2
     Q(r) pseudized with  8 coefficients,  rinner =    0.900   0.900   0.900
                                                       0.900   0.900

     atomic species   valence    mass     pseudopotential
        Si             4.00    28.08600     Si( 1.00)

     48 Sym. Ops., with inversion, found



   Cartesian axes

     site n.     atom                  positions (alat units)
         1           Si  tau(   1) = (   0.0000000   0.0000000   0.0000000  )
         2           Si  tau(   2) = (   0.2500000   0.2500000   0.2500000  )

     number of k points=   288

     Number of k-points >= 100: set verbosity='high' to print them.

     Dense  grid:     2891 G-vectors     FFT dimensions: (  20,  20,  20)

     Estimated max dynamical RAM per process >       0.33MB

     Estimated total allocated dynamical RAM >       1.34MB

     Check: negative/imaginary core charge=   -0.000006    0.000000

     The potential is recalculated from file :
     ./_ph0/silicon.10.409.save/charge-density.dat

     Starting wfc are    8 atomic wfcs

     Band Structure Calculation
     Davidson diagonalization with overlap

     ethr =  1.25E-10,  avg # of iterations = 11.6

     total cpu time spent up to now is        4.5 secs

     End of band structure calculation

     Number of k-points >= 100: set verbosity='high' to print the bands.

     highest occupied level (ev):     5.4846

     Writing output data file silicon.10.409.save

                                                                                

     bravais-lattice index     =            2
     lattice parameter (alat)  =      10.4090  a.u.
     unit-cell volume          =     281.9467 (a.u.)^3
     number of atoms/cell      =            2
     number of atomic types    =            1
     kinetic-energy cut-off    =      18.0000  Ry
     charge density cut-off    =      72.0000  Ry
     convergence threshold     =      1.0E-12
     beta                      =       0.7000
     number of iterations used =            4
     Exchange-correlation      = SLA  PW   PBE  PBE ( 1  4  3  4 0 0)


     celldm(1)=   10.40900  celldm(2)=    0.00000  celldm(3)=    0.00000
     celldm(4)=    0.00000  celldm(5)=    0.00000  celldm(6)=    0.00000

     crystal axes: (cart. coord. in units of alat)
               a(1) = ( -0.5000  0.0000  0.5000 )  
               a(2) = (  0.0000  0.5000  0.5000 )  
               a(3) = ( -0.5000  0.5000  0.0000 )  

     reciprocal axes: (cart. coord. in units 2 pi/alat)
               b(1) = ( -1.0000 -1.0000  1.0000 )  
               b(2) = (  1.0000  1.0000  1.0000 )  
               b(3) = ( -1.0000  1.0000 -1.0000 )  


     Atoms inside the unit cell: 

     Cartesian axes

     site n.  atom      mass           positions (alat units)
        1     Si  28.0860   tau(    1) = (    0.00000    0.00000    0.00000  )
        2     Si  28.0860   tau(    2) = (    0.25000    0.25000    0.25000  )

     Computing dynamical matrix for 
                    q = (   0.7500000  -0.2500000   0.7500000 )

      2 Sym.Ops. (no q -> -q+G )


     G cutoff =  197.6017  (    723 G-vectors)     FFT grid: ( 20, 20, 20)
     number of k points=   288

     PseudoPot. # 1 for Si read from file:
     /home/max/quantum_espresso/qe-6.1/pseudo/si_pbe_v1.uspp.F.UPF.txt
     MD5 check sum: a056efeee980c13900f22a371efd63c1
     Pseudo is Ultrasoft + core correction, Zval =  4.0
     Generated by new atomic code, or converted to UPF format
     Using radial grid of  899 points,  6 beta functions with: 
                l(1) =   0
                l(2) =   0
                l(3) =   1
                l(4) =   1
                l(5) =   2
                l(6) =   2
     Q(r) pseudized with  8 coefficients,  rinner =    0.900   0.900   0.900
                                                       0.900   0.900

     Mode symmetry, C_s (m)     point group:


     Atomic displacements:
     There are   6 irreducible representations

     Representation     1      1 modes -A'  To be done

     Representation     2      1 modes -A'  To be done

     Representation     3      1 modes -A'  To be done

     Representation     4      1 modes -A'  To be done

     Representation     5      1 modes -A''  To be done

     Representation     6      1 modes -A''  To be done



     Alpha used in Ewald sum =   0.7000
     PHONON       :    29.91s CPU        32.16s WALL



     Representation #  1 mode #   1

     Self-consistent Calculation

      iter #   1 total cpu time :    32.8 secs   av.it.:   5.3
      thresh= 1.000E-02 alpha_mix =  0.700 |ddv_scf|^2 =  6.028E-05

      iter #   2 total cpu time :    33.5 secs   av.it.:   8.9
      thresh= 7.764E-04 alpha_mix =  0.700 |ddv_scf|^2 =  1.603E-04

      iter #   3 total cpu time :    34.1 secs   av.it.:   7.6
      thresh= 1.266E-03 alpha_mix =  0.700 |ddv_scf|^2 =  1.128E-06

      iter #   4 total cpu time :    34.9 secs   av.it.:   8.4
      thresh= 1.062E-04 alpha_mix =  0.700 |ddv_scf|^2 =  5.814E-08

      iter #   5 total cpu time :    35.5 secs   av.it.:   8.3
      thresh= 2.411E-05 alpha_mix =  0.700 |ddv_scf|^2 =  7.320E-09

      iter #   6 total cpu time :    36.2 secs   av.it.:   8.5
      thresh= 8.556E-06 alpha_mix =  0.700 |ddv_scf|^2 =  9.730E-11

      iter #   7 total cpu time :    37.0 secs   av.it.:   8.7
      thresh= 9.864E-07 alpha_mix =  0.700 |ddv_scf|^2 =  3.336E-12

      iter #   8 total cpu time :    37.6 secs   av.it.:   8.6
      thresh= 1.826E-07 alpha_mix =  0.700 |ddv_scf|^2 =  1.976E-13

     End of self-consistent calculation

     Convergence has been achieved 


     Representation #  2 mode #   2

     Self-consistent Calculation

      iter #   1 total cpu time :    38.2 secs   av.it.:   5.4
      thresh= 1.000E-02 alpha_mix =  0.700 |ddv_scf|^2 =  1.074E-04

      iter #   2 total cpu time :    39.0 secs   av.it.:   8.7
      thresh= 1.036E-03 alpha_mix =  0.700 |ddv_scf|^2 =  3.086E-04

      iter #   3 total cpu time :    39.6 secs   av.it.:   7.4
      thresh= 1.757E-03 alpha_mix =  0.700 |ddv_scf|^2 =  8.074E-07

      iter #   4 total cpu time :    40.2 secs   av.it.:   8.5
      thresh= 8.985E-05 alpha_mix =  0.700 |ddv_scf|^2 =  5.629E-08

      iter #   5 total cpu time :    41.0 secs   av.it.:   8.3
      thresh= 2.373E-05 alpha_mix =  0.700 |ddv_scf|^2 =  1.069E-08

      iter #   6 total cpu time :    41.7 secs   av.it.:   8.5
      thresh= 1.034E-05 alpha_mix =  0.700 |ddv_scf|^2 =  9.613E-11

      iter #   7 total cpu time :    42.5 secs   av.it.:   8.7
      thresh= 9.805E-07 alpha_mix =  0.700 |ddv_scf|^2 =  3.023E-12

      iter #   8 total cpu time :    43.1 secs   av.it.:   8.7
      thresh= 1.739E-07 alpha_mix =  0.700 |ddv_scf|^2 =  8.524E-13

     End of self-consistent calculation

     Convergence has been achieved 


     Representation #  3 mode #   3

     Self-consistent Calculation

      iter #   1 total cpu time :    43.7 secs   av.it.:   5.3
      thresh= 1.000E-02 alpha_mix =  0.700 |ddv_scf|^2 =  8.424E-05

      iter #   2 total cpu time :    44.5 secs   av.it.:   8.7
      thresh= 9.178E-04 alpha_mix =  0.700 |ddv_scf|^2 =  2.259E-04

      iter #   3 total cpu time :    45.1 secs   av.it.:   7.4
      thresh= 1.503E-03 alpha_mix =  0.700 |ddv_scf|^2 =  1.374E-06

      iter #   4 total cpu time :    45.7 secs   av.it.:   8.2
      thresh= 1.172E-04 alpha_mix =  0.700 |ddv_scf|^2 =  5.788E-08

      iter #   5 total cpu time :    46.5 secs   av.it.:   8.4
      thresh= 2.406E-05 alpha_mix =  0.700 |ddv_scf|^2 =  1.103E-08

      iter #   6 total cpu time :    47.1 secs   av.it.:   8.5
      thresh= 1.050E-05 alpha_mix =  0.700 |ddv_scf|^2 =  5.474E-11

      iter #   7 total cpu time :    47.8 secs   av.it.:   8.7
      thresh= 7.399E-07 alpha_mix =  0.700 |ddv_scf|^2 =  2.108E-12

      iter #   8 total cpu time :    48.6 secs   av.it.:   8.8
      thresh= 1.452E-07 alpha_mix =  0.700 |ddv_scf|^2 =  4.784E-13

     End of self-consistent calculation

     Convergence has been achieved 


     Representation #  4 mode #   4

     Self-consistent Calculation

      iter #   1 total cpu time :    49.1 secs   av.it.:   5.2
      thresh= 1.000E-02 alpha_mix =  0.700 |ddv_scf|^2 =  3.716E-05

      iter #   2 total cpu time :    49.8 secs   av.it.:   8.9
[...]
        k(   59) = (  -0.8750000   0.1250000  -0.1250000), wk =   0.0625000
        k(   60) = (  -1.3750000  -0.8750000  -0.1250000), wk =   0.0000000
        k(   61) = (  -1.1250000   0.3750000  -0.3750000), wk =   0.0625000
        k(   62) = (  -1.6250000  -0.6250000  -0.3750000), wk =   0.0000000
        k(   63) = (  -0.3750000   0.3750000   1.1250000), wk =   0.0625000
        k(   64) = (  -0.8750000  -0.6250000   1.1250000), wk =   0.0000000

     Dense  grid:     2891 G-vectors     FFT dimensions: (  20,  20,  20)

     Estimated max dynamical RAM per process >       0.33MB

     Estimated total allocated dynamical RAM >       1.34MB

     Check: negative/imaginary core charge=   -0.000006    0.000000

     The potential is recalculated from file :
     ./_ph0/silicon.10.409.save/charge-density.dat

     Starting wfc are    8 atomic wfcs

     Band Structure Calculation
     Davidson diagonalization with overlap

     ethr =  1.25E-10,  avg # of iterations = 11.6

     total cpu time spent up to now is        6.7 secs

     End of band structure calculation

          k =-0.1250 0.1250 0.1250 (   353 PWs)   bands (ev):

    -5.7101   4.1731   5.4846   5.4846

          k =-0.6250-0.8750 0.1250 (   368 PWs)   bands (ev):

    -2.5870  -1.0683   1.8941   2.9407

          k =-0.3750 0.3750-0.1250 (   362 PWs)   bands (ev):

    -4.7064   1.2178   3.5409   5.0084

          k =-0.8750-0.6250-0.1250 (   368 PWs)   bands (ev):

    -2.5870  -1.0683   1.8941   2.9407

          k = 0.3750-0.3750 0.6250 (   364 PWs)   bands (ev):

    -3.6000  -0.8075   3.5494   4.2565

          k =-0.1250-1.3750 0.6250 (   369 PWs)   bands (ev):

    -3.1143  -0.7516   1.9418   3.9478

          k = 0.1250-0.1250 0.3750 (   358 PWs)   bands (ev):

    -5.1933   2.5650   4.5009   4.5521

          k =-0.3750-1.1250 0.3750 (   369 PWs)   bands (ev):

    -3.1143  -0.7516   1.9418   3.9478

          k =-0.1250 0.6250 0.1250 (   357 PWs)   bands (ev):

    -4.1840   0.8605   3.2055   3.6444

          k =-0.6250-0.3750 0.1250 (   365 PWs)   bands (ev):

    -3.7809   0.0193   2.5748   3.9148

          k = 0.6250-0.1250 0.8750 (   368 PWs)   bands (ev):

    -2.5870  -1.0683   1.8941   2.9407

          k = 0.1250-1.1250 0.8750 (   364 PWs)   bands (ev):

    -2.7444  -0.9760   2.4851   3.1862

          k = 0.3750 0.1250 0.6250 (   365 PWs)   bands (ev):

    -3.7809   0.0193   2.5748   3.9148

          k =-0.1250-0.8750 0.6250 (   368 PWs)   bands (ev):

    -2.5870  -1.0683   1.8941   2.9407

          k =-0.1250-0.8750 0.1250 (   364 PWs)   bands (ev):

    -2.7444  -0.9760   2.4851   3.1862

          k =-0.6250-1.8750 0.1250 (   357 PWs)   bands (ev):

    -4.1840   0.8605   3.2055   3.6444

          k =-0.3750 0.3750 0.3750 (   359 PWs)   bands (ev):

    -4.2855  -0.0341   4.7084   4.7084

          k =-0.8750-0.6250 0.3750 (   365 PWs)   bands (ev):

    -3.7809   0.0193   2.5748   3.9148

          k = 0.3750-0.3750 1.1250 (   369 PWs)   bands (ev):

    -3.1143  -0.7516   1.9418   3.9478

          k =-0.1250-1.3750 1.1250 (   368 PWs)   bands (ev):

    -2.5870  -1.0683   1.8941   2.9407

          k = 0.1250-0.3750 0.3750 (   362 PWs)   bands (ev):

    -4.7064   1.2178   3.5409   5.0084

          k =-0.3750-1.3750 0.3750 (   364 PWs)   bands (ev):

    -3.6000  -0.8075   3.5494   4.2565

          k = 0.3750-0.3750-0.1250 (   362 PWs)   bands (ev):

    -4.7064   1.2178   3.5409   5.0084

          k =-0.1250-1.3750-0.1250 (   357 PWs)   bands (ev):

    -4.1840   0.8605   3.2055   3.6444

          k =-0.6250 0.3750-0.3750 (   364 PWs)   bands (ev):

    -3.6000  -0.8075   3.5494   4.2565

          k =-1.1250-0.6250-0.3750 (   365 PWs)   bands (ev):

    -3.7809   0.0193   2.5748   3.9148

          k =-0.3750 0.3750 0.6250 (   364 PWs)   bands (ev):

    -3.6000  -0.8075   3.5494   4.2565

          k =-0.8750-0.6250 0.6250 (   362 PWs)   bands (ev):

    -4.7064   1.2178   3.5409   5.0084

          k =-0.3750 0.1250-0.1250 (   358 PWs)   bands (ev):

    -5.1933   2.5650   4.5009   4.5521

          k =-0.8750-0.8750-0.1250 (   364 PWs)   bands (ev):

    -2.7444  -0.9760   2.4851   3.1862

          k =-0.1250 0.1250 0.3750 (   358 PWs)   bands (ev):

    -5.1933   2.5650   4.5009   4.5521

          k =-0.6250-0.8750 0.3750 (   365 PWs)   bands (ev):

    -3.7809   0.0193   2.5748   3.9148

          k = 0.1250 0.6250-0.1250 (   357 PWs)   bands (ev):

    -4.1840   0.8605   3.2055   3.6444

          k =-0.3750-0.3750-0.1250 (   362 PWs)   bands (ev):

    -4.7064   1.2178   3.5409   5.0084

          k = 0.6250 0.1250-0.1250 (   357 PWs)   bands (ev):

    -4.1840   0.8605   3.2055   3.6444

          k = 0.1250-0.8750-0.1250 (   364 PWs)   bands (ev):

    -2.7444  -0.9760   2.4851   3.1862

          k =-0.8750 0.1250-0.6250 (   368 PWs)   bands (ev):

    -2.5870  -1.0683   1.8941   2.9407

          k =-1.3750-0.8750-0.6250 (   362 PWs)   bands (ev):

    -4.7064   1.2178   3.5409   5.0084

          k = 0.8750-0.1250 0.6250 (   368 PWs)   bands (ev):

    -2.5870  -1.0683   1.8941   2.9407

          k = 0.3750-1.1250 0.6250 (   365 PWs)   bands (ev):

    -3.7809   0.0193   2.5748   3.9148

          k =-0.6250 0.1250 0.8750 (   368 PWs)   bands (ev):

    -2.5870  -1.0683   1.8941   2.9407

          k =-1.1250-0.8750 0.8750 (   353 PWs)   bands (ev):

    -5.7101   4.1731   5.4846   5.4846

          k =-0.1250 0.8750 0.6250 (   368 PWs)   bands (ev):

    -2.5870  -1.0683   1.8941   2.9407

          k =-0.6250-0.1250 0.6250 (   369 PWs)   bands (ev):

    -3.1143  -0.7516   1.9418   3.9478

          k = 0.1250 0.8750-0.6250 (   368 PWs)   bands (ev):

    -2.5870  -1.0683   1.8941   2.9407

          k =-0.3750-0.1250-0.6250 (   365 PWs)   bands (ev):

    -3.7809   0.0193   2.5748   3.9148

          k =-0.6250-0.1250-0.3750 (   365 PWs)   bands (ev):

    -3.7809   0.0193   2.5748   3.9148

          k =-1.1250-1.1250-0.3750 (   357 PWs)   bands (ev):

    -4.1840   0.8605   3.2055   3.6444

          k = 0.6250 0.1250 0.3750 (   365 PWs)   bands (ev):

    -3.7809   0.0193   2.5748   3.9148

          k = 0.1250-0.8750 0.3750 (   368 PWs)   bands (ev):

    -2.5870  -1.0683   1.8941   2.9407

          k =-0.3750-0.1250 0.6250 (   365 PWs)   bands (ev):

    -3.7809   0.0193   2.5748   3.9148

          k =-0.8750-1.1250 0.6250 (   358 PWs)   bands (ev):

    -5.1933   2.5650   4.5009   4.5521

          k = 0.1250 0.6250 0.3750 (   365 PWs)   bands (ev):

    -3.7809   0.0193   2.5748   3.9148

          k =-0.3750-0.3750 0.3750 (   359 PWs)   bands (ev):

    -4.2855  -0.0341   4.7084   4.7084

          k =-0.1250 0.6250-0.3750 (   365 PWs)   bands (ev):

    -3.7809   0.0193   2.5748   3.9148

          k =-0.6250-0.3750-0.3750 (   364 PWs)   bands (ev):

    -3.6000  -0.8075   3.5494   4.2565

          k = 0.1250-0.8750-0.1250 (   364 PWs)   bands (ev):

    -2.7444  -0.9760   2.4851   3.1862

          k =-0.3750-1.8750-0.1250 (   358 PWs)   bands (ev):

    -5.1933   2.5650   4.5009   4.5521

          k =-0.8750 0.1250-0.1250 (   364 PWs)   bands (ev):

    -2.7444  -0.9760   2.4851   3.1862

          k =-1.3750-0.8750-0.1250 (   368 PWs)   bands (ev):

    -2.5870  -1.0683   1.8941   2.9407

          k =-1.1250 0.3750-0.3750 (   369 PWs)   bands (ev):

    -3.1143  -0.7516   1.9418   3.9478

          k =-1.6250-0.6250-0.3750 (   364 PWs)   bands (ev):

    -3.6000  -0.8075   3.5494   4.2565

          k =-0.3750 0.3750 1.1250 (   369 PWs)   bands (ev):

    -3.1143  -0.7516   1.9418   3.9478

          k =-0.8750-0.6250 1.1250 (   358 PWs)   bands (ev):

    -5.1933   2.5650   4.5009   4.5521

     highest occupied level (ev):     5.4846

     Writing output data file silicon.10.409.save

                                                                                

     bravais-lattice index     =            2
     lattice parameter (alat)  =      10.4090  a.u.
     unit-cell volume          =     281.9467 (a.u.)^3
     number of atoms/cell      =            2
     number of atomic types    =            1
     kinetic-energy cut-off    =      18.0000  Ry
     charge density cut-off    =      72.0000  Ry
     convergence threshold     =      1.0E-12
     beta                      =       0.7000
     number of iterations used =            4
     Exchange-correlation      = SLA  PW   PBE  PBE ( 1  4  3  4 0 0)


     celldm(1)=   10.40900  celldm(2)=    0.00000  celldm(3)=    0.00000
     celldm(4)=    0.00000  celldm(5)=    0.00000  celldm(6)=    0.00000

     crystal axes: (cart. coord. in units of alat)
               a(1) = ( -0.5000  0.0000  0.5000 )  
               a(2) = (  0.0000  0.5000  0.5000 )  
               a(3) = ( -0.5000  0.5000  0.0000 )  

     reciprocal axes: (cart. coord. in units 2 pi/alat)
               b(1) = ( -1.0000 -1.0000  1.0000 )  
               b(2) = (  1.0000  1.0000  1.0000 )  
               b(3) = ( -1.0000  1.0000 -1.0000 )  


     Atoms inside the unit cell: 

     Cartesian axes

     site n.  atom      mass           positions (alat units)
        1     Si  28.0860   tau(    1) = (    0.00000    0.00000    0.00000  )
        2     Si  28.0860   tau(    2) = (    0.25000    0.25000    0.25000  )

     Computing dynamical matrix for 
                    q = (  -0.5000000  -1.0000000   0.0000000 )

      8 Sym.Ops. (no q -> -q+G )


     G cutoff =  197.6017  (    722 G-vectors)     FFT grid: ( 20, 20, 20)
     number of k points=    64

     PseudoPot. # 1 for Si read from file:
     /home/max/quantum_espresso/qe-6.1/pseudo/si_pbe_v1.uspp.F.UPF.txt
     MD5 check sum: a056efeee980c13900f22a371efd63c1
     Pseudo is Ultrasoft + core correction, Zval =  4.0
     Generated by new atomic code, or converted to UPF format
     Using radial grid of  899 points,  6 beta functions with: 
                l(1) =   0
                l(2) =   0
                l(3) =   1
                l(4) =   1
                l(5) =   2
                l(6) =   2
     Q(r) pseudized with  8 coefficients,  rinner =    0.900   0.900   0.900
                                                       0.900   0.900


     Atomic displacements:
     There are   3 irreducible representations

     Representation     1      2 modes -  To be done

     Representation     2      2 modes -  To be done

     Representation     3      2 modes -  To be done



     Alpha used in Ewald sum =   0.7000
     PHONON       :  1m14.13s CPU     1m19.72s WALL



     Representation #  1 modes #   1  2

     Self-consistent Calculation

      iter #   1 total cpu time :    80.0 secs   av.it.:   5.3
      thresh= 1.000E-02 alpha_mix =  0.700 |ddv_scf|^2 =  6.301E-06

      iter #   2 total cpu time :    80.3 secs   av.it.:   9.8
      thresh= 2.510E-04 alpha_mix =  0.700 |ddv_scf|^2 =  3.389E-06

      iter #   3 total cpu time :    80.8 secs   av.it.:   9.3
      thresh= 1.841E-04 alpha_mix =  0.700 |ddv_scf|^2 =  8.565E-09

      iter #   4 total cpu time :    81.1 secs   av.it.:   9.1
      thresh= 9.255E-06 alpha_mix =  0.700 |ddv_scf|^2 =  2.568E-11

      iter #   5 total cpu time :    81.4 secs   av.it.:   9.0
      thresh= 5.068E-07 alpha_mix =  0.700 |ddv_scf|^2 =  6.978E-13

     End of self-consistent calculation

     Convergence has been achieved 


     Representation #  2 modes #   3  4

     Self-consistent Calculation

      iter #   1 total cpu time :    81.6 secs   av.it.:   5.2
      thresh= 1.000E-02 alpha_mix =  0.700 |ddv_scf|^2 =  9.688E-06

      iter #   2 total cpu time :    82.0 secs   av.it.:   9.9
      thresh= 3.113E-04 alpha_mix =  0.700 |ddv_scf|^2 =  1.321E-05

      iter #   3 total cpu time :    82.3 secs   av.it.:   9.1
      thresh= 3.634E-04 alpha_mix =  0.700 |ddv_scf|^2 =  1.023E-08

      iter #   4 total cpu time :    82.8 secs   av.it.:   8.9
      thresh= 1.012E-05 alpha_mix =  0.700 |ddv_scf|^2 =  9.860E-11

      iter #   5 total cpu time :    83.1 secs   av.it.:   9.4
      thresh= 9.930E-07 alpha_mix =  0.700 |ddv_scf|^2 =  1.880E-12

      iter #   6 total cpu time :    83.4 secs   av.it.:   9.1
      thresh= 1.371E-07 alpha_mix =  0.700 |ddv_scf|^2 =  1.641E-14

     End of self-consistent calculation

     Convergence has been achieved 


     Representation #  3 modes #   5  6

     Self-consistent Calculation

      iter #   1 total cpu time :    83.6 secs   av.it.:   5.1
      thresh= 1.000E-02 alpha_mix =  0.700 |ddv_scf|^2 =  2.620E-06

      iter #   2 total cpu time :    84.0 secs   av.it.:   9.7
      thresh= 1.619E-04 alpha_mix =  0.700 |ddv_scf|^2 =  1.430E-06

      iter #   3 total cpu time :    84.3 secs   av.it.:   9.0
      thresh= 1.196E-04 alpha_mix =  0.700 |ddv_scf|^2 =  8.176E-09

      iter #   4 total cpu time :    84.7 secs   av.it.:   8.7
      thresh= 9.042E-06 alpha_mix =  0.700 |ddv_scf|^2 =  4.738E-11

      iter #   5 total cpu time :    85.0 secs   av.it.:   9.1
      thresh= 6.884E-07 alpha_mix =  0.700 |ddv_scf|^2 =  7.298E-13

     End of self-consistent calculation

     Convergence has been achieved 

     Number of q in the star =    6
     List of q in the star:
          1  -0.500000000  -1.000000000   0.000000000
          2   0.000000000   1.000000000   0.500000000
          3   0.000000000  -1.000000000  -0.500000000
          4   0.500000000   1.000000000   0.000000000
          5  -1.000000000  -0.500000000   0.000000000
          6   0.000000000  -0.500000000  -1.000000000

     Diagonalizing the dynamical matrix

     q = (   -0.500000000  -1.000000000   0.000000000 ) 

 **************************************************************************
     freq (    1) =       7.818559 [THz] =     260.799049 [cm-1]
     freq (    2) =       7.818559 [THz] =     260.799049 [cm-1]
     freq (    3) =      11.007515 [THz] =     367.171177 [cm-1]
     freq (    4) =      11.007515 [THz] =     367.171177 [cm-1]
     freq (    5) =      13.711953 [THz] =     457.381522 [cm-1]
     freq (    6) =      13.711953 [THz] =     457.381522 [cm-1]
 **************************************************************************

     init_run     :      0.51s CPU      0.54s WALL (       7 calls)
     electrons    :      5.00s CPU      5.46s WALL (       7 calls)

     Called by init_run:
     wfcinit      :      0.00s CPU      0.00s WALL (       7 calls)
     potinit      :      0.02s CPU      0.02s WALL (       7 calls)

     Called by electrons:
     c_bands      :      5.00s CPU      5.45s WALL (       7 calls)
     v_of_rho     :      0.01s CPU      0.01s WALL (       8 calls)
     newd         :      0.03s CPU      0.03s WALL (       8 calls)

     Called by c_bands:
     init_us_2    :      0.69s CPU      0.73s WALL (   17588 calls)
     cegterg      :      4.21s CPU      4.61s WALL (     796 calls)

     Called by sum_band:

     Called by *egterg:
     h_psi        :     43.69s CPU     46.84s WALL (  152283 calls)
     s_psi        :      5.82s CPU      6.21s WALL (  309286 calls)
     g_psi        :      0.03s CPU      0.03s WALL (    9268 calls)
     cdiaghg      :      0.48s CPU      0.55s WALL (   10064 calls)

     Called by h_psi:
     h_psi:pot    :     43.50s CPU     46.64s WALL (  152283 calls)
     h_psi:calbec :      4.60s CPU      4.98s WALL (  152283 calls)
     vloc_psi     :     35.77s CPU     38.36s WALL (  152283 calls)
     add_vuspsi   :      2.91s CPU      3.08s WALL (  152283 calls)

     General routines
     calbec       :      9.96s CPU     10.81s WALL (  345658 calls)
     fft          :      0.31s CPU      0.32s WALL (    5239 calls)
     ffts         :      0.14s CPU      0.16s WALL (    2748 calls)
     fftw         :     41.36s CPU     44.43s WALL ( 1378790 calls)
     davcio       :      0.32s CPU      0.35s WALL (   79045 calls)

     Parallel routines
     fft_scatter  :      9.48s CPU     10.64s WALL ( 1386777 calls)

     PHONON       :  1m19.11s CPU     1m25.06s WALL

     INITIALIZATION: 
     phq_setup    :      0.05s CPU      0.06s WALL (       8 calls)
     phq_init     :      1.92s CPU      1.96s WALL (       8 calls)

     phq_init     :      1.92s CPU      1.96s WALL (       8 calls)
     set_drhoc    :      0.29s CPU      0.29s WALL (      24 calls)
     init_vloc    :      0.01s CPU      0.01s WALL (       8 calls)
     init_us_1    :      0.49s CPU      0.49s WALL (       8 calls)
     newd         :      0.03s CPU      0.03s WALL (       8 calls)
     dvanqq       :      0.24s CPU      0.24s WALL (       8 calls)
     drho         :      0.96s CPU      1.00s WALL (       8 calls)

     DYNAMICAL MATRIX:
     dynmat0      :      0.48s CPU      0.49s WALL (       8 calls)
     phqscf       :     69.20s CPU     74.43s WALL (       8 calls)
     dynmatrix    :      0.01s CPU      0.02s WALL (       8 calls)

     phqscf       :     69.20s CPU     74.43s WALL (       8 calls)
     solve_linter :     68.50s CPU     73.71s WALL (      32 calls)
     drhodv       :      0.49s CPU      0.51s WALL (      32 calls)

     dynmat0      :      0.48s CPU      0.49s WALL (       8 calls)
     dynmat_us    :      0.27s CPU      0.27s WALL (       8 calls)
     d2ionq       :      0.01s CPU      0.01s WALL (       8 calls)
     dynmatcc     :      0.21s CPU      0.21s WALL (       8 calls)

     dynmat_us    :      0.27s CPU      0.27s WALL (       8 calls)
     addusdynmat  :      0.00s CPU      0.00s WALL (       8 calls)

     phqscf       :     69.20s CPU     74.43s WALL (       8 calls)
     solve_linter :     68.50s CPU     73.71s WALL (      32 calls)

     solve_linter :     68.50s CPU     73.71s WALL (      32 calls)
     dvqpsi_us    :      1.65s CPU      1.78s WALL (    2508 calls)
     ortho        :      1.19s CPU      1.27s WALL (   15550 calls)
     cgsolve      :     53.65s CPU     57.75s WALL (   15550 calls)
     incdrhoscf   :      4.63s CPU      5.02s WALL (   15550 calls)
     addusddens   :      1.13s CPU      1.15s WALL (     228 calls)
     vpsifft      :      3.38s CPU      3.66s WALL (   12922 calls)
     dv_of_drho   :      0.20s CPU      0.20s WALL (     295 calls)
     mix_pot      :      0.05s CPU      0.06s WALL (     201 calls)
     psymdvscf    :      0.79s CPU      0.81s WALL (     196 calls)
     newdq        :      1.25s CPU      1.31s WALL (     201 calls)
     adddvscf     :      0.46s CPU      0.49s WALL (   13042 calls)
     drhodvus     :      0.00s CPU      0.00s WALL (      32 calls)

     dvqpsi_us    :      1.65s CPU      1.78s WALL (    2508 calls)
     dvqpsi_us_on :      0.82s CPU      0.85s WALL (    2508 calls)

     cgsolve      :     53.65s CPU     57.75s WALL (   15550 calls)
     ch_psi       :     51.77s CPU     55.58s WALL (  141423 calls)

     ch_psi       :     51.77s CPU     55.58s WALL (  141423 calls)
     h_psi        :     43.69s CPU     46.84s WALL (  152283 calls)
     last         :      8.47s CPU      9.21s WALL (  141423 calls)

     h_psi        :     43.69s CPU     46.84s WALL (  152283 calls)
     add_vuspsi   :      2.91s CPU      3.08s WALL (  152283 calls)

     incdrhoscf   :      4.63s CPU      5.02s WALL (   15550 calls)
     addusdbec    :      0.64s CPU      0.71s WALL (   17998 calls)

     drhodvus     :      0.00s CPU      0.00s WALL (      32 calls)

      General routines
     calbec       :      9.96s CPU     10.81s WALL (  345658 calls)
     fft          :      0.31s CPU      0.32s WALL (    5239 calls)
     ffts         :      0.14s CPU      0.16s WALL (    2748 calls)
     fftw         :     41.36s CPU     44.43s WALL ( 1378790 calls)
     davcio       :      0.32s CPU      0.35s WALL (   79045 calls)
     write_rec    :      0.21s CPU      0.23s WALL (     233 calls)


     PHONON       :  1m19.11s CPU     1m25.06s WALL


   This run was terminated on:  17:53:50   9Nov2017            

=------------------------------------------------------------------------------=
   JOB DONE.
=------------------------------------------------------------------------------=
