
     Program PHONON v.6.1 (svn rev. 13369) starts on  9Nov2017 at 12:25:23 

     This program is part of the open-source Quantum ESPRESSO suite
     for quantum simulation of materials; please cite
         "P. Giannozzi et al., J. Phys.:Condens. Matter 21 395502 (2009);
          URL http://www.quantum-espresso.org", 
     in publications or presentations arising from this work. More details at
     http://www.quantum-espresso.org/quote

     Parallel version (MPI), running on     4 processors
     R & G space division:  proc/nbgrp/npool/nimage =       4

     Reading data from directory:
     ./silicon.10.334.save

   Info: using nr1, nr2, nr3 values from input

   Info: using nr1, nr2, nr3 values from input

     IMPORTANT: XC functional enforced from input :
     Exchange-correlation      = SLA  PW   PBE  PBE ( 1  4  3  4 0 0)
     Any further DFT definition will be discarded
     Please, verify this is what you really want


     Parallelization info
     --------------------
     sticks:   dense  smooth     PW     G-vecs:    dense   smooth      PW
     Min          63      63     22                  684      684     140
     Max          64      64     23                  688      688     141
     Sum         253     253     91                 2741     2741     561


     Check: negative/imaginary core charge=   -0.000005    0.000000


     Dynamical matrices for ( 4, 4, 4)  uniform grid of q-points
     (   8q-points):
       N         xq(1)         xq(2)         xq(3) 
       1   0.000000000   0.000000000   0.000000000
       2  -0.250000000   0.250000000  -0.250000000
       3   0.500000000  -0.500000000   0.500000000
       4   0.000000000   0.500000000   0.000000000
       5   0.750000000  -0.250000000   0.750000000
       6   0.500000000   0.000000000   0.500000000
       7   0.000000000  -1.000000000   0.000000000
       8  -0.500000000  -1.000000000   0.000000000

     Calculation of q =    0.0000000   0.0000000   0.0000000

                                                                                

     bravais-lattice index     =            2
     lattice parameter (alat)  =      10.3340  a.u.
     unit-cell volume          =     275.8960 (a.u.)^3
     number of atoms/cell      =            2
     number of atomic types    =            1
     kinetic-energy cut-off    =      18.0000  Ry
     charge density cut-off    =      72.0000  Ry
     convergence threshold     =      1.0E-12
     beta                      =       0.7000
     number of iterations used =            4
     Exchange-correlation      = SLA  PW   PBE  PBE ( 1  4  3  4 0 0)


     celldm(1)=   10.33400  celldm(2)=    0.00000  celldm(3)=    0.00000
     celldm(4)=    0.00000  celldm(5)=    0.00000  celldm(6)=    0.00000

     crystal axes: (cart. coord. in units of alat)
               a(1) = ( -0.5000  0.0000  0.5000 )  
               a(2) = (  0.0000  0.5000  0.5000 )  
               a(3) = ( -0.5000  0.5000  0.0000 )  

     reciprocal axes: (cart. coord. in units 2 pi/alat)
               b(1) = ( -1.0000 -1.0000  1.0000 )  
               b(2) = (  1.0000  1.0000  1.0000 )  
               b(3) = ( -1.0000  1.0000 -1.0000 )  


     Atoms inside the unit cell: 

     Cartesian axes

     site n.  atom      mass           positions (alat units)
        1     Si  28.0860   tau(    1) = (    0.00000    0.00000    0.00000  )
        2     Si  28.0860   tau(    2) = (    0.25000    0.25000    0.25000  )

     Computing dynamical matrix for 
                    q = (   0.0000000   0.0000000   0.0000000 )

     49 Sym.Ops. (with q -> -q+G )


     G cutoff =  194.7644  (    685 G-vectors)     FFT grid: ( 20, 20, 20)
     number of k points=    10

     PseudoPot. # 1 for Si read from file:
     /home/max/quantum_espresso/qe-6.1/pseudo/si_pbe_v1.uspp.F.UPF.txt
     MD5 check sum: a056efeee980c13900f22a371efd63c1
     Pseudo is Ultrasoft + core correction, Zval =  4.0
     Generated by new atomic code, or converted to UPF format
     Using radial grid of  899 points,  6 beta functions with: 
                l(1) =   0
                l(2) =   0
                l(3) =   1
                l(4) =   1
                l(5) =   2
                l(6) =   2
     Q(r) pseudized with  8 coefficients,  rinner =    0.900   0.900   0.900
                                                       0.900   0.900

     Mode symmetry, O_h (m-3m)  point group:


     Electric field:
     Dielectric constant
     Born effective charges in two ways 


     Atomic displacements:
     There are   2 irreducible representations

     Representation     1      3 modes -T_2g G_25' G_5+  To be done

     Representation     2      3 modes -T_1u G_15  G_4-  To be done



     Alpha used in Ewald sum =   0.7000
     PHONON       :     0.57s CPU         0.59s WALL


     Electric Fields Calculation

      iter #   1 total cpu time :     1.0 secs   av.it.:   5.6
      thresh= 1.000E-02 alpha_mix =  0.700 |ddv_scf|^2 =  9.058E-07

      iter #   2 total cpu time :     1.2 secs   av.it.:   9.9
      thresh= 9.517E-05 alpha_mix =  0.700 |ddv_scf|^2 =  5.579E-08

      iter #   3 total cpu time :     1.4 secs   av.it.:   9.8
      thresh= 2.362E-05 alpha_mix =  0.700 |ddv_scf|^2 =  4.236E-09

      iter #   4 total cpu time :     1.6 secs   av.it.:   9.0
      thresh= 6.508E-06 alpha_mix =  0.700 |ddv_scf|^2 =  2.502E-11

      iter #   5 total cpu time :     1.8 secs   av.it.:   9.2
      thresh= 5.002E-07 alpha_mix =  0.700 |ddv_scf|^2 =  1.330E-14

     End of electric fields calculation

          Dielectric constant in cartesian axis 

          (      13.872153916       0.000000000       0.000000000 )
          (       0.000000000      13.872153916      -0.000000000 )
          (       0.000000000      -0.000000000      13.872153916 )

          Effective charges (d Force / dE) in cartesian axis

           atom      1   Si 
      Ex  (       -0.03112       -0.00000       -0.00000 )
      Ey  (       -0.00000       -0.03112        0.00000 )
      Ez  (       -0.00000        0.00000       -0.03112 )
           atom      2   Si 
      Ex  (       -0.03112        0.00000        0.00000 )
      Ey  (        0.00000       -0.03112       -0.00000 )
      Ez  (        0.00000       -0.00000       -0.03112 )


     Representation #  1 modes #   1  2  3

     Self-consistent Calculation

      iter #   1 total cpu time :     2.3 secs   av.it.:   4.9
      thresh= 1.000E-02 alpha_mix =  0.700 |ddv_scf|^2 =  2.254E-07

      iter #   2 total cpu time :     2.7 secs   av.it.:   9.8
      thresh= 4.748E-05 alpha_mix =  0.700 |ddv_scf|^2 =  1.397E-08

      iter #   3 total cpu time :     2.9 secs   av.it.:   9.3
      thresh= 1.182E-05 alpha_mix =  0.700 |ddv_scf|^2 =  8.605E-10

      iter #   4 total cpu time :     3.1 secs   av.it.:   9.0
      thresh= 2.933E-06 alpha_mix =  0.700 |ddv_scf|^2 =  1.891E-12

      iter #   5 total cpu time :     3.3 secs   av.it.:   9.5
      thresh= 1.375E-07 alpha_mix =  0.700 |ddv_scf|^2 =  1.231E-14

     End of self-consistent calculation

     Convergence has been achieved 


     Representation #  2 modes #   4  5  6

     Self-consistent Calculation

      iter #   1 total cpu time :     3.6 secs   av.it.:   5.0
      thresh= 1.000E-02 alpha_mix =  0.700 |ddv_scf|^2 =  1.709E-07

      iter #   2 total cpu time :     3.8 secs   av.it.:   9.6
      thresh= 4.134E-05 alpha_mix =  0.700 |ddv_scf|^2 =  1.334E-08

      iter #   3 total cpu time :     4.0 secs   av.it.:   9.3
      thresh= 1.155E-05 alpha_mix =  0.700 |ddv_scf|^2 =  8.496E-10

      iter #   4 total cpu time :     4.2 secs   av.it.:   9.5
      thresh= 2.915E-06 alpha_mix =  0.700 |ddv_scf|^2 =  5.089E-12

      iter #   5 total cpu time :     4.5 secs   av.it.:   9.0
      thresh= 2.256E-07 alpha_mix =  0.700 |ddv_scf|^2 =  4.434E-15

     End of self-consistent calculation

     Convergence has been achieved 

     Number of q in the star =    1
     List of q in the star:
          1   0.000000000   0.000000000   0.000000000

          Dielectric constant in cartesian axis 

          (      13.872153916       0.000000000       0.000000000 )
          (       0.000000000      13.872153916      -0.000000000 )
          (       0.000000000      -0.000000000      13.872153916 )

          Effective charges (d Force / dE) in cartesian axis

           atom      1   Si 
      Ex  (       -0.03112       -0.00000       -0.00000 )
      Ey  (       -0.00000       -0.03112        0.00000 )
      Ez  (       -0.00000        0.00000       -0.03112 )
           atom      2   Si 
      Ex  (       -0.03112        0.00000        0.00000 )
      Ey  (        0.00000       -0.03112       -0.00000 )
      Ez  (        0.00000       -0.00000       -0.03112 )

          Effective charges (d P / du) in cartesian axis 

           atom      1   Si 
      Px  (       -0.07255        0.00000        0.00000 )
      Py  (        0.00000       -0.07255       -0.00000 )
      Pz  (        0.00000       -0.00000       -0.07255 )
           atom      2   Si 
      Px  (       -0.07255        0.00000        0.00000 )
      Py  (        0.00000       -0.07255       -0.00000 )
      Pz  (        0.00000       -0.00000       -0.07255 )

     Diagonalizing the dynamical matrix

     q = (    0.000000000   0.000000000   0.000000000 ) 

 **************************************************************************
     freq (    1) =       1.948435 [THz] =      64.992803 [cm-1]
     freq (    2) =       1.948435 [THz] =      64.992803 [cm-1]
     freq (    3) =       1.948435 [THz] =      64.992803 [cm-1]
     freq (    4) =      15.008553 [THz] =     500.631432 [cm-1]
     freq (    5) =      15.008553 [THz] =     500.631432 [cm-1]
     freq (    6) =      15.008553 [THz] =     500.631432 [cm-1]
 **************************************************************************

     Mode symmetry, O_h (m-3m)  point group:

     freq (  1 -  3) =         65.0  [cm-1]   --> T_1u G_15  G_4- I  
     freq (  4 -  6) =        500.6  [cm-1]   --> T_2g G_25' G_5+ R  

     Calculation of q =   -0.2500000   0.2500000  -0.2500000

   Info: using nr1, nr2, nr3 values from input

   Info: using nr1, nr2, nr3 values from input

     Parallelization info
     --------------------
     sticks:   dense  smooth     PW     G-vecs:    dense   smooth      PW
     Min          63      63     24                  684      684     161
     Max          64      64     25                  688      688     162
     Sum         253     253     97                 2741     2741     645



     bravais-lattice index     =            2
     lattice parameter (alat)  =      10.3340  a.u.
     unit-cell volume          =     275.8960 (a.u.)^3
     number of atoms/cell      =            2
     number of atomic types    =            1
     number of electrons       =         8.00
     number of Kohn-Sham states=            4
     kinetic-energy cutoff     =      18.0000  Ry
     charge density cutoff     =      72.0000  Ry
     Exchange-correlation      = SLA  PW   PBE  PBE ( 1  4  3  4 0 0)

     celldm(1)=  10.334000  celldm(2)=   0.000000  celldm(3)=   0.000000
     celldm(4)=   0.000000  celldm(5)=   0.000000  celldm(6)=   0.000000

     crystal axes: (cart. coord. in units of alat)
               a(1) = (  -0.500000   0.000000   0.500000 )  
               a(2) = (   0.000000   0.500000   0.500000 )  
               a(3) = (  -0.500000   0.500000   0.000000 )  

     reciprocal axes: (cart. coord. in units 2 pi/alat)
               b(1) = ( -1.000000 -1.000000  1.000000 )  
               b(2) = (  1.000000  1.000000  1.000000 )  
               b(3) = ( -1.000000  1.000000 -1.000000 )  


     PseudoPot. # 1 for Si read from file:
     /home/max/quantum_espresso/qe-6.1/pseudo/si_pbe_v1.uspp.F.UPF.txt
     MD5 check sum: a056efeee980c13900f22a371efd63c1
     Pseudo is Ultrasoft + core correction, Zval =  4.0
     Generated by new atomic code, or converted to UPF format
     Using radial grid of  899 points,  6 beta functions with: 
                l(1) =   0
                l(2) =   0
                l(3) =   1
                l(4) =   1
                l(5) =   2
                l(6) =   2
     Q(r) pseudized with  8 coefficients,  rinner =    0.900   0.900   0.900
                                                       0.900   0.900

     atomic species   valence    mass     pseudopotential
        Si             4.00    28.08600     Si( 1.00)

     48 Sym. Ops., with inversion, found



   Cartesian axes

     site n.     atom                  positions (alat units)
         1           Si  tau(   1) = (   0.0000000   0.0000000   0.0000000  )
         2           Si  tau(   2) = (   0.2500000   0.2500000   0.2500000  )

     number of k points=   120

     Number of k-points >= 100: set verbosity='high' to print them.

     Dense  grid:     2741 G-vectors     FFT dimensions: (  20,  20,  20)

     Estimated max dynamical RAM per process >       0.33MB

     Estimated total allocated dynamical RAM >       1.31MB

     Check: negative/imaginary core charge=   -0.000005    0.000000

     The potential is recalculated from file :
     ./_ph0/silicon.10.334.save/charge-density.dat

     Starting wfc are    8 atomic wfcs

     Band Structure Calculation
     Davidson diagonalization with overlap

     ethr =  1.25E-10,  avg # of iterations = 11.7

     total cpu time spent up to now is        0.9 secs

     End of band structure calculation

     Number of k-points >= 100: set verbosity='high' to print the bands.

     highest occupied level (ev):     5.6987

     Writing output data file silicon.10.334.save

                                                                                

     bravais-lattice index     =            2
     lattice parameter (alat)  =      10.3340  a.u.
     unit-cell volume          =     275.8960 (a.u.)^3
     number of atoms/cell      =            2
     number of atomic types    =            1
     kinetic-energy cut-off    =      18.0000  Ry
     charge density cut-off    =      72.0000  Ry
     convergence threshold     =      1.0E-12
     beta                      =       0.7000
     number of iterations used =            4
     Exchange-correlation      = SLA  PW   PBE  PBE ( 1  4  3  4 0 0)


     celldm(1)=   10.33400  celldm(2)=    0.00000  celldm(3)=    0.00000
     celldm(4)=    0.00000  celldm(5)=    0.00000  celldm(6)=    0.00000

     crystal axes: (cart. coord. in units of alat)
               a(1) = ( -0.5000  0.0000  0.5000 )  
               a(2) = (  0.0000  0.5000  0.5000 )  
               a(3) = ( -0.5000  0.5000  0.0000 )  

     reciprocal axes: (cart. coord. in units 2 pi/alat)
               b(1) = ( -1.0000 -1.0000  1.0000 )  
               b(2) = (  1.0000  1.0000  1.0000 )  
               b(3) = ( -1.0000  1.0000 -1.0000 )  


     Atoms inside the unit cell: 

     Cartesian axes

     site n.  atom      mass           positions (alat units)
        1     Si  28.0860   tau(    1) = (    0.00000    0.00000    0.00000  )
        2     Si  28.0860   tau(    2) = (    0.25000    0.25000    0.25000  )

     Computing dynamical matrix for 
                    q = (  -0.2500000   0.2500000  -0.2500000 )

      6 Sym.Ops. (no q -> -q+G )


     G cutoff =  194.7644  (    685 G-vectors)     FFT grid: ( 20, 20, 20)
     number of k points=   120

     PseudoPot. # 1 for Si read from file:
     /home/max/quantum_espresso/qe-6.1/pseudo/si_pbe_v1.uspp.F.UPF.txt
     MD5 check sum: a056efeee980c13900f22a371efd63c1
     Pseudo is Ultrasoft + core correction, Zval =  4.0
     Generated by new atomic code, or converted to UPF format
     Using radial grid of  899 points,  6 beta functions with: 
                l(1) =   0
                l(2) =   0
                l(3) =   1
                l(4) =   1
                l(5) =   2
                l(6) =   2
     Q(r) pseudized with  8 coefficients,  rinner =    0.900   0.900   0.900
                                                       0.900   0.900

     Mode symmetry, C_3v (3m)   point group:


     Atomic displacements:
     There are   4 irreducible representations

     Representation     1      1 modes -A_1  L_1  To be done

     Representation     2      1 modes -A_1  L_1  To be done

     Representation     3      2 modes -E    L_3  To be done

     Representation     4      2 modes -E    L_3  To be done



     Alpha used in Ewald sum =   0.7000
     PHONON       :     5.61s CPU         6.00s WALL



     Representation #  1 mode #   1

     Self-consistent Calculation

      iter #   1 total cpu time :     6.3 secs   av.it.:   5.5
      thresh= 1.000E-02 alpha_mix =  0.700 |ddv_scf|^2 =  2.470E-03

      iter #   2 total cpu time :     6.7 secs   av.it.:   7.5
      thresh= 4.970E-03 alpha_mix =  0.700 |ddv_scf|^2 =  3.728E-02

      iter #   3 total cpu time :     7.0 secs   av.it.:   6.3
      thresh= 1.000E-02 alpha_mix =  0.700 |ddv_scf|^2 =  1.715E-06

      iter #   4 total cpu time :     7.3 secs   av.it.:   8.2
      thresh= 1.310E-04 alpha_mix =  0.700 |ddv_scf|^2 =  1.150E-07

      iter #   5 total cpu time :     7.6 secs   av.it.:   8.1
      thresh= 3.391E-05 alpha_mix =  0.700 |ddv_scf|^2 =  4.418E-09

      iter #   6 total cpu time :     7.9 secs   av.it.:   8.0
      thresh= 6.647E-06 alpha_mix =  0.700 |ddv_scf|^2 =  5.473E-09

      iter #   7 total cpu time :     8.2 secs   av.it.:   6.0
      thresh= 7.398E-06 alpha_mix =  0.700 |ddv_scf|^2 =  3.832E-10

      iter #   8 total cpu time :     8.6 secs   av.it.:   7.4
      thresh= 1.957E-06 alpha_mix =  0.700 |ddv_scf|^2 =  3.750E-12

      iter #   9 total cpu time :     8.9 secs   av.it.:   7.2
      thresh= 1.936E-07 alpha_mix =  0.700 |ddv_scf|^2 =  1.332E-13

     End of self-consistent calculation

     Convergence has been achieved 


     Representation #  2 mode #   2

     Self-consistent Calculation

      iter #   1 total cpu time :     9.2 secs   av.it.:   5.5
      thresh= 1.000E-02 alpha_mix =  0.700 |ddv_scf|^2 =  2.470E-03

      iter #   2 total cpu time :     9.5 secs   av.it.:   7.5
      thresh= 4.970E-03 alpha_mix =  0.700 |ddv_scf|^2 =  3.728E-02

      iter #   3 total cpu time :     9.7 secs   av.it.:   6.3
      thresh= 1.000E-02 alpha_mix =  0.700 |ddv_scf|^2 =  1.715E-06

      iter #   4 total cpu time :    10.0 secs   av.it.:   8.2
      thresh= 1.310E-04 alpha_mix =  0.700 |ddv_scf|^2 =  1.150E-07

      iter #   5 total cpu time :    10.4 secs   av.it.:   8.1
      thresh= 3.391E-05 alpha_mix =  0.700 |ddv_scf|^2 =  4.418E-09

      iter #   6 total cpu time :    10.8 secs   av.it.:   8.0
      thresh= 6.647E-06 alpha_mix =  0.700 |ddv_scf|^2 =  5.473E-09

      iter #   7 total cpu time :    11.1 secs   av.it.:   6.0
      thresh= 7.398E-06 alpha_mix =  0.700 |ddv_scf|^2 =  3.832E-10

      iter #   8 total cpu time :    11.3 secs   av.it.:   7.4
      thresh= 1.957E-06 alpha_mix =  0.700 |ddv_scf|^2 =  3.750E-12

      iter #   9 total cpu time :    11.6 secs   av.it.:   7.2
      thresh= 1.936E-07 alpha_mix =  0.700 |ddv_scf|^2 =  1.332E-13

     End of self-consistent calculation

     Convergence has been achieved 


     Representation #  3 modes #   3  4

     Self-consistent Calculation

      iter #   1 total cpu time :    12.1 secs   av.it.:   4.9
      thresh= 1.000E-02 alpha_mix =  0.700 |ddv_scf|^2 =  5.568E-07

      iter #   2 total cpu time :    13.0 secs   av.it.:   9.5
      thresh= 7.462E-05 alpha_mix =  0.700 |ddv_scf|^2 =  4.112E-08

      iter #   3 total cpu time :    13.7 secs   av.it.:   9.2
      thresh= 2.028E-05 alpha_mix =  0.700 |ddv_scf|^2 =  3.533E-09

      iter #   4 total cpu time :    14.3 secs   av.it.:   9.0
      thresh= 5.944E-06 alpha_mix =  0.700 |ddv_scf|^2 =  1.086E-11

      iter #   5 total cpu time :    15.2 secs   av.it.:   9.2
      thresh= 3.295E-07 alpha_mix =  0.700 |ddv_scf|^2 =  4.939E-13

     End of self-consistent calculation

     Convergence has been achieved 


     Representation #  4 modes #   5  6

     Self-consistent Calculation

      iter #   1 total cpu time :    15.6 secs   av.it.:   5.0
      thresh= 1.000E-02 alpha_mix =  0.700 |ddv_scf|^2 =  5.567E-07

      iter #   2 total cpu time :    16.3 secs   av.it.:   9.6
      thresh= 7.461E-05 alpha_mix =  0.700 |ddv_scf|^2 =  4.109E-08

      iter #   3 total cpu time :    17.2 secs   av.it.:   9.4
      thresh= 2.027E-05 alpha_mix =  0.700 |ddv_scf|^2 =  3.531E-09

      iter #   4 total cpu time :    17.8 secs   av.it.:   9.1
      thresh= 5.942E-06 alpha_mix =  0.700 |ddv_scf|^2 =  1.086E-11

      iter #   5 total cpu time :    18.7 secs   av.it.:   9.3
      thresh= 3.296E-07 alpha_mix =  0.700 |ddv_scf|^2 =  4.943E-13

     End of self-consistent calculation

     Convergence has been achieved 

     Number of q in the star =    8
     List of q in the star:
          1  -0.250000000   0.250000000  -0.250000000
          2   0.250000000  -0.250000000  -0.250000000
          3   0.250000000  -0.250000000   0.250000000
          4   0.250000000   0.250000000   0.250000000
          5  -0.250000000  -0.250000000  -0.250000000
          6  -0.250000000  -0.250000000   0.250000000
          7  -0.250000000   0.250000000   0.250000000
          8   0.250000000   0.250000000  -0.250000000

     Diagonalizing the dynamical matrix

     q = (   -0.250000000   0.250000000  -0.250000000 ) 

 **************************************************************************
     freq (    1) =       3.393099 [THz] =     113.181584 [cm-1]
     freq (    2) =       3.393099 [THz] =     113.181584 [cm-1]
     freq (    3) =       6.934766 [THz] =     231.318907 [cm-1]
     freq (    4) =      14.082809 [THz] =     469.751934 [cm-1]
     freq (    5) =      14.393730 [THz] =     480.123166 [cm-1]
     freq (    6) =      14.393730 [THz] =     480.123166 [cm-1]
 **************************************************************************

     Mode symmetry, C_3v (3m)   point group:

     freq (  1 -  2) =        113.2  [cm-1]   --> E    L_3           
     freq (  3 -  3) =        231.3  [cm-1]   --> A_1  L_1           
     freq (  4 -  4) =        469.8  [cm-1]   --> A_1  L_1           
     freq (  5 -  6) =        480.1  [cm-1]   --> E    L_3           

     Calculation of q =    0.5000000  -0.5000000   0.5000000

   Info: using nr1, nr2, nr3 values from input

   Info: using nr1, nr2, nr3 values from input

     Parallelization info
     --------------------
     sticks:   dense  smooth     PW     G-vecs:    dense   smooth      PW
     Min          63      63     27                  684      684     186
     Max          64      64     28                  688      688     189
     Sum         253     253    109                 2741     2741     749



     bravais-lattice index     =            2
     lattice parameter (alat)  =      10.3340  a.u.
     unit-cell volume          =     275.8960 (a.u.)^3
     number of atoms/cell      =            2
     number of atomic types    =            1
     number of electrons       =         8.00
     number of Kohn-Sham states=            4
     kinetic-energy cutoff     =      18.0000  Ry
     charge density cutoff     =      72.0000  Ry
     Exchange-correlation      = SLA  PW   PBE  PBE ( 1  4  3  4 0 0)

     celldm(1)=  10.334000  celldm(2)=   0.000000  celldm(3)=   0.000000
     celldm(4)=   0.000000  celldm(5)=   0.000000  celldm(6)=   0.000000

     crystal axes: (cart. coord. in units of alat)
               a(1) = (  -0.500000   0.000000   0.500000 )  
               a(2) = (   0.000000   0.500000   0.500000 )  
               a(3) = (  -0.500000   0.500000   0.000000 )  

     reciprocal axes: (cart. coord. in units 2 pi/alat)
               b(1) = ( -1.000000 -1.000000  1.000000 )  
               b(2) = (  1.000000  1.000000  1.000000 )  
               b(3) = ( -1.000000  1.000000 -1.000000 )  


     PseudoPot. # 1 for Si read from file:
     /home/max/quantum_espresso/qe-6.1/pseudo/si_pbe_v1.uspp.F.UPF.txt
     MD5 check sum: a056efeee980c13900f22a371efd63c1
     Pseudo is Ultrasoft + core correction, Zval =  4.0
     Generated by new atomic code, or converted to UPF format
     Using radial grid of  899 points,  6 beta functions with: 
                l(1) =   0
                l(2) =   0
                l(3) =   1
                l(4) =   1
                l(5) =   2
                l(6) =   2
     Q(r) pseudized with  8 coefficients,  rinner =    0.900   0.900   0.900
                                                       0.900   0.900

     atomic species   valence    mass     pseudopotential
        Si             4.00    28.08600     Si( 1.00)

     48 Sym. Ops., with inversion, found



   Cartesian axes

     site n.     atom                  positions (alat units)
         1           Si  tau(   1) = (   0.0000000   0.0000000   0.0000000  )
         2           Si  tau(   2) = (   0.2500000   0.2500000   0.2500000  )

     number of k points=    60
                       cart. coord. in units 2pi/alat
        k(    1) = (  -0.1250000   0.1250000   0.1250000), wk =   0.0468750
        k(    2) = (   0.3750000  -0.3750000   0.6250000), wk =   0.0000000
        k(    3) = (  -0.3750000   0.3750000  -0.1250000), wk =   0.0468750
        k(    4) = (   0.1250000  -0.1250000   0.3750000), wk =   0.0000000
        k(    5) = (   0.3750000  -0.3750000   0.6250000), wk =   0.0468750
        k(    6) = (   0.8750000  -0.8750000   1.1250000), wk =   0.0000000
        k(    7) = (   0.1250000  -0.1250000   0.3750000), wk =   0.0468750
        k(    8) = (   0.6250000  -0.6250000   0.8750000), wk =   0.0000000
        k(    9) = (  -0.1250000   0.6250000   0.1250000), wk =   0.0937500
        k(   10) = (   0.3750000   0.1250000   0.6250000), wk =   0.0000000
        k(   11) = (   0.6250000  -0.1250000   0.8750000), wk =   0.0937500
        k(   12) = (   1.1250000  -0.6250000   1.3750000), wk =   0.0000000
        k(   13) = (   0.3750000   0.1250000   0.6250000), wk =   0.0937500
        k(   14) = (   0.8750000  -0.3750000   1.1250000), wk =   0.0000000
        k(   15) = (  -0.1250000  -0.8750000   0.1250000), wk =   0.0937500
        k(   16) = (   0.3750000  -1.3750000   0.6250000), wk =   0.0000000
        k(   17) = (  -0.3750000   0.3750000   0.3750000), wk =   0.0468750
        k(   18) = (   0.1250000  -0.1250000   0.8750000), wk =   0.0000000
        k(   19) = (   0.3750000  -0.3750000   1.1250000), wk =   0.0468750
        k(   20) = (   0.8750000  -0.8750000   1.6250000), wk =   0.0000000
        k(   21) = (   0.1250000  -0.1250000   0.1250000), wk =   0.0156250
        k(   22) = (   0.6250000  -0.6250000   0.6250000), wk =   0.0000000
        k(   23) = (  -0.3750000  -0.3750000  -0.1250000), wk =   0.0937500
        k(   24) = (   0.1250000  -0.8750000   0.3750000), wk =   0.0000000
        k(   25) = (  -0.1250000  -0.3750000   0.3750000), wk =   0.0468750
        k(   26) = (   0.3750000  -0.8750000   0.8750000), wk =   0.0000000
        k(   27) = (   0.3750000   0.3750000   0.6250000), wk =   0.0937500
        k(   28) = (   0.8750000  -0.1250000   1.1250000), wk =   0.0000000
        k(   29) = (   0.6250000   0.3750000  -0.3750000), wk =   0.0468750
        k(   30) = (   1.1250000  -0.1250000   0.1250000), wk =   0.0000000
        k(   31) = (   0.1250000   0.1250000   0.3750000), wk =   0.0937500
        k(   32) = (   0.6250000  -0.3750000   0.8750000), wk =   0.0000000
        k(   33) = (   0.3750000   0.1250000  -0.1250000), wk =   0.0468750
        k(   34) = (   0.8750000  -0.3750000   0.3750000), wk =   0.0000000
        k(   35) = (  -0.1250000  -0.6250000  -0.1250000), wk =   0.0468750
        k(   36) = (   0.3750000  -1.1250000   0.3750000), wk =   0.0000000
        k(   37) = (   0.1250000  -0.6250000   0.1250000), wk =   0.0468750
        k(   38) = (   0.6250000  -1.1250000   0.6250000), wk =   0.0000000
        k(   39) = (   0.6250000   0.1250000   0.8750000), wk =   0.0937500
        k(   40) = (   1.1250000  -0.3750000   1.3750000), wk =   0.0000000
        k(   41) = (  -0.8750000   0.1250000   0.6250000), wk =   0.0937500
        k(   42) = (  -0.3750000  -0.3750000   1.1250000), wk =   0.0000000
        k(   43) = (   0.8750000   0.1250000  -0.6250000), wk =   0.0937500
        k(   44) = (   1.3750000  -0.3750000  -0.1250000), wk =   0.0000000
        k(   45) = (   0.3750000  -0.1250000   0.6250000), wk =   0.0937500
        k(   46) = (   0.8750000  -0.6250000   1.1250000), wk =   0.0000000
        k(   47) = (  -0.6250000  -0.1250000   0.3750000), wk =   0.0937500
        k(   48) = (  -0.1250000  -0.6250000   0.8750000), wk =   0.0000000
        k(   49) = (   0.6250000  -0.1250000  -0.3750000), wk =   0.0937500
        k(   50) = (   1.1250000  -0.6250000   0.1250000), wk =   0.0000000
        k(   51) = (  -0.1250000   0.8750000  -0.1250000), wk =   0.0468750
        k(   52) = (   0.3750000   0.3750000   0.3750000), wk =   0.0000000
        k(   53) = (   0.1250000   0.8750000   0.1250000), wk =   0.0468750
        k(   54) = (   0.6250000   0.3750000   0.6250000), wk =   0.0000000
        k(   55) = (   0.3750000  -0.3750000   0.3750000), wk =   0.0156250
        k(   56) = (   0.8750000  -0.8750000   0.8750000), wk =   0.0000000
        k(   57) = (   0.3750000   0.3750000   1.1250000), wk =   0.0937500
        k(   58) = (   0.8750000  -0.1250000   1.6250000), wk =   0.0000000
        k(   59) = (   1.1250000   0.3750000  -0.3750000), wk =   0.0468750
        k(   60) = (   1.6250000  -0.1250000   0.1250000), wk =   0.0000000

     Dense  grid:     2741 G-vectors     FFT dimensions: (  20,  20,  20)

     Estimated max dynamical RAM per process >       0.33MB

     Estimated total allocated dynamical RAM >       1.31MB

     Check: negative/imaginary core charge=   -0.000005    0.000000

     The potential is recalculated from file :
     ./_ph0/silicon.10.334.save/charge-density.dat

     Starting wfc are    8 atomic wfcs

     Band Structure Calculation
     Davidson diagonalization with overlap

     ethr =  1.25E-10,  avg # of iterations = 11.7

     total cpu time spent up to now is        1.5 secs

     End of band structure calculation

          k =-0.1250 0.1250 0.1250 (   338 PWs)   bands (ev):

    -5.6310   4.3900   5.6987   5.6987

          k = 0.3750-0.3750 0.6250 (   361 PWs)   bands (ev):

    -3.4724  -0.6742   3.7364   4.4472

          k =-0.3750 0.3750-0.1250 (   352 PWs)   bands (ev):

    -4.6074   1.3979   3.7182   5.2169

          k = 0.1250-0.1250 0.3750 (   353 PWs)   bands (ev):

    -5.1049   2.7715   4.6920   4.7556

          k = 0.3750-0.3750 0.6250 (   361 PWs)   bands (ev):

    -3.4724  -0.6742   3.7364   4.4472

          k = 0.8750-0.8750 1.1250 (   338 PWs)   bands (ev):

    -5.6310   4.3900   5.6987   5.6987

          k = 0.1250-0.1250 0.3750 (   353 PWs)   bands (ev):

    -5.1049   2.7715   4.6920   4.7556

          k = 0.6250-0.6250 0.8750 (   352 PWs)   bands (ev):

    -4.6074   1.3979   3.7182   5.2169

          k =-0.1250 0.6250 0.1250 (   351 PWs)   bands (ev):

    -4.0758   1.0593   3.3708   3.8190

          k = 0.3750 0.1250 0.6250 (   357 PWs)   bands (ev):

    -3.6620   0.1903   2.7312   4.0946

          k = 0.6250-0.1250 0.8750 (   361 PWs)   bands (ev):

    -2.4408  -0.9012   2.0232   3.0942

          k = 1.1250-0.6250 1.3750 (   352 PWs)   bands (ev):

    -4.6074   1.3979   3.7182   5.2169

          k = 0.3750 0.1250 0.6250 (   357 PWs)   bands (ev):

    -3.6620   0.1903   2.7312   4.0946

          k = 0.8750-0.3750 1.1250 (   351 PWs)   bands (ev):

    -4.0758   1.0593   3.3708   3.8190

          k =-0.1250-0.8750 0.1250 (   358 PWs)   bands (ev):

    -2.6070  -0.8042   2.6290   3.3526

          k = 0.3750-1.3750 0.6250 (   361 PWs)   bands (ev):

    -3.4724  -0.6742   3.7364   4.4472

          k =-0.3750 0.3750 0.3750 (   353 PWs)   bands (ev):

    -4.1765   0.1127   4.9108   4.9108

          k = 0.1250-0.1250 0.8750 (   358 PWs)   bands (ev):

    -2.6070  -0.8042   2.6290   3.3526

          k = 0.3750-0.3750 1.1250 (   361 PWs)   bands (ev):

    -2.9773  -0.5948   2.0800   4.1314

          k = 0.8750-0.8750 1.6250 (   351 PWs)   bands (ev):

    -4.0758   1.0593   3.3708   3.8190

          k = 0.1250-0.1250 0.1250 (   338 PWs)   bands (ev):

    -5.6310   4.3900   5.6987   5.6987

          k = 0.6250-0.6250 0.6250 (   353 PWs)   bands (ev):

    -4.1765   0.1127   4.9108   4.9108

          k =-0.3750-0.3750-0.1250 (   352 PWs)   bands (ev):

    -4.6074   1.3979   3.7182   5.2169

          k = 0.1250-0.8750 0.3750 (   361 PWs)   bands (ev):

    -2.4408  -0.9012   2.0232   3.0942

          k =-0.1250-0.3750 0.3750 (   352 PWs)   bands (ev):

    -4.6074   1.3979   3.7182   5.2169

          k = 0.3750-0.8750 0.8750 (   351 PWs)   bands (ev):

    -4.0758   1.0593   3.3708   3.8190

          k = 0.3750 0.3750 0.6250 (   361 PWs)   bands (ev):

    -3.4724  -0.6742   3.7364   4.4472

          k = 0.8750-0.1250 1.1250 (   358 PWs)   bands (ev):

    -2.6070  -0.8042   2.6290   3.3526

          k = 0.6250 0.3750-0.3750 (   361 PWs)   bands (ev):

    -3.4724  -0.6742   3.7364   4.4472

          k = 1.1250-0.1250 0.1250 (   358 PWs)   bands (ev):

    -2.6070  -0.8042   2.6290   3.3526

          k = 0.1250 0.1250 0.3750 (   353 PWs)   bands (ev):

    -5.1049   2.7715   4.6920   4.7556

          k = 0.6250-0.3750 0.8750 (   357 PWs)   bands (ev):

    -3.6620   0.1903   2.7312   4.0946

          k = 0.3750 0.1250-0.1250 (   353 PWs)   bands (ev):

    -5.1049   2.7715   4.6920   4.7556

          k = 0.8750-0.3750 0.3750 (   361 PWs)   bands (ev):

    -2.9773  -0.5948   2.0800   4.1314

          k =-0.1250-0.6250-0.1250 (   351 PWs)   bands (ev):

    -4.0758   1.0593   3.3708   3.8190

          k = 0.3750-1.1250 0.3750 (   361 PWs)   bands (ev):

    -2.9773  -0.5948   2.0800   4.1314

          k = 0.1250-0.6250 0.1250 (   351 PWs)   bands (ev):

    -4.0758   1.0593   3.3708   3.8190

          k = 0.6250-1.1250 0.6250 (   352 PWs)   bands (ev):

    -4.6074   1.3979   3.7182   5.2169

          k = 0.6250 0.1250 0.8750 (   361 PWs)   bands (ev):

    -2.4408  -0.9012   2.0232   3.0942

          k = 1.1250-0.3750 1.3750 (   357 PWs)   bands (ev):

    -3.6620   0.1903   2.7312   4.0946

          k =-0.8750 0.1250 0.6250 (   361 PWs)   bands (ev):

    -2.4408  -0.9012   2.0232   3.0942

          k =-0.3750-0.3750 1.1250 (   361 PWs)   bands (ev):

    -2.9773  -0.5948   2.0800   4.1314

          k = 0.8750 0.1250-0.6250 (   361 PWs)   bands (ev):

    -2.4408  -0.9012   2.0232   3.0942

          k = 1.3750-0.3750-0.1250 (   357 PWs)   bands (ev):

    -3.6620   0.1903   2.7312   4.0946

          k = 0.3750-0.1250 0.6250 (   357 PWs)   bands (ev):

    -3.6620   0.1903   2.7312   4.0946

          k = 0.8750-0.6250 1.1250 (   353 PWs)   bands (ev):

    -5.1049   2.7715   4.6920   4.7556

          k =-0.6250-0.1250 0.3750 (   357 PWs)   bands (ev):

    -3.6620   0.1903   2.7312   4.0946

          k =-0.1250-0.6250 0.8750 (   361 PWs)   bands (ev):

    -2.4408  -0.9012   2.0232   3.0942

          k = 0.6250-0.1250-0.3750 (   357 PWs)   bands (ev):

    -3.6620   0.1903   2.7312   4.0946

          k = 1.1250-0.6250 0.1250 (   361 PWs)   bands (ev):

    -2.4408  -0.9012   2.0232   3.0942

          k =-0.1250 0.8750-0.1250 (   358 PWs)   bands (ev):

    -2.6070  -0.8042   2.6290   3.3526

          k = 0.3750 0.3750 0.3750 (   353 PWs)   bands (ev):

    -4.1765   0.1127   4.9108   4.9108

          k = 0.1250 0.8750 0.1250 (   358 PWs)   bands (ev):

    -2.6070  -0.8042   2.6290   3.3526

          k = 0.6250 0.3750 0.6250 (   361 PWs)   bands (ev):

    -3.4724  -0.6742   3.7364   4.4472

          k = 0.3750-0.3750 0.3750 (   353 PWs)   bands (ev):

    -4.1765   0.1127   4.9108   4.9108

          k = 0.8750-0.8750 0.8750 (   338 PWs)   bands (ev):

    -5.6310   4.3900   5.6987   5.6987

          k = 0.3750 0.3750 1.1250 (   361 PWs)   bands (ev):

    -2.9773  -0.5948   2.0800   4.1314

          k = 0.8750-0.1250 1.6250 (   361 PWs)   bands (ev):

    -2.4408  -0.9012   2.0232   3.0942

          k = 1.1250 0.3750-0.3750 (   361 PWs)   bands (ev):

    -2.9773  -0.5948   2.0800   4.1314

          k = 1.6250-0.1250 0.1250 (   353 PWs)   bands (ev):

    -5.1049   2.7715   4.6920   4.7556

     highest occupied level (ev):     5.6987

     Writing output data file silicon.10.334.save

                                                                                

     bravais-lattice index     =            2
     lattice parameter (alat)  =      10.3340  a.u.
     unit-cell volume          =     275.8960 (a.u.)^3
     number of atoms/cell      =            2
     number of atomic types    =            1
     kinetic-energy cut-off    =      18.0000  Ry
     charge density cut-off    =      72.0000  Ry
     convergence threshold     =      1.0E-12
     beta                      =       0.7000
     number of iterations used =            4
     Exchange-correlation      = SLA  PW   PBE  PBE ( 1  4  3  4 0 0)


     celldm(1)=   10.33400  celldm(2)=    0.00000  celldm(3)=    0.00000
     celldm(4)=    0.00000  celldm(5)=    0.00000  celldm(6)=    0.00000

     crystal axes: (cart. coord. in units of alat)
               a(1) = ( -0.5000  0.0000  0.5000 )  
               a(2) = (  0.0000  0.5000  0.5000 )  
               a(3) = ( -0.5000  0.5000  0.0000 )  

     reciprocal axes: (cart. coord. in units 2 pi/alat)
               b(1) = ( -1.0000 -1.0000  1.0000 )  
               b(2) = (  1.0000  1.0000  1.0000 )  
               b(3) = ( -1.0000  1.0000 -1.0000 )  


     Atoms inside the unit cell: 

     Cartesian axes

     site n.  atom      mass           positions (alat units)
        1     Si  28.0860   tau(    1) = (    0.00000    0.00000    0.00000  )
        2     Si  28.0860   tau(    2) = (    0.25000    0.25000    0.25000  )

     Computing dynamical matrix for 
                    q = (   0.5000000  -0.5000000   0.5000000 )

     13 Sym.Ops. (with q -> -q+G )


     G cutoff =  194.7644  (    685 G-vectors)     FFT grid: ( 20, 20, 20)
     number of k points=    60

     PseudoPot. # 1 for Si read from file:
     /home/max/quantum_espresso/qe-6.1/pseudo/si_pbe_v1.uspp.F.UPF.txt
     MD5 check sum: a056efeee980c13900f22a371efd63c1
     Pseudo is Ultrasoft + core correction, Zval =  4.0
     Generated by new atomic code, or converted to UPF format
     Using radial grid of  899 points,  6 beta functions with: 
                l(1) =   0
                l(2) =   0
                l(3) =   1
                l(4) =   1
                l(5) =   2
                l(6) =   2
     Q(r) pseudized with  8 coefficients,  rinner =    0.900   0.900   0.900
                                                       0.900   0.900


     Atomic displacements:
     There are   4 irreducible representations

     Representation     1      1 modes -  To be done

     Representation     2      1 modes -  To be done

     Representation     3      2 modes -  To be done

     Representation     4      2 modes -  To be done



     Alpha used in Ewald sum =   0.7000
     PHONON       :    18.25s CPU        19.50s WALL



     Representation #  1 mode #   1

     Self-consistent Calculation

      iter #   1 total cpu time :    19.6 secs   av.it.:   4.8
      thresh= 1.000E-02 alpha_mix =  0.700 |ddv_scf|^2 =  2.482E-05

      iter #   2 total cpu time :    19.8 secs   av.it.:   8.3
      thresh= 4.982E-04 alpha_mix =  0.700 |ddv_scf|^2 =  2.213E-05

      iter #   3 total cpu time :    19.9 secs   av.it.:   7.5
      thresh= 4.704E-04 alpha_mix =  0.700 |ddv_scf|^2 =  4.214E-08

      iter #   4 total cpu time :    20.1 secs   av.it.:   7.5
      thresh= 2.053E-05 alpha_mix =  0.700 |ddv_scf|^2 =  1.447E-10

      iter #   5 total cpu time :    20.3 secs   av.it.:   7.9
      thresh= 1.203E-06 alpha_mix =  0.700 |ddv_scf|^2 =  3.548E-12

      iter #   6 total cpu time :    20.6 secs   av.it.:   7.9
      thresh= 1.884E-07 alpha_mix =  0.700 |ddv_scf|^2 =  5.471E-14

     End of self-consistent calculation

     Convergence has been achieved 


     Representation #  2 mode #   2

     Self-consistent Calculation

      iter #   1 total cpu time :    20.7 secs   av.it.:   5.7
      thresh= 1.000E-02 alpha_mix =  0.700 |ddv_scf|^2 =  3.447E-04

      iter #   2 total cpu time :    20.9 secs   av.it.:   8.3
      thresh= 1.857E-03 alpha_mix =  0.700 |ddv_scf|^2 =  1.063E-03

      iter #   3 total cpu time :    21.0 secs   av.it.:   7.1
      thresh= 3.260E-03 alpha_mix =  0.700 |ddv_scf|^2 =  1.143E-07

      iter #   4 total cpu time :    21.2 secs   av.it.:   8.2
      thresh= 3.381E-05 alpha_mix =  0.700 |ddv_scf|^2 =  7.363E-09

      iter #   5 total cpu time :    21.4 secs   av.it.:   8.5
      thresh= 8.581E-06 alpha_mix =  0.700 |ddv_scf|^2 =  1.304E-10

      iter #   6 total cpu time :    21.5 secs   av.it.:   8.3
      thresh= 1.142E-06 alpha_mix =  0.700 |ddv_scf|^2 =  2.078E-12

      iter #   7 total cpu time :    21.7 secs   av.it.:   7.8
      thresh= 1.441E-07 alpha_mix =  0.700 |ddv_scf|^2 =  3.152E-15

     End of self-consistent calculation

     Convergence has been achieved 


     Representation #  3 modes #   3  4

     Self-consistent Calculation

      iter #   1 total cpu time :    21.9 secs   av.it.:   4.7
      thresh= 1.000E-02 alpha_mix =  0.700 |ddv_scf|^2 =  3.041E-07

      iter #   2 total cpu time :    22.3 secs   av.it.:   9.0
      thresh= 5.514E-05 alpha_mix =  0.700 |ddv_scf|^2 =  2.510E-08

      iter #   3 total cpu time :    22.7 secs   av.it.:   8.4
      thresh= 1.584E-05 alpha_mix =  0.700 |ddv_scf|^2 =  4.943E-10

      iter #   4 total cpu time :    23.1 secs   av.it.:   8.9
      thresh= 2.223E-06 alpha_mix =  0.700 |ddv_scf|^2 =  6.206E-12

      iter #   5 total cpu time :    23.4 secs   av.it.:   8.7
      thresh= 2.491E-07 alpha_mix =  0.700 |ddv_scf|^2 =  3.226E-14

     End of self-consistent calculation

     Convergence has been achieved 


     Representation #  4 modes #   5  6

     Self-consistent Calculation

      iter #   1 total cpu time :    23.6 secs   av.it.:   5.0
      thresh= 1.000E-02 alpha_mix =  0.700 |ddv_scf|^2 =  9.800E-07

      iter #   2 total cpu time :    24.0 secs   av.it.:   9.4
      thresh= 9.899E-05 alpha_mix =  0.700 |ddv_scf|^2 =  7.666E-08

      iter #   3 total cpu time :    24.3 secs   av.it.:   9.3
      thresh= 2.769E-05 alpha_mix =  0.700 |ddv_scf|^2 =  4.926E-09

      iter #   4 total cpu time :    24.8 secs   av.it.:   8.5
      thresh= 7.019E-06 alpha_mix =  0.700 |ddv_scf|^2 =  6.614E-12

      iter #   5 total cpu time :    25.1 secs   av.it.:   8.8
      thresh= 2.572E-07 alpha_mix =  0.700 |ddv_scf|^2 =  2.297E-14

     End of self-consistent calculation

     Convergence has been achieved 

     Number of q in the star =    4
     List of q in the star:
          1   0.500000000  -0.500000000   0.500000000
          2   0.500000000   0.500000000   0.500000000
          3  -0.500000000   0.500000000   0.500000000
          4   0.500000000   0.500000000  -0.500000000

     Diagonalizing the dynamical matrix

     q = (    0.500000000  -0.500000000   0.500000000 ) 

 **************************************************************************
     freq (    1) =       4.559561 [THz] =     152.090590 [cm-1]
     freq (    2) =       4.559561 [THz] =     152.090590 [cm-1]
     freq (    3) =      11.550207 [THz] =     385.273428 [cm-1]
     freq (    4) =      12.131004 [THz] =     404.646747 [cm-1]
     freq (    5) =      14.409146 [THz] =     480.637377 [cm-1]
     freq (    6) =      14.409146 [THz] =     480.637377 [cm-1]
 **************************************************************************

     Calculation of q =    0.0000000   0.5000000   0.0000000

   Info: using nr1, nr2, nr3 values from input

   Info: using nr1, nr2, nr3 values from input

     Parallelization info
     --------------------
     sticks:   dense  smooth     PW     G-vecs:    dense   smooth      PW
     Min          63      63     27                  684      684     175
     Max          64      64     28                  688      688     176
     Sum         253     253    109                 2741     2741     701



     bravais-lattice index     =            2
     lattice parameter (alat)  =      10.3340  a.u.
     unit-cell volume          =     275.8960 (a.u.)^3
     number of atoms/cell      =            2
     number of atomic types    =            1
     number of electrons       =         8.00
     number of Kohn-Sham states=            4
     kinetic-energy cutoff     =      18.0000  Ry
     charge density cutoff     =      72.0000  Ry
     Exchange-correlation      = SLA  PW   PBE  PBE ( 1  4  3  4 0 0)

     celldm(1)=  10.334000  celldm(2)=   0.000000  celldm(3)=   0.000000
     celldm(4)=   0.000000  celldm(5)=   0.000000  celldm(6)=   0.000000

     crystal axes: (cart. coord. in units of alat)
               a(1) = (  -0.500000   0.000000   0.500000 )  
               a(2) = (   0.000000   0.500000   0.500000 )  
               a(3) = (  -0.500000   0.500000   0.000000 )  

     reciprocal axes: (cart. coord. in units 2 pi/alat)
               b(1) = ( -1.000000 -1.000000  1.000000 )  
               b(2) = (  1.000000  1.000000  1.000000 )  
               b(3) = ( -1.000000  1.000000 -1.000000 )  


     PseudoPot. # 1 for Si read from file:
     /home/max/quantum_espresso/qe-6.1/pseudo/si_pbe_v1.uspp.F.UPF.txt
     MD5 check sum: a056efeee980c13900f22a371efd63c1
     Pseudo is Ultrasoft + core correction, Zval =  4.0
     Generated by new atomic code, or converted to UPF format
     Using radial grid of  899 points,  6 beta functions with: 
                l(1) =   0
                l(2) =   0
                l(3) =   1
                l(4) =   1
                l(5) =   2
                l(6) =   2
     Q(r) pseudized with  8 coefficients,  rinner =    0.900   0.900   0.900
                                                       0.900   0.900

     atomic species   valence    mass     pseudopotential
        Si             4.00    28.08600     Si( 1.00)

     48 Sym. Ops., with inversion, found



   Cartesian axes

     site n.     atom                  positions (alat units)
         1           Si  tau(   1) = (   0.0000000   0.0000000   0.0000000  )
         2           Si  tau(   2) = (   0.2500000   0.2500000   0.2500000  )

     number of k points=    80
                       cart. coord. in units 2pi/alat
        k(    1) = (  -0.1250000   0.1250000   0.1250000), wk =   0.0312500
        k(    2) = (  -0.1250000   0.6250000   0.1250000), wk =   0.0000000
        k(    3) = (  -0.3750000   0.3750000  -0.1250000), wk =   0.0625000
        k(    4) = (  -0.3750000   0.8750000  -0.1250000), wk =   0.0000000
        k(    5) = (   0.3750000  -0.3750000   0.6250000), wk =   0.0625000
        k(    6) = (   0.3750000   0.1250000   0.6250000), wk =   0.0000000
        k(    7) = (   0.1250000  -0.1250000   0.3750000), wk =   0.0625000
        k(    8) = (   0.1250000   0.3750000   0.3750000), wk =   0.0000000
        k(    9) = (  -0.1250000   0.6250000   0.1250000), wk =   0.0312500
        k(   10) = (  -0.1250000   1.1250000   0.1250000), wk =   0.0000000
        k(   11) = (   0.6250000  -0.1250000   0.8750000), wk =   0.0625000
        k(   12) = (   0.6250000   0.3750000   0.8750000), wk =   0.0000000
        k(   13) = (   0.3750000   0.1250000   0.6250000), wk =   0.0625000
        k(   14) = (   0.3750000   0.6250000   0.6250000), wk =   0.0000000
        k(   15) = (  -0.1250000  -0.8750000   0.1250000), wk =   0.0312500
        k(   16) = (  -0.1250000  -0.3750000   0.1250000), wk =   0.0000000
        k(   17) = (  -0.3750000   0.3750000   0.3750000), wk =   0.0312500
        k(   18) = (  -0.3750000   0.8750000   0.3750000), wk =   0.0000000
        k(   19) = (   0.3750000  -0.3750000   1.1250000), wk =   0.0625000
        k(   20) = (   0.3750000   0.1250000   1.1250000), wk =   0.0000000
        k(   21) = (  -0.1250000  -0.1250000   0.1250000), wk =   0.0312500
        k(   22) = (  -0.1250000   0.3750000   0.1250000), wk =   0.0000000
        k(   23) = (   0.1250000  -0.3750000   0.3750000), wk =   0.0625000
        k(   24) = (   0.1250000   0.1250000   0.3750000), wk =   0.0000000
        k(   25) = (   0.3750000  -0.1250000   0.3750000), wk =   0.0312500
        k(   26) = (   0.3750000   0.3750000   0.3750000), wk =   0.0000000
        k(   27) = (   0.3750000   0.1250000   0.3750000), wk =   0.0312500
        k(   28) = (   0.3750000   0.6250000   0.3750000), wk =   0.0000000
        k(   29) = (  -0.6250000   0.3750000  -0.3750000), wk =   0.0625000
        k(   30) = (  -0.6250000   0.8750000  -0.3750000), wk =   0.0000000
        k(   31) = (  -0.3750000   0.6250000  -0.3750000), wk =   0.0312500
        k(   32) = (  -0.3750000   1.1250000  -0.3750000), wk =   0.0000000
        k(   33) = (  -0.3750000  -0.6250000  -0.3750000), wk =   0.0312500
        k(   34) = (  -0.3750000  -0.1250000  -0.3750000), wk =   0.0000000
        k(   35) = (  -0.3750000   0.1250000  -0.1250000), wk =   0.0625000
        k(   36) = (  -0.3750000   0.6250000  -0.1250000), wk =   0.0000000
        k(   37) = (  -0.1250000   0.3750000  -0.1250000), wk =   0.0312500
        k(   38) = (  -0.1250000   0.8750000  -0.1250000), wk =   0.0000000
        k(   39) = (  -0.1250000  -0.3750000  -0.1250000), wk =   0.0312500
        k(   40) = (  -0.1250000   0.1250000  -0.1250000), wk =   0.0000000
        k(   41) = (  -0.1250000  -0.6250000   0.1250000), wk =   0.0312500
        k(   42) = (  -0.1250000  -0.1250000   0.1250000), wk =   0.0000000
        k(   43) = (   0.6250000  -0.1250000  -0.1250000), wk =   0.0625000
        k(   44) = (   0.6250000   0.3750000  -0.1250000), wk =   0.0000000
        k(   45) = (   0.6250000   0.1250000   0.1250000), wk =   0.0625000
        k(   46) = (   0.6250000   0.6250000   0.1250000), wk =   0.0000000
        k(   47) = (  -0.8750000   0.1250000  -0.6250000), wk =   0.0625000
        k(   48) = (  -0.8750000   0.6250000  -0.6250000), wk =   0.0000000
        k(   49) = (  -0.1250000   0.6250000  -0.8750000), wk =   0.0625000
        k(   50) = (  -0.1250000   1.1250000  -0.8750000), wk =   0.0000000
        k(   51) = (  -0.1250000   0.8750000  -0.6250000), wk =   0.0625000
        k(   52) = (  -0.1250000   1.3750000  -0.6250000), wk =   0.0000000
        k(   53) = (  -0.1250000  -0.8750000  -0.6250000), wk =   0.0625000
        k(   54) = (  -0.1250000  -0.3750000  -0.6250000), wk =   0.0000000
        k(   55) = (   0.8750000  -0.6250000   0.1250000), wk =   0.0625000
        k(   56) = (   0.8750000  -0.1250000   0.1250000), wk =   0.0000000
        k(   57) = (  -0.6250000  -0.1250000  -0.3750000), wk =   0.0625000
        k(   58) = (  -0.6250000   0.3750000  -0.3750000), wk =   0.0000000
        k(   59) = (   0.1250000   0.3750000  -0.6250000), wk =   0.0625000
        k(   60) = (   0.1250000   0.8750000  -0.6250000), wk =   0.0000000
        k(   61) = (   0.1250000   0.6250000  -0.3750000), wk =   0.0625000
        k(   62) = (   0.1250000   1.1250000  -0.3750000), wk =   0.0000000
        k(   63) = (   0.1250000  -0.6250000  -0.3750000), wk =   0.0625000
        k(   64) = (   0.1250000  -0.1250000  -0.3750000), wk =   0.0000000
        k(   65) = (   0.6250000  -0.3750000  -0.1250000), wk =   0.0625000
        k(   66) = (   0.6250000   0.1250000  -0.1250000), wk =   0.0000000
        k(   67) = (  -0.1250000   0.8750000   0.1250000), wk =   0.0312500
        k(   68) = (  -0.1250000   1.3750000   0.1250000), wk =   0.0000000
        k(   69) = (  -0.8750000  -0.1250000  -0.1250000), wk =   0.0625000
        k(   70) = (  -0.8750000   0.3750000  -0.1250000), wk =   0.0000000
        k(   71) = (  -0.8750000   0.1250000   0.1250000), wk =   0.0625000
        k(   72) = (  -0.8750000   0.6250000   0.1250000), wk =   0.0000000
        k(   73) = (  -0.3750000  -0.3750000   0.3750000), wk =   0.0312500
        k(   74) = (  -0.3750000   0.1250000   0.3750000), wk =   0.0000000
        k(   75) = (  -1.1250000   0.3750000  -0.3750000), wk =   0.0625000
        k(   76) = (  -1.1250000   0.8750000  -0.3750000), wk =   0.0000000
        k(   77) = (  -0.3750000   1.1250000  -0.3750000), wk =   0.0312500
        k(   78) = (  -0.3750000   1.6250000  -0.3750000), wk =   0.0000000
        k(   79) = (  -0.3750000  -1.1250000  -0.3750000), wk =   0.0312500
        k(   80) = (  -0.3750000  -0.6250000  -0.3750000), wk =   0.0000000

     Dense  grid:     2741 G-vectors     FFT dimensions: (  20,  20,  20)

     Estimated max dynamical RAM per process >       0.33MB

     Estimated total allocated dynamical RAM >       1.31MB

     Check: negative/imaginary core charge=   -0.000005    0.000000

     The potential is recalculated from file :
     ./_ph0/silicon.10.334.save/charge-density.dat

     Starting wfc are    8 atomic wfcs

     Band Structure Calculation
     Davidson diagonalization with overlap

     ethr =  1.25E-10,  avg # of iterations = 11.7

     total cpu time spent up to now is        2.2 secs

     End of band structure calculation

          k =-0.1250 0.1250 0.1250 (   338 PWs)   bands (ev):

    -5.6310   4.3900   5.6987   5.6987

          k =-0.1250 0.6250 0.1250 (   351 PWs)   bands (ev):

    -4.0758   1.0593   3.3708   3.8190

          k =-0.3750 0.3750-0.1250 (   352 PWs)   bands (ev):

    -4.6074   1.3979   3.7182   5.2169

          k =-0.3750 0.8750-0.1250 (   361 PWs)   bands (ev):

    -2.4408  -0.9012   2.0232   3.0942

          k = 0.3750-0.3750 0.6250 (   361 PWs)   bands (ev):

    -3.4724  -0.6742   3.7364   4.4472

          k = 0.3750 0.1250 0.6250 (   357 PWs)   bands (ev):

    -3.6620   0.1903   2.7312   4.0946

          k = 0.1250-0.1250 0.3750 (   353 PWs)   bands (ev):

    -5.1049   2.7715   4.6920   4.7556

          k = 0.1250 0.3750 0.3750 (   352 PWs)   bands (ev):

    -4.6074   1.3979   3.7182   5.2169

          k =-0.1250 0.6250 0.1250 (   351 PWs)   bands (ev):

    -4.0758   1.0593   3.3708   3.8190

          k =-0.1250 1.1250 0.1250 (   358 PWs)   bands (ev):

    -2.6070  -0.8042   2.6290   3.3526

          k = 0.6250-0.1250 0.8750 (   361 PWs)   bands (ev):

    -2.4408  -0.9012   2.0232   3.0942

          k = 0.6250 0.3750 0.8750 (   357 PWs)   bands (ev):

    -3.6620   0.1903   2.7312   4.0946

          k = 0.3750 0.1250 0.6250 (   357 PWs)   bands (ev):

    -3.6620   0.1903   2.7312   4.0946

          k = 0.3750 0.6250 0.6250 (   361 PWs)   bands (ev):

    -3.4724  -0.6742   3.7364   4.4472

          k =-0.1250-0.8750 0.1250 (   358 PWs)   bands (ev):

    -2.6070  -0.8042   2.6290   3.3526

          k =-0.1250-0.3750 0.1250 (   353 PWs)   bands (ev):

    -5.1049   2.7715   4.6920   4.7556

          k =-0.3750 0.3750 0.3750 (   353 PWs)   bands (ev):

    -4.1765   0.1127   4.9108   4.9108

          k =-0.3750 0.8750 0.3750 (   361 PWs)   bands (ev):

    -2.9773  -0.5948   2.0800   4.1314

          k = 0.3750-0.3750 1.1250 (   361 PWs)   bands (ev):

    -2.9773  -0.5948   2.0800   4.1314

          k = 0.3750 0.1250 1.1250 (   361 PWs)   bands (ev):

    -2.4408  -0.9012   2.0232   3.0942

          k =-0.1250-0.1250 0.1250 (   338 PWs)   bands (ev):

    -5.6310   4.3900   5.6987   5.6987

          k =-0.1250 0.3750 0.1250 (   353 PWs)   bands (ev):

    -5.1049   2.7715   4.6920   4.7556

          k = 0.1250-0.3750 0.3750 (   352 PWs)   bands (ev):

    -4.6074   1.3979   3.7182   5.2169

          k = 0.1250 0.1250 0.3750 (   353 PWs)   bands (ev):

    -5.1049   2.7715   4.6920   4.7556

          k = 0.3750-0.1250 0.3750 (   352 PWs)   bands (ev):

    -4.6074   1.3979   3.7182   5.2169

          k = 0.3750 0.3750 0.3750 (   353 PWs)   bands (ev):

    -4.1765   0.1127   4.9108   4.9108

          k = 0.3750 0.1250 0.3750 (   352 PWs)   bands (ev):

    -4.6074   1.3979   3.7182   5.2169

          k = 0.3750 0.6250 0.3750 (   361 PWs)   bands (ev):

    -3.4724  -0.6742   3.7364   4.4472

          k =-0.6250 0.3750-0.3750 (   361 PWs)   bands (ev):

    -3.4724  -0.6742   3.7364   4.4472

          k =-0.6250 0.8750-0.3750 (   357 PWs)   bands (ev):

    -3.6620   0.1903   2.7312   4.0946

          k =-0.3750 0.6250-0.3750 (   361 PWs)   bands (ev):

    -3.4724  -0.6742   3.7364   4.4472

          k =-0.3750 1.1250-0.3750 (   361 PWs)   bands (ev):

    -2.9773  -0.5948   2.0800   4.1314

          k =-0.3750-0.6250-0.3750 (   361 PWs)   bands (ev):

    -3.4724  -0.6742   3.7364   4.4472

          k =-0.3750-0.1250-0.3750 (   352 PWs)   bands (ev):

    -4.6074   1.3979   3.7182   5.2169

          k =-0.3750 0.1250-0.1250 (   353 PWs)   bands (ev):

    -5.1049   2.7715   4.6920   4.7556

          k =-0.3750 0.6250-0.1250 (   357 PWs)   bands (ev):

    -3.6620   0.1903   2.7312   4.0946

          k =-0.1250 0.3750-0.1250 (   353 PWs)   bands (ev):

    -5.1049   2.7715   4.6920   4.7556

          k =-0.1250 0.8750-0.1250 (   358 PWs)   bands (ev):

    -2.6070  -0.8042   2.6290   3.3526

          k =-0.1250-0.3750-0.1250 (   353 PWs)   bands (ev):

    -5.1049   2.7715   4.6920   4.7556

          k =-0.1250 0.1250-0.1250 (   338 PWs)   bands (ev):

    -5.6310   4.3900   5.6987   5.6987

          k =-0.1250-0.6250 0.1250 (   351 PWs)   bands (ev):

    -4.0758   1.0593   3.3708   3.8190

          k =-0.1250-0.1250 0.1250 (   338 PWs)   bands (ev):

    -5.6310   4.3900   5.6987   5.6987

          k = 0.6250-0.1250-0.1250 (   351 PWs)   bands (ev):

    -4.0758   1.0593   3.3708   3.8190

          k = 0.6250 0.3750-0.1250 (   357 PWs)   bands (ev):

    -3.6620   0.1903   2.7312   4.0946

          k = 0.6250 0.1250 0.1250 (   351 PWs)   bands (ev):

    -4.0758   1.0593   3.3708   3.8190

          k = 0.6250 0.6250 0.1250 (   361 PWs)   bands (ev):

    -2.9773  -0.5948   2.0800   4.1314

          k =-0.8750 0.1250-0.6250 (   361 PWs)   bands (ev):

    -2.4408  -0.9012   2.0232   3.0942

          k =-0.8750 0.6250-0.6250 (   352 PWs)   bands (ev):

    -4.6074   1.3979   3.7182   5.2169

          k =-0.1250 0.6250-0.8750 (   361 PWs)   bands (ev):

    -2.4408  -0.9012   2.0232   3.0942

          k =-0.1250 1.1250-0.8750 (   358 PWs)   bands (ev):

    -2.6070  -0.8042   2.6290   3.3526

          k =-0.1250 0.8750-0.6250 (   361 PWs)   bands (ev):

    -2.4408  -0.9012   2.0232   3.0942

          k =-0.1250 1.3750-0.6250 (   361 PWs)   bands (ev):

    -2.9773  -0.5948   2.0800   4.1314

          k =-0.1250-0.8750-0.6250 (   361 PWs)   bands (ev):

    -2.4408  -0.9012   2.0232   3.0942

          k =-0.1250-0.3750-0.6250 (   357 PWs)   bands (ev):

    -3.6620   0.1903   2.7312   4.0946

          k = 0.8750-0.6250 0.1250 (   361 PWs)   bands (ev):

    -2.4408  -0.9012   2.0232   3.0942

          k = 0.8750-0.1250 0.1250 (   358 PWs)   bands (ev):

    -2.6070  -0.8042   2.6290   3.3526

          k =-0.6250-0.1250-0.3750 (   357 PWs)   bands (ev):

    -3.6620   0.1903   2.7312   4.0946

          k =-0.6250 0.3750-0.3750 (   361 PWs)   bands (ev):

    -3.4724  -0.6742   3.7364   4.4472

          k = 0.1250 0.3750-0.6250 (   357 PWs)   bands (ev):

    -3.6620   0.1903   2.7312   4.0946

          k = 0.1250 0.8750-0.6250 (   361 PWs)   bands (ev):

    -2.4408  -0.9012   2.0232   3.0942

          k = 0.1250 0.6250-0.3750 (   357 PWs)   bands (ev):

    -3.6620   0.1903   2.7312   4.0946

          k = 0.1250 1.1250-0.3750 (   361 PWs)   bands (ev):

    -2.4408  -0.9012   2.0232   3.0942

          k = 0.1250-0.6250-0.3750 (   357 PWs)   bands (ev):

    -3.6620   0.1903   2.7312   4.0946

          k = 0.1250-0.1250-0.3750 (   353 PWs)   bands (ev):

    -5.1049   2.7715   4.6920   4.7556

          k = 0.6250-0.3750-0.1250 (   357 PWs)   bands (ev):

    -3.6620   0.1903   2.7312   4.0946

          k = 0.6250 0.1250-0.1250 (   351 PWs)   bands (ev):

    -4.0758   1.0593   3.3708   3.8190

          k =-0.1250 0.8750 0.1250 (   358 PWs)   bands (ev):

    -2.6070  -0.8042   2.6290   3.3526

          k =-0.1250 1.3750 0.1250 (   351 PWs)   bands (ev):

    -4.0758   1.0593   3.3708   3.8190

          k =-0.8750-0.1250-0.1250 (   358 PWs)   bands (ev):

    -2.6070  -0.8042   2.6290   3.3526

          k =-0.8750 0.3750-0.1250 (   361 PWs)   bands (ev):

    -2.4408  -0.9012   2.0232   3.0942

          k =-0.8750 0.1250 0.1250 (   358 PWs)   bands (ev):

    -2.6070  -0.8042   2.6290   3.3526

          k =-0.8750 0.6250 0.1250 (   361 PWs)   bands (ev):

    -2.4408  -0.9012   2.0232   3.0942

          k =-0.3750-0.3750 0.3750 (   353 PWs)   bands (ev):

    -4.1765   0.1127   4.9108   4.9108

          k =-0.3750 0.1250 0.3750 (   352 PWs)   bands (ev):

    -4.6074   1.3979   3.7182   5.2169

          k =-1.1250 0.3750-0.3750 (   361 PWs)   bands (ev):

    -2.9773  -0.5948   2.0800   4.1314

          k =-1.1250 0.8750-0.3750 (   351 PWs)   bands (ev):

    -4.0758   1.0593   3.3708   3.8190

          k =-0.3750 1.1250-0.3750 (   361 PWs)   bands (ev):

    -2.9773  -0.5948   2.0800   4.1314

          k =-0.3750 1.6250-0.3750 (   353 PWs)   bands (ev):

    -4.1765   0.1127   4.9108   4.9108

          k =-0.3750-1.1250-0.3750 (   361 PWs)   bands (ev):

    -2.9773  -0.5948   2.0800   4.1314

          k =-0.3750-0.6250-0.3750 (   361 PWs)   bands (ev):

    -3.4724  -0.6742   3.7364   4.4472

     highest occupied level (ev):     5.6987

     Writing output data file silicon.10.334.save

                                                                                

     bravais-lattice index     =            2
     lattice parameter (alat)  =      10.3340  a.u.
     unit-cell volume          =     275.8960 (a.u.)^3
     number of atoms/cell      =            2
     number of atomic types    =            1
     kinetic-energy cut-off    =      18.0000  Ry
     charge density cut-off    =      72.0000  Ry
     convergence threshold     =      1.0E-12
     beta                      =       0.7000
     number of iterations used =            4
     Exchange-correlation      = SLA  PW   PBE  PBE ( 1  4  3  4 0 0)


     celldm(1)=   10.33400  celldm(2)=    0.00000  celldm(3)=    0.00000
     celldm(4)=    0.00000  celldm(5)=    0.00000  celldm(6)=    0.00000

     crystal axes: (cart. coord. in units of alat)
               a(1) = ( -0.5000  0.0000  0.5000 )  
               a(2) = (  0.0000  0.5000  0.5000 )  
               a(3) = ( -0.5000  0.5000  0.0000 )  

     reciprocal axes: (cart. coord. in units 2 pi/alat)
               b(1) = ( -1.0000 -1.0000  1.0000 )  
               b(2) = (  1.0000  1.0000  1.0000 )  
               b(3) = ( -1.0000  1.0000 -1.0000 )  


     Atoms inside the unit cell: 

     Cartesian axes

     site n.  atom      mass           positions (alat units)
        1     Si  28.0860   tau(    1) = (    0.00000    0.00000    0.00000  )
        2     Si  28.0860   tau(    2) = (    0.25000    0.25000    0.25000  )

     Computing dynamical matrix for 
                    q = (   0.0000000   0.5000000   0.0000000 )

      8 Sym.Ops. (no q -> -q+G )


     G cutoff =  194.7644  (    685 G-vectors)     FFT grid: ( 20, 20, 20)
     number of k points=    80

     PseudoPot. # 1 for Si read from file:
     /home/max/quantum_espresso/qe-6.1/pseudo/si_pbe_v1.uspp.F.UPF.txt
     MD5 check sum: a056efeee980c13900f22a371efd63c1
     Pseudo is Ultrasoft + core correction, Zval =  4.0
     Generated by new atomic code, or converted to UPF format
     Using radial grid of  899 points,  6 beta functions with: 
                l(1) =   0
                l(2) =   0
                l(3) =   1
                l(4) =   1
                l(5) =   2
                l(6) =   2
     Q(r) pseudized with  8 coefficients,  rinner =    0.900   0.900   0.900
                                                       0.900   0.900

     Mode symmetry, C_4v (4mm)  point group:


     Atomic displacements:
     There are   4 irreducible representations

     Representation     1      1 modes -A_1  G_1 D_1  To be done

     Representation     2      1 modes -B_2  G_4 D_2'  To be done

     Representation     3      2 modes -E    G_5 D_5  To be done

     Representation     4      2 modes -E    G_5 D_5  To be done



     Alpha used in Ewald sum =   0.7000
     PHONON       :    24.43s CPU        26.07s WALL



     Representation #  1 mode #   1

     Self-consistent Calculation

      iter #   1 total cpu time :    26.3 secs   av.it.:   5.8
      thresh= 1.000E-02 alpha_mix =  0.700 |ddv_scf|^2 =  2.971E-03

      iter #   2 total cpu time :    26.6 secs   av.it.:   7.7
      thresh= 5.450E-03 alpha_mix =  0.700 |ddv_scf|^2 =  3.908E-02

      iter #   3 total cpu time :    26.8 secs   av.it.:   6.7
      thresh= 1.000E-02 alpha_mix =  0.700 |ddv_scf|^2 =  1.373E-07

      iter #   4 total cpu time :    27.0 secs   av.it.:   8.2
      thresh= 3.706E-05 alpha_mix =  0.700 |ddv_scf|^2 =  1.258E-08

      iter #   5 total cpu time :    27.2 secs   av.it.:   7.8
      thresh= 1.121E-05 alpha_mix =  0.700 |ddv_scf|^2 =  7.377E-10

      iter #   6 total cpu time :    27.4 secs   av.it.:   7.8
      thresh= 2.716E-06 alpha_mix =  0.700 |ddv_scf|^2 =  2.650E-12

      iter #   7 total cpu time :    27.6 secs   av.it.:   8.0
      thresh= 1.628E-07 alpha_mix =  0.700 |ddv_scf|^2 =  5.301E-13

     End of self-consistent calculation

     Convergence has been achieved 


     Representation #  2 mode #   2

     Self-consistent Calculation

      iter #   1 total cpu time :    27.8 secs   av.it.:   4.9
      thresh= 1.000E-02 alpha_mix =  0.700 |ddv_scf|^2 =  5.515E-06

      iter #   2 total cpu time :    28.0 secs   av.it.:   8.7
      thresh= 2.348E-04 alpha_mix =  0.700 |ddv_scf|^2 =  1.335E-06

      iter #   3 total cpu time :    28.2 secs   av.it.:   8.5
      thresh= 1.156E-04 alpha_mix =  0.700 |ddv_scf|^2 =  4.290E-08

      iter #   4 total cpu time :    28.6 secs   av.it.:   8.2
      thresh= 2.071E-05 alpha_mix =  0.700 |ddv_scf|^2 =  6.985E-10

      iter #   5 total cpu time :    28.8 secs   av.it.:   8.5
      thresh= 2.643E-06 alpha_mix =  0.700 |ddv_scf|^2 =  6.903E-12

      iter #   6 total cpu time :    29.0 secs   av.it.:   7.9
      thresh= 2.627E-07 alpha_mix =  0.700 |ddv_scf|^2 =  7.007E-14

     End of self-consistent calculation

     Convergence has been achieved 


     Representation #  3 modes #   3  4

     Self-consistent Calculation

      iter #   1 total cpu time :    29.3 secs   av.it.:   5.0
      thresh= 1.000E-02 alpha_mix =  0.700 |ddv_scf|^2 =  1.025E-06

      iter #   2 total cpu time :    29.8 secs   av.it.:   9.8
      thresh= 1.013E-04 alpha_mix =  0.700 |ddv_scf|^2 =  1.268E-07

      iter #   3 total cpu time :    30.2 secs   av.it.:   9.5
      thresh= 3.561E-05 alpha_mix =  0.700 |ddv_scf|^2 =  6.718E-09

      iter #   4 total cpu time :    30.8 secs   av.it.:   8.8
      thresh= 8.197E-06 alpha_mix =  0.700 |ddv_scf|^2 =  9.390E-12

      iter #   5 total cpu time :    31.2 secs   av.it.:   9.2
      thresh= 3.064E-07 alpha_mix =  0.700 |ddv_scf|^2 =  2.860E-13

     End of self-consistent calculation

     Convergence has been achieved 


     Representation #  4 modes #   5  6

     Self-consistent Calculation

      iter #   1 total cpu time :    31.6 secs   av.it.:   5.0
      thresh= 1.000E-02 alpha_mix =  0.700 |ddv_scf|^2 =  9.085E-07

      iter #   2 total cpu time :    32.1 secs   av.it.:   9.8
      thresh= 9.532E-05 alpha_mix =  0.700 |ddv_scf|^2 =  1.150E-07

      iter #   3 total cpu time :    32.7 secs   av.it.:   9.5
      thresh= 3.392E-05 alpha_mix =  0.700 |ddv_scf|^2 =  6.166E-09

      iter #   4 total cpu time :    33.1 secs   av.it.:   8.9
      thresh= 7.852E-06 alpha_mix =  0.700 |ddv_scf|^2 =  1.406E-11

      iter #   5 total cpu time :    33.6 secs   av.it.:   9.2
      thresh= 3.749E-07 alpha_mix =  0.700 |ddv_scf|^2 =  4.321E-14

     End of self-consistent calculation

     Convergence has been achieved 

     Number of q in the star =    6
     List of q in the star:
          1   0.000000000   0.500000000   0.000000000
          2   0.000000000  -0.500000000   0.000000000
          3   0.500000000   0.000000000   0.000000000
          4   0.000000000   0.000000000   0.500000000
          5   0.000000000   0.000000000  -0.500000000
          6  -0.500000000   0.000000000   0.000000000

     Diagonalizing the dynamical matrix

     q = (    0.000000000   0.500000000   0.000000000 ) 

 **************************************************************************
     freq (    1) =       4.219304 [THz] =     140.740824 [cm-1]
     freq (    2) =       4.219304 [THz] =     140.740824 [cm-1]
     freq (    3) =       7.184005 [THz] =     239.632597 [cm-1]
     freq (    4) =      13.703013 [THz] =     457.083321 [cm-1]
     freq (    5) =      13.703013 [THz] =     457.083321 [cm-1]
     freq (    6) =      14.316461 [THz] =     477.545745 [cm-1]
 **************************************************************************

     Mode symmetry, C_4v (4mm)  point group:

     freq (  1 -  2) =        140.7  [cm-1]   --> E    G_5 D_5       
     freq (  3 -  3) =        239.6  [cm-1]   --> A_1  G_1 D_1       
     freq (  4 -  5) =        457.1  [cm-1]   --> E    G_5 D_5       
     freq (  6 -  6) =        477.5  [cm-1]   --> B_2  G_4 D_2'      

     Calculation of q =    0.7500000  -0.2500000   0.7500000

   Info: using nr1, nr2, nr3 values from input

   Info: using nr1, nr2, nr3 values from input

     Parallelization info
     --------------------
     sticks:   dense  smooth     PW     G-vecs:    dense   smooth      PW
     Min          63      63     30                  684      684     216
     Max          64      64     31                  688      688     218
     Sum         253     253    121                 2741     2741     869



     bravais-lattice index     =            2
     lattice parameter (alat)  =      10.3340  a.u.
     unit-cell volume          =     275.8960 (a.u.)^3
     number of atoms/cell      =            2
     number of atomic types    =            1
     number of electrons       =         8.00
     number of Kohn-Sham states=            4
     kinetic-energy cutoff     =      18.0000  Ry
     charge density cutoff     =      72.0000  Ry
     Exchange-correlation      = SLA  PW   PBE  PBE ( 1  4  3  4 0 0)

     celldm(1)=  10.334000  celldm(2)=   0.000000  celldm(3)=   0.000000
     celldm(4)=   0.000000  celldm(5)=   0.000000  celldm(6)=   0.000000

     crystal axes: (cart. coord. in units of alat)
               a(1) = (  -0.500000   0.000000   0.500000 )  
               a(2) = (   0.000000   0.500000   0.500000 )  
               a(3) = (  -0.500000   0.500000   0.000000 )  

     reciprocal axes: (cart. coord. in units 2 pi/alat)
               b(1) = ( -1.000000 -1.000000  1.000000 )  
               b(2) = (  1.000000  1.000000  1.000000 )  
               b(3) = ( -1.000000  1.000000 -1.000000 )  


     PseudoPot. # 1 for Si read from file:
     /home/max/quantum_espresso/qe-6.1/pseudo/si_pbe_v1.uspp.F.UPF.txt
     MD5 check sum: a056efeee980c13900f22a371efd63c1
     Pseudo is Ultrasoft + core correction, Zval =  4.0
     Generated by new atomic code, or converted to UPF format
     Using radial grid of  899 points,  6 beta functions with: 
                l(1) =   0
                l(2) =   0
                l(3) =   1
                l(4) =   1
                l(5) =   2
                l(6) =   2
     Q(r) pseudized with  8 coefficients,  rinner =    0.900   0.900   0.900
                                                       0.900   0.900

     atomic species   valence    mass     pseudopotential
        Si             4.00    28.08600     Si( 1.00)

     48 Sym. Ops., with inversion, found



   Cartesian axes

     site n.     atom                  positions (alat units)
         1           Si  tau(   1) = (   0.0000000   0.0000000   0.0000000  )
         2           Si  tau(   2) = (   0.2500000   0.2500000   0.2500000  )

     number of k points=   288

     Number of k-points >= 100: set verbosity='high' to print them.

     Dense  grid:     2741 G-vectors     FFT dimensions: (  20,  20,  20)

     Estimated max dynamical RAM per process >       0.33MB

     Estimated total allocated dynamical RAM >       1.31MB

     Check: negative/imaginary core charge=   -0.000005    0.000000

     The potential is recalculated from file :
     ./_ph0/silicon.10.334.save/charge-density.dat

     Starting wfc are    8 atomic wfcs

     Band Structure Calculation
     Davidson diagonalization with overlap

     ethr =  1.25E-10,  avg # of iterations = 11.6

     total cpu time spent up to now is        4.5 secs

     End of band structure calculation

     Number of k-points >= 100: set verbosity='high' to print the bands.

     highest occupied level (ev):     5.6987

     Writing output data file silicon.10.334.save

                                                                                

     bravais-lattice index     =            2
     lattice parameter (alat)  =      10.3340  a.u.
     unit-cell volume          =     275.8960 (a.u.)^3
     number of atoms/cell      =            2
     number of atomic types    =            1
     kinetic-energy cut-off    =      18.0000  Ry
     charge density cut-off    =      72.0000  Ry
     convergence threshold     =      1.0E-12
     beta                      =       0.7000
     number of iterations used =            4
     Exchange-correlation      = SLA  PW   PBE  PBE ( 1  4  3  4 0 0)


     celldm(1)=   10.33400  celldm(2)=    0.00000  celldm(3)=    0.00000
     celldm(4)=    0.00000  celldm(5)=    0.00000  celldm(6)=    0.00000

     crystal axes: (cart. coord. in units of alat)
               a(1) = ( -0.5000  0.0000  0.5000 )  
               a(2) = (  0.0000  0.5000  0.5000 )  
               a(3) = ( -0.5000  0.5000  0.0000 )  

     reciprocal axes: (cart. coord. in units 2 pi/alat)
               b(1) = ( -1.0000 -1.0000  1.0000 )  
               b(2) = (  1.0000  1.0000  1.0000 )  
               b(3) = ( -1.0000  1.0000 -1.0000 )  


     Atoms inside the unit cell: 

     Cartesian axes

     site n.  atom      mass           positions (alat units)
        1     Si  28.0860   tau(    1) = (    0.00000    0.00000    0.00000  )
        2     Si  28.0860   tau(    2) = (    0.25000    0.25000    0.25000  )

     Computing dynamical matrix for 
                    q = (   0.7500000  -0.2500000   0.7500000 )

      2 Sym.Ops. (no q -> -q+G )


     G cutoff =  194.7644  (    685 G-vectors)     FFT grid: ( 20, 20, 20)
     number of k points=   288

     PseudoPot. # 1 for Si read from file:
     /home/max/quantum_espresso/qe-6.1/pseudo/si_pbe_v1.uspp.F.UPF.txt
     MD5 check sum: a056efeee980c13900f22a371efd63c1
     Pseudo is Ultrasoft + core correction, Zval =  4.0
     Generated by new atomic code, or converted to UPF format
     Using radial grid of  899 points,  6 beta functions with: 
                l(1) =   0
                l(2) =   0
                l(3) =   1
                l(4) =   1
                l(5) =   2
                l(6) =   2
     Q(r) pseudized with  8 coefficients,  rinner =    0.900   0.900   0.900
                                                       0.900   0.900

     Mode symmetry, C_s (m)     point group:


     Atomic displacements:
     There are   6 irreducible representations

     Representation     1      1 modes -A'  To be done

     Representation     2      1 modes -A'  To be done

     Representation     3      1 modes -A'  To be done

     Representation     4      1 modes -A'  To be done

     Representation     5      1 modes -A''  To be done

     Representation     6      1 modes -A''  To be done



     Alpha used in Ewald sum =   0.7000
     PHONON       :    34.27s CPU        36.74s WALL



     Representation #  1 mode #   1

     Self-consistent Calculation

      iter #   1 total cpu time :    37.3 secs   av.it.:   5.3
      thresh= 1.000E-02 alpha_mix =  0.700 |ddv_scf|^2 =  6.118E-05

      iter #   2 total cpu time :    38.1 secs   av.it.:   8.9
      thresh= 7.822E-04 alpha_mix =  0.700 |ddv_scf|^2 =  1.601E-04

      iter #   3 total cpu time :    38.9 secs   av.it.:   7.6
      thresh= 1.265E-03 alpha_mix =  0.700 |ddv_scf|^2 =  1.140E-06

      iter #   4 total cpu time :    39.7 secs   av.it.:   8.4
      thresh= 1.068E-04 alpha_mix =  0.700 |ddv_scf|^2 =  5.659E-08

      iter #   5 total cpu time :    40.6 secs   av.it.:   8.3
      thresh= 2.379E-05 alpha_mix =  0.700 |ddv_scf|^2 =  7.276E-09

      iter #   6 total cpu time :    41.3 secs   av.it.:   8.5
      thresh= 8.530E-06 alpha_mix =  0.700 |ddv_scf|^2 =  7.977E-11

      iter #   7 total cpu time :    42.1 secs   av.it.:   8.8
      thresh= 8.932E-07 alpha_mix =  0.700 |ddv_scf|^2 =  2.888E-12

      iter #   8 total cpu time :    43.0 secs   av.it.:   8.6
      thresh= 1.700E-07 alpha_mix =  0.700 |ddv_scf|^2 =  1.819E-13

     End of self-consistent calculation

     Convergence has been achieved 


     Representation #  2 mode #   2

     Self-consistent Calculation

      iter #   1 total cpu time :    43.7 secs   av.it.:   5.4
      thresh= 1.000E-02 alpha_mix =  0.700 |ddv_scf|^2 =  1.089E-04

      iter #   2 total cpu time :    44.6 secs   av.it.:   8.7
      thresh= 1.044E-03 alpha_mix =  0.700 |ddv_scf|^2 =  3.105E-04

      iter #   3 total cpu time :    45.3 secs   av.it.:   7.4
      thresh= 1.762E-03 alpha_mix =  0.700 |ddv_scf|^2 =  7.828E-07

      iter #   4 total cpu time :    46.1 secs   av.it.:   8.5
      thresh= 8.847E-05 alpha_mix =  0.700 |ddv_scf|^2 =  5.611E-08

      iter #   5 total cpu time :    47.0 secs   av.it.:   8.2
      thresh= 2.369E-05 alpha_mix =  0.700 |ddv_scf|^2 =  1.027E-08

      iter #   6 total cpu time :    47.8 secs   av.it.:   8.5
      thresh= 1.014E-05 alpha_mix =  0.700 |ddv_scf|^2 =  7.893E-11

      iter #   7 total cpu time :    48.7 secs   av.it.:   8.8
      thresh= 8.884E-07 alpha_mix =  0.700 |ddv_scf|^2 =  2.582E-12

      iter #   8 total cpu time :    49.5 secs   av.it.:   8.7
      thresh= 1.607E-07 alpha_mix =  0.700 |ddv_scf|^2 =  7.148E-13

     End of self-consistent calculation

     Convergence has been achieved 


     Representation #  3 mode #   3

     Self-consistent Calculation

      iter #   1 total cpu time :    50.1 secs   av.it.:   5.3
      thresh= 1.000E-02 alpha_mix =  0.700 |ddv_scf|^2 =  8.539E-05

      iter #   2 total cpu time :    51.1 secs   av.it.:   8.8
      thresh= 9.241E-04 alpha_mix =  0.700 |ddv_scf|^2 =  2.278E-04

      iter #   3 total cpu time :    51.7 secs   av.it.:   7.4
      thresh= 1.509E-03 alpha_mix =  0.700 |ddv_scf|^2 =  1.337E-06

      iter #   4 total cpu time :    52.7 secs   av.it.:   8.2
      thresh= 1.156E-04 alpha_mix =  0.700 |ddv_scf|^2 =  5.717E-08

      iter #   5 total cpu time :    53.4 secs   av.it.:   8.4
      thresh= 2.391E-05 alpha_mix =  0.700 |ddv_scf|^2 =  1.053E-08

      iter #   6 total cpu time :    54.2 secs   av.it.:   8.5
      thresh= 1.026E-05 alpha_mix =  0.700 |ddv_scf|^2 =  4.628E-11

      iter #   7 total cpu time :    55.1 secs   av.it.:   8.7
      thresh= 6.803E-07 alpha_mix =  0.700 |ddv_scf|^2 =  1.578E-12

      iter #   8 total cpu time :    55.9 secs   av.it.:   8.8
      thresh= 1.256E-07 alpha_mix =  0.700 |ddv_scf|^2 =  2.208E-13

     End of self-consistent calculation

     Convergence has been achieved 


     Representation #  4 mode #   4

     Self-consistent Calculation

      iter #   1 total cpu time :    56.7 secs   av.it.:   5.2
      thresh= 1.000E-02 alpha_mix =  0.700 |ddv_scf|^2 =  3.769E-05

      iter #   2 total cpu time :    57.5 secs   av.it.:   8.9
[...]
        k(   59) = (  -0.8750000   0.1250000  -0.1250000), wk =   0.0625000
        k(   60) = (  -1.3750000  -0.8750000  -0.1250000), wk =   0.0000000
        k(   61) = (  -1.1250000   0.3750000  -0.3750000), wk =   0.0625000
        k(   62) = (  -1.6250000  -0.6250000  -0.3750000), wk =   0.0000000
        k(   63) = (  -0.3750000   0.3750000   1.1250000), wk =   0.0625000
        k(   64) = (  -0.8750000  -0.6250000   1.1250000), wk =   0.0000000

     Dense  grid:     2741 G-vectors     FFT dimensions: (  20,  20,  20)

     Estimated max dynamical RAM per process >       0.33MB

     Estimated total allocated dynamical RAM >       1.31MB

     Check: negative/imaginary core charge=   -0.000005    0.000000

     The potential is recalculated from file :
     ./_ph0/silicon.10.334.save/charge-density.dat

     Starting wfc are    8 atomic wfcs

     Band Structure Calculation
     Davidson diagonalization with overlap

     ethr =  1.25E-10,  avg # of iterations = 11.6

     total cpu time spent up to now is        7.0 secs

     End of band structure calculation

          k =-0.1250 0.1250 0.1250 (   338 PWs)   bands (ev):

    -5.6310   4.3900   5.6987   5.6987

          k =-0.6250-0.8750 0.1250 (   361 PWs)   bands (ev):

    -2.4408  -0.9012   2.0232   3.0942

          k =-0.3750 0.3750-0.1250 (   352 PWs)   bands (ev):

    -4.6074   1.3979   3.7182   5.2169

          k =-0.8750-0.6250-0.1250 (   361 PWs)   bands (ev):

    -2.4408  -0.9012   2.0232   3.0942

          k = 0.3750-0.3750 0.6250 (   361 PWs)   bands (ev):

    -3.4724  -0.6742   3.7364   4.4472

          k =-0.1250-1.3750 0.6250 (   361 PWs)   bands (ev):

    -2.9773  -0.5948   2.0800   4.1314

          k = 0.1250-0.1250 0.3750 (   353 PWs)   bands (ev):

    -5.1049   2.7715   4.6920   4.7556

          k =-0.3750-1.1250 0.3750 (   361 PWs)   bands (ev):

    -2.9773  -0.5948   2.0800   4.1314

          k =-0.1250 0.6250 0.1250 (   351 PWs)   bands (ev):

    -4.0758   1.0593   3.3708   3.8190

          k =-0.6250-0.3750 0.1250 (   357 PWs)   bands (ev):

    -3.6620   0.1903   2.7312   4.0946

          k = 0.6250-0.1250 0.8750 (   361 PWs)   bands (ev):

    -2.4408  -0.9012   2.0232   3.0942

          k = 0.1250-1.1250 0.8750 (   358 PWs)   bands (ev):

    -2.6070  -0.8042   2.6290   3.3526

          k = 0.3750 0.1250 0.6250 (   357 PWs)   bands (ev):

    -3.6620   0.1903   2.7312   4.0946

          k =-0.1250-0.8750 0.6250 (   361 PWs)   bands (ev):

    -2.4408  -0.9012   2.0232   3.0942

          k =-0.1250-0.8750 0.1250 (   358 PWs)   bands (ev):

    -2.6070  -0.8042   2.6290   3.3526

          k =-0.6250-1.8750 0.1250 (   351 PWs)   bands (ev):

    -4.0758   1.0593   3.3708   3.8190

          k =-0.3750 0.3750 0.3750 (   353 PWs)   bands (ev):

    -4.1765   0.1127   4.9108   4.9108

          k =-0.8750-0.6250 0.3750 (   357 PWs)   bands (ev):

    -3.6620   0.1903   2.7312   4.0946

          k = 0.3750-0.3750 1.1250 (   361 PWs)   bands (ev):

    -2.9773  -0.5948   2.0800   4.1314

          k =-0.1250-1.3750 1.1250 (   361 PWs)   bands (ev):

    -2.4408  -0.9012   2.0232   3.0942

          k = 0.1250-0.3750 0.3750 (   352 PWs)   bands (ev):

    -4.6074   1.3979   3.7182   5.2169

          k =-0.3750-1.3750 0.3750 (   361 PWs)   bands (ev):

    -3.4724  -0.6742   3.7364   4.4472

          k = 0.3750-0.3750-0.1250 (   352 PWs)   bands (ev):

    -4.6074   1.3979   3.7182   5.2169

          k =-0.1250-1.3750-0.1250 (   351 PWs)   bands (ev):

    -4.0758   1.0593   3.3708   3.8190

          k =-0.6250 0.3750-0.3750 (   361 PWs)   bands (ev):

    -3.4724  -0.6742   3.7364   4.4472

          k =-1.1250-0.6250-0.3750 (   357 PWs)   bands (ev):

    -3.6620   0.1903   2.7312   4.0946

          k =-0.3750 0.3750 0.6250 (   361 PWs)   bands (ev):

    -3.4724  -0.6742   3.7364   4.4472

          k =-0.8750-0.6250 0.6250 (   352 PWs)   bands (ev):

    -4.6074   1.3979   3.7182   5.2169

          k =-0.3750 0.1250-0.1250 (   353 PWs)   bands (ev):

    -5.1049   2.7715   4.6920   4.7556

          k =-0.8750-0.8750-0.1250 (   358 PWs)   bands (ev):

    -2.6070  -0.8042   2.6290   3.3526

          k =-0.1250 0.1250 0.3750 (   353 PWs)   bands (ev):

    -5.1049   2.7715   4.6920   4.7556

          k =-0.6250-0.8750 0.3750 (   357 PWs)   bands (ev):

    -3.6620   0.1903   2.7312   4.0946

          k = 0.1250 0.6250-0.1250 (   351 PWs)   bands (ev):

    -4.0758   1.0593   3.3708   3.8190

          k =-0.3750-0.3750-0.1250 (   352 PWs)   bands (ev):

    -4.6074   1.3979   3.7182   5.2169

          k = 0.6250 0.1250-0.1250 (   351 PWs)   bands (ev):

    -4.0758   1.0593   3.3708   3.8190

          k = 0.1250-0.8750-0.1250 (   358 PWs)   bands (ev):

    -2.6070  -0.8042   2.6290   3.3526

          k =-0.8750 0.1250-0.6250 (   361 PWs)   bands (ev):

    -2.4408  -0.9012   2.0232   3.0942

          k =-1.3750-0.8750-0.6250 (   352 PWs)   bands (ev):

    -4.6074   1.3979   3.7182   5.2169

          k = 0.8750-0.1250 0.6250 (   361 PWs)   bands (ev):

    -2.4408  -0.9012   2.0232   3.0942

          k = 0.3750-1.1250 0.6250 (   357 PWs)   bands (ev):

    -3.6620   0.1903   2.7312   4.0946

          k =-0.6250 0.1250 0.8750 (   361 PWs)   bands (ev):

    -2.4408  -0.9012   2.0232   3.0942

          k =-1.1250-0.8750 0.8750 (   338 PWs)   bands (ev):

    -5.6310   4.3900   5.6987   5.6987

          k =-0.1250 0.8750 0.6250 (   361 PWs)   bands (ev):

    -2.4408  -0.9012   2.0232   3.0942

          k =-0.6250-0.1250 0.6250 (   361 PWs)   bands (ev):

    -2.9773  -0.5948   2.0800   4.1314

          k = 0.1250 0.8750-0.6250 (   361 PWs)   bands (ev):

    -2.4408  -0.9012   2.0232   3.0942

          k =-0.3750-0.1250-0.6250 (   357 PWs)   bands (ev):

    -3.6620   0.1903   2.7312   4.0946

          k =-0.6250-0.1250-0.3750 (   357 PWs)   bands (ev):

    -3.6620   0.1903   2.7312   4.0946

          k =-1.1250-1.1250-0.3750 (   351 PWs)   bands (ev):

    -4.0758   1.0593   3.3708   3.8190

          k = 0.6250 0.1250 0.3750 (   357 PWs)   bands (ev):

    -3.6620   0.1903   2.7312   4.0946

          k = 0.1250-0.8750 0.3750 (   361 PWs)   bands (ev):

    -2.4408  -0.9012   2.0232   3.0942

          k =-0.3750-0.1250 0.6250 (   357 PWs)   bands (ev):

    -3.6620   0.1903   2.7312   4.0946

          k =-0.8750-1.1250 0.6250 (   353 PWs)   bands (ev):

    -5.1049   2.7715   4.6920   4.7556

          k = 0.1250 0.6250 0.3750 (   357 PWs)   bands (ev):

    -3.6620   0.1903   2.7312   4.0946

          k =-0.3750-0.3750 0.3750 (   353 PWs)   bands (ev):

    -4.1765   0.1127   4.9108   4.9108

          k =-0.1250 0.6250-0.3750 (   357 PWs)   bands (ev):

    -3.6620   0.1903   2.7312   4.0946

          k =-0.6250-0.3750-0.3750 (   361 PWs)   bands (ev):

    -3.4724  -0.6742   3.7364   4.4472

          k = 0.1250-0.8750-0.1250 (   358 PWs)   bands (ev):

    -2.6070  -0.8042   2.6290   3.3526

          k =-0.3750-1.8750-0.1250 (   353 PWs)   bands (ev):

    -5.1049   2.7715   4.6920   4.7556

          k =-0.8750 0.1250-0.1250 (   358 PWs)   bands (ev):

    -2.6070  -0.8042   2.6290   3.3526

          k =-1.3750-0.8750-0.1250 (   361 PWs)   bands (ev):

    -2.4408  -0.9012   2.0232   3.0942

          k =-1.1250 0.3750-0.3750 (   361 PWs)   bands (ev):

    -2.9773  -0.5948   2.0800   4.1314

          k =-1.6250-0.6250-0.3750 (   361 PWs)   bands (ev):

    -3.4724  -0.6742   3.7364   4.4472

          k =-0.3750 0.3750 1.1250 (   361 PWs)   bands (ev):

    -2.9773  -0.5948   2.0800   4.1314

          k =-0.8750-0.6250 1.1250 (   353 PWs)   bands (ev):

    -5.1049   2.7715   4.6920   4.7556

     highest occupied level (ev):     5.6987

     Writing output data file silicon.10.334.save

                                                                                

     bravais-lattice index     =            2
     lattice parameter (alat)  =      10.3340  a.u.
     unit-cell volume          =     275.8960 (a.u.)^3
     number of atoms/cell      =            2
     number of atomic types    =            1
     kinetic-energy cut-off    =      18.0000  Ry
     charge density cut-off    =      72.0000  Ry
     convergence threshold     =      1.0E-12
     beta                      =       0.7000
     number of iterations used =            4
     Exchange-correlation      = SLA  PW   PBE  PBE ( 1  4  3  4 0 0)


     celldm(1)=   10.33400  celldm(2)=    0.00000  celldm(3)=    0.00000
     celldm(4)=    0.00000  celldm(5)=    0.00000  celldm(6)=    0.00000

     crystal axes: (cart. coord. in units of alat)
               a(1) = ( -0.5000  0.0000  0.5000 )  
               a(2) = (  0.0000  0.5000  0.5000 )  
               a(3) = ( -0.5000  0.5000  0.0000 )  

     reciprocal axes: (cart. coord. in units 2 pi/alat)
               b(1) = ( -1.0000 -1.0000  1.0000 )  
               b(2) = (  1.0000  1.0000  1.0000 )  
               b(3) = ( -1.0000  1.0000 -1.0000 )  


     Atoms inside the unit cell: 

     Cartesian axes

     site n.  atom      mass           positions (alat units)
        1     Si  28.0860   tau(    1) = (    0.00000    0.00000    0.00000  )
        2     Si  28.0860   tau(    2) = (    0.25000    0.25000    0.25000  )

     Computing dynamical matrix for 
                    q = (  -0.5000000  -1.0000000   0.0000000 )

      8 Sym.Ops. (no q -> -q+G )


     G cutoff =  194.7644  (    685 G-vectors)     FFT grid: ( 20, 20, 20)
     number of k points=    64

     PseudoPot. # 1 for Si read from file:
     /home/max/quantum_espresso/qe-6.1/pseudo/si_pbe_v1.uspp.F.UPF.txt
     MD5 check sum: a056efeee980c13900f22a371efd63c1
     Pseudo is Ultrasoft + core correction, Zval =  4.0
     Generated by new atomic code, or converted to UPF format
     Using radial grid of  899 points,  6 beta functions with: 
                l(1) =   0
                l(2) =   0
                l(3) =   1
                l(4) =   1
                l(5) =   2
                l(6) =   2
     Q(r) pseudized with  8 coefficients,  rinner =    0.900   0.900   0.900
                                                       0.900   0.900


     Atomic displacements:
     There are   3 irreducible representations

     Representation     1      2 modes -  To be done

     Representation     2      2 modes -  To be done

     Representation     3      2 modes -  To be done



     Alpha used in Ewald sum =   0.7000
     PHONON       :  1m24.75s CPU     1m31.99s WALL



     Representation #  1 modes #   1  2

     Self-consistent Calculation

      iter #   1 total cpu time :    92.3 secs   av.it.:   5.3
      thresh= 1.000E-02 alpha_mix =  0.700 |ddv_scf|^2 =  6.333E-06

      iter #   2 total cpu time :    92.8 secs   av.it.:   9.9
      thresh= 2.516E-04 alpha_mix =  0.700 |ddv_scf|^2 =  3.429E-06

      iter #   3 total cpu time :    93.2 secs   av.it.:   9.3
      thresh= 1.852E-04 alpha_mix =  0.700 |ddv_scf|^2 =  8.450E-09

      iter #   4 total cpu time :    93.6 secs   av.it.:   9.1
      thresh= 9.192E-06 alpha_mix =  0.700 |ddv_scf|^2 =  1.916E-11

      iter #   5 total cpu time :    94.0 secs   av.it.:   9.1
      thresh= 4.377E-07 alpha_mix =  0.700 |ddv_scf|^2 =  5.294E-13

     End of self-consistent calculation

     Convergence has been achieved 


     Representation #  2 modes #   3  4

     Self-consistent Calculation

      iter #   1 total cpu time :    94.3 secs   av.it.:   5.2
      thresh= 1.000E-02 alpha_mix =  0.700 |ddv_scf|^2 =  9.815E-06

      iter #   2 total cpu time :    94.8 secs   av.it.:   9.9
      thresh= 3.133E-04 alpha_mix =  0.700 |ddv_scf|^2 =  1.306E-05

      iter #   3 total cpu time :    95.2 secs   av.it.:   9.1
      thresh= 3.614E-04 alpha_mix =  0.700 |ddv_scf|^2 =  9.937E-09

      iter #   4 total cpu time :    95.6 secs   av.it.:   8.9
      thresh= 9.969E-06 alpha_mix =  0.700 |ddv_scf|^2 =  8.097E-11

      iter #   5 total cpu time :    96.0 secs   av.it.:   9.4
      thresh= 8.999E-07 alpha_mix =  0.700 |ddv_scf|^2 =  1.740E-12

      iter #   6 total cpu time :    96.3 secs   av.it.:   9.1
      thresh= 1.319E-07 alpha_mix =  0.700 |ddv_scf|^2 =  1.454E-14

     End of self-consistent calculation

     Convergence has been achieved 


     Representation #  3 modes #   5  6

     Self-consistent Calculation

      iter #   1 total cpu time :    96.8 secs   av.it.:   5.1
      thresh= 1.000E-02 alpha_mix =  0.700 |ddv_scf|^2 =  2.651E-06

      iter #   2 total cpu time :    97.2 secs   av.it.:   9.7
      thresh= 1.628E-04 alpha_mix =  0.700 |ddv_scf|^2 =  1.447E-06

      iter #   3 total cpu time :    97.6 secs   av.it.:   9.1
      thresh= 1.203E-04 alpha_mix =  0.700 |ddv_scf|^2 =  8.328E-09

      iter #   4 total cpu time :    97.9 secs   av.it.:   8.8
      thresh= 9.126E-06 alpha_mix =  0.700 |ddv_scf|^2 =  4.273E-11

      iter #   5 total cpu time :    98.3 secs   av.it.:   9.1
      thresh= 6.537E-07 alpha_mix =  0.700 |ddv_scf|^2 =  6.984E-13

     End of self-consistent calculation

     Convergence has been achieved 

     Number of q in the star =    6
     List of q in the star:
          1  -0.500000000  -1.000000000   0.000000000
          2   0.000000000   1.000000000   0.500000000
          3   0.000000000  -1.000000000  -0.500000000
          4   0.500000000   1.000000000   0.000000000
          5  -1.000000000  -0.500000000   0.000000000
          6   0.000000000  -0.500000000  -1.000000000

     Diagonalizing the dynamical matrix

     q = (   -0.500000000  -1.000000000   0.000000000 ) 

 **************************************************************************
     freq (    1) =       7.002900 [THz] =     233.591614 [cm-1]
     freq (    2) =       7.002900 [THz] =     233.591614 [cm-1]
     freq (    3) =      10.782102 [THz] =     359.652215 [cm-1]
     freq (    4) =      10.782102 [THz] =     359.652215 [cm-1]
     freq (    5) =      13.780943 [THz] =     459.682792 [cm-1]
     freq (    6) =      13.780943 [THz] =     459.682792 [cm-1]
 **************************************************************************

     init_run     :      0.55s CPU      0.58s WALL (       7 calls)
     electrons    :      5.23s CPU      5.60s WALL (       7 calls)

     Called by init_run:
     wfcinit      :      0.00s CPU      0.00s WALL (       7 calls)
     potinit      :      0.02s CPU      0.02s WALL (       7 calls)

     Called by electrons:
     c_bands      :      5.23s CPU      5.59s WALL (       7 calls)
     v_of_rho     :      0.01s CPU      0.01s WALL (       8 calls)
     newd         :      0.03s CPU      0.03s WALL (       8 calls)

     Called by c_bands:
     init_us_2    :      0.68s CPU      0.75s WALL (   17588 calls)
     cegterg      :      4.40s CPU      4.71s WALL (     796 calls)

     Called by sum_band:

     Called by *egterg:
     h_psi        :     50.01s CPU     54.18s WALL (  152243 calls)
     s_psi        :      5.79s CPU      6.28s WALL (  309206 calls)
     g_psi        :      0.03s CPU      0.03s WALL (    9268 calls)
     cdiaghg      :      0.45s CPU      0.48s WALL (   10064 calls)

     Called by h_psi:
     h_psi:pot    :     49.82s CPU     53.98s WALL (  152243 calls)
     h_psi:calbec :      5.49s CPU      5.98s WALL (  152243 calls)
     vloc_psi     :     41.21s CPU     44.62s WALL (  152243 calls)
     add_vuspsi   :      2.90s CPU      3.14s WALL (  152243 calls)

     General routines
     calbec       :     11.67s CPU     12.74s WALL (  345578 calls)
     fft          :      0.73s CPU      0.81s WALL (    5239 calls)
     ffts         :      0.17s CPU      0.18s WALL (    2748 calls)
     fftw         :     48.18s CPU     52.25s WALL ( 1378442 calls)
     davcio       :      0.29s CPU      0.32s WALL (   79045 calls)

     Parallel routines
     fft_scatter  :     16.44s CPU     18.17s WALL ( 1386429 calls)

     PHONON       :  1m30.66s CPU     1m38.31s WALL

     INITIALIZATION: 
     phq_setup    :      0.06s CPU      0.06s WALL (       8 calls)
     phq_init     :      2.33s CPU      2.50s WALL (       8 calls)

     phq_init     :      2.33s CPU      2.50s WALL (       8 calls)
     set_drhoc    :      0.28s CPU      0.29s WALL (      24 calls)
     init_vloc    :      0.01s CPU      0.01s WALL (       8 calls)
     init_us_1    :      0.51s CPU      0.53s WALL (       8 calls)
     newd         :      0.03s CPU      0.03s WALL (       8 calls)
     dvanqq       :      0.27s CPU      0.28s WALL (       8 calls)
     drho         :      1.25s CPU      1.39s WALL (       8 calls)

     DYNAMICAL MATRIX:
     dynmat0      :      0.55s CPU      0.57s WALL (       8 calls)
     phqscf       :     79.85s CPU     86.85s WALL (       8 calls)
     dynmatrix    :      0.01s CPU      0.01s WALL (       8 calls)

     phqscf       :     79.85s CPU     86.85s WALL (       8 calls)
     solve_linter :     79.02s CPU     85.93s WALL (      32 calls)
     drhodv       :      0.59s CPU      0.67s WALL (      32 calls)

     dynmat0      :      0.55s CPU      0.57s WALL (       8 calls)
     dynmat_us    :      0.30s CPU      0.31s WALL (       8 calls)
     d2ionq       :      0.01s CPU      0.01s WALL (       8 calls)
     dynmatcc     :      0.22s CPU      0.23s WALL (       8 calls)

     dynmat_us    :      0.30s CPU      0.31s WALL (       8 calls)
     addusdynmat  :      0.00s CPU      0.00s WALL (       8 calls)

     phqscf       :     79.85s CPU     86.85s WALL (       8 calls)
     solve_linter :     79.02s CPU     85.93s WALL (      32 calls)

     solve_linter :     79.02s CPU     85.93s WALL (      32 calls)
     dvqpsi_us    :      1.81s CPU      1.93s WALL (    2508 calls)
     ortho        :      1.33s CPU      1.46s WALL (   15550 calls)
     cgsolve      :     62.26s CPU     67.70s WALL (   15550 calls)
     incdrhoscf   :      5.42s CPU      5.91s WALL (   15550 calls)
     addusddens   :      1.21s CPU      1.24s WALL (     228 calls)
     vpsifft      :      3.90s CPU      4.24s WALL (   12922 calls)
     dv_of_drho   :      0.28s CPU      0.30s WALL (     295 calls)
     mix_pot      :      0.06s CPU      0.06s WALL (     201 calls)
     psymdvscf    :      0.81s CPU      0.83s WALL (     196 calls)
     newdq        :      1.29s CPU      1.39s WALL (     201 calls)
     adddvscf     :      0.46s CPU      0.50s WALL (   13042 calls)
     drhodvus     :      0.00s CPU      0.00s WALL (      32 calls)

     dvqpsi_us    :      1.81s CPU      1.93s WALL (    2508 calls)
     dvqpsi_us_on :      0.83s CPU      0.88s WALL (    2508 calls)

     cgsolve      :     62.26s CPU     67.70s WALL (   15550 calls)
     ch_psi       :     59.53s CPU     64.64s WALL (  141383 calls)

     ch_psi       :     59.53s CPU     64.64s WALL (  141383 calls)
     h_psi        :     50.01s CPU     54.18s WALL (  152243 calls)
     last         :     10.16s CPU     11.07s WALL (  141383 calls)

     h_psi        :     50.01s CPU     54.18s WALL (  152243 calls)
     add_vuspsi   :      2.90s CPU      3.14s WALL (  152243 calls)

     incdrhoscf   :      5.42s CPU      5.91s WALL (   15550 calls)
     addusdbec    :      0.81s CPU      0.90s WALL (   17998 calls)

     drhodvus     :      0.00s CPU      0.00s WALL (      32 calls)

      General routines
     calbec       :     11.67s CPU     12.74s WALL (  345578 calls)
     fft          :      0.73s CPU      0.81s WALL (    5239 calls)
     ffts         :      0.17s CPU      0.18s WALL (    2748 calls)
     fftw         :     48.18s CPU     52.25s WALL ( 1378442 calls)
     davcio       :      0.29s CPU      0.32s WALL (   79045 calls)
     write_rec    :      0.22s CPU      0.24s WALL (     233 calls)


     PHONON       :  1m30.66s CPU     1m38.32s WALL


   This run was terminated on:  12:27: 2   9Nov2017            

=------------------------------------------------------------------------------=
   JOB DONE.
=------------------------------------------------------------------------------=
