
     Program PHONON v.6.1 (svn rev. 13369) starts on 10Nov2017 at 15:29:23 

     This program is part of the open-source Quantum ESPRESSO suite
     for quantum simulation of materials; please cite
         "P. Giannozzi et al., J. Phys.:Condens. Matter 21 395502 (2009);
          URL http://www.quantum-espresso.org", 
     in publications or presentations arising from this work. More details at
     http://www.quantum-espresso.org/quote

     Parallel version (MPI), running on     4 processors
     R & G space division:  proc/nbgrp/npool/nimage =       4

     Reading data from directory:
     ./silicon.10.328.save

   Info: using nr1, nr2, nr3 values from input

   Info: using nr1, nr2, nr3 values from input

     IMPORTANT: XC functional enforced from input :
     Exchange-correlation      = SLA  PW   PBE  PBE ( 1  4  3  4 0 0)
     Any further DFT definition will be discarded
     Please, verify this is what you really want


     Parallelization info
     --------------------
     sticks:   dense  smooth     PW     G-vecs:    dense   smooth      PW
     Min         219     109     37                 4315     1545     284
     Max         220     110     38                 4316     1546     285
     Sum         877     439    151                17261     6183    1139



     Dynamical matrices for ( 4, 4, 4)  uniform grid of q-points
     (   8q-points):
       N         xq(1)         xq(2)         xq(3) 
       1   0.000000000   0.000000000   0.000000000
       2  -0.250000000   0.250000000  -0.250000000
       3   0.500000000  -0.500000000   0.500000000
       4   0.000000000   0.500000000   0.000000000
       5   0.750000000  -0.250000000   0.750000000
       6   0.500000000   0.000000000   0.500000000
       7   0.000000000  -1.000000000   0.000000000
       8  -0.500000000  -1.000000000   0.000000000

     Calculation of q =    0.0000000   0.0000000   0.0000000

                                                                                

     bravais-lattice index     =            2
     lattice parameter (alat)  =      10.3280  a.u.
     unit-cell volume          =     275.4157 (a.u.)^3
     number of atoms/cell      =            2
     number of atomic types    =            1
     kinetic-energy cut-off    =      30.0000  Ry
     charge density cut-off    =     240.0000  Ry
     convergence threshold     =      1.0E-12
     beta                      =       0.7000
     number of iterations used =            4
     Exchange-correlation      = SLA  PW   PBE  PBE ( 1  4  3  4 0 0)


     celldm(1)=   10.32800  celldm(2)=    0.00000  celldm(3)=    0.00000
     celldm(4)=    0.00000  celldm(5)=    0.00000  celldm(6)=    0.00000

     crystal axes: (cart. coord. in units of alat)
               a(1) = ( -0.5000  0.0000  0.5000 )  
               a(2) = (  0.0000  0.5000  0.5000 )  
               a(3) = ( -0.5000  0.5000  0.0000 )  

     reciprocal axes: (cart. coord. in units 2 pi/alat)
               b(1) = ( -1.0000 -1.0000  1.0000 )  
               b(2) = (  1.0000  1.0000  1.0000 )  
               b(3) = ( -1.0000  1.0000 -1.0000 )  


     Atoms inside the unit cell: 

     Cartesian axes

     site n.  atom      mass           positions (alat units)
        1     Si  28.0860   tau(    1) = (    0.00000    0.00000    0.00000  )
        2     Si  28.0860   tau(    2) = (    0.25000    0.25000    0.25000  )

     Computing dynamical matrix for 
                    q = (   0.0000000   0.0000000   0.0000000 )

     49 Sym.Ops. (with q -> -q+G )


     G cutoff =  648.4612  (   4315 G-vectors)     FFT grid: ( 40, 40, 40)
     G cutoff =  324.2306  (   1546 G-vectors)  smooth grid: ( 25, 25, 25)
     number of k points=    10

     PseudoPot. # 1 for Si read from file:
     /home/s1333534/quantum_espresso/qe-6.1/pseudo/si_pbe_v1.uspp.F.UPF.txt
     MD5 check sum: a056efeee980c13900f22a371efd63c1
     Pseudo is Ultrasoft + core correction, Zval =  4.0
     Generated by new atomic code, or converted to UPF format
     Using radial grid of  899 points,  6 beta functions with: 
                l(1) =   0
                l(2) =   0
                l(3) =   1
                l(4) =   1
                l(5) =   2
                l(6) =   2
     Q(r) pseudized with  8 coefficients,  rinner =    0.900   0.900   0.900
                                                       0.900   0.900

     Mode symmetry, O_h (m-3m)  point group:


     Electric field:
     Dielectric constant
     Born effective charges in two ways 


     Atomic displacements:
     There are   2 irreducible representations

     Representation     1      3 modes -T_2g G_25' G_5+  To be done

     Representation     2      3 modes -T_1u G_15  G_4-  To be done



     Alpha used in Ewald sum =   2.5000
     PHONON       :     0.96s CPU         1.28s WALL


     Electric Fields Calculation

      iter #   1 total cpu time :     2.4 secs   av.it.:   5.7
      thresh= 1.000E-02 alpha_mix =  0.700 |ddv_scf|^2 =  9.704E-08

      iter #   2 total cpu time :     3.3 secs   av.it.:  11.9
      thresh= 3.115E-05 alpha_mix =  0.700 |ddv_scf|^2 =  5.704E-09

      iter #   3 total cpu time :     4.1 secs   av.it.:  11.7
      thresh= 7.552E-06 alpha_mix =  0.700 |ddv_scf|^2 =  3.800E-10

      iter #   4 total cpu time :     4.8 secs   av.it.:  10.6
      thresh= 1.949E-06 alpha_mix =  0.700 |ddv_scf|^2 =  2.490E-12

      iter #   5 total cpu time :     5.4 secs   av.it.:  11.2
      thresh= 1.578E-07 alpha_mix =  0.700 |ddv_scf|^2 =  2.478E-15

     End of electric fields calculation

          Dielectric constant in cartesian axis 

          (      13.954930656       0.000000000      -0.000000000 )
          (       0.000000000      13.954930656      -0.000000000 )
          (      -0.000000000      -0.000000000      13.954930656 )

          Effective charges (d Force / dE) in cartesian axis

           atom      1   Si 
      Ex  (       -0.03861       -0.00000       -0.00000 )
      Ey  (       -0.00000       -0.03861        0.00000 )
      Ez  (       -0.00000        0.00000       -0.03861 )
           atom      2   Si 
      Ex  (       -0.03861       -0.00000        0.00000 )
      Ey  (        0.00000       -0.03861        0.00000 )
      Ez  (        0.00000       -0.00000       -0.03861 )


     Representation #  1 modes #   1  2  3

     Self-consistent Calculation

      iter #   1 total cpu time :     6.9 secs   av.it.:   5.1
      thresh= 1.000E-02 alpha_mix =  0.700 |ddv_scf|^2 =  1.715E-08

      iter #   2 total cpu time :     7.7 secs   av.it.:  11.8
      thresh= 1.309E-05 alpha_mix =  0.700 |ddv_scf|^2 =  7.019E-10

      iter #   3 total cpu time :     8.5 secs   av.it.:  11.3
      thresh= 2.649E-06 alpha_mix =  0.700 |ddv_scf|^2 =  4.774E-11

      iter #   4 total cpu time :     9.1 secs   av.it.:  10.4
      thresh= 6.910E-07 alpha_mix =  0.700 |ddv_scf|^2 =  1.176E-13

     End of self-consistent calculation

     Convergence has been achieved 


     Representation #  2 modes #   4  5  6

     Self-consistent Calculation

      iter #   1 total cpu time :    10.1 secs   av.it.:   5.2
      thresh= 1.000E-02 alpha_mix =  0.700 |ddv_scf|^2 =  1.353E-08

      iter #   2 total cpu time :    10.9 secs   av.it.:  11.7
      thresh= 1.163E-05 alpha_mix =  0.700 |ddv_scf|^2 =  7.965E-10

      iter #   3 total cpu time :    11.7 secs   av.it.:  11.4
      thresh= 2.822E-06 alpha_mix =  0.700 |ddv_scf|^2 =  4.937E-11

      iter #   4 total cpu time :    12.4 secs   av.it.:  11.5
      thresh= 7.026E-07 alpha_mix =  0.700 |ddv_scf|^2 =  1.903E-13

     End of self-consistent calculation

     Convergence has been achieved 

     Number of q in the star =    1
     List of q in the star:
          1   0.000000000   0.000000000   0.000000000

          Dielectric constant in cartesian axis 

          (      13.954930656       0.000000000      -0.000000000 )
          (       0.000000000      13.954930656      -0.000000000 )
          (      -0.000000000      -0.000000000      13.954930656 )

          Effective charges (d Force / dE) in cartesian axis

           atom      1   Si 
      Ex  (       -0.03861       -0.00000       -0.00000 )
      Ey  (       -0.00000       -0.03861        0.00000 )
      Ez  (       -0.00000        0.00000       -0.03861 )
           atom      2   Si 
      Ex  (       -0.03861       -0.00000        0.00000 )
      Ey  (        0.00000       -0.03861        0.00000 )
      Ez  (        0.00000       -0.00000       -0.03861 )

          Effective charges (d P / du) in cartesian axis 

           atom      1   Si 
      Px  (       -0.07242       -0.00000        0.00000 )
      Py  (       -0.00000       -0.07242        0.00000 )
      Pz  (       -0.00000       -0.00000       -0.07242 )
           atom      2   Si 
      Px  (       -0.07242        0.00000        0.00000 )
      Py  (        0.00000       -0.07242       -0.00000 )
      Pz  (        0.00000       -0.00000       -0.07242 )

     Diagonalizing the dynamical matrix

     q = (    0.000000000   0.000000000   0.000000000 ) 

 **************************************************************************
     freq (    1) =      -0.473393 [THz] =     -15.790702 [cm-1]
     freq (    2) =      -0.473393 [THz] =     -15.790702 [cm-1]
     freq (    3) =      -0.473393 [THz] =     -15.790702 [cm-1]
     freq (    4) =      15.091614 [THz] =     503.402058 [cm-1]
     freq (    5) =      15.091614 [THz] =     503.402058 [cm-1]
     freq (    6) =      15.091614 [THz] =     503.402058 [cm-1]
 **************************************************************************

     Mode symmetry, O_h (m-3m)  point group:

     freq (  1 -  3) =        -15.8  [cm-1]   --> T_1u G_15  G_4- I  
     freq (  4 -  6) =        503.4  [cm-1]   --> T_2g G_25' G_5+ R  

     Calculation of q =   -0.2500000   0.2500000  -0.2500000

   Info: using nr1, nr2, nr3 values from input

   Info: using nr1, nr2, nr3 values from input

     Parallelization info
     --------------------
     sticks:   dense  smooth     PW     G-vecs:    dense   smooth      PW
     Min         218     109     37                 4315     1545     309
     Max         220     110     38                 4316     1546     312
     Sum         877     439    151                17261     6183    1243



     bravais-lattice index     =            2
     lattice parameter (alat)  =      10.3280  a.u.
     unit-cell volume          =     275.4157 (a.u.)^3
     number of atoms/cell      =            2
     number of atomic types    =            1
     number of electrons       =         8.00
     number of Kohn-Sham states=            4
     kinetic-energy cutoff     =      30.0000  Ry
     charge density cutoff     =     240.0000  Ry
     Exchange-correlation      = SLA  PW   PBE  PBE ( 1  4  3  4 0 0)

     celldm(1)=  10.328000  celldm(2)=   0.000000  celldm(3)=   0.000000
     celldm(4)=   0.000000  celldm(5)=   0.000000  celldm(6)=   0.000000

     crystal axes: (cart. coord. in units of alat)
               a(1) = (  -0.500000   0.000000   0.500000 )  
               a(2) = (   0.000000   0.500000   0.500000 )  
               a(3) = (  -0.500000   0.500000   0.000000 )  

     reciprocal axes: (cart. coord. in units 2 pi/alat)
               b(1) = ( -1.000000 -1.000000  1.000000 )  
               b(2) = (  1.000000  1.000000  1.000000 )  
               b(3) = ( -1.000000  1.000000 -1.000000 )  


     PseudoPot. # 1 for Si read from file:
     /home/s1333534/quantum_espresso/qe-6.1/pseudo/si_pbe_v1.uspp.F.UPF.txt
     MD5 check sum: a056efeee980c13900f22a371efd63c1
     Pseudo is Ultrasoft + core correction, Zval =  4.0
     Generated by new atomic code, or converted to UPF format
     Using radial grid of  899 points,  6 beta functions with: 
                l(1) =   0
                l(2) =   0
                l(3) =   1
                l(4) =   1
                l(5) =   2
                l(6) =   2
     Q(r) pseudized with  8 coefficients,  rinner =    0.900   0.900   0.900
                                                       0.900   0.900

     atomic species   valence    mass     pseudopotential
        Si             4.00    28.08600     Si( 1.00)

     48 Sym. Ops., with inversion, found



   Cartesian axes

     site n.     atom                  positions (alat units)
         1           Si  tau(   1) = (   0.0000000   0.0000000   0.0000000  )
         2           Si  tau(   2) = (   0.2500000   0.2500000   0.2500000  )

     number of k points=   120

     Number of k-points >= 100: set verbosity='high' to print them.

     Dense  grid:    17261 G-vectors     FFT dimensions: (  40,  40,  40)

     Smooth grid:     6183 G-vectors     FFT dimensions: (  25,  25,  25)

     Estimated max dynamical RAM per process >       1.78MB

     Estimated total allocated dynamical RAM >       7.14MB

     The potential is recalculated from file :
     ./_ph0/silicon.10.328.save/charge-density.dat

     Starting wfc are    8 atomic wfcs

     Band Structure Calculation
     Davidson diagonalization with overlap

     ethr =  1.25E-10,  avg # of iterations = 12.2

     total cpu time spent up to now is        1.4 secs

     End of band structure calculation

     Number of k-points >= 100: set verbosity='high' to print the bands.

     highest occupied level (ev):     5.7124

     Writing output data file silicon.10.328.save

                                                                                

     bravais-lattice index     =            2
     lattice parameter (alat)  =      10.3280  a.u.
     unit-cell volume          =     275.4157 (a.u.)^3
     number of atoms/cell      =            2
     number of atomic types    =            1
     kinetic-energy cut-off    =      30.0000  Ry
     charge density cut-off    =     240.0000  Ry
     convergence threshold     =      1.0E-12
     beta                      =       0.7000
     number of iterations used =            4
     Exchange-correlation      = SLA  PW   PBE  PBE ( 1  4  3  4 0 0)


     celldm(1)=   10.32800  celldm(2)=    0.00000  celldm(3)=    0.00000
     celldm(4)=    0.00000  celldm(5)=    0.00000  celldm(6)=    0.00000

     crystal axes: (cart. coord. in units of alat)
               a(1) = ( -0.5000  0.0000  0.5000 )  
               a(2) = (  0.0000  0.5000  0.5000 )  
               a(3) = ( -0.5000  0.5000  0.0000 )  

     reciprocal axes: (cart. coord. in units 2 pi/alat)
               b(1) = ( -1.0000 -1.0000  1.0000 )  
               b(2) = (  1.0000  1.0000  1.0000 )  
               b(3) = ( -1.0000  1.0000 -1.0000 )  


     Atoms inside the unit cell: 

     Cartesian axes

     site n.  atom      mass           positions (alat units)
        1     Si  28.0860   tau(    1) = (    0.00000    0.00000    0.00000  )
        2     Si  28.0860   tau(    2) = (    0.25000    0.25000    0.25000  )

     Computing dynamical matrix for 
                    q = (  -0.2500000   0.2500000  -0.2500000 )

      6 Sym.Ops. (no q -> -q+G )


     G cutoff =  648.4612  (   4315 G-vectors)     FFT grid: ( 40, 40, 40)
     G cutoff =  324.2306  (   1546 G-vectors)  smooth grid: ( 25, 25, 25)
     number of k points=   120

     PseudoPot. # 1 for Si read from file:
     /home/s1333534/quantum_espresso/qe-6.1/pseudo/si_pbe_v1.uspp.F.UPF.txt
     MD5 check sum: a056efeee980c13900f22a371efd63c1
     Pseudo is Ultrasoft + core correction, Zval =  4.0
     Generated by new atomic code, or converted to UPF format
     Using radial grid of  899 points,  6 beta functions with: 
                l(1) =   0
                l(2) =   0
                l(3) =   1
                l(4) =   1
                l(5) =   2
                l(6) =   2
     Q(r) pseudized with  8 coefficients,  rinner =    0.900   0.900   0.900
                                                       0.900   0.900

     Mode symmetry, C_3v (3m)   point group:


     Atomic displacements:
     There are   4 irreducible representations

     Representation     1      1 modes -A_1  L_1  To be done

     Representation     2      1 modes -A_1  L_1  To be done

     Representation     3      2 modes -E    L_3  To be done

     Representation     4      2 modes -E    L_3  To be done



     Alpha used in Ewald sum =   2.5000
     PHONON       :    12.12s CPU        15.72s WALL



     Representation #  1 mode #   1

     Self-consistent Calculation

      iter #   1 total cpu time :    16.2 secs   av.it.:   5.9
      thresh= 1.000E-02 alpha_mix =  0.700 |ddv_scf|^2 =  3.112E-04

      iter #   2 total cpu time :    16.8 secs   av.it.:   9.2
      thresh= 1.764E-03 alpha_mix =  0.700 |ddv_scf|^2 =  4.740E-03

      iter #   3 total cpu time :    17.4 secs   av.it.:   7.1
      thresh= 6.885E-03 alpha_mix =  0.700 |ddv_scf|^2 =  1.959E-07

      iter #   4 total cpu time :    18.0 secs   av.it.:   9.7
      thresh= 4.426E-05 alpha_mix =  0.700 |ddv_scf|^2 =  1.285E-08

      iter #   5 total cpu time :    18.6 secs   av.it.:   9.7
      thresh= 1.133E-05 alpha_mix =  0.700 |ddv_scf|^2 =  2.397E-10

      iter #   6 total cpu time :    19.3 secs   av.it.:   9.9
      thresh= 1.548E-06 alpha_mix =  0.700 |ddv_scf|^2 =  5.785E-10

      iter #   7 total cpu time :    19.9 secs   av.it.:   7.8
      thresh= 2.405E-06 alpha_mix =  0.700 |ddv_scf|^2 =  3.685E-11

      iter #   8 total cpu time :    20.4 secs   av.it.:   9.4
      thresh= 6.070E-07 alpha_mix =  0.700 |ddv_scf|^2 =  4.026E-13

     End of self-consistent calculation

     Convergence has been achieved 


     Representation #  2 mode #   2

     Self-consistent Calculation

      iter #   1 total cpu time :    21.0 secs   av.it.:   5.9
      thresh= 1.000E-02 alpha_mix =  0.700 |ddv_scf|^2 =  3.112E-04

      iter #   2 total cpu time :    21.7 secs   av.it.:   9.2
      thresh= 1.764E-03 alpha_mix =  0.700 |ddv_scf|^2 =  4.740E-03

      iter #   3 total cpu time :    22.2 secs   av.it.:   7.1
      thresh= 6.885E-03 alpha_mix =  0.700 |ddv_scf|^2 =  1.959E-07

      iter #   4 total cpu time :    22.9 secs   av.it.:   9.7
      thresh= 4.426E-05 alpha_mix =  0.700 |ddv_scf|^2 =  1.285E-08

      iter #   5 total cpu time :    23.7 secs   av.it.:   9.7
      thresh= 1.133E-05 alpha_mix =  0.700 |ddv_scf|^2 =  2.397E-10

      iter #   6 total cpu time :    24.3 secs   av.it.:   9.9
      thresh= 1.548E-06 alpha_mix =  0.700 |ddv_scf|^2 =  5.785E-10

      iter #   7 total cpu time :    24.9 secs   av.it.:   7.8
      thresh= 2.405E-06 alpha_mix =  0.700 |ddv_scf|^2 =  3.685E-11

      iter #   8 total cpu time :    25.5 secs   av.it.:   9.4
      thresh= 6.070E-07 alpha_mix =  0.700 |ddv_scf|^2 =  4.026E-13

     End of self-consistent calculation

     Convergence has been achieved 


     Representation #  3 modes #   3  4

     Self-consistent Calculation

      iter #   1 total cpu time :    26.4 secs   av.it.:   5.2
      thresh= 1.000E-02 alpha_mix =  0.700 |ddv_scf|^2 =  4.825E-08

      iter #   2 total cpu time :    27.7 secs   av.it.:  11.6
      thresh= 2.197E-05 alpha_mix =  0.700 |ddv_scf|^2 =  3.101E-09

      iter #   3 total cpu time :    29.0 secs   av.it.:  11.2
      thresh= 5.569E-06 alpha_mix =  0.700 |ddv_scf|^2 =  1.640E-10

      iter #   4 total cpu time :    30.2 secs   av.it.:  11.1
      thresh= 1.281E-06 alpha_mix =  0.700 |ddv_scf|^2 =  6.246E-13

     End of self-consistent calculation

     Convergence has been achieved 


     Representation #  4 modes #   5  6

     Self-consistent Calculation

      iter #   1 total cpu time :    31.2 secs   av.it.:   5.2
      thresh= 1.000E-02 alpha_mix =  0.700 |ddv_scf|^2 =  4.825E-08

      iter #   2 total cpu time :    32.6 secs   av.it.:  11.7
      thresh= 2.197E-05 alpha_mix =  0.700 |ddv_scf|^2 =  3.101E-09

      iter #   3 total cpu time :    33.9 secs   av.it.:  11.4
      thresh= 5.569E-06 alpha_mix =  0.700 |ddv_scf|^2 =  1.639E-10

      iter #   4 total cpu time :    35.1 secs   av.it.:  11.2
      thresh= 1.280E-06 alpha_mix =  0.700 |ddv_scf|^2 =  6.278E-13

     End of self-consistent calculation

     Convergence has been achieved 

     Number of q in the star =    8
     List of q in the star:
          1  -0.250000000   0.250000000  -0.250000000
          2   0.250000000  -0.250000000  -0.250000000
          3   0.250000000  -0.250000000   0.250000000
          4   0.250000000   0.250000000   0.250000000
          5  -0.250000000  -0.250000000  -0.250000000
          6  -0.250000000  -0.250000000   0.250000000
          7  -0.250000000   0.250000000   0.250000000
          8   0.250000000   0.250000000  -0.250000000

     Diagonalizing the dynamical matrix

     q = (   -0.250000000   0.250000000  -0.250000000 ) 

 **************************************************************************
     freq (    1) =       2.782594 [THz] =      92.817341 [cm-1]
     freq (    2) =       2.782594 [THz] =      92.817341 [cm-1]
     freq (    3) =       6.741272 [THz] =     224.864622 [cm-1]
     freq (    4) =      14.242667 [THz] =     475.084223 [cm-1]
     freq (    5) =      14.518224 [THz] =     484.275829 [cm-1]
     freq (    6) =      14.518224 [THz] =     484.275829 [cm-1]
 **************************************************************************

     Mode symmetry, C_3v (3m)   point group:

     freq (  1 -  2) =         92.8  [cm-1]   --> E    L_3           
     freq (  3 -  3) =        224.9  [cm-1]   --> A_1  L_1           
     freq (  4 -  4) =        475.1  [cm-1]   --> A_1  L_1           
     freq (  5 -  6) =        484.3  [cm-1]   --> E    L_3           

     Calculation of q =    0.5000000  -0.5000000   0.5000000

   Info: using nr1, nr2, nr3 values from input

   Info: using nr1, nr2, nr3 values from input

     Parallelization info
     --------------------
     sticks:   dense  smooth     PW     G-vecs:    dense   smooth      PW
     Min         219     109     40                 4315     1545     351
     Max         220     110     41                 4316     1546     354
     Sum         877     439    163                17261     6183    1411



     bravais-lattice index     =            2
     lattice parameter (alat)  =      10.3280  a.u.
     unit-cell volume          =     275.4157 (a.u.)^3
     number of atoms/cell      =            2
     number of atomic types    =            1
     number of electrons       =         8.00
     number of Kohn-Sham states=            4
     kinetic-energy cutoff     =      30.0000  Ry
     charge density cutoff     =     240.0000  Ry
     Exchange-correlation      = SLA  PW   PBE  PBE ( 1  4  3  4 0 0)

     celldm(1)=  10.328000  celldm(2)=   0.000000  celldm(3)=   0.000000
     celldm(4)=   0.000000  celldm(5)=   0.000000  celldm(6)=   0.000000

     crystal axes: (cart. coord. in units of alat)
               a(1) = (  -0.500000   0.000000   0.500000 )  
               a(2) = (   0.000000   0.500000   0.500000 )  
               a(3) = (  -0.500000   0.500000   0.000000 )  

     reciprocal axes: (cart. coord. in units 2 pi/alat)
               b(1) = ( -1.000000 -1.000000  1.000000 )  
               b(2) = (  1.000000  1.000000  1.000000 )  
               b(3) = ( -1.000000  1.000000 -1.000000 )  


     PseudoPot. # 1 for Si read from file:
     /home/s1333534/quantum_espresso/qe-6.1/pseudo/si_pbe_v1.uspp.F.UPF.txt
     MD5 check sum: a056efeee980c13900f22a371efd63c1
     Pseudo is Ultrasoft + core correction, Zval =  4.0
     Generated by new atomic code, or converted to UPF format
     Using radial grid of  899 points,  6 beta functions with: 
                l(1) =   0
                l(2) =   0
                l(3) =   1
                l(4) =   1
                l(5) =   2
                l(6) =   2
     Q(r) pseudized with  8 coefficients,  rinner =    0.900   0.900   0.900
                                                       0.900   0.900

     atomic species   valence    mass     pseudopotential
        Si             4.00    28.08600     Si( 1.00)

     48 Sym. Ops., with inversion, found



   Cartesian axes

     site n.     atom                  positions (alat units)
         1           Si  tau(   1) = (   0.0000000   0.0000000   0.0000000  )
         2           Si  tau(   2) = (   0.2500000   0.2500000   0.2500000  )

     number of k points=    60
                       cart. coord. in units 2pi/alat
        k(    1) = (  -0.1250000   0.1250000   0.1250000), wk =   0.0468750
        k(    2) = (   0.3750000  -0.3750000   0.6250000), wk =   0.0000000
        k(    3) = (  -0.3750000   0.3750000  -0.1250000), wk =   0.0468750
        k(    4) = (   0.1250000  -0.1250000   0.3750000), wk =   0.0000000
        k(    5) = (   0.3750000  -0.3750000   0.6250000), wk =   0.0468750
        k(    6) = (   0.8750000  -0.8750000   1.1250000), wk =   0.0000000
        k(    7) = (   0.1250000  -0.1250000   0.3750000), wk =   0.0468750
        k(    8) = (   0.6250000  -0.6250000   0.8750000), wk =   0.0000000
        k(    9) = (  -0.1250000   0.6250000   0.1250000), wk =   0.0937500
        k(   10) = (   0.3750000   0.1250000   0.6250000), wk =   0.0000000
        k(   11) = (   0.6250000  -0.1250000   0.8750000), wk =   0.0937500
        k(   12) = (   1.1250000  -0.6250000   1.3750000), wk =   0.0000000
        k(   13) = (   0.3750000   0.1250000   0.6250000), wk =   0.0937500
        k(   14) = (   0.8750000  -0.3750000   1.1250000), wk =   0.0000000
        k(   15) = (  -0.1250000  -0.8750000   0.1250000), wk =   0.0937500
        k(   16) = (   0.3750000  -1.3750000   0.6250000), wk =   0.0000000
        k(   17) = (  -0.3750000   0.3750000   0.3750000), wk =   0.0468750
        k(   18) = (   0.1250000  -0.1250000   0.8750000), wk =   0.0000000
        k(   19) = (   0.3750000  -0.3750000   1.1250000), wk =   0.0468750
        k(   20) = (   0.8750000  -0.8750000   1.6250000), wk =   0.0000000
        k(   21) = (   0.1250000  -0.1250000   0.1250000), wk =   0.0156250
        k(   22) = (   0.6250000  -0.6250000   0.6250000), wk =   0.0000000
        k(   23) = (  -0.3750000  -0.3750000  -0.1250000), wk =   0.0937500
        k(   24) = (   0.1250000  -0.8750000   0.3750000), wk =   0.0000000
        k(   25) = (  -0.1250000  -0.3750000   0.3750000), wk =   0.0468750
        k(   26) = (   0.3750000  -0.8750000   0.8750000), wk =   0.0000000
        k(   27) = (   0.3750000   0.3750000   0.6250000), wk =   0.0937500
        k(   28) = (   0.8750000  -0.1250000   1.1250000), wk =   0.0000000
        k(   29) = (   0.6250000   0.3750000  -0.3750000), wk =   0.0468750
        k(   30) = (   1.1250000  -0.1250000   0.1250000), wk =   0.0000000
        k(   31) = (   0.1250000   0.1250000   0.3750000), wk =   0.0937500
        k(   32) = (   0.6250000  -0.3750000   0.8750000), wk =   0.0000000
        k(   33) = (   0.3750000   0.1250000  -0.1250000), wk =   0.0468750
        k(   34) = (   0.8750000  -0.3750000   0.3750000), wk =   0.0000000
        k(   35) = (  -0.1250000  -0.6250000  -0.1250000), wk =   0.0468750
        k(   36) = (   0.3750000  -1.1250000   0.3750000), wk =   0.0000000
        k(   37) = (   0.1250000  -0.6250000   0.1250000), wk =   0.0468750
        k(   38) = (   0.6250000  -1.1250000   0.6250000), wk =   0.0000000
        k(   39) = (   0.6250000   0.1250000   0.8750000), wk =   0.0937500
        k(   40) = (   1.1250000  -0.3750000   1.3750000), wk =   0.0000000
        k(   41) = (  -0.8750000   0.1250000   0.6250000), wk =   0.0937500
        k(   42) = (  -0.3750000  -0.3750000   1.1250000), wk =   0.0000000
        k(   43) = (   0.8750000   0.1250000  -0.6250000), wk =   0.0937500
        k(   44) = (   1.3750000  -0.3750000  -0.1250000), wk =   0.0000000
        k(   45) = (   0.3750000  -0.1250000   0.6250000), wk =   0.0937500
        k(   46) = (   0.8750000  -0.6250000   1.1250000), wk =   0.0000000
        k(   47) = (  -0.6250000  -0.1250000   0.3750000), wk =   0.0937500
        k(   48) = (  -0.1250000  -0.6250000   0.8750000), wk =   0.0000000
        k(   49) = (   0.6250000  -0.1250000  -0.3750000), wk =   0.0937500
        k(   50) = (   1.1250000  -0.6250000   0.1250000), wk =   0.0000000
        k(   51) = (  -0.1250000   0.8750000  -0.1250000), wk =   0.0468750
        k(   52) = (   0.3750000   0.3750000   0.3750000), wk =   0.0000000
        k(   53) = (   0.1250000   0.8750000   0.1250000), wk =   0.0468750
        k(   54) = (   0.6250000   0.3750000   0.6250000), wk =   0.0000000
        k(   55) = (   0.3750000  -0.3750000   0.3750000), wk =   0.0156250
        k(   56) = (   0.8750000  -0.8750000   0.8750000), wk =   0.0000000
        k(   57) = (   0.3750000   0.3750000   1.1250000), wk =   0.0937500
        k(   58) = (   0.8750000  -0.1250000   1.6250000), wk =   0.0000000
        k(   59) = (   1.1250000   0.3750000  -0.3750000), wk =   0.0468750
        k(   60) = (   1.6250000  -0.1250000   0.1250000), wk =   0.0000000

     Dense  grid:    17261 G-vectors     FFT dimensions: (  40,  40,  40)

     Smooth grid:     6183 G-vectors     FFT dimensions: (  25,  25,  25)

     Estimated max dynamical RAM per process >       1.78MB

     Estimated total allocated dynamical RAM >       7.14MB

     The potential is recalculated from file :
     ./_ph0/silicon.10.328.save/charge-density.dat

     Starting wfc are    8 atomic wfcs

     Band Structure Calculation
     Davidson diagonalization with overlap

     ethr =  1.25E-10,  avg # of iterations = 12.2

     total cpu time spent up to now is        2.4 secs

     End of band structure calculation

          k =-0.1250 0.1250 0.1250 (   770 PWs)   bands (ev):

    -5.6320   4.4032   5.7124   5.7124

          k = 0.3750-0.3750 0.6250 (   763 PWs)   bands (ev):

    -3.4633  -0.6715   3.7460   4.4597

          k =-0.3750 0.3750-0.1250 (   773 PWs)   bands (ev):

    -4.6044   1.4089   3.7246   5.2320

          k = 0.1250-0.1250 0.3750 (   768 PWs)   bands (ev):

    -5.1037   2.7867   4.7034   4.7681

          k = 0.3750-0.3750 0.6250 (   763 PWs)   bands (ev):

    -3.4633  -0.6715   3.7460   4.4597

          k = 0.8750-0.8750 1.1250 (   770 PWs)   bands (ev):

    -5.6320   4.4032   5.7124   5.7124

          k = 0.1250-0.1250 0.3750 (   768 PWs)   bands (ev):

    -5.1037   2.7867   4.7034   4.7681

          k = 0.6250-0.6250 0.8750 (   773 PWs)   bands (ev):

    -4.6044   1.4089   3.7246   5.2320

          k =-0.1250 0.6250 0.1250 (   766 PWs)   bands (ev):

    -4.0714   1.0760   3.3754   3.8286

          k = 0.3750 0.1250 0.6250 (   768 PWs)   bands (ev):

    -3.6553   0.2014   2.7332   4.1034

          k = 0.6250-0.1250 0.8750 (   755 PWs)   bands (ev):

    -2.4298  -0.8873   2.0193   3.0971

          k = 1.1250-0.6250 1.3750 (   773 PWs)   bands (ev):

    -4.6044   1.4089   3.7246   5.2320

          k = 0.3750 0.1250 0.6250 (   768 PWs)   bands (ev):

    -3.6553   0.2014   2.7332   4.1034

          k = 0.8750-0.3750 1.1250 (   766 PWs)   bands (ev):

    -4.0714   1.0760   3.3754   3.8286

          k =-0.1250-0.8750 0.1250 (   762 PWs)   bands (ev):

    -2.5980  -0.7897   2.6300   3.3614

          k = 0.3750-1.3750 0.6250 (   763 PWs)   bands (ev):

    -3.4633  -0.6715   3.7460   4.4597

          k =-0.3750 0.3750 0.3750 (   763 PWs)   bands (ev):

    -4.1709   0.1171   4.9247   4.9247

          k = 0.1250-0.1250 0.8750 (   762 PWs)   bands (ev):

    -2.5980  -0.7897   2.6300   3.3614

          k = 0.3750-0.3750 1.1250 (   767 PWs)   bands (ev):

    -2.9672  -0.5855   2.0781   4.1424

          k = 0.8750-0.8750 1.6250 (   766 PWs)   bands (ev):

    -4.0714   1.0760   3.3754   3.8286

          k = 0.1250-0.1250 0.1250 (   770 PWs)   bands (ev):

    -5.6320   4.4032   5.7124   5.7124

          k = 0.6250-0.6250 0.6250 (   763 PWs)   bands (ev):

    -4.1709   0.1171   4.9247   4.9247

          k =-0.3750-0.3750-0.1250 (   773 PWs)   bands (ev):

    -4.6044   1.4089   3.7246   5.2320

          k = 0.1250-0.8750 0.3750 (   755 PWs)   bands (ev):

    -2.4298  -0.8873   2.0193   3.0971

          k =-0.1250-0.3750 0.3750 (   773 PWs)   bands (ev):

    -4.6044   1.4089   3.7246   5.2320

          k = 0.3750-0.8750 0.8750 (   766 PWs)   bands (ev):

    -4.0714   1.0760   3.3754   3.8286

          k = 0.3750 0.3750 0.6250 (   763 PWs)   bands (ev):

    -3.4633  -0.6715   3.7460   4.4597

          k = 0.8750-0.1250 1.1250 (   762 PWs)   bands (ev):

    -2.5980  -0.7897   2.6300   3.3614

          k = 0.6250 0.3750-0.3750 (   763 PWs)   bands (ev):

    -3.4633  -0.6715   3.7460   4.4597

          k = 1.1250-0.1250 0.1250 (   762 PWs)   bands (ev):

    -2.5980  -0.7897   2.6300   3.3614

          k = 0.1250 0.1250 0.3750 (   768 PWs)   bands (ev):

    -5.1037   2.7867   4.7034   4.7681

          k = 0.6250-0.3750 0.8750 (   768 PWs)   bands (ev):

    -3.6553   0.2014   2.7332   4.1034

          k = 0.3750 0.1250-0.1250 (   768 PWs)   bands (ev):

    -5.1037   2.7867   4.7034   4.7681

          k = 0.8750-0.3750 0.3750 (   767 PWs)   bands (ev):

    -2.9672  -0.5855   2.0781   4.1424

          k =-0.1250-0.6250-0.1250 (   766 PWs)   bands (ev):

    -4.0714   1.0760   3.3754   3.8286

          k = 0.3750-1.1250 0.3750 (   767 PWs)   bands (ev):

    -2.9672  -0.5855   2.0781   4.1424

          k = 0.1250-0.6250 0.1250 (   766 PWs)   bands (ev):

    -4.0714   1.0760   3.3754   3.8286

          k = 0.6250-1.1250 0.6250 (   773 PWs)   bands (ev):

    -4.6044   1.4089   3.7246   5.2320

          k = 0.6250 0.1250 0.8750 (   755 PWs)   bands (ev):

    -2.4298  -0.8873   2.0193   3.0971

          k = 1.1250-0.3750 1.3750 (   768 PWs)   bands (ev):

    -3.6553   0.2014   2.7332   4.1034

          k =-0.8750 0.1250 0.6250 (   755 PWs)   bands (ev):

    -2.4298  -0.8873   2.0193   3.0971

          k =-0.3750-0.3750 1.1250 (   767 PWs)   bands (ev):

    -2.9672  -0.5855   2.0781   4.1424

          k = 0.8750 0.1250-0.6250 (   755 PWs)   bands (ev):

    -2.4298  -0.8873   2.0193   3.0971

          k = 1.3750-0.3750-0.1250 (   768 PWs)   bands (ev):

    -3.6553   0.2014   2.7332   4.1034

          k = 0.3750-0.1250 0.6250 (   768 PWs)   bands (ev):

    -3.6553   0.2014   2.7332   4.1034

          k = 0.8750-0.6250 1.1250 (   768 PWs)   bands (ev):

    -5.1037   2.7867   4.7034   4.7681

          k =-0.6250-0.1250 0.3750 (   768 PWs)   bands (ev):

    -3.6553   0.2014   2.7332   4.1034

          k =-0.1250-0.6250 0.8750 (   755 PWs)   bands (ev):

    -2.4298  -0.8873   2.0193   3.0971

          k = 0.6250-0.1250-0.3750 (   768 PWs)   bands (ev):

    -3.6553   0.2014   2.7332   4.1034

          k = 1.1250-0.6250 0.1250 (   755 PWs)   bands (ev):

    -2.4298  -0.8873   2.0193   3.0971

          k =-0.1250 0.8750-0.1250 (   762 PWs)   bands (ev):

    -2.5980  -0.7897   2.6300   3.3614

          k = 0.3750 0.3750 0.3750 (   763 PWs)   bands (ev):

    -4.1709   0.1171   4.9247   4.9247

          k = 0.1250 0.8750 0.1250 (   762 PWs)   bands (ev):

    -2.5980  -0.7897   2.6300   3.3614

          k = 0.6250 0.3750 0.6250 (   763 PWs)   bands (ev):

    -3.4633  -0.6715   3.7460   4.4597

          k = 0.3750-0.3750 0.3750 (   763 PWs)   bands (ev):

    -4.1709   0.1171   4.9247   4.9247

          k = 0.8750-0.8750 0.8750 (   770 PWs)   bands (ev):

    -5.6320   4.4032   5.7124   5.7124

          k = 0.3750 0.3750 1.1250 (   767 PWs)   bands (ev):

    -2.9672  -0.5855   2.0781   4.1424

          k = 0.8750-0.1250 1.6250 (   755 PWs)   bands (ev):

    -2.4298  -0.8873   2.0193   3.0971

          k = 1.1250 0.3750-0.3750 (   767 PWs)   bands (ev):

    -2.9672  -0.5855   2.0781   4.1424

          k = 1.6250-0.1250 0.1250 (   768 PWs)   bands (ev):

    -5.1037   2.7867   4.7034   4.7681

     highest occupied level (ev):     5.7124

     Writing output data file silicon.10.328.save

                                                                                

     bravais-lattice index     =            2
     lattice parameter (alat)  =      10.3280  a.u.
     unit-cell volume          =     275.4157 (a.u.)^3
     number of atoms/cell      =            2
     number of atomic types    =            1
     kinetic-energy cut-off    =      30.0000  Ry
     charge density cut-off    =     240.0000  Ry
     convergence threshold     =      1.0E-12
     beta                      =       0.7000
     number of iterations used =            4
     Exchange-correlation      = SLA  PW   PBE  PBE ( 1  4  3  4 0 0)


     celldm(1)=   10.32800  celldm(2)=    0.00000  celldm(3)=    0.00000
     celldm(4)=    0.00000  celldm(5)=    0.00000  celldm(6)=    0.00000

     crystal axes: (cart. coord. in units of alat)
               a(1) = ( -0.5000  0.0000  0.5000 )  
               a(2) = (  0.0000  0.5000  0.5000 )  
               a(3) = ( -0.5000  0.5000  0.0000 )  

     reciprocal axes: (cart. coord. in units 2 pi/alat)
               b(1) = ( -1.0000 -1.0000  1.0000 )  
               b(2) = (  1.0000  1.0000  1.0000 )  
               b(3) = ( -1.0000  1.0000 -1.0000 )  


     Atoms inside the unit cell: 

     Cartesian axes

     site n.  atom      mass           positions (alat units)
        1     Si  28.0860   tau(    1) = (    0.00000    0.00000    0.00000  )
        2     Si  28.0860   tau(    2) = (    0.25000    0.25000    0.25000  )

     Computing dynamical matrix for 
                    q = (   0.5000000  -0.5000000   0.5000000 )

     13 Sym.Ops. (with q -> -q+G )


     G cutoff =  648.4612  (   4316 G-vectors)     FFT grid: ( 40, 40, 40)
     G cutoff =  324.2306  (   1546 G-vectors)  smooth grid: ( 25, 25, 25)
     number of k points=    60

     PseudoPot. # 1 for Si read from file:
     /home/s1333534/quantum_espresso/qe-6.1/pseudo/si_pbe_v1.uspp.F.UPF.txt
     MD5 check sum: a056efeee980c13900f22a371efd63c1
     Pseudo is Ultrasoft + core correction, Zval =  4.0
     Generated by new atomic code, or converted to UPF format
     Using radial grid of  899 points,  6 beta functions with: 
                l(1) =   0
                l(2) =   0
                l(3) =   1
                l(4) =   1
                l(5) =   2
                l(6) =   2
     Q(r) pseudized with  8 coefficients,  rinner =    0.900   0.900   0.900
                                                       0.900   0.900


     Atomic displacements:
     There are   4 irreducible representations

     Representation     1      1 modes -  To be done

     Representation     2      1 modes -  To be done

     Representation     3      2 modes -  To be done

     Representation     4      2 modes -  To be done



     Alpha used in Ewald sum =   2.5000
     PHONON       :    29.64s CPU        37.74s WALL



     Representation #  1 mode #   1

     Self-consistent Calculation

      iter #   1 total cpu time :    38.0 secs   av.it.:   5.1
      thresh= 1.000E-02 alpha_mix =  0.700 |ddv_scf|^2 =  3.053E-06

      iter #   2 total cpu time :    38.5 secs   av.it.:  10.1
      thresh= 1.747E-04 alpha_mix =  0.700 |ddv_scf|^2 =  2.799E-06

      iter #   3 total cpu time :    38.9 secs   av.it.:   9.4
      thresh= 1.673E-04 alpha_mix =  0.700 |ddv_scf|^2 =  1.680E-09

      iter #   4 total cpu time :    39.3 secs   av.it.:   9.6
      thresh= 4.099E-06 alpha_mix =  0.700 |ddv_scf|^2 =  1.622E-11

      iter #   5 total cpu time :    39.7 secs   av.it.:   9.5
      thresh= 4.028E-07 alpha_mix =  0.700 |ddv_scf|^2 =  2.241E-13

     End of self-consistent calculation

     Convergence has been achieved 


     Representation #  2 mode #   2

     Self-consistent Calculation

      iter #   1 total cpu time :    40.1 secs   av.it.:   6.0
      thresh= 1.000E-02 alpha_mix =  0.700 |ddv_scf|^2 =  4.341E-05

      iter #   2 total cpu time :    40.6 secs   av.it.:  10.0
      thresh= 6.589E-04 alpha_mix =  0.700 |ddv_scf|^2 =  1.351E-04

      iter #   3 total cpu time :    41.0 secs   av.it.:   8.9
      thresh= 1.162E-03 alpha_mix =  0.700 |ddv_scf|^2 =  9.719E-09

      iter #   4 total cpu time :    41.5 secs   av.it.:  10.1
      thresh= 9.858E-06 alpha_mix =  0.700 |ddv_scf|^2 =  4.935E-10

      iter #   5 total cpu time :    42.0 secs   av.it.:  10.4
      thresh= 2.222E-06 alpha_mix =  0.700 |ddv_scf|^2 =  1.492E-11

      iter #   6 total cpu time :    42.4 secs   av.it.:   9.9
      thresh= 3.863E-07 alpha_mix =  0.700 |ddv_scf|^2 =  1.108E-13

     End of self-consistent calculation

     Convergence has been achieved 


     Representation #  3 modes #   3  4

     Self-consistent Calculation

      iter #   1 total cpu time :    43.1 secs   av.it.:   5.0
      thresh= 1.000E-02 alpha_mix =  0.700 |ddv_scf|^2 =  1.962E-08

      iter #   2 total cpu time :    44.0 secs   av.it.:  11.1
      thresh= 1.401E-05 alpha_mix =  0.700 |ddv_scf|^2 =  1.156E-09

      iter #   3 total cpu time :    44.8 secs   av.it.:  10.8
      thresh= 3.401E-06 alpha_mix =  0.700 |ddv_scf|^2 =  3.871E-11

      iter #   4 total cpu time :    45.5 secs   av.it.:  10.8
      thresh= 6.222E-07 alpha_mix =  0.700 |ddv_scf|^2 =  3.155E-13

     End of self-consistent calculation

     Convergence has been achieved 


     Representation #  4 modes #   5  6

     Self-consistent Calculation

      iter #   1 total cpu time :    46.3 secs   av.it.:   5.1
      thresh= 1.000E-02 alpha_mix =  0.700 |ddv_scf|^2 =  1.005E-07

      iter #   2 total cpu time :    47.2 secs   av.it.:  11.2
      thresh= 3.170E-05 alpha_mix =  0.700 |ddv_scf|^2 =  8.063E-09

      iter #   3 total cpu time :    48.0 secs   av.it.:  11.1
      thresh= 8.979E-06 alpha_mix =  0.700 |ddv_scf|^2 =  2.120E-10

      iter #   4 total cpu time :    48.7 secs   av.it.:  10.1
      thresh= 1.456E-06 alpha_mix =  0.700 |ddv_scf|^2 =  3.839E-13

     End of self-consistent calculation

     Convergence has been achieved 

     Number of q in the star =    4
     List of q in the star:
          1   0.500000000  -0.500000000   0.500000000
          2   0.500000000   0.500000000   0.500000000
          3  -0.500000000   0.500000000   0.500000000
          4   0.500000000   0.500000000  -0.500000000

     Diagonalizing the dynamical matrix

     q = (    0.500000000  -0.500000000   0.500000000 ) 

 **************************************************************************
     freq (    1) =       3.294041 [THz] =     109.877366 [cm-1]
     freq (    2) =       3.294041 [THz] =     109.877366 [cm-1]
     freq (    3) =      11.103456 [THz] =     370.371429 [cm-1]
     freq (    4) =      11.997231 [THz] =     400.184535 [cm-1]
     freq (    5) =      14.309401 [THz] =     477.310245 [cm-1]
     freq (    6) =      14.309401 [THz] =     477.310245 [cm-1]
 **************************************************************************

     Calculation of q =    0.0000000   0.5000000   0.0000000

   Info: using nr1, nr2, nr3 values from input

   Info: using nr1, nr2, nr3 values from input

     Parallelization info
     --------------------
     sticks:   dense  smooth     PW     G-vecs:    dense   smooth      PW
     Min         218     109     37                 4315     1545     309
     Max         220     110     38                 4316     1546     312
     Sum         877     439    151                17261     6183    1243



     bravais-lattice index     =            2
     lattice parameter (alat)  =      10.3280  a.u.
     unit-cell volume          =     275.4157 (a.u.)^3
     number of atoms/cell      =            2
     number of atomic types    =            1
     number of electrons       =         8.00
     number of Kohn-Sham states=            4
     kinetic-energy cutoff     =      30.0000  Ry
     charge density cutoff     =     240.0000  Ry
     Exchange-correlation      = SLA  PW   PBE  PBE ( 1  4  3  4 0 0)

     celldm(1)=  10.328000  celldm(2)=   0.000000  celldm(3)=   0.000000
     celldm(4)=   0.000000  celldm(5)=   0.000000  celldm(6)=   0.000000

     crystal axes: (cart. coord. in units of alat)
               a(1) = (  -0.500000   0.000000   0.500000 )  
               a(2) = (   0.000000   0.500000   0.500000 )  
               a(3) = (  -0.500000   0.500000   0.000000 )  

     reciprocal axes: (cart. coord. in units 2 pi/alat)
               b(1) = ( -1.000000 -1.000000  1.000000 )  
               b(2) = (  1.000000  1.000000  1.000000 )  
               b(3) = ( -1.000000  1.000000 -1.000000 )  


     PseudoPot. # 1 for Si read from file:
     /home/s1333534/quantum_espresso/qe-6.1/pseudo/si_pbe_v1.uspp.F.UPF.txt
     MD5 check sum: a056efeee980c13900f22a371efd63c1
     Pseudo is Ultrasoft + core correction, Zval =  4.0
     Generated by new atomic code, or converted to UPF format
     Using radial grid of  899 points,  6 beta functions with: 
                l(1) =   0
                l(2) =   0
                l(3) =   1
                l(4) =   1
                l(5) =   2
                l(6) =   2
     Q(r) pseudized with  8 coefficients,  rinner =    0.900   0.900   0.900
                                                       0.900   0.900

     atomic species   valence    mass     pseudopotential
        Si             4.00    28.08600     Si( 1.00)

     48 Sym. Ops., with inversion, found



   Cartesian axes

     site n.     atom                  positions (alat units)
         1           Si  tau(   1) = (   0.0000000   0.0000000   0.0000000  )
         2           Si  tau(   2) = (   0.2500000   0.2500000   0.2500000  )

     number of k points=    80
                       cart. coord. in units 2pi/alat
        k(    1) = (  -0.1250000   0.1250000   0.1250000), wk =   0.0312500
        k(    2) = (  -0.1250000   0.6250000   0.1250000), wk =   0.0000000
        k(    3) = (  -0.3750000   0.3750000  -0.1250000), wk =   0.0625000
        k(    4) = (  -0.3750000   0.8750000  -0.1250000), wk =   0.0000000
        k(    5) = (   0.3750000  -0.3750000   0.6250000), wk =   0.0625000
        k(    6) = (   0.3750000   0.1250000   0.6250000), wk =   0.0000000
        k(    7) = (   0.1250000  -0.1250000   0.3750000), wk =   0.0625000
        k(    8) = (   0.1250000   0.3750000   0.3750000), wk =   0.0000000
        k(    9) = (  -0.1250000   0.6250000   0.1250000), wk =   0.0312500
        k(   10) = (  -0.1250000   1.1250000   0.1250000), wk =   0.0000000
        k(   11) = (   0.6250000  -0.1250000   0.8750000), wk =   0.0625000
        k(   12) = (   0.6250000   0.3750000   0.8750000), wk =   0.0000000
        k(   13) = (   0.3750000   0.1250000   0.6250000), wk =   0.0625000
        k(   14) = (   0.3750000   0.6250000   0.6250000), wk =   0.0000000
        k(   15) = (  -0.1250000  -0.8750000   0.1250000), wk =   0.0312500
        k(   16) = (  -0.1250000  -0.3750000   0.1250000), wk =   0.0000000
        k(   17) = (  -0.3750000   0.3750000   0.3750000), wk =   0.0312500
        k(   18) = (  -0.3750000   0.8750000   0.3750000), wk =   0.0000000
        k(   19) = (   0.3750000  -0.3750000   1.1250000), wk =   0.0625000
        k(   20) = (   0.3750000   0.1250000   1.1250000), wk =   0.0000000
        k(   21) = (  -0.1250000  -0.1250000   0.1250000), wk =   0.0312500
        k(   22) = (  -0.1250000   0.3750000   0.1250000), wk =   0.0000000
        k(   23) = (   0.1250000  -0.3750000   0.3750000), wk =   0.0625000
        k(   24) = (   0.1250000   0.1250000   0.3750000), wk =   0.0000000
        k(   25) = (   0.3750000  -0.1250000   0.3750000), wk =   0.0312500
        k(   26) = (   0.3750000   0.3750000   0.3750000), wk =   0.0000000
        k(   27) = (   0.3750000   0.1250000   0.3750000), wk =   0.0312500
        k(   28) = (   0.3750000   0.6250000   0.3750000), wk =   0.0000000
        k(   29) = (  -0.6250000   0.3750000  -0.3750000), wk =   0.0625000
        k(   30) = (  -0.6250000   0.8750000  -0.3750000), wk =   0.0000000
        k(   31) = (  -0.3750000   0.6250000  -0.3750000), wk =   0.0312500
        k(   32) = (  -0.3750000   1.1250000  -0.3750000), wk =   0.0000000
        k(   33) = (  -0.3750000  -0.6250000  -0.3750000), wk =   0.0312500
        k(   34) = (  -0.3750000  -0.1250000  -0.3750000), wk =   0.0000000
        k(   35) = (  -0.3750000   0.1250000  -0.1250000), wk =   0.0625000
        k(   36) = (  -0.3750000   0.6250000  -0.1250000), wk =   0.0000000
        k(   37) = (  -0.1250000   0.3750000  -0.1250000), wk =   0.0312500
        k(   38) = (  -0.1250000   0.8750000  -0.1250000), wk =   0.0000000
        k(   39) = (  -0.1250000  -0.3750000  -0.1250000), wk =   0.0312500
        k(   40) = (  -0.1250000   0.1250000  -0.1250000), wk =   0.0000000
        k(   41) = (  -0.1250000  -0.6250000   0.1250000), wk =   0.0312500
        k(   42) = (  -0.1250000  -0.1250000   0.1250000), wk =   0.0000000
        k(   43) = (   0.6250000  -0.1250000  -0.1250000), wk =   0.0625000
        k(   44) = (   0.6250000   0.3750000  -0.1250000), wk =   0.0000000
        k(   45) = (   0.6250000   0.1250000   0.1250000), wk =   0.0625000
        k(   46) = (   0.6250000   0.6250000   0.1250000), wk =   0.0000000
        k(   47) = (  -0.8750000   0.1250000  -0.6250000), wk =   0.0625000
        k(   48) = (  -0.8750000   0.6250000  -0.6250000), wk =   0.0000000
        k(   49) = (  -0.1250000   0.6250000  -0.8750000), wk =   0.0625000
        k(   50) = (  -0.1250000   1.1250000  -0.8750000), wk =   0.0000000
        k(   51) = (  -0.1250000   0.8750000  -0.6250000), wk =   0.0625000
        k(   52) = (  -0.1250000   1.3750000  -0.6250000), wk =   0.0000000
        k(   53) = (  -0.1250000  -0.8750000  -0.6250000), wk =   0.0625000
        k(   54) = (  -0.1250000  -0.3750000  -0.6250000), wk =   0.0000000
        k(   55) = (   0.8750000  -0.6250000   0.1250000), wk =   0.0625000
        k(   56) = (   0.8750000  -0.1250000   0.1250000), wk =   0.0000000
        k(   57) = (  -0.6250000  -0.1250000  -0.3750000), wk =   0.0625000
        k(   58) = (  -0.6250000   0.3750000  -0.3750000), wk =   0.0000000
        k(   59) = (   0.1250000   0.3750000  -0.6250000), wk =   0.0625000
        k(   60) = (   0.1250000   0.8750000  -0.6250000), wk =   0.0000000
        k(   61) = (   0.1250000   0.6250000  -0.3750000), wk =   0.0625000
        k(   62) = (   0.1250000   1.1250000  -0.3750000), wk =   0.0000000
        k(   63) = (   0.1250000  -0.6250000  -0.3750000), wk =   0.0625000
        k(   64) = (   0.1250000  -0.1250000  -0.3750000), wk =   0.0000000
        k(   65) = (   0.6250000  -0.3750000  -0.1250000), wk =   0.0625000
        k(   66) = (   0.6250000   0.1250000  -0.1250000), wk =   0.0000000
        k(   67) = (  -0.1250000   0.8750000   0.1250000), wk =   0.0312500
        k(   68) = (  -0.1250000   1.3750000   0.1250000), wk =   0.0000000
        k(   69) = (  -0.8750000  -0.1250000  -0.1250000), wk =   0.0625000
        k(   70) = (  -0.8750000   0.3750000  -0.1250000), wk =   0.0000000
        k(   71) = (  -0.8750000   0.1250000   0.1250000), wk =   0.0625000
        k(   72) = (  -0.8750000   0.6250000   0.1250000), wk =   0.0000000
        k(   73) = (  -0.3750000  -0.3750000   0.3750000), wk =   0.0312500
        k(   74) = (  -0.3750000   0.1250000   0.3750000), wk =   0.0000000
        k(   75) = (  -1.1250000   0.3750000  -0.3750000), wk =   0.0625000
        k(   76) = (  -1.1250000   0.8750000  -0.3750000), wk =   0.0000000
        k(   77) = (  -0.3750000   1.1250000  -0.3750000), wk =   0.0312500
        k(   78) = (  -0.3750000   1.6250000  -0.3750000), wk =   0.0000000
        k(   79) = (  -0.3750000  -1.1250000  -0.3750000), wk =   0.0312500
        k(   80) = (  -0.3750000  -0.6250000  -0.3750000), wk =   0.0000000

     Dense  grid:    17261 G-vectors     FFT dimensions: (  40,  40,  40)

     Smooth grid:     6183 G-vectors     FFT dimensions: (  25,  25,  25)

     Estimated max dynamical RAM per process >       1.78MB

     Estimated total allocated dynamical RAM >       7.14MB

     The potential is recalculated from file :
     ./_ph0/silicon.10.328.save/charge-density.dat

     Starting wfc are    8 atomic wfcs

     Band Structure Calculation
     Davidson diagonalization with overlap

     ethr =  1.25E-10,  avg # of iterations = 12.2

     total cpu time spent up to now is        3.5 secs

     End of band structure calculation

          k =-0.1250 0.1250 0.1250 (   770 PWs)   bands (ev):

    -5.6320   4.4032   5.7124   5.7124

          k =-0.1250 0.6250 0.1250 (   766 PWs)   bands (ev):

    -4.0714   1.0760   3.3754   3.8286

          k =-0.3750 0.3750-0.1250 (   773 PWs)   bands (ev):

    -4.6044   1.4089   3.7246   5.2320

          k =-0.3750 0.8750-0.1250 (   755 PWs)   bands (ev):

    -2.4298  -0.8873   2.0193   3.0971

          k = 0.3750-0.3750 0.6250 (   763 PWs)   bands (ev):

    -3.4633  -0.6715   3.7460   4.4597

          k = 0.3750 0.1250 0.6250 (   768 PWs)   bands (ev):

    -3.6553   0.2014   2.7332   4.1034

          k = 0.1250-0.1250 0.3750 (   768 PWs)   bands (ev):

    -5.1037   2.7867   4.7034   4.7681

          k = 0.1250 0.3750 0.3750 (   773 PWs)   bands (ev):

    -4.6044   1.4089   3.7246   5.2320

          k =-0.1250 0.6250 0.1250 (   766 PWs)   bands (ev):

    -4.0714   1.0760   3.3754   3.8286

          k =-0.1250 1.1250 0.1250 (   762 PWs)   bands (ev):

    -2.5980  -0.7897   2.6300   3.3614

          k = 0.6250-0.1250 0.8750 (   755 PWs)   bands (ev):

    -2.4298  -0.8873   2.0193   3.0971

          k = 0.6250 0.3750 0.8750 (   768 PWs)   bands (ev):

    -3.6553   0.2014   2.7332   4.1034

          k = 0.3750 0.1250 0.6250 (   768 PWs)   bands (ev):

    -3.6553   0.2014   2.7332   4.1034

          k = 0.3750 0.6250 0.6250 (   763 PWs)   bands (ev):

    -3.4633  -0.6715   3.7460   4.4597

          k =-0.1250-0.8750 0.1250 (   762 PWs)   bands (ev):

    -2.5980  -0.7897   2.6300   3.3614

          k =-0.1250-0.3750 0.1250 (   768 PWs)   bands (ev):

    -5.1037   2.7867   4.7034   4.7681

          k =-0.3750 0.3750 0.3750 (   763 PWs)   bands (ev):

    -4.1709   0.1171   4.9247   4.9247

          k =-0.3750 0.8750 0.3750 (   767 PWs)   bands (ev):

    -2.9672  -0.5855   2.0781   4.1424

          k = 0.3750-0.3750 1.1250 (   767 PWs)   bands (ev):

    -2.9672  -0.5855   2.0781   4.1424

          k = 0.3750 0.1250 1.1250 (   755 PWs)   bands (ev):

    -2.4298  -0.8873   2.0193   3.0971

          k =-0.1250-0.1250 0.1250 (   770 PWs)   bands (ev):

    -5.6320   4.4032   5.7124   5.7124

          k =-0.1250 0.3750 0.1250 (   768 PWs)   bands (ev):

    -5.1037   2.7867   4.7034   4.7681

          k = 0.1250-0.3750 0.3750 (   773 PWs)   bands (ev):

    -4.6044   1.4089   3.7246   5.2320

          k = 0.1250 0.1250 0.3750 (   768 PWs)   bands (ev):

    -5.1037   2.7867   4.7034   4.7681

          k = 0.3750-0.1250 0.3750 (   773 PWs)   bands (ev):

    -4.6044   1.4089   3.7246   5.2320

          k = 0.3750 0.3750 0.3750 (   763 PWs)   bands (ev):

    -4.1709   0.1171   4.9247   4.9247

          k = 0.3750 0.1250 0.3750 (   773 PWs)   bands (ev):

    -4.6044   1.4089   3.7246   5.2320

          k = 0.3750 0.6250 0.3750 (   763 PWs)   bands (ev):

    -3.4633  -0.6715   3.7460   4.4597

          k =-0.6250 0.3750-0.3750 (   763 PWs)   bands (ev):

    -3.4633  -0.6715   3.7460   4.4597

          k =-0.6250 0.8750-0.3750 (   768 PWs)   bands (ev):

    -3.6553   0.2014   2.7332   4.1034

          k =-0.3750 0.6250-0.3750 (   763 PWs)   bands (ev):

    -3.4633  -0.6715   3.7460   4.4597

          k =-0.3750 1.1250-0.3750 (   767 PWs)   bands (ev):

    -2.9672  -0.5855   2.0781   4.1424

          k =-0.3750-0.6250-0.3750 (   763 PWs)   bands (ev):

    -3.4633  -0.6715   3.7460   4.4597

          k =-0.3750-0.1250-0.3750 (   773 PWs)   bands (ev):

    -4.6044   1.4089   3.7246   5.2320

          k =-0.3750 0.1250-0.1250 (   768 PWs)   bands (ev):

    -5.1037   2.7867   4.7034   4.7681

          k =-0.3750 0.6250-0.1250 (   768 PWs)   bands (ev):

    -3.6553   0.2014   2.7332   4.1034

          k =-0.1250 0.3750-0.1250 (   768 PWs)   bands (ev):

    -5.1037   2.7867   4.7034   4.7681

          k =-0.1250 0.8750-0.1250 (   762 PWs)   bands (ev):

    -2.5980  -0.7897   2.6300   3.3614

          k =-0.1250-0.3750-0.1250 (   768 PWs)   bands (ev):

    -5.1037   2.7867   4.7034   4.7681

          k =-0.1250 0.1250-0.1250 (   770 PWs)   bands (ev):

    -5.6320   4.4032   5.7124   5.7124

          k =-0.1250-0.6250 0.1250 (   766 PWs)   bands (ev):

    -4.0714   1.0760   3.3754   3.8286

          k =-0.1250-0.1250 0.1250 (   770 PWs)   bands (ev):

    -5.6320   4.4032   5.7124   5.7124

          k = 0.6250-0.1250-0.1250 (   766 PWs)   bands (ev):

    -4.0714   1.0760   3.3754   3.8286

          k = 0.6250 0.3750-0.1250 (   768 PWs)   bands (ev):

    -3.6553   0.2014   2.7332   4.1034

          k = 0.6250 0.1250 0.1250 (   766 PWs)   bands (ev):

    -4.0714   1.0760   3.3754   3.8286

          k = 0.6250 0.6250 0.1250 (   767 PWs)   bands (ev):

    -2.9672  -0.5855   2.0781   4.1424

          k =-0.8750 0.1250-0.6250 (   755 PWs)   bands (ev):

    -2.4298  -0.8873   2.0193   3.0971

          k =-0.8750 0.6250-0.6250 (   773 PWs)   bands (ev):

    -4.6044   1.4089   3.7246   5.2320

          k =-0.1250 0.6250-0.8750 (   755 PWs)   bands (ev):

    -2.4298  -0.8873   2.0193   3.0971

          k =-0.1250 1.1250-0.8750 (   762 PWs)   bands (ev):

    -2.5980  -0.7897   2.6300   3.3614

          k =-0.1250 0.8750-0.6250 (   755 PWs)   bands (ev):

    -2.4298  -0.8873   2.0193   3.0971

          k =-0.1250 1.3750-0.6250 (   767 PWs)   bands (ev):

    -2.9672  -0.5855   2.0781   4.1424

          k =-0.1250-0.8750-0.6250 (   755 PWs)   bands (ev):

    -2.4298  -0.8873   2.0193   3.0971

          k =-0.1250-0.3750-0.6250 (   768 PWs)   bands (ev):

    -3.6553   0.2014   2.7332   4.1034

          k = 0.8750-0.6250 0.1250 (   755 PWs)   bands (ev):

    -2.4298  -0.8873   2.0193   3.0971

          k = 0.8750-0.1250 0.1250 (   762 PWs)   bands (ev):

    -2.5980  -0.7897   2.6300   3.3614

          k =-0.6250-0.1250-0.3750 (   768 PWs)   bands (ev):

    -3.6553   0.2014   2.7332   4.1034

          k =-0.6250 0.3750-0.3750 (   763 PWs)   bands (ev):

    -3.4633  -0.6715   3.7460   4.4597

          k = 0.1250 0.3750-0.6250 (   768 PWs)   bands (ev):

    -3.6553   0.2014   2.7332   4.1034

          k = 0.1250 0.8750-0.6250 (   755 PWs)   bands (ev):

    -2.4298  -0.8873   2.0193   3.0971

          k = 0.1250 0.6250-0.3750 (   768 PWs)   bands (ev):

    -3.6553   0.2014   2.7332   4.1034

          k = 0.1250 1.1250-0.3750 (   755 PWs)   bands (ev):

    -2.4298  -0.8873   2.0193   3.0971

          k = 0.1250-0.6250-0.3750 (   768 PWs)   bands (ev):

    -3.6553   0.2014   2.7332   4.1034

          k = 0.1250-0.1250-0.3750 (   768 PWs)   bands (ev):

    -5.1037   2.7867   4.7034   4.7681

          k = 0.6250-0.3750-0.1250 (   768 PWs)   bands (ev):

    -3.6553   0.2014   2.7332   4.1034

          k = 0.6250 0.1250-0.1250 (   766 PWs)   bands (ev):

    -4.0714   1.0760   3.3754   3.8286

          k =-0.1250 0.8750 0.1250 (   762 PWs)   bands (ev):

    -2.5980  -0.7897   2.6300   3.3614

          k =-0.1250 1.3750 0.1250 (   766 PWs)   bands (ev):

    -4.0714   1.0760   3.3754   3.8286

          k =-0.8750-0.1250-0.1250 (   762 PWs)   bands (ev):

    -2.5980  -0.7897   2.6300   3.3614

          k =-0.8750 0.3750-0.1250 (   755 PWs)   bands (ev):

    -2.4298  -0.8873   2.0193   3.0971

          k =-0.8750 0.1250 0.1250 (   762 PWs)   bands (ev):

    -2.5980  -0.7897   2.6300   3.3614

          k =-0.8750 0.6250 0.1250 (   755 PWs)   bands (ev):

    -2.4298  -0.8873   2.0193   3.0971

          k =-0.3750-0.3750 0.3750 (   763 PWs)   bands (ev):

    -4.1709   0.1171   4.9247   4.9247

          k =-0.3750 0.1250 0.3750 (   773 PWs)   bands (ev):

    -4.6044   1.4089   3.7246   5.2320

          k =-1.1250 0.3750-0.3750 (   767 PWs)   bands (ev):

    -2.9672  -0.5855   2.0781   4.1424

          k =-1.1250 0.8750-0.3750 (   766 PWs)   bands (ev):

    -4.0714   1.0760   3.3754   3.8286

          k =-0.3750 1.1250-0.3750 (   767 PWs)   bands (ev):

    -2.9672  -0.5855   2.0781   4.1424

          k =-0.3750 1.6250-0.3750 (   763 PWs)   bands (ev):

    -4.1709   0.1171   4.9247   4.9247

          k =-0.3750-1.1250-0.3750 (   767 PWs)   bands (ev):

    -2.9672  -0.5855   2.0781   4.1424

          k =-0.3750-0.6250-0.3750 (   763 PWs)   bands (ev):

    -3.4633  -0.6715   3.7460   4.4597

     highest occupied level (ev):     5.7124

     Writing output data file silicon.10.328.save

                                                                                

     bravais-lattice index     =            2
     lattice parameter (alat)  =      10.3280  a.u.
     unit-cell volume          =     275.4157 (a.u.)^3
     number of atoms/cell      =            2
     number of atomic types    =            1
     kinetic-energy cut-off    =      30.0000  Ry
     charge density cut-off    =     240.0000  Ry
     convergence threshold     =      1.0E-12
     beta                      =       0.7000
     number of iterations used =            4
     Exchange-correlation      = SLA  PW   PBE  PBE ( 1  4  3  4 0 0)


     celldm(1)=   10.32800  celldm(2)=    0.00000  celldm(3)=    0.00000
     celldm(4)=    0.00000  celldm(5)=    0.00000  celldm(6)=    0.00000

     crystal axes: (cart. coord. in units of alat)
               a(1) = ( -0.5000  0.0000  0.5000 )  
               a(2) = (  0.0000  0.5000  0.5000 )  
               a(3) = ( -0.5000  0.5000  0.0000 )  

     reciprocal axes: (cart. coord. in units 2 pi/alat)
               b(1) = ( -1.0000 -1.0000  1.0000 )  
               b(2) = (  1.0000  1.0000  1.0000 )  
               b(3) = ( -1.0000  1.0000 -1.0000 )  


     Atoms inside the unit cell: 

     Cartesian axes

     site n.  atom      mass           positions (alat units)
        1     Si  28.0860   tau(    1) = (    0.00000    0.00000    0.00000  )
        2     Si  28.0860   tau(    2) = (    0.25000    0.25000    0.25000  )

     Computing dynamical matrix for 
                    q = (   0.0000000   0.5000000   0.0000000 )

      8 Sym.Ops. (no q -> -q+G )


     G cutoff =  648.4612  (   4315 G-vectors)     FFT grid: ( 40, 40, 40)
     G cutoff =  324.2306  (   1546 G-vectors)  smooth grid: ( 25, 25, 25)
     number of k points=    80

     PseudoPot. # 1 for Si read from file:
     /home/s1333534/quantum_espresso/qe-6.1/pseudo/si_pbe_v1.uspp.F.UPF.txt
     MD5 check sum: a056efeee980c13900f22a371efd63c1
     Pseudo is Ultrasoft + core correction, Zval =  4.0
     Generated by new atomic code, or converted to UPF format
     Using radial grid of  899 points,  6 beta functions with: 
                l(1) =   0
                l(2) =   0
                l(3) =   1
                l(4) =   1
                l(5) =   2
                l(6) =   2
     Q(r) pseudized with  8 coefficients,  rinner =    0.900   0.900   0.900
                                                       0.900   0.900

     Mode symmetry, C_4v (4mm)  point group:


     Atomic displacements:
     There are   4 irreducible representations

     Representation     1      1 modes -A_1  G_1 D_1  To be done

     Representation     2      1 modes -B_2  G_4 D_2'  To be done

     Representation     3      2 modes -E    G_5 D_5  To be done

     Representation     4      2 modes -E    G_5 D_5  To be done



     Alpha used in Ewald sum =   2.5000
     PHONON       :    39.83s CPU        51.35s WALL



     Representation #  1 mode #   1

     Self-consistent Calculation

      iter #   1 total cpu time :    51.7 secs   av.it.:   6.2
      thresh= 1.000E-02 alpha_mix =  0.700 |ddv_scf|^2 =  3.743E-04

      iter #   2 total cpu time :    52.2 secs   av.it.:   9.5
      thresh= 1.935E-03 alpha_mix =  0.700 |ddv_scf|^2 =  4.965E-03

      iter #   3 total cpu time :    52.6 secs   av.it.:   7.5
      thresh= 7.046E-03 alpha_mix =  0.700 |ddv_scf|^2 =  7.475E-09

      iter #   4 total cpu time :    53.1 secs   av.it.:  10.2
      thresh= 8.646E-06 alpha_mix =  0.700 |ddv_scf|^2 =  7.150E-10

      iter #   5 total cpu time :    53.6 secs   av.it.:   9.9
      thresh= 2.674E-06 alpha_mix =  0.700 |ddv_scf|^2 =  8.150E-11

      iter #   6 total cpu time :    54.0 secs   av.it.:   9.5
      thresh= 9.028E-07 alpha_mix =  0.700 |ddv_scf|^2 =  2.521E-13

     End of self-consistent calculation

     Convergence has been achieved 


     Representation #  2 mode #   2

     Self-consistent Calculation

      iter #   1 total cpu time :    54.5 secs   av.it.:   5.1
      thresh= 1.000E-02 alpha_mix =  0.700 |ddv_scf|^2 =  5.913E-07

      iter #   2 total cpu time :    55.1 secs   av.it.:  10.6
      thresh= 7.690E-05 alpha_mix =  0.700 |ddv_scf|^2 =  1.618E-07

      iter #   3 total cpu time :    55.6 secs   av.it.:  10.2
      thresh= 4.023E-05 alpha_mix =  0.700 |ddv_scf|^2 =  1.649E-09

      iter #   4 total cpu time :    56.1 secs   av.it.:  10.3
      thresh= 4.060E-06 alpha_mix =  0.700 |ddv_scf|^2 =  6.461E-11

      iter #   5 total cpu time :    56.6 secs   av.it.:  10.5
      thresh= 8.038E-07 alpha_mix =  0.700 |ddv_scf|^2 =  3.832E-13

     End of self-consistent calculation

     Convergence has been achieved 


     Representation #  3 modes #   3  4

     Self-consistent Calculation

      iter #   1 total cpu time :    57.3 secs   av.it.:   5.2
      thresh= 1.000E-02 alpha_mix =  0.700 |ddv_scf|^2 =  1.048E-07

      iter #   2 total cpu time :    58.3 secs   av.it.:  11.7
      thresh= 3.237E-05 alpha_mix =  0.700 |ddv_scf|^2 =  1.445E-08

      iter #   3 total cpu time :    59.3 secs   av.it.:  11.2
      thresh= 1.202E-05 alpha_mix =  0.700 |ddv_scf|^2 =  2.433E-10

      iter #   4 total cpu time :    60.3 secs   av.it.:  10.8
      thresh= 1.560E-06 alpha_mix =  0.700 |ddv_scf|^2 =  5.724E-13

     End of self-consistent calculation

     Convergence has been achieved 


     Representation #  4 modes #   5  6

     Self-consistent Calculation

      iter #   1 total cpu time :    61.1 secs   av.it.:   5.3
      thresh= 1.000E-02 alpha_mix =  0.700 |ddv_scf|^2 =  9.607E-08

      iter #   2 total cpu time :    62.1 secs   av.it.:  11.6
      thresh= 3.100E-05 alpha_mix =  0.700 |ddv_scf|^2 =  1.290E-08

      iter #   3 total cpu time :    63.0 secs   av.it.:  11.4
      thresh= 1.136E-05 alpha_mix =  0.700 |ddv_scf|^2 =  2.489E-10

      iter #   4 total cpu time :    63.9 secs   av.it.:  11.1
      thresh= 1.578E-06 alpha_mix =  0.700 |ddv_scf|^2 =  6.100E-13

     End of self-consistent calculation

     Convergence has been achieved 

     Number of q in the star =    6
     List of q in the star:
          1   0.000000000   0.500000000   0.000000000
          2   0.000000000  -0.500000000   0.000000000
          3   0.500000000   0.000000000   0.000000000
          4   0.000000000   0.000000000   0.500000000
          5   0.000000000   0.000000000  -0.500000000
          6  -0.500000000   0.000000000   0.000000000

     Diagonalizing the dynamical matrix

     q = (    0.000000000   0.500000000   0.000000000 ) 

 **************************************************************************
     freq (    1) =       3.766042 [THz] =     125.621630 [cm-1]
     freq (    2) =       3.766042 [THz] =     125.621630 [cm-1]
     freq (    3) =       7.071256 [THz] =     235.871722 [cm-1]
     freq (    4) =      13.848960 [THz] =     461.951592 [cm-1]
     freq (    5) =      13.848960 [THz] =     461.951592 [cm-1]
     freq (    6) =      14.478444 [THz] =     482.948893 [cm-1]
 **************************************************************************

     Mode symmetry, C_4v (4mm)  point group:

     freq (  1 -  2) =        125.6  [cm-1]   --> E    G_5 D_5       
     freq (  3 -  3) =        235.9  [cm-1]   --> A_1  G_1 D_1       
     freq (  4 -  5) =        462.0  [cm-1]   --> E    G_5 D_5       
     freq (  6 -  6) =        482.9  [cm-1]   --> B_2  G_4 D_2'      

     Calculation of q =    0.7500000  -0.2500000   0.7500000

   Info: using nr1, nr2, nr3 values from input

   Info: using nr1, nr2, nr3 values from input

     Parallelization info
     --------------------
     sticks:   dense  smooth     PW     G-vecs:    dense   smooth      PW
     Min         219     109     40                 4315     1545     362
     Max         220     110     41                 4316     1546     366
     Sum         877     439    163                17261     6183    1459



     bravais-lattice index     =            2
     lattice parameter (alat)  =      10.3280  a.u.
     unit-cell volume          =     275.4157 (a.u.)^3
     number of atoms/cell      =            2
     number of atomic types    =            1
     number of electrons       =         8.00
     number of Kohn-Sham states=            4
     kinetic-energy cutoff     =      30.0000  Ry
     charge density cutoff     =     240.0000  Ry
     Exchange-correlation      = SLA  PW   PBE  PBE ( 1  4  3  4 0 0)

     celldm(1)=  10.328000  celldm(2)=   0.000000  celldm(3)=   0.000000
     celldm(4)=   0.000000  celldm(5)=   0.000000  celldm(6)=   0.000000

     crystal axes: (cart. coord. in units of alat)
               a(1) = (  -0.500000   0.000000   0.500000 )  
               a(2) = (   0.000000   0.500000   0.500000 )  
               a(3) = (  -0.500000   0.500000   0.000000 )  

     reciprocal axes: (cart. coord. in units 2 pi/alat)
               b(1) = ( -1.000000 -1.000000  1.000000 )  
               b(2) = (  1.000000  1.000000  1.000000 )  
               b(3) = ( -1.000000  1.000000 -1.000000 )  


     PseudoPot. # 1 for Si read from file:
     /home/s1333534/quantum_espresso/qe-6.1/pseudo/si_pbe_v1.uspp.F.UPF.txt
     MD5 check sum: a056efeee980c13900f22a371efd63c1
     Pseudo is Ultrasoft + core correction, Zval =  4.0
     Generated by new atomic code, or converted to UPF format
     Using radial grid of  899 points,  6 beta functions with: 
                l(1) =   0
                l(2) =   0
                l(3) =   1
                l(4) =   1
                l(5) =   2
                l(6) =   2
     Q(r) pseudized with  8 coefficients,  rinner =    0.900   0.900   0.900
                                                       0.900   0.900

     atomic species   valence    mass     pseudopotential
        Si             4.00    28.08600     Si( 1.00)

     48 Sym. Ops., with inversion, found



   Cartesian axes

     site n.     atom                  positions (alat units)
         1           Si  tau(   1) = (   0.0000000   0.0000000   0.0000000  )
         2           Si  tau(   2) = (   0.2500000   0.2500000   0.2500000  )

     number of k points=   288

     Number of k-points >= 100: set verbosity='high' to print them.

     Dense  grid:    17261 G-vectors     FFT dimensions: (  40,  40,  40)

     Smooth grid:     6183 G-vectors     FFT dimensions: (  25,  25,  25)

     Estimated max dynamical RAM per process >       1.78MB

     Estimated total allocated dynamical RAM >       7.14MB

     The potential is recalculated from file :
     ./_ph0/silicon.10.328.save/charge-density.dat

     Starting wfc are    8 atomic wfcs

     Band Structure Calculation
     Davidson diagonalization with overlap

     ethr =  1.25E-10,  avg # of iterations = 12.1

     total cpu time spent up to now is        6.8 secs

     End of band structure calculation

     Number of k-points >= 100: set verbosity='high' to print the bands.

     highest occupied level (ev):     5.7124

     Writing output data file silicon.10.328.save

                                                                                

     bravais-lattice index     =            2
     lattice parameter (alat)  =      10.3280  a.u.
     unit-cell volume          =     275.4157 (a.u.)^3
     number of atoms/cell      =            2
     number of atomic types    =            1
     kinetic-energy cut-off    =      30.0000  Ry
     charge density cut-off    =     240.0000  Ry
     convergence threshold     =      1.0E-12
     beta                      =       0.7000
     number of iterations used =            4
     Exchange-correlation      = SLA  PW   PBE  PBE ( 1  4  3  4 0 0)


     celldm(1)=   10.32800  celldm(2)=    0.00000  celldm(3)=    0.00000
     celldm(4)=    0.00000  celldm(5)=    0.00000  celldm(6)=    0.00000

     crystal axes: (cart. coord. in units of alat)
               a(1) = ( -0.5000  0.0000  0.5000 )  
               a(2) = (  0.0000  0.5000  0.5000 )  
               a(3) = ( -0.5000  0.5000  0.0000 )  

     reciprocal axes: (cart. coord. in units 2 pi/alat)
               b(1) = ( -1.0000 -1.0000  1.0000 )  
               b(2) = (  1.0000  1.0000  1.0000 )  
               b(3) = ( -1.0000  1.0000 -1.0000 )  


     Atoms inside the unit cell: 

     Cartesian axes

     site n.  atom      mass           positions (alat units)
        1     Si  28.0860   tau(    1) = (    0.00000    0.00000    0.00000  )
        2     Si  28.0860   tau(    2) = (    0.25000    0.25000    0.25000  )

     Computing dynamical matrix for 
                    q = (   0.7500000  -0.2500000   0.7500000 )

      2 Sym.Ops. (no q -> -q+G )


     G cutoff =  648.4612  (   4315 G-vectors)     FFT grid: ( 40, 40, 40)
     G cutoff =  324.2306  (   1546 G-vectors)  smooth grid: ( 25, 25, 25)
     number of k points=   288

     PseudoPot. # 1 for Si read from file:
     /home/s1333534/quantum_espresso/qe-6.1/pseudo/si_pbe_v1.uspp.F.UPF.txt
     MD5 check sum: a056efeee980c13900f22a371efd63c1
     Pseudo is Ultrasoft + core correction, Zval =  4.0
     Generated by new atomic code, or converted to UPF format
     Using radial grid of  899 points,  6 beta functions with: 
                l(1) =   0
                l(2) =   0
                l(3) =   1
                l(4) =   1
                l(5) =   2
                l(6) =   2
     Q(r) pseudized with  8 coefficients,  rinner =    0.900   0.900   0.900
                                                       0.900   0.900

     Mode symmetry, C_s (m)     point group:


     Atomic displacements:
     There are   6 irreducible representations

     Representation     1      1 modes -A'  To be done

     Representation     2      1 modes -A'  To be done

     Representation     3      1 modes -A'  To be done

     Representation     4      1 modes -A'  To be done

     Representation     5      1 modes -A''  To be done

     Representation     6      1 modes -A''  To be done



     Alpha used in Ewald sum =   2.5000
     PHONON       :  0m54.31s CPU     1m 9.30s WALL



     Representation #  1 mode #   1

     Self-consistent Calculation

      iter #   1 total cpu time :    70.2 secs   av.it.:   5.6
      thresh= 1.000E-02 alpha_mix =  0.700 |ddv_scf|^2 =  7.634E-06

      iter #   2 total cpu time :    71.6 secs   av.it.:  10.7
      thresh= 2.763E-04 alpha_mix =  0.700 |ddv_scf|^2 =  2.038E-05

      iter #   3 total cpu time :    72.8 secs   av.it.:   9.4
      thresh= 4.514E-04 alpha_mix =  0.700 |ddv_scf|^2 =  1.367E-07

      iter #   4 total cpu time :    74.2 secs   av.it.:  10.1
      thresh= 3.697E-05 alpha_mix =  0.700 |ddv_scf|^2 =  2.713E-09

      iter #   5 total cpu time :    75.6 secs   av.it.:  10.6
      thresh= 5.209E-06 alpha_mix =  0.700 |ddv_scf|^2 =  4.659E-10

      iter #   6 total cpu time :    76.9 secs   av.it.:  10.6
      thresh= 2.158E-06 alpha_mix =  0.700 |ddv_scf|^2 =  7.101E-12

      iter #   7 total cpu time :    78.3 secs   av.it.:  10.7
      thresh= 2.665E-07 alpha_mix =  0.700 |ddv_scf|^2 =  2.681E-13

     End of self-consistent calculation

     Convergence has been achieved 


     Representation #  2 mode #   2

     Self-consistent Calculation

      iter #   1 total cpu time :    79.4 secs   av.it.:   5.8
      thresh= 1.000E-02 alpha_mix =  0.700 |ddv_scf|^2 =  1.367E-05

      iter #   2 total cpu time :    80.8 secs   av.it.:  10.6
      thresh= 3.697E-04 alpha_mix =  0.700 |ddv_scf|^2 =  3.962E-05

      iter #   3 total cpu time :    82.0 secs   av.it.:   9.2
      thresh= 6.294E-04 alpha_mix =  0.700 |ddv_scf|^2 =  9.226E-08

      iter #   4 total cpu time :    83.3 secs   av.it.:  10.4
      thresh= 3.037E-05 alpha_mix =  0.700 |ddv_scf|^2 =  3.066E-09

      iter #   5 total cpu time :    84.7 secs   av.it.:  10.6
      thresh= 5.537E-06 alpha_mix =  0.700 |ddv_scf|^2 =  6.247E-10

      iter #   6 total cpu time :    86.1 secs   av.it.:  10.5
      thresh= 2.499E-06 alpha_mix =  0.700 |ddv_scf|^2 =  6.484E-12

      iter #   7 total cpu time :    87.4 secs   av.it.:  10.7
      thresh= 2.546E-07 alpha_mix =  0.700 |ddv_scf|^2 =  2.290E-13

     End of self-consistent calculation

     Convergence has been achieved 


     Representation #  3 mode #   3

     Self-consistent Calculation

      iter #   1 total cpu time :    88.6 secs   av.it.:   5.7
      thresh= 1.000E-02 alpha_mix =  0.700 |ddv_scf|^2 =  1.071E-05

      iter #   2 total cpu time :    90.0 secs   av.it.:  10.7
      thresh= 3.273E-04 alpha_mix =  0.700 |ddv_scf|^2 =  2.916E-05

      iter #   3 total cpu time :    91.2 secs   av.it.:   9.2
      thresh= 5.400E-04 alpha_mix =  0.700 |ddv_scf|^2 =  1.609E-07

      iter #   4 total cpu time :    92.6 secs   av.it.:  10.0
      thresh= 4.011E-05 alpha_mix =  0.700 |ddv_scf|^2 =  3.125E-09

      iter #   5 total cpu time :    94.0 secs   av.it.:  10.7
      thresh= 5.590E-06 alpha_mix =  0.700 |ddv_scf|^2 =  6.104E-10

      iter #   6 total cpu time :    95.3 secs   av.it.:  10.5
      thresh= 2.471E-06 alpha_mix =  0.700 |ddv_scf|^2 =  4.533E-12

      iter #   7 total cpu time :    96.6 secs   av.it.:  10.7
      thresh= 2.129E-07 alpha_mix =  0.700 |ddv_scf|^2 =  1.326E-13

     End of self-consistent calculation

     Convergence has been achieved 


     Representation #  4 mode #   4

     Self-consistent Calculation

      iter #   1 total cpu time :    97.7 secs   av.it.:   5.5
      thresh= 1.000E-02 alpha_mix =  0.700 |ddv_scf|^2 =  4.672E-06

      iter #   2 total cpu time :    99.1 secs   av.it.:  10.9
      thresh= 2.161E-04 alpha_mix =  0.700 |ddv_scf|^2 =  9.902E-06

      iter #   3 total cpu time :   100.3 secs   av.it.:   9.7
      thresh= 3.147E-04 alpha_mix =  0.700 |ddv_scf|^2 =  2.143E-07

      iter #   4 total cpu time :   101.6 secs   av.it.:  10.0
      thresh= 4.630E-05 alpha_mix =  0.700 |ddv_scf|^2 =  2.678E-09

      iter #   5 total cpu time :   103.3 secs   av.it.:  10.7
      thresh= 5.175E-06 alpha_mix =  0.700 |ddv_scf|^2 =  5.009E-10

      iter #   6 total cpu time :   104.8 secs   av.it.:  10.5
      thresh= 2.238E-06 alpha_mix =  0.700 |ddv_scf|^2 =  2.995E-12

      iter #   7 total cpu time :   106.1 secs   av.it.:  10.8
      thresh= 1.730E-07 alpha_mix =  0.700 |ddv_scf|^2 =  1.379E-13

     End of self-consistent calculation

     Convergence has been achieved 


     Representation #  5 mode #   5

     Self-consistent Calculation

      iter #   1 total cpu time :   107.1 secs   av.it.:   5.2
      thresh= 1.000E-02 alpha_mix =  0.700 |ddv_scf|^2 =  4.844E-07

      iter #   2 total cpu time :   108.5 secs   av.it.:  10.4
      thresh= 6.960E-05 alpha_mix =  0.700 |ddv_scf|^2 =  7.901E-08

      iter #   3 total cpu time :   109.8 secs   av.it.:  10.2
      thresh= 2.811E-05 alpha_mix =  0.700 |ddv_scf|^2 =  1.054E-09

      iter #   4 total cpu time :   111.1 secs   av.it.:   9.8
      thresh= 3.246E-06 alpha_mix =  0.700 |ddv_scf|^2 =  2.461E-12

      iter #   5 total cpu time :   112.4 secs   av.it.:  10.3
      thresh= 1.569E-07 alpha_mix =  0.700 |ddv_scf|^2 =  6.930E-14

     End of self-consistent calculation

     Convergence has been achieved 


     Representation #  6 mode #   6

     Self-consistent Calculation

      iter #   1 total cpu time :   113.5 secs   av.it.:   5.2
      thresh= 1.000E-02 alpha_mix =  0.700 |ddv_scf|^2 =  4.844E-07

      iter #   2 total cpu time :   114.9 secs   av.it.:  10.4
[...]
        k(   59) = (  -0.8750000   0.1250000  -0.1250000), wk =   0.0625000
        k(   60) = (  -1.3750000  -0.8750000  -0.1250000), wk =   0.0000000
        k(   61) = (  -1.1250000   0.3750000  -0.3750000), wk =   0.0625000
        k(   62) = (  -1.6250000  -0.6250000  -0.3750000), wk =   0.0000000
        k(   63) = (  -0.3750000   0.3750000   1.1250000), wk =   0.0625000
        k(   64) = (  -0.8750000  -0.6250000   1.1250000), wk =   0.0000000

     Dense  grid:    17261 G-vectors     FFT dimensions: (  40,  40,  40)

     Smooth grid:     6183 G-vectors     FFT dimensions: (  25,  25,  25)

     Estimated max dynamical RAM per process >       1.78MB

     Estimated total allocated dynamical RAM >       7.14MB

     The potential is recalculated from file :
     ./_ph0/silicon.10.328.save/charge-density.dat

     Starting wfc are    8 atomic wfcs

     Band Structure Calculation
     Davidson diagonalization with overlap

     ethr =  1.25E-10,  avg # of iterations = 12.1

     total cpu time spent up to now is       10.8 secs

     End of band structure calculation

          k =-0.1250 0.1250 0.1250 (   770 PWs)   bands (ev):

    -5.6320   4.4032   5.7124   5.7124

          k =-0.6250-0.8750 0.1250 (   755 PWs)   bands (ev):

    -2.4298  -0.8873   2.0193   3.0971

          k =-0.3750 0.3750-0.1250 (   773 PWs)   bands (ev):

    -4.6044   1.4089   3.7246   5.2320

          k =-0.8750-0.6250-0.1250 (   755 PWs)   bands (ev):

    -2.4298  -0.8873   2.0193   3.0971

          k = 0.3750-0.3750 0.6250 (   763 PWs)   bands (ev):

    -3.4633  -0.6715   3.7460   4.4597

          k =-0.1250-1.3750 0.6250 (   767 PWs)   bands (ev):

    -2.9672  -0.5855   2.0781   4.1424

          k = 0.1250-0.1250 0.3750 (   768 PWs)   bands (ev):

    -5.1037   2.7867   4.7034   4.7681

          k =-0.3750-1.1250 0.3750 (   767 PWs)   bands (ev):

    -2.9672  -0.5855   2.0781   4.1424

          k =-0.1250 0.6250 0.1250 (   766 PWs)   bands (ev):

    -4.0714   1.0760   3.3754   3.8286

          k =-0.6250-0.3750 0.1250 (   768 PWs)   bands (ev):

    -3.6553   0.2014   2.7332   4.1034

          k = 0.6250-0.1250 0.8750 (   755 PWs)   bands (ev):

    -2.4298  -0.8873   2.0193   3.0971

          k = 0.1250-1.1250 0.8750 (   762 PWs)   bands (ev):

    -2.5980  -0.7897   2.6300   3.3614

          k = 0.3750 0.1250 0.6250 (   768 PWs)   bands (ev):

    -3.6553   0.2014   2.7332   4.1034

          k =-0.1250-0.8750 0.6250 (   755 PWs)   bands (ev):

    -2.4298  -0.8873   2.0193   3.0971

          k =-0.1250-0.8750 0.1250 (   762 PWs)   bands (ev):

    -2.5980  -0.7897   2.6300   3.3614

          k =-0.6250-1.8750 0.1250 (   766 PWs)   bands (ev):

    -4.0714   1.0760   3.3754   3.8286

          k =-0.3750 0.3750 0.3750 (   763 PWs)   bands (ev):

    -4.1709   0.1171   4.9247   4.9247

          k =-0.8750-0.6250 0.3750 (   768 PWs)   bands (ev):

    -3.6553   0.2014   2.7332   4.1034

          k = 0.3750-0.3750 1.1250 (   767 PWs)   bands (ev):

    -2.9672  -0.5855   2.0781   4.1424

          k =-0.1250-1.3750 1.1250 (   755 PWs)   bands (ev):

    -2.4298  -0.8873   2.0193   3.0971

          k = 0.1250-0.3750 0.3750 (   773 PWs)   bands (ev):

    -4.6044   1.4089   3.7246   5.2320

          k =-0.3750-1.3750 0.3750 (   763 PWs)   bands (ev):

    -3.4633  -0.6715   3.7460   4.4597

          k = 0.3750-0.3750-0.1250 (   773 PWs)   bands (ev):

    -4.6044   1.4089   3.7246   5.2320

          k =-0.1250-1.3750-0.1250 (   766 PWs)   bands (ev):

    -4.0714   1.0760   3.3754   3.8286

          k =-0.6250 0.3750-0.3750 (   763 PWs)   bands (ev):

    -3.4633  -0.6715   3.7460   4.4597

          k =-1.1250-0.6250-0.3750 (   768 PWs)   bands (ev):

    -3.6553   0.2014   2.7332   4.1034

          k =-0.3750 0.3750 0.6250 (   763 PWs)   bands (ev):

    -3.4633  -0.6715   3.7460   4.4597

          k =-0.8750-0.6250 0.6250 (   773 PWs)   bands (ev):

    -4.6044   1.4089   3.7246   5.2320

          k =-0.3750 0.1250-0.1250 (   768 PWs)   bands (ev):

    -5.1037   2.7867   4.7034   4.7681

          k =-0.8750-0.8750-0.1250 (   762 PWs)   bands (ev):

    -2.5980  -0.7897   2.6300   3.3614

          k =-0.1250 0.1250 0.3750 (   768 PWs)   bands (ev):

    -5.1037   2.7867   4.7034   4.7681

          k =-0.6250-0.8750 0.3750 (   768 PWs)   bands (ev):

    -3.6553   0.2014   2.7332   4.1034

          k = 0.1250 0.6250-0.1250 (   766 PWs)   bands (ev):

    -4.0714   1.0760   3.3754   3.8286

          k =-0.3750-0.3750-0.1250 (   773 PWs)   bands (ev):

    -4.6044   1.4089   3.7246   5.2320

          k = 0.6250 0.1250-0.1250 (   766 PWs)   bands (ev):

    -4.0714   1.0760   3.3754   3.8286

          k = 0.1250-0.8750-0.1250 (   762 PWs)   bands (ev):

    -2.5980  -0.7897   2.6300   3.3614

          k =-0.8750 0.1250-0.6250 (   755 PWs)   bands (ev):

    -2.4298  -0.8873   2.0193   3.0971

          k =-1.3750-0.8750-0.6250 (   773 PWs)   bands (ev):

    -4.6044   1.4089   3.7246   5.2320

          k = 0.8750-0.1250 0.6250 (   755 PWs)   bands (ev):

    -2.4298  -0.8873   2.0193   3.0971

          k = 0.3750-1.1250 0.6250 (   768 PWs)   bands (ev):

    -3.6553   0.2014   2.7332   4.1034

          k =-0.6250 0.1250 0.8750 (   755 PWs)   bands (ev):

    -2.4298  -0.8873   2.0193   3.0971

          k =-1.1250-0.8750 0.8750 (   770 PWs)   bands (ev):

    -5.6320   4.4032   5.7124   5.7124

          k =-0.1250 0.8750 0.6250 (   755 PWs)   bands (ev):

    -2.4298  -0.8873   2.0193   3.0971

          k =-0.6250-0.1250 0.6250 (   767 PWs)   bands (ev):

    -2.9672  -0.5855   2.0781   4.1424

          k = 0.1250 0.8750-0.6250 (   755 PWs)   bands (ev):

    -2.4298  -0.8873   2.0193   3.0971

          k =-0.3750-0.1250-0.6250 (   768 PWs)   bands (ev):

    -3.6553   0.2014   2.7332   4.1034

          k =-0.6250-0.1250-0.3750 (   768 PWs)   bands (ev):

    -3.6553   0.2014   2.7332   4.1034

          k =-1.1250-1.1250-0.3750 (   766 PWs)   bands (ev):

    -4.0714   1.0760   3.3754   3.8286

          k = 0.6250 0.1250 0.3750 (   768 PWs)   bands (ev):

    -3.6553   0.2014   2.7332   4.1034

          k = 0.1250-0.8750 0.3750 (   755 PWs)   bands (ev):

    -2.4298  -0.8873   2.0193   3.0971

          k =-0.3750-0.1250 0.6250 (   768 PWs)   bands (ev):

    -3.6553   0.2014   2.7332   4.1034

          k =-0.8750-1.1250 0.6250 (   768 PWs)   bands (ev):

    -5.1037   2.7867   4.7034   4.7681

          k = 0.1250 0.6250 0.3750 (   768 PWs)   bands (ev):

    -3.6553   0.2014   2.7332   4.1034

          k =-0.3750-0.3750 0.3750 (   763 PWs)   bands (ev):

    -4.1709   0.1171   4.9247   4.9247

          k =-0.1250 0.6250-0.3750 (   768 PWs)   bands (ev):

    -3.6553   0.2014   2.7332   4.1034

          k =-0.6250-0.3750-0.3750 (   763 PWs)   bands (ev):

    -3.4633  -0.6715   3.7460   4.4597

          k = 0.1250-0.8750-0.1250 (   762 PWs)   bands (ev):

    -2.5980  -0.7897   2.6300   3.3614

          k =-0.3750-1.8750-0.1250 (   768 PWs)   bands (ev):

    -5.1037   2.7867   4.7034   4.7681

          k =-0.8750 0.1250-0.1250 (   762 PWs)   bands (ev):

    -2.5980  -0.7897   2.6300   3.3614

          k =-1.3750-0.8750-0.1250 (   755 PWs)   bands (ev):

    -2.4298  -0.8873   2.0193   3.0971

          k =-1.1250 0.3750-0.3750 (   767 PWs)   bands (ev):

    -2.9672  -0.5855   2.0781   4.1424

          k =-1.6250-0.6250-0.3750 (   763 PWs)   bands (ev):

    -3.4633  -0.6715   3.7460   4.4597

          k =-0.3750 0.3750 1.1250 (   767 PWs)   bands (ev):

    -2.9672  -0.5855   2.0781   4.1424

          k =-0.8750-0.6250 1.1250 (   768 PWs)   bands (ev):

    -5.1037   2.7867   4.7034   4.7681

     highest occupied level (ev):     5.7124

     Writing output data file silicon.10.328.save

                                                                                

     bravais-lattice index     =            2
     lattice parameter (alat)  =      10.3280  a.u.
     unit-cell volume          =     275.4157 (a.u.)^3
     number of atoms/cell      =            2
     number of atomic types    =            1
     kinetic-energy cut-off    =      30.0000  Ry
     charge density cut-off    =     240.0000  Ry
     convergence threshold     =      1.0E-12
     beta                      =       0.7000
     number of iterations used =            4
     Exchange-correlation      = SLA  PW   PBE  PBE ( 1  4  3  4 0 0)


     celldm(1)=   10.32800  celldm(2)=    0.00000  celldm(3)=    0.00000
     celldm(4)=    0.00000  celldm(5)=    0.00000  celldm(6)=    0.00000

     crystal axes: (cart. coord. in units of alat)
               a(1) = ( -0.5000  0.0000  0.5000 )  
               a(2) = (  0.0000  0.5000  0.5000 )  
               a(3) = ( -0.5000  0.5000  0.0000 )  

     reciprocal axes: (cart. coord. in units 2 pi/alat)
               b(1) = ( -1.0000 -1.0000  1.0000 )  
               b(2) = (  1.0000  1.0000  1.0000 )  
               b(3) = ( -1.0000  1.0000 -1.0000 )  


     Atoms inside the unit cell: 

     Cartesian axes

     site n.  atom      mass           positions (alat units)
        1     Si  28.0860   tau(    1) = (    0.00000    0.00000    0.00000  )
        2     Si  28.0860   tau(    2) = (    0.25000    0.25000    0.25000  )

     Computing dynamical matrix for 
                    q = (  -0.5000000  -1.0000000   0.0000000 )

      8 Sym.Ops. (no q -> -q+G )


     G cutoff =  648.4612  (   4316 G-vectors)     FFT grid: ( 40, 40, 40)
     G cutoff =  324.2306  (   1546 G-vectors)  smooth grid: ( 25, 25, 25)
     number of k points=    64

     PseudoPot. # 1 for Si read from file:
     /home/s1333534/quantum_espresso/qe-6.1/pseudo/si_pbe_v1.uspp.F.UPF.txt
     MD5 check sum: a056efeee980c13900f22a371efd63c1
     Pseudo is Ultrasoft + core correction, Zval =  4.0
     Generated by new atomic code, or converted to UPF format
     Using radial grid of  899 points,  6 beta functions with: 
                l(1) =   0
                l(2) =   0
                l(3) =   1
                l(4) =   1
                l(5) =   2
                l(6) =   2
     Q(r) pseudized with  8 coefficients,  rinner =    0.900   0.900   0.900
                                                       0.900   0.900


     Atomic displacements:
     There are   3 irreducible representations

     Representation     1      2 modes -  To be done

     Representation     2      2 modes -  To be done

     Representation     3      2 modes -  To be done



     Alpha used in Ewald sum =   2.5000
     PHONON       :  2m 7.19s CPU     2m39.12s WALL



     Representation #  1 modes #   1  2

     Self-consistent Calculation

      iter #   1 total cpu time :   159.8 secs   av.it.:   5.7
      thresh= 1.000E-02 alpha_mix =  0.700 |ddv_scf|^2 =  7.895E-07

      iter #   2 total cpu time :   160.7 secs   av.it.:  11.8
      thresh= 8.885E-05 alpha_mix =  0.700 |ddv_scf|^2 =  4.469E-07

      iter #   3 total cpu time :   161.6 secs   av.it.:  11.2
      thresh= 6.685E-05 alpha_mix =  0.700 |ddv_scf|^2 =  4.294E-10

      iter #   4 total cpu time :   162.4 secs   av.it.:  11.1
      thresh= 2.072E-06 alpha_mix =  0.700 |ddv_scf|^2 =  1.914E-12

      iter #   5 total cpu time :   163.2 secs   av.it.:  11.3
      thresh= 1.383E-07 alpha_mix =  0.700 |ddv_scf|^2 =  5.070E-14

     End of self-consistent calculation

     Convergence has been achieved 


     Representation #  2 modes #   3  4

     Self-consistent Calculation

      iter #   1 total cpu time :   164.0 secs   av.it.:   5.6
      thresh= 1.000E-02 alpha_mix =  0.700 |ddv_scf|^2 =  1.225E-06

      iter #   2 total cpu time :   164.9 secs   av.it.:  11.8
      thresh= 1.107E-04 alpha_mix =  0.700 |ddv_scf|^2 =  1.659E-06

      iter #   3 total cpu time :   165.7 secs   av.it.:  11.0
      thresh= 1.288E-04 alpha_mix =  0.700 |ddv_scf|^2 =  5.087E-10

      iter #   4 total cpu time :   166.6 secs   av.it.:  11.0
      thresh= 2.255E-06 alpha_mix =  0.700 |ddv_scf|^2 =  7.846E-12

      iter #   5 total cpu time :   167.3 secs   av.it.:  11.3
      thresh= 2.801E-07 alpha_mix =  0.700 |ddv_scf|^2 =  1.305E-13

     End of self-consistent calculation

     Convergence has been achieved 


     Representation #  3 modes #   5  6

     Self-consistent Calculation

      iter #   1 total cpu time :   168.2 secs   av.it.:   5.3
      thresh= 1.000E-02 alpha_mix =  0.700 |ddv_scf|^2 =  3.208E-07

      iter #   2 total cpu time :   169.2 secs   av.it.:  11.8
      thresh= 5.664E-05 alpha_mix =  0.700 |ddv_scf|^2 =  1.874E-07

      iter #   3 total cpu time :   170.1 secs   av.it.:  11.2
      thresh= 4.329E-05 alpha_mix =  0.700 |ddv_scf|^2 =  3.729E-10

      iter #   4 total cpu time :   170.9 secs   av.it.:  11.1
      thresh= 1.931E-06 alpha_mix =  0.700 |ddv_scf|^2 =  4.400E-12

      iter #   5 total cpu time :   171.7 secs   av.it.:  11.2
      thresh= 2.098E-07 alpha_mix =  0.700 |ddv_scf|^2 =  6.076E-14

     End of self-consistent calculation

     Convergence has been achieved 

     Number of q in the star =    6
     List of q in the star:
          1  -0.500000000  -1.000000000   0.000000000
          2   0.000000000   1.000000000   0.500000000
          3   0.000000000  -1.000000000  -0.500000000
          4   0.500000000   1.000000000   0.000000000
          5  -1.000000000  -0.500000000   0.000000000
          6   0.000000000  -0.500000000  -1.000000000

     Diagonalizing the dynamical matrix

     q = (   -0.500000000  -1.000000000   0.000000000 ) 

 **************************************************************************
     freq (    1) =       6.015200 [THz] =     200.645475 [cm-1]
     freq (    2) =       6.015200 [THz] =     200.645475 [cm-1]
     freq (    3) =      10.343581 [THz] =     345.024714 [cm-1]
     freq (    4) =      10.343581 [THz] =     345.024714 [cm-1]
     freq (    5) =      13.588174 [THz] =     453.252700 [cm-1]
     freq (    6) =      13.588174 [THz] =     453.252700 [cm-1]
 **************************************************************************

     init_run     :      1.27s CPU      1.32s WALL (       7 calls)
     electrons    :      7.41s CPU      7.98s WALL (       7 calls)

     Called by init_run:
     wfcinit      :      0.00s CPU      0.02s WALL (       7 calls)
     potinit      :      0.10s CPU      0.12s WALL (       7 calls)

     Called by electrons:
     c_bands      :      7.41s CPU      7.97s WALL (       7 calls)
     v_of_rho     :      0.09s CPU      0.09s WALL (       8 calls)
     newd         :      0.12s CPU      0.12s WALL (       8 calls)

     Called by c_bands:
     init_us_2    :      1.62s CPU      1.56s WALL (   15896 calls)
     cegterg      :      6.19s CPU      6.64s WALL (     796 calls)

     Called by sum_band:

     Called by *egterg:
     h_psi        :     70.43s CPU     75.78s WALL (  154643 calls)
     s_psi        :      5.82s CPU      6.98s WALL (  311544 calls)
     g_psi        :      0.05s CPU      0.07s WALL (    9666 calls)
     cdiaghg      :      0.56s CPU      0.56s WALL (   10462 calls)

     Called by h_psi:
     h_psi:pot    :     70.02s CPU     75.26s WALL (  154643 calls)
     h_psi:calbec :      3.61s CPU      4.04s WALL (  154643 calls)
     vloc_psi     :     61.87s CPU     67.06s WALL (  154643 calls)
     add_vuspsi   :      4.19s CPU      3.69s WALL (  154643 calls)

     General routines
     calbec       :      8.04s CPU      8.45s WALL (  345852 calls)
     fft          :      1.87s CPU      1.95s WALL (    5233 calls)
     ffts         :      0.21s CPU      0.23s WALL (    3316 calls)
     fftw         :     63.17s CPU     67.99s WALL ( 1384374 calls)
     interpolate  :      0.28s CPU      0.31s WALL (     568 calls)
     davcio       :      0.33s CPU      1.30s WALL (   69130 calls)

     Parallel routines
     fft_scatter  :     15.51s CPU     20.01s WALL ( 1392923 calls)

     PHONON       :  2m16.85s CPU     2m52.07s WALL

     INITIALIZATION: 
     phq_setup    :      0.30s CPU      0.53s WALL (       8 calls)
     phq_init     :      6.82s CPU      7.28s WALL (       8 calls)

     phq_init     :      6.82s CPU      7.28s WALL (       8 calls)
     set_drhoc    :      1.83s CPU      1.84s WALL (      24 calls)
     init_vloc    :      0.03s CPU      0.03s WALL (       8 calls)
     init_us_1    :      0.97s CPU      0.98s WALL (       8 calls)
     newd         :      0.12s CPU      0.12s WALL (       8 calls)
     dvanqq       :      1.16s CPU      1.17s WALL (       8 calls)
     drho         :      2.61s CPU      2.69s WALL (       8 calls)

     DYNAMICAL MATRIX:
     dynmat0      :      1.76s CPU      1.85s WALL (       8 calls)
     phqscf       :    115.63s CPU    144.93s WALL (       8 calls)
     dynmatrix    :      0.01s CPU      0.23s WALL (       8 calls)

     phqscf       :    115.63s CPU    144.93s WALL (       8 calls)
     solve_linter :    114.77s CPU    142.12s WALL (      32 calls)
     drhodv       :      0.57s CPU      0.59s WALL (      32 calls)

     dynmat0      :      1.76s CPU      1.85s WALL (       8 calls)
     dynmat_us    :      0.41s CPU      0.41s WALL (       8 calls)
     d2ionq       :      0.04s CPU      0.04s WALL (       8 calls)
     dynmatcc     :      1.30s CPU      1.30s WALL (       8 calls)

     dynmat_us    :      0.41s CPU      0.41s WALL (       8 calls)
     addusdynmat  :      0.00s CPU      0.00s WALL (       8 calls)

     phqscf       :    115.63s CPU    144.93s WALL (       8 calls)
     solve_linter :    114.77s CPU    142.12s WALL (      32 calls)

     solve_linter :    114.77s CPU    142.12s WALL (      32 calls)
     dvqpsi_us    :      2.14s CPU      2.30s WALL (    2508 calls)
     ortho        :      0.81s CPU      0.92s WALL (   13486 calls)
     cgsolve      :     77.79s CPU     84.84s WALL (   13486 calls)
     incdrhoscf   :      6.24s CPU      6.85s WALL (   13486 calls)
     addusddens   :      7.06s CPU      7.12s WALL (     200 calls)
     vpsifft      :      4.49s CPU      4.98s WALL (   10858 calls)
     dv_of_drho   :      1.74s CPU      1.79s WALL (     254 calls)
     mix_pot      :      0.34s CPU     10.14s WALL (     173 calls)
     psymdvscf    :      5.98s CPU      6.06s WALL (     168 calls)
     newdq        :      7.77s CPU      7.81s WALL (     173 calls)
     adddvscf     :      0.46s CPU      0.44s WALL (   10978 calls)
     drhodvus     :      0.01s CPU      0.02s WALL (      32 calls)

     dvqpsi_us    :      2.14s CPU      2.30s WALL (    2508 calls)
     dvqpsi_us_on :      0.92s CPU      0.95s WALL (    2508 calls)

     cgsolve      :     77.79s CPU     84.84s WALL (   13486 calls)
     ch_psi       :     76.63s CPU     83.07s WALL (  143385 calls)

     ch_psi       :     76.63s CPU     83.07s WALL (  143385 calls)
     h_psi        :     70.43s CPU     75.78s WALL (  154643 calls)
     last         :      8.90s CPU      9.07s WALL (  143385 calls)

     h_psi        :     70.43s CPU     75.78s WALL (  154643 calls)
     add_vuspsi   :      4.19s CPU      3.69s WALL (  154643 calls)

     incdrhoscf   :      6.24s CPU      6.85s WALL (   13486 calls)
     addusdbec    :      0.48s CPU      0.52s WALL (   15934 calls)

     drhodvus     :      0.01s CPU      0.02s WALL (      32 calls)

      General routines
     calbec       :      8.04s CPU      8.45s WALL (  345852 calls)
     fft          :      1.87s CPU      1.95s WALL (    5233 calls)
     ffts         :      0.21s CPU      0.23s WALL (    3316 calls)
     fftw         :     63.17s CPU     67.99s WALL ( 1384374 calls)
     davcio       :      0.33s CPU      1.30s WALL (   69130 calls)
     write_rec    :      0.25s CPU     10.99s WALL (     205 calls)


     PHONON       :  2m16.85s CPU     2m52.07s WALL


   This run was terminated on:  15:32:16  10Nov2017            

=------------------------------------------------------------------------------=
   JOB DONE.
=------------------------------------------------------------------------------=
