
     Program PHONON v.6.1 (svn rev. 13369) starts on  9Nov2017 at 17:12:25 

     This program is part of the open-source Quantum ESPRESSO suite
     for quantum simulation of materials; please cite
         "P. Giannozzi et al., J. Phys.:Condens. Matter 21 395502 (2009);
          URL http://www.quantum-espresso.org", 
     in publications or presentations arising from this work. More details at
     http://www.quantum-espresso.org/quote

     Parallel version (MPI), running on     4 processors
     R & G space division:  proc/nbgrp/npool/nimage =       4

     Reading data from directory:
     ./silicon.10.390.save

   Info: using nr1, nr2, nr3 values from input

   Info: using nr1, nr2, nr3 values from input

     IMPORTANT: XC functional enforced from input :
     Exchange-correlation      = SLA  PW   PBE  PBE ( 1  4  3  4 0 0)
     Any further DFT definition will be discarded
     Please, verify this is what you really want


     Parallelization info
     --------------------
     sticks:   dense  smooth     PW     G-vecs:    dense   smooth      PW
     Min          66      66     22                  722      722     152
     Max          67      67     23                  724      724     153
     Sum         265     265     91                 2891     2891     609


     Check: negative/imaginary core charge=   -0.000006    0.000000


     Dynamical matrices for ( 4, 4, 4)  uniform grid of q-points
     (   8q-points):
       N         xq(1)         xq(2)         xq(3) 
       1   0.000000000   0.000000000   0.000000000
       2  -0.250000000   0.250000000  -0.250000000
       3   0.500000000  -0.500000000   0.500000000
       4   0.000000000   0.500000000   0.000000000
       5   0.750000000  -0.250000000   0.750000000
       6   0.500000000   0.000000000   0.500000000
       7   0.000000000  -1.000000000   0.000000000
       8  -0.500000000  -1.000000000   0.000000000

     Calculation of q =    0.0000000   0.0000000   0.0000000

                                                                                

     bravais-lattice index     =            2
     lattice parameter (alat)  =      10.3900  a.u.
     unit-cell volume          =     280.4056 (a.u.)^3
     number of atoms/cell      =            2
     number of atomic types    =            1
     kinetic-energy cut-off    =      18.0000  Ry
     charge density cut-off    =      72.0000  Ry
     convergence threshold     =      1.0E-12
     beta                      =       0.7000
     number of iterations used =            4
     Exchange-correlation      = SLA  PW   PBE  PBE ( 1  4  3  4 0 0)


     celldm(1)=   10.39000  celldm(2)=    0.00000  celldm(3)=    0.00000
     celldm(4)=    0.00000  celldm(5)=    0.00000  celldm(6)=    0.00000

     crystal axes: (cart. coord. in units of alat)
               a(1) = ( -0.5000  0.0000  0.5000 )  
               a(2) = (  0.0000  0.5000  0.5000 )  
               a(3) = ( -0.5000  0.5000  0.0000 )  

     reciprocal axes: (cart. coord. in units 2 pi/alat)
               b(1) = ( -1.0000 -1.0000  1.0000 )  
               b(2) = (  1.0000  1.0000  1.0000 )  
               b(3) = ( -1.0000  1.0000 -1.0000 )  


     Atoms inside the unit cell: 

     Cartesian axes

     site n.  atom      mass           positions (alat units)
        1     Si  28.0860   tau(    1) = (    0.00000    0.00000    0.00000  )
        2     Si  28.0860   tau(    2) = (    0.25000    0.25000    0.25000  )

     Computing dynamical matrix for 
                    q = (   0.0000000   0.0000000   0.0000000 )

     49 Sym.Ops. (with q -> -q+G )


     G cutoff =  196.8810  (    722 G-vectors)     FFT grid: ( 20, 20, 20)
     number of k points=    10

     PseudoPot. # 1 for Si read from file:
     /home/max/quantum_espresso/qe-6.1/pseudo/si_pbe_v1.uspp.F.UPF.txt
     MD5 check sum: a056efeee980c13900f22a371efd63c1
     Pseudo is Ultrasoft + core correction, Zval =  4.0
     Generated by new atomic code, or converted to UPF format
     Using radial grid of  899 points,  6 beta functions with: 
                l(1) =   0
                l(2) =   0
                l(3) =   1
                l(4) =   1
                l(5) =   2
                l(6) =   2
     Q(r) pseudized with  8 coefficients,  rinner =    0.900   0.900   0.900
                                                       0.900   0.900

     Mode symmetry, O_h (m-3m)  point group:


     Electric field:
     Dielectric constant
     Born effective charges in two ways 


     Atomic displacements:
     There are   2 irreducible representations

     Representation     1      3 modes -T_2g G_25' G_5+  To be done

     Representation     2      3 modes -T_1u G_15  G_4-  To be done



     Alpha used in Ewald sum =   0.7000
     PHONON       :     0.39s CPU         0.41s WALL


     Electric Fields Calculation

      iter #   1 total cpu time :     0.8 secs   av.it.:   5.6
      thresh= 1.000E-02 alpha_mix =  0.700 |ddv_scf|^2 =  9.529E-07

      iter #   2 total cpu time :     1.0 secs   av.it.:   9.9
      thresh= 9.762E-05 alpha_mix =  0.700 |ddv_scf|^2 =  6.194E-08

      iter #   3 total cpu time :     1.3 secs   av.it.:   9.8
      thresh= 2.489E-05 alpha_mix =  0.700 |ddv_scf|^2 =  4.916E-09

      iter #   4 total cpu time :     1.5 secs   av.it.:   9.0
      thresh= 7.011E-06 alpha_mix =  0.700 |ddv_scf|^2 =  2.977E-11

      iter #   5 total cpu time :     1.7 secs   av.it.:   9.1
      thresh= 5.457E-07 alpha_mix =  0.700 |ddv_scf|^2 =  1.545E-14

     End of electric fields calculation

          Dielectric constant in cartesian axis 

          (      13.996805390       0.000000000       0.000000000 )
          (       0.000000000      13.996805390      -0.000000000 )
          (       0.000000000      -0.000000000      13.996805390 )

          Effective charges (d Force / dE) in cartesian axis

           atom      1   Si 
      Ex  (       -0.03384       -0.00000        0.00000 )
      Ey  (       -0.00000       -0.03384        0.00000 )
      Ez  (        0.00000       -0.00000       -0.03384 )
           atom      2   Si 
      Ex  (       -0.03384       -0.00000        0.00000 )
      Ey  (        0.00000       -0.03384        0.00000 )
      Ez  (        0.00000       -0.00000       -0.03384 )


     Representation #  1 modes #   1  2  3

     Self-consistent Calculation

      iter #   1 total cpu time :     2.3 secs   av.it.:   4.9
      thresh= 1.000E-02 alpha_mix =  0.700 |ddv_scf|^2 =  1.847E-07

      iter #   2 total cpu time :     2.4 secs   av.it.:  10.0
      thresh= 4.298E-05 alpha_mix =  0.700 |ddv_scf|^2 =  1.018E-08

      iter #   3 total cpu time :     2.6 secs   av.it.:   9.5
      thresh= 1.009E-05 alpha_mix =  0.700 |ddv_scf|^2 =  7.043E-10

      iter #   4 total cpu time :     2.8 secs   av.it.:   9.1
      thresh= 2.654E-06 alpha_mix =  0.700 |ddv_scf|^2 =  1.810E-12

      iter #   5 total cpu time :     3.0 secs   av.it.:   9.4
      thresh= 1.345E-07 alpha_mix =  0.700 |ddv_scf|^2 =  1.528E-14

     End of self-consistent calculation

     Convergence has been achieved 


     Representation #  2 modes #   4  5  6

     Self-consistent Calculation

      iter #   1 total cpu time :     3.3 secs   av.it.:   5.0
      thresh= 1.000E-02 alpha_mix =  0.700 |ddv_scf|^2 =  1.915E-07

      iter #   2 total cpu time :     3.5 secs   av.it.:   9.6
      thresh= 4.376E-05 alpha_mix =  0.700 |ddv_scf|^2 =  1.577E-08

      iter #   3 total cpu time :     3.7 secs   av.it.:   9.2
      thresh= 1.256E-05 alpha_mix =  0.700 |ddv_scf|^2 =  9.480E-10

      iter #   4 total cpu time :     3.9 secs   av.it.:   9.5
      thresh= 3.079E-06 alpha_mix =  0.700 |ddv_scf|^2 =  5.515E-12

      iter #   5 total cpu time :     4.0 secs   av.it.:   9.1
      thresh= 2.348E-07 alpha_mix =  0.700 |ddv_scf|^2 =  5.037E-15

     End of self-consistent calculation

     Convergence has been achieved 

     Number of q in the star =    1
     List of q in the star:
          1   0.000000000   0.000000000   0.000000000

          Dielectric constant in cartesian axis 

          (      13.996805390       0.000000000       0.000000000 )
          (       0.000000000      13.996805390      -0.000000000 )
          (       0.000000000      -0.000000000      13.996805390 )

          Effective charges (d Force / dE) in cartesian axis

           atom      1   Si 
      Ex  (       -0.03384       -0.00000        0.00000 )
      Ey  (       -0.00000       -0.03384        0.00000 )
      Ez  (        0.00000       -0.00000       -0.03384 )
           atom      2   Si 
      Ex  (       -0.03384       -0.00000        0.00000 )
      Ey  (        0.00000       -0.03384        0.00000 )
      Ez  (        0.00000       -0.00000       -0.03384 )

          Effective charges (d P / du) in cartesian axis 

           atom      1   Si 
      Px  (       -0.07570       -0.00000       -0.00000 )
      Py  (       -0.00000       -0.07570        0.00000 )
      Pz  (        0.00000        0.00000       -0.07570 )
           atom      2   Si 
      Px  (       -0.07570        0.00000       -0.00000 )
      Py  (       -0.00000       -0.07570        0.00000 )
      Pz  (       -0.00000       -0.00000       -0.07570 )

     Diagonalizing the dynamical matrix

     q = (    0.000000000   0.000000000   0.000000000 ) 

 **************************************************************************
     freq (    1) =       1.791320 [THz] =      59.751994 [cm-1]
     freq (    2) =       1.791320 [THz] =      59.751994 [cm-1]
     freq (    3) =       1.791320 [THz] =      59.751994 [cm-1]
     freq (    4) =      15.605212 [THz] =     520.533836 [cm-1]
     freq (    5) =      15.605212 [THz] =     520.533836 [cm-1]
     freq (    6) =      15.605212 [THz] =     520.533836 [cm-1]
 **************************************************************************

     Mode symmetry, O_h (m-3m)  point group:

     freq (  1 -  3) =         59.8  [cm-1]   --> T_1u G_15  G_4- I  
     freq (  4 -  6) =        520.5  [cm-1]   --> T_2g G_25' G_5+ R  

     Calculation of q =   -0.2500000   0.2500000  -0.2500000

   Info: using nr1, nr2, nr3 values from input

   Info: using nr1, nr2, nr3 values from input

     Parallelization info
     --------------------
     sticks:   dense  smooth     PW     G-vecs:    dense   smooth      PW
     Min          66      66     24                  722      722     161
     Max          67      67     25                  724      724     162
     Sum         265     265     97                 2891     2891     645



     bravais-lattice index     =            2
     lattice parameter (alat)  =      10.3900  a.u.
     unit-cell volume          =     280.4056 (a.u.)^3
     number of atoms/cell      =            2
     number of atomic types    =            1
     number of electrons       =         8.00
     number of Kohn-Sham states=            4
     kinetic-energy cutoff     =      18.0000  Ry
     charge density cutoff     =      72.0000  Ry
     Exchange-correlation      = SLA  PW   PBE  PBE ( 1  4  3  4 0 0)

     celldm(1)=  10.390000  celldm(2)=   0.000000  celldm(3)=   0.000000
     celldm(4)=   0.000000  celldm(5)=   0.000000  celldm(6)=   0.000000

     crystal axes: (cart. coord. in units of alat)
               a(1) = (  -0.500000   0.000000   0.500000 )  
               a(2) = (   0.000000   0.500000   0.500000 )  
               a(3) = (  -0.500000   0.500000   0.000000 )  

     reciprocal axes: (cart. coord. in units 2 pi/alat)
               b(1) = ( -1.000000 -1.000000  1.000000 )  
               b(2) = (  1.000000  1.000000  1.000000 )  
               b(3) = ( -1.000000  1.000000 -1.000000 )  


     PseudoPot. # 1 for Si read from file:
     /home/max/quantum_espresso/qe-6.1/pseudo/si_pbe_v1.uspp.F.UPF.txt
     MD5 check sum: a056efeee980c13900f22a371efd63c1
     Pseudo is Ultrasoft + core correction, Zval =  4.0
     Generated by new atomic code, or converted to UPF format
     Using radial grid of  899 points,  6 beta functions with: 
                l(1) =   0
                l(2) =   0
                l(3) =   1
                l(4) =   1
                l(5) =   2
                l(6) =   2
     Q(r) pseudized with  8 coefficients,  rinner =    0.900   0.900   0.900
                                                       0.900   0.900

     atomic species   valence    mass     pseudopotential
        Si             4.00    28.08600     Si( 1.00)

     48 Sym. Ops., with inversion, found



   Cartesian axes

     site n.     atom                  positions (alat units)
         1           Si  tau(   1) = (   0.0000000   0.0000000   0.0000000  )
         2           Si  tau(   2) = (   0.2500000   0.2500000   0.2500000  )

     number of k points=   120

     Number of k-points >= 100: set verbosity='high' to print them.

     Dense  grid:     2891 G-vectors     FFT dimensions: (  20,  20,  20)

     Estimated max dynamical RAM per process >       0.33MB

     Estimated total allocated dynamical RAM >       1.33MB

     Check: negative/imaginary core charge=   -0.000006    0.000000

     The potential is recalculated from file :
     ./_ph0/silicon.10.390.save/charge-density.dat

     Starting wfc are    8 atomic wfcs

     Band Structure Calculation
     Davidson diagonalization with overlap

     ethr =  1.25E-10,  avg # of iterations = 11.7

     total cpu time spent up to now is        1.2 secs

     End of band structure calculation

     Number of k-points >= 100: set verbosity='high' to print the bands.

     highest occupied level (ev):     5.5384

     Writing output data file silicon.10.390.save

                                                                                

     bravais-lattice index     =            2
     lattice parameter (alat)  =      10.3900  a.u.
     unit-cell volume          =     280.4056 (a.u.)^3
     number of atoms/cell      =            2
     number of atomic types    =            1
     kinetic-energy cut-off    =      18.0000  Ry
     charge density cut-off    =      72.0000  Ry
     convergence threshold     =      1.0E-12
     beta                      =       0.7000
     number of iterations used =            4
     Exchange-correlation      = SLA  PW   PBE  PBE ( 1  4  3  4 0 0)


     celldm(1)=   10.39000  celldm(2)=    0.00000  celldm(3)=    0.00000
     celldm(4)=    0.00000  celldm(5)=    0.00000  celldm(6)=    0.00000

     crystal axes: (cart. coord. in units of alat)
               a(1) = ( -0.5000  0.0000  0.5000 )  
               a(2) = (  0.0000  0.5000  0.5000 )  
               a(3) = ( -0.5000  0.5000  0.0000 )  

     reciprocal axes: (cart. coord. in units 2 pi/alat)
               b(1) = ( -1.0000 -1.0000  1.0000 )  
               b(2) = (  1.0000  1.0000  1.0000 )  
               b(3) = ( -1.0000  1.0000 -1.0000 )  


     Atoms inside the unit cell: 

     Cartesian axes

     site n.  atom      mass           positions (alat units)
        1     Si  28.0860   tau(    1) = (    0.00000    0.00000    0.00000  )
        2     Si  28.0860   tau(    2) = (    0.25000    0.25000    0.25000  )

     Computing dynamical matrix for 
                    q = (  -0.2500000   0.2500000  -0.2500000 )

      6 Sym.Ops. (no q -> -q+G )


     G cutoff =  196.8810  (    722 G-vectors)     FFT grid: ( 20, 20, 20)
     number of k points=   120

     PseudoPot. # 1 for Si read from file:
     /home/max/quantum_espresso/qe-6.1/pseudo/si_pbe_v1.uspp.F.UPF.txt
     MD5 check sum: a056efeee980c13900f22a371efd63c1
     Pseudo is Ultrasoft + core correction, Zval =  4.0
     Generated by new atomic code, or converted to UPF format
     Using radial grid of  899 points,  6 beta functions with: 
                l(1) =   0
                l(2) =   0
                l(3) =   1
                l(4) =   1
                l(5) =   2
                l(6) =   2
     Q(r) pseudized with  8 coefficients,  rinner =    0.900   0.900   0.900
                                                       0.900   0.900

     Mode symmetry, C_3v (3m)   point group:


     Atomic displacements:
     There are   4 irreducible representations

     Representation     1      1 modes -A_1  L_1  To be done

     Representation     2      1 modes -A_1  L_1  To be done

     Representation     3      2 modes -E    L_3  To be done

     Representation     4      2 modes -E    L_3  To be done



     Alpha used in Ewald sum =   0.7000
     PHONON       :     5.45s CPU         5.70s WALL



     Representation #  1 mode #   1

     Self-consistent Calculation

      iter #   1 total cpu time :     6.0 secs   av.it.:   5.5
      thresh= 1.000E-02 alpha_mix =  0.700 |ddv_scf|^2 =  2.433E-03

      iter #   2 total cpu time :     6.3 secs   av.it.:   7.5
      thresh= 4.932E-03 alpha_mix =  0.700 |ddv_scf|^2 =  3.696E-02

      iter #   3 total cpu time :     6.5 secs   av.it.:   6.3
      thresh= 1.000E-02 alpha_mix =  0.700 |ddv_scf|^2 =  1.707E-06

      iter #   4 total cpu time :     6.8 secs   av.it.:   8.2
      thresh= 1.306E-04 alpha_mix =  0.700 |ddv_scf|^2 =  1.141E-07

      iter #   5 total cpu time :     7.1 secs   av.it.:   8.1
      thresh= 3.378E-05 alpha_mix =  0.700 |ddv_scf|^2 =  4.407E-09

      iter #   6 total cpu time :     7.3 secs   av.it.:   8.1
      thresh= 6.638E-06 alpha_mix =  0.700 |ddv_scf|^2 =  3.763E-09

      iter #   7 total cpu time :     7.5 secs   av.it.:   6.3
      thresh= 6.134E-06 alpha_mix =  0.700 |ddv_scf|^2 =  6.336E-10

      iter #   8 total cpu time :     7.8 secs   av.it.:   7.1
      thresh= 2.517E-06 alpha_mix =  0.700 |ddv_scf|^2 =  4.153E-12

      iter #   9 total cpu time :     8.2 secs   av.it.:   7.2
      thresh= 2.038E-07 alpha_mix =  0.700 |ddv_scf|^2 =  1.806E-13

     End of self-consistent calculation

     Convergence has been achieved 


     Representation #  2 mode #   2

     Self-consistent Calculation

      iter #   1 total cpu time :     8.4 secs   av.it.:   5.5
      thresh= 1.000E-02 alpha_mix =  0.700 |ddv_scf|^2 =  2.433E-03

      iter #   2 total cpu time :     8.7 secs   av.it.:   7.5
      thresh= 4.932E-03 alpha_mix =  0.700 |ddv_scf|^2 =  3.696E-02

      iter #   3 total cpu time :     8.9 secs   av.it.:   6.3
      thresh= 1.000E-02 alpha_mix =  0.700 |ddv_scf|^2 =  1.707E-06

      iter #   4 total cpu time :     9.1 secs   av.it.:   8.2
      thresh= 1.306E-04 alpha_mix =  0.700 |ddv_scf|^2 =  1.141E-07

      iter #   5 total cpu time :     9.6 secs   av.it.:   8.1
      thresh= 3.378E-05 alpha_mix =  0.700 |ddv_scf|^2 =  4.407E-09

      iter #   6 total cpu time :    10.0 secs   av.it.:   8.1
      thresh= 6.638E-06 alpha_mix =  0.700 |ddv_scf|^2 =  3.763E-09

      iter #   7 total cpu time :    10.2 secs   av.it.:   6.3
      thresh= 6.134E-06 alpha_mix =  0.700 |ddv_scf|^2 =  6.336E-10

      iter #   8 total cpu time :    10.5 secs   av.it.:   7.1
      thresh= 2.517E-06 alpha_mix =  0.700 |ddv_scf|^2 =  4.153E-12

      iter #   9 total cpu time :    10.7 secs   av.it.:   7.2
      thresh= 2.038E-07 alpha_mix =  0.700 |ddv_scf|^2 =  1.806E-13

     End of self-consistent calculation

     Convergence has been achieved 


     Representation #  3 modes #   3  4

     Self-consistent Calculation

      iter #   1 total cpu time :    11.1 secs   av.it.:   4.9
      thresh= 1.000E-02 alpha_mix =  0.700 |ddv_scf|^2 =  5.340E-07

      iter #   2 total cpu time :    11.7 secs   av.it.:   9.6
      thresh= 7.308E-05 alpha_mix =  0.700 |ddv_scf|^2 =  3.997E-08

      iter #   3 total cpu time :    12.4 secs   av.it.:   9.2
      thresh= 1.999E-05 alpha_mix =  0.700 |ddv_scf|^2 =  3.432E-09

      iter #   4 total cpu time :    13.0 secs   av.it.:   9.0
      thresh= 5.858E-06 alpha_mix =  0.700 |ddv_scf|^2 =  1.134E-11

      iter #   5 total cpu time :    13.5 secs   av.it.:   9.2
      thresh= 3.368E-07 alpha_mix =  0.700 |ddv_scf|^2 =  5.083E-13

     End of self-consistent calculation

     Convergence has been achieved 


     Representation #  4 modes #   5  6

     Self-consistent Calculation

      iter #   1 total cpu time :    13.9 secs   av.it.:   5.0
      thresh= 1.000E-02 alpha_mix =  0.700 |ddv_scf|^2 =  5.339E-07

      iter #   2 total cpu time :    14.7 secs   av.it.:   9.7
      thresh= 7.307E-05 alpha_mix =  0.700 |ddv_scf|^2 =  3.991E-08

      iter #   3 total cpu time :    15.3 secs   av.it.:   9.4
      thresh= 1.998E-05 alpha_mix =  0.700 |ddv_scf|^2 =  3.428E-09

      iter #   4 total cpu time :    15.8 secs   av.it.:   9.1
      thresh= 5.855E-06 alpha_mix =  0.700 |ddv_scf|^2 =  1.135E-11

      iter #   5 total cpu time :    16.5 secs   av.it.:   9.3
      thresh= 3.369E-07 alpha_mix =  0.700 |ddv_scf|^2 =  5.084E-13

     End of self-consistent calculation

     Convergence has been achieved 

     Number of q in the star =    8
     List of q in the star:
          1  -0.250000000   0.250000000  -0.250000000
          2   0.250000000  -0.250000000  -0.250000000
          3   0.250000000  -0.250000000   0.250000000
          4   0.250000000   0.250000000   0.250000000
          5  -0.250000000  -0.250000000  -0.250000000
          6  -0.250000000  -0.250000000   0.250000000
          7  -0.250000000   0.250000000   0.250000000
          8   0.250000000   0.250000000  -0.250000000

     Diagonalizing the dynamical matrix

     q = (   -0.250000000   0.250000000  -0.250000000 ) 

 **************************************************************************
     freq (    1) =       3.408578 [THz] =     113.697932 [cm-1]
     freq (    2) =       3.408578 [THz] =     113.697932 [cm-1]
     freq (    3) =       6.835241 [THz] =     227.999114 [cm-1]
     freq (    4) =      14.700733 [THz] =     490.363683 [cm-1]
     freq (    5) =      14.985534 [THz] =     499.863593 [cm-1]
     freq (    6) =      14.985534 [THz] =     499.863593 [cm-1]
 **************************************************************************

     Mode symmetry, C_3v (3m)   point group:

     freq (  1 -  2) =        113.7  [cm-1]   --> E    L_3           
     freq (  3 -  3) =        228.0  [cm-1]   --> A_1  L_1           
     freq (  4 -  4) =        490.4  [cm-1]   --> A_1  L_1           
     freq (  5 -  6) =        499.9  [cm-1]   --> E    L_3           

     Calculation of q =    0.5000000  -0.5000000   0.5000000

   Info: using nr1, nr2, nr3 values from input

   Info: using nr1, nr2, nr3 values from input

     Parallelization info
     --------------------
     sticks:   dense  smooth     PW     G-vecs:    dense   smooth      PW
     Min          66      66     27                  722      722     186
     Max          67      67     28                  724      724     189
     Sum         265     265    109                 2891     2891     749



     bravais-lattice index     =            2
     lattice parameter (alat)  =      10.3900  a.u.
     unit-cell volume          =     280.4056 (a.u.)^3
     number of atoms/cell      =            2
     number of atomic types    =            1
     number of electrons       =         8.00
     number of Kohn-Sham states=            4
     kinetic-energy cutoff     =      18.0000  Ry
     charge density cutoff     =      72.0000  Ry
     Exchange-correlation      = SLA  PW   PBE  PBE ( 1  4  3  4 0 0)

     celldm(1)=  10.390000  celldm(2)=   0.000000  celldm(3)=   0.000000
     celldm(4)=   0.000000  celldm(5)=   0.000000  celldm(6)=   0.000000

     crystal axes: (cart. coord. in units of alat)
               a(1) = (  -0.500000   0.000000   0.500000 )  
               a(2) = (   0.000000   0.500000   0.500000 )  
               a(3) = (  -0.500000   0.500000   0.000000 )  

     reciprocal axes: (cart. coord. in units 2 pi/alat)
               b(1) = ( -1.000000 -1.000000  1.000000 )  
               b(2) = (  1.000000  1.000000  1.000000 )  
               b(3) = ( -1.000000  1.000000 -1.000000 )  


     PseudoPot. # 1 for Si read from file:
     /home/max/quantum_espresso/qe-6.1/pseudo/si_pbe_v1.uspp.F.UPF.txt
     MD5 check sum: a056efeee980c13900f22a371efd63c1
     Pseudo is Ultrasoft + core correction, Zval =  4.0
     Generated by new atomic code, or converted to UPF format
     Using radial grid of  899 points,  6 beta functions with: 
                l(1) =   0
                l(2) =   0
                l(3) =   1
                l(4) =   1
                l(5) =   2
                l(6) =   2
     Q(r) pseudized with  8 coefficients,  rinner =    0.900   0.900   0.900
                                                       0.900   0.900

     atomic species   valence    mass     pseudopotential
        Si             4.00    28.08600     Si( 1.00)

     48 Sym. Ops., with inversion, found



   Cartesian axes

     site n.     atom                  positions (alat units)
         1           Si  tau(   1) = (   0.0000000   0.0000000   0.0000000  )
         2           Si  tau(   2) = (   0.2500000   0.2500000   0.2500000  )

     number of k points=    60
                       cart. coord. in units 2pi/alat
        k(    1) = (  -0.1250000   0.1250000   0.1250000), wk =   0.0468750
        k(    2) = (   0.3750000  -0.3750000   0.6250000), wk =   0.0000000
        k(    3) = (  -0.3750000   0.3750000  -0.1250000), wk =   0.0468750
        k(    4) = (   0.1250000  -0.1250000   0.3750000), wk =   0.0000000
        k(    5) = (   0.3750000  -0.3750000   0.6250000), wk =   0.0468750
        k(    6) = (   0.8750000  -0.8750000   1.1250000), wk =   0.0000000
        k(    7) = (   0.1250000  -0.1250000   0.3750000), wk =   0.0468750
        k(    8) = (   0.6250000  -0.6250000   0.8750000), wk =   0.0000000
        k(    9) = (  -0.1250000   0.6250000   0.1250000), wk =   0.0937500
        k(   10) = (   0.3750000   0.1250000   0.6250000), wk =   0.0000000
        k(   11) = (   0.6250000  -0.1250000   0.8750000), wk =   0.0937500
        k(   12) = (   1.1250000  -0.6250000   1.3750000), wk =   0.0000000
        k(   13) = (   0.3750000   0.1250000   0.6250000), wk =   0.0937500
        k(   14) = (   0.8750000  -0.3750000   1.1250000), wk =   0.0000000
        k(   15) = (  -0.1250000  -0.8750000   0.1250000), wk =   0.0937500
        k(   16) = (   0.3750000  -1.3750000   0.6250000), wk =   0.0000000
        k(   17) = (  -0.3750000   0.3750000   0.3750000), wk =   0.0468750
        k(   18) = (   0.1250000  -0.1250000   0.8750000), wk =   0.0000000
        k(   19) = (   0.3750000  -0.3750000   1.1250000), wk =   0.0468750
        k(   20) = (   0.8750000  -0.8750000   1.6250000), wk =   0.0000000
        k(   21) = (   0.1250000  -0.1250000   0.1250000), wk =   0.0156250
        k(   22) = (   0.6250000  -0.6250000   0.6250000), wk =   0.0000000
        k(   23) = (  -0.3750000  -0.3750000  -0.1250000), wk =   0.0937500
        k(   24) = (   0.1250000  -0.8750000   0.3750000), wk =   0.0000000
        k(   25) = (  -0.1250000  -0.3750000   0.3750000), wk =   0.0468750
        k(   26) = (   0.3750000  -0.8750000   0.8750000), wk =   0.0000000
        k(   27) = (   0.3750000   0.3750000   0.6250000), wk =   0.0937500
        k(   28) = (   0.8750000  -0.1250000   1.1250000), wk =   0.0000000
        k(   29) = (   0.6250000   0.3750000  -0.3750000), wk =   0.0468750
        k(   30) = (   1.1250000  -0.1250000   0.1250000), wk =   0.0000000
        k(   31) = (   0.1250000   0.1250000   0.3750000), wk =   0.0937500
        k(   32) = (   0.6250000  -0.3750000   0.8750000), wk =   0.0000000
        k(   33) = (   0.3750000   0.1250000  -0.1250000), wk =   0.0468750
        k(   34) = (   0.8750000  -0.3750000   0.3750000), wk =   0.0000000
        k(   35) = (  -0.1250000  -0.6250000  -0.1250000), wk =   0.0468750
        k(   36) = (   0.3750000  -1.1250000   0.3750000), wk =   0.0000000
        k(   37) = (   0.1250000  -0.6250000   0.1250000), wk =   0.0468750
        k(   38) = (   0.6250000  -1.1250000   0.6250000), wk =   0.0000000
        k(   39) = (   0.6250000   0.1250000   0.8750000), wk =   0.0937500
        k(   40) = (   1.1250000  -0.3750000   1.3750000), wk =   0.0000000
        k(   41) = (  -0.8750000   0.1250000   0.6250000), wk =   0.0937500
        k(   42) = (  -0.3750000  -0.3750000   1.1250000), wk =   0.0000000
        k(   43) = (   0.8750000   0.1250000  -0.6250000), wk =   0.0937500
        k(   44) = (   1.3750000  -0.3750000  -0.1250000), wk =   0.0000000
        k(   45) = (   0.3750000  -0.1250000   0.6250000), wk =   0.0937500
        k(   46) = (   0.8750000  -0.6250000   1.1250000), wk =   0.0000000
        k(   47) = (  -0.6250000  -0.1250000   0.3750000), wk =   0.0937500
        k(   48) = (  -0.1250000  -0.6250000   0.8750000), wk =   0.0000000
        k(   49) = (   0.6250000  -0.1250000  -0.3750000), wk =   0.0937500
        k(   50) = (   1.1250000  -0.6250000   0.1250000), wk =   0.0000000
        k(   51) = (  -0.1250000   0.8750000  -0.1250000), wk =   0.0468750
        k(   52) = (   0.3750000   0.3750000   0.3750000), wk =   0.0000000
        k(   53) = (   0.1250000   0.8750000   0.1250000), wk =   0.0468750
        k(   54) = (   0.6250000   0.3750000   0.6250000), wk =   0.0000000
        k(   55) = (   0.3750000  -0.3750000   0.3750000), wk =   0.0156250
        k(   56) = (   0.8750000  -0.8750000   0.8750000), wk =   0.0000000
        k(   57) = (   0.3750000   0.3750000   1.1250000), wk =   0.0937500
        k(   58) = (   0.8750000  -0.1250000   1.6250000), wk =   0.0000000
        k(   59) = (   1.1250000   0.3750000  -0.3750000), wk =   0.0468750
        k(   60) = (   1.6250000  -0.1250000   0.1250000), wk =   0.0000000

     Dense  grid:     2891 G-vectors     FFT dimensions: (  20,  20,  20)

     Estimated max dynamical RAM per process >       0.33MB

     Estimated total allocated dynamical RAM >       1.33MB

     Check: negative/imaginary core charge=   -0.000006    0.000000

     The potential is recalculated from file :
     ./_ph0/silicon.10.390.save/charge-density.dat

     Starting wfc are    8 atomic wfcs

     Band Structure Calculation
     Davidson diagonalization with overlap

     ethr =  1.25E-10,  avg # of iterations = 11.7

     total cpu time spent up to now is        1.7 secs

     End of band structure calculation

          k =-0.1250 0.1250 0.1250 (   347 PWs)   bands (ev):

    -5.6900   4.2284   5.5384   5.5384

          k = 0.3750-0.3750 0.6250 (   364 PWs)   bands (ev):

    -3.5679  -0.7738   3.5963   4.3043

          k =-0.3750 0.3750-0.1250 (   356 PWs)   bands (ev):

    -4.6810   1.2632   3.5855   5.0609

          k = 0.1250-0.1250 0.3750 (   358 PWs)   bands (ev):

    -5.1710   2.6170   4.5489   4.6031

          k = 0.3750-0.3750 0.6250 (   364 PWs)   bands (ev):

    -3.5679  -0.7738   3.5963   4.3043

          k = 0.8750-0.8750 1.1250 (   347 PWs)   bands (ev):

    -5.6900   4.2284   5.5384   5.5384

          k = 0.1250-0.1250 0.3750 (   358 PWs)   bands (ev):

    -5.1710   2.6170   4.5489   4.6031

          k = 0.6250-0.6250 0.8750 (   356 PWs)   bands (ev):

    -4.6810   1.2632   3.5855   5.0609

          k =-0.1250 0.6250 0.1250 (   357 PWs)   bands (ev):

    -4.1567   0.9104   3.2469   3.6882

          k = 0.3750 0.1250 0.6250 (   362 PWs)   bands (ev):

    -3.7507   0.0626   2.6140   3.9600

          k = 0.6250-0.1250 0.8750 (   368 PWs)   bands (ev):

    -2.5503  -1.0262   1.9265   2.9793

          k = 1.1250-0.6250 1.3750 (   356 PWs)   bands (ev):

    -4.6810   1.2632   3.5855   5.0609

          k = 0.3750 0.1250 0.6250 (   362 PWs)   bands (ev):

    -3.7507   0.0626   2.6140   3.9600

          k = 0.8750-0.3750 1.1250 (   357 PWs)   bands (ev):

    -4.1567   0.9104   3.2469   3.6882

          k =-0.1250-0.8750 0.1250 (   362 PWs)   bands (ev):

    -2.7098  -0.9326   2.5213   3.2280

          k = 0.3750-1.3750 0.6250 (   364 PWs)   bands (ev):

    -3.5679  -0.7738   3.5963   4.3043

          k =-0.3750 0.3750 0.3750 (   359 PWs)   bands (ev):

    -4.2580   0.0029   4.7591   4.7591

          k = 0.1250-0.1250 0.8750 (   362 PWs)   bands (ev):

    -2.7098  -0.9326   2.5213   3.2280

          k = 0.3750-0.3750 1.1250 (   365 PWs)   bands (ev):

    -3.0799  -0.7118   1.9766   3.9942

          k = 0.8750-0.8750 1.6250 (   357 PWs)   bands (ev):

    -4.1567   0.9104   3.2469   3.6882

          k = 0.1250-0.1250 0.1250 (   347 PWs)   bands (ev):

    -5.6900   4.2284   5.5384   5.5384

          k = 0.6250-0.6250 0.6250 (   359 PWs)   bands (ev):

    -4.2580   0.0029   4.7591   4.7591

          k =-0.3750-0.3750-0.1250 (   356 PWs)   bands (ev):

    -4.6810   1.2632   3.5855   5.0609

          k = 0.1250-0.8750 0.3750 (   368 PWs)   bands (ev):

    -2.5503  -1.0262   1.9265   2.9793

          k =-0.1250-0.3750 0.3750 (   356 PWs)   bands (ev):

    -4.6810   1.2632   3.5855   5.0609

          k = 0.3750-0.8750 0.8750 (   357 PWs)   bands (ev):

    -4.1567   0.9104   3.2469   3.6882

          k = 0.3750 0.3750 0.6250 (   364 PWs)   bands (ev):

    -3.5679  -0.7738   3.5963   4.3043

          k = 0.8750-0.1250 1.1250 (   362 PWs)   bands (ev):

    -2.7098  -0.9326   2.5213   3.2280

          k = 0.6250 0.3750-0.3750 (   364 PWs)   bands (ev):

    -3.5679  -0.7738   3.5963   4.3043

          k = 1.1250-0.1250 0.1250 (   362 PWs)   bands (ev):

    -2.7098  -0.9326   2.5213   3.2280

          k = 0.1250 0.1250 0.3750 (   358 PWs)   bands (ev):

    -5.1710   2.6170   4.5489   4.6031

          k = 0.6250-0.3750 0.8750 (   362 PWs)   bands (ev):

    -3.7507   0.0626   2.6140   3.9600

          k = 0.3750 0.1250-0.1250 (   358 PWs)   bands (ev):

    -5.1710   2.6170   4.5489   4.6031

          k = 0.8750-0.3750 0.3750 (   365 PWs)   bands (ev):

    -3.0799  -0.7118   1.9766   3.9942

          k =-0.1250-0.6250-0.1250 (   357 PWs)   bands (ev):

    -4.1567   0.9104   3.2469   3.6882

          k = 0.3750-1.1250 0.3750 (   365 PWs)   bands (ev):

    -3.0799  -0.7118   1.9766   3.9942

          k = 0.1250-0.6250 0.1250 (   357 PWs)   bands (ev):

    -4.1567   0.9104   3.2469   3.6882

          k = 0.6250-1.1250 0.6250 (   356 PWs)   bands (ev):

    -4.6810   1.2632   3.5855   5.0609

          k = 0.6250 0.1250 0.8750 (   368 PWs)   bands (ev):

    -2.5503  -1.0262   1.9265   2.9793

          k = 1.1250-0.3750 1.3750 (   362 PWs)   bands (ev):

    -3.7507   0.0626   2.6140   3.9600

          k =-0.8750 0.1250 0.6250 (   368 PWs)   bands (ev):

    -2.5503  -1.0262   1.9265   2.9793

          k =-0.3750-0.3750 1.1250 (   365 PWs)   bands (ev):

    -3.0799  -0.7118   1.9766   3.9942

          k = 0.8750 0.1250-0.6250 (   368 PWs)   bands (ev):

    -2.5503  -1.0262   1.9265   2.9793

          k = 1.3750-0.3750-0.1250 (   362 PWs)   bands (ev):

    -3.7507   0.0626   2.6140   3.9600

          k = 0.3750-0.1250 0.6250 (   362 PWs)   bands (ev):

    -3.7507   0.0626   2.6140   3.9600

          k = 0.8750-0.6250 1.1250 (   358 PWs)   bands (ev):

    -5.1710   2.6170   4.5489   4.6031

          k =-0.6250-0.1250 0.3750 (   362 PWs)   bands (ev):

    -3.7507   0.0626   2.6140   3.9600

          k =-0.1250-0.6250 0.8750 (   368 PWs)   bands (ev):

    -2.5503  -1.0262   1.9265   2.9793

          k = 0.6250-0.1250-0.3750 (   362 PWs)   bands (ev):

    -3.7507   0.0626   2.6140   3.9600

          k = 1.1250-0.6250 0.1250 (   368 PWs)   bands (ev):

    -2.5503  -1.0262   1.9265   2.9793

          k =-0.1250 0.8750-0.1250 (   362 PWs)   bands (ev):

    -2.7098  -0.9326   2.5213   3.2280

          k = 0.3750 0.3750 0.3750 (   359 PWs)   bands (ev):

    -4.2580   0.0029   4.7591   4.7591

          k = 0.1250 0.8750 0.1250 (   362 PWs)   bands (ev):

    -2.7098  -0.9326   2.5213   3.2280

          k = 0.6250 0.3750 0.6250 (   364 PWs)   bands (ev):

    -3.5679  -0.7738   3.5963   4.3043

          k = 0.3750-0.3750 0.3750 (   359 PWs)   bands (ev):

    -4.2580   0.0029   4.7591   4.7591

          k = 0.8750-0.8750 0.8750 (   347 PWs)   bands (ev):

    -5.6900   4.2284   5.5384   5.5384

          k = 0.3750 0.3750 1.1250 (   365 PWs)   bands (ev):

    -3.0799  -0.7118   1.9766   3.9942

          k = 0.8750-0.1250 1.6250 (   368 PWs)   bands (ev):

    -2.5503  -1.0262   1.9265   2.9793

          k = 1.1250 0.3750-0.3750 (   365 PWs)   bands (ev):

    -3.0799  -0.7118   1.9766   3.9942

          k = 1.6250-0.1250 0.1250 (   358 PWs)   bands (ev):

    -5.1710   2.6170   4.5489   4.6031

     highest occupied level (ev):     5.5384

     Writing output data file silicon.10.390.save

                                                                                

     bravais-lattice index     =            2
     lattice parameter (alat)  =      10.3900  a.u.
     unit-cell volume          =     280.4056 (a.u.)^3
     number of atoms/cell      =            2
     number of atomic types    =            1
     kinetic-energy cut-off    =      18.0000  Ry
     charge density cut-off    =      72.0000  Ry
     convergence threshold     =      1.0E-12
     beta                      =       0.7000
     number of iterations used =            4
     Exchange-correlation      = SLA  PW   PBE  PBE ( 1  4  3  4 0 0)


     celldm(1)=   10.39000  celldm(2)=    0.00000  celldm(3)=    0.00000
     celldm(4)=    0.00000  celldm(5)=    0.00000  celldm(6)=    0.00000

     crystal axes: (cart. coord. in units of alat)
               a(1) = ( -0.5000  0.0000  0.5000 )  
               a(2) = (  0.0000  0.5000  0.5000 )  
               a(3) = ( -0.5000  0.5000  0.0000 )  

     reciprocal axes: (cart. coord. in units 2 pi/alat)
               b(1) = ( -1.0000 -1.0000  1.0000 )  
               b(2) = (  1.0000  1.0000  1.0000 )  
               b(3) = ( -1.0000  1.0000 -1.0000 )  


     Atoms inside the unit cell: 

     Cartesian axes

     site n.  atom      mass           positions (alat units)
        1     Si  28.0860   tau(    1) = (    0.00000    0.00000    0.00000  )
        2     Si  28.0860   tau(    2) = (    0.25000    0.25000    0.25000  )

     Computing dynamical matrix for 
                    q = (   0.5000000  -0.5000000   0.5000000 )

     13 Sym.Ops. (with q -> -q+G )


     G cutoff =  196.8810  (    722 G-vectors)     FFT grid: ( 20, 20, 20)
     number of k points=    60

     PseudoPot. # 1 for Si read from file:
     /home/max/quantum_espresso/qe-6.1/pseudo/si_pbe_v1.uspp.F.UPF.txt
     MD5 check sum: a056efeee980c13900f22a371efd63c1
     Pseudo is Ultrasoft + core correction, Zval =  4.0
     Generated by new atomic code, or converted to UPF format
     Using radial grid of  899 points,  6 beta functions with: 
                l(1) =   0
                l(2) =   0
                l(3) =   1
                l(4) =   1
                l(5) =   2
                l(6) =   2
     Q(r) pseudized with  8 coefficients,  rinner =    0.900   0.900   0.900
                                                       0.900   0.900


     Atomic displacements:
     There are   4 irreducible representations

     Representation     1      1 modes -  To be done

     Representation     2      1 modes -  To be done

     Representation     3      2 modes -  To be done

     Representation     4      2 modes -  To be done



     Alpha used in Ewald sum =   0.7000
     PHONON       :    16.15s CPU        17.28s WALL



     Representation #  1 mode #   1

     Self-consistent Calculation

      iter #   1 total cpu time :    17.4 secs   av.it.:   4.8
      thresh= 1.000E-02 alpha_mix =  0.700 |ddv_scf|^2 =  2.435E-05

      iter #   2 total cpu time :    17.5 secs   av.it.:   8.4
      thresh= 4.935E-04 alpha_mix =  0.700 |ddv_scf|^2 =  2.219E-05

      iter #   3 total cpu time :    17.7 secs   av.it.:   7.5
      thresh= 4.711E-04 alpha_mix =  0.700 |ddv_scf|^2 =  3.774E-08

      iter #   4 total cpu time :    17.8 secs   av.it.:   7.6
      thresh= 1.943E-05 alpha_mix =  0.700 |ddv_scf|^2 =  1.326E-10

      iter #   5 total cpu time :    17.9 secs   av.it.:   7.9
      thresh= 1.152E-06 alpha_mix =  0.700 |ddv_scf|^2 =  3.738E-12

      iter #   6 total cpu time :    18.1 secs   av.it.:   7.8
      thresh= 1.933E-07 alpha_mix =  0.700 |ddv_scf|^2 =  7.270E-14

     End of self-consistent calculation

     Convergence has been achieved 


     Representation #  2 mode #   2

     Self-consistent Calculation

      iter #   1 total cpu time :    18.2 secs   av.it.:   5.7
      thresh= 1.000E-02 alpha_mix =  0.700 |ddv_scf|^2 =  3.401E-04

      iter #   2 total cpu time :    18.5 secs   av.it.:   8.3
      thresh= 1.844E-03 alpha_mix =  0.700 |ddv_scf|^2 =  1.052E-03

      iter #   3 total cpu time :    18.6 secs   av.it.:   7.1
      thresh= 3.243E-03 alpha_mix =  0.700 |ddv_scf|^2 =  1.364E-07

      iter #   4 total cpu time :    18.8 secs   av.it.:   8.2
      thresh= 3.694E-05 alpha_mix =  0.700 |ddv_scf|^2 =  9.442E-09

      iter #   5 total cpu time :    18.9 secs   av.it.:   8.4
      thresh= 9.717E-06 alpha_mix =  0.700 |ddv_scf|^2 =  1.399E-10

      iter #   6 total cpu time :    19.1 secs   av.it.:   8.2
      thresh= 1.183E-06 alpha_mix =  0.700 |ddv_scf|^2 =  3.072E-12

      iter #   7 total cpu time :    19.2 secs   av.it.:   7.8
      thresh= 1.753E-07 alpha_mix =  0.700 |ddv_scf|^2 =  6.611E-15

     End of self-consistent calculation

     Convergence has been achieved 


     Representation #  3 modes #   3  4

     Self-consistent Calculation

      iter #   1 total cpu time :    19.4 secs   av.it.:   4.7
      thresh= 1.000E-02 alpha_mix =  0.700 |ddv_scf|^2 =  3.396E-07

      iter #   2 total cpu time :    19.7 secs   av.it.:   9.0
      thresh= 5.827E-05 alpha_mix =  0.700 |ddv_scf|^2 =  2.922E-08

      iter #   3 total cpu time :    20.0 secs   av.it.:   8.4
      thresh= 1.709E-05 alpha_mix =  0.700 |ddv_scf|^2 =  5.109E-10

      iter #   4 total cpu time :    20.5 secs   av.it.:   8.9
      thresh= 2.260E-06 alpha_mix =  0.700 |ddv_scf|^2 =  6.420E-12

      iter #   5 total cpu time :    20.8 secs   av.it.:   8.7
      thresh= 2.534E-07 alpha_mix =  0.700 |ddv_scf|^2 =  3.554E-14

     End of self-consistent calculation

     Convergence has been achieved 


     Representation #  4 modes #   5  6

     Self-consistent Calculation

      iter #   1 total cpu time :    21.0 secs   av.it.:   4.9
      thresh= 1.000E-02 alpha_mix =  0.700 |ddv_scf|^2 =  9.405E-07

      iter #   2 total cpu time :    21.3 secs   av.it.:   9.5
      thresh= 9.698E-05 alpha_mix =  0.700 |ddv_scf|^2 =  7.473E-08

      iter #   3 total cpu time :    21.6 secs   av.it.:   9.3
      thresh= 2.734E-05 alpha_mix =  0.700 |ddv_scf|^2 =  4.438E-09

      iter #   4 total cpu time :    21.9 secs   av.it.:   8.6
      thresh= 6.661E-06 alpha_mix =  0.700 |ddv_scf|^2 =  6.462E-12

      iter #   5 total cpu time :    22.2 secs   av.it.:   8.8
      thresh= 2.542E-07 alpha_mix =  0.700 |ddv_scf|^2 =  2.526E-14

     End of self-consistent calculation

     Convergence has been achieved 

     Number of q in the star =    4
     List of q in the star:
          1   0.500000000  -0.500000000   0.500000000
          2   0.500000000   0.500000000   0.500000000
          3  -0.500000000   0.500000000   0.500000000
          4   0.500000000   0.500000000  -0.500000000

     Diagonalizing the dynamical matrix

     q = (    0.500000000  -0.500000000   0.500000000 ) 

 **************************************************************************
     freq (    1) =       5.075550 [THz] =     169.302121 [cm-1]
     freq (    2) =       5.075550 [THz] =     169.302121 [cm-1]
     freq (    3) =      11.938187 [THz] =     398.215056 [cm-1]
     freq (    4) =      12.176507 [THz] =     406.164545 [cm-1]
     freq (    5) =      14.754952 [THz] =     492.172235 [cm-1]
     freq (    6) =      14.754952 [THz] =     492.172235 [cm-1]
 **************************************************************************

     Calculation of q =    0.0000000   0.5000000   0.0000000

   Info: using nr1, nr2, nr3 values from input

   Info: using nr1, nr2, nr3 values from input

     Parallelization info
     --------------------
     sticks:   dense  smooth     PW     G-vecs:    dense   smooth      PW
     Min          66      66     27                  722      722     181
     Max          67      67     28                  724      724     182
     Sum         265     265    109                 2891     2891     725



     bravais-lattice index     =            2
     lattice parameter (alat)  =      10.3900  a.u.
     unit-cell volume          =     280.4056 (a.u.)^3
     number of atoms/cell      =            2
     number of atomic types    =            1
     number of electrons       =         8.00
     number of Kohn-Sham states=            4
     kinetic-energy cutoff     =      18.0000  Ry
     charge density cutoff     =      72.0000  Ry
     Exchange-correlation      = SLA  PW   PBE  PBE ( 1  4  3  4 0 0)

     celldm(1)=  10.390000  celldm(2)=   0.000000  celldm(3)=   0.000000
     celldm(4)=   0.000000  celldm(5)=   0.000000  celldm(6)=   0.000000

     crystal axes: (cart. coord. in units of alat)
               a(1) = (  -0.500000   0.000000   0.500000 )  
               a(2) = (   0.000000   0.500000   0.500000 )  
               a(3) = (  -0.500000   0.500000   0.000000 )  

     reciprocal axes: (cart. coord. in units 2 pi/alat)
               b(1) = ( -1.000000 -1.000000  1.000000 )  
               b(2) = (  1.000000  1.000000  1.000000 )  
               b(3) = ( -1.000000  1.000000 -1.000000 )  


     PseudoPot. # 1 for Si read from file:
     /home/max/quantum_espresso/qe-6.1/pseudo/si_pbe_v1.uspp.F.UPF.txt
     MD5 check sum: a056efeee980c13900f22a371efd63c1
     Pseudo is Ultrasoft + core correction, Zval =  4.0
     Generated by new atomic code, or converted to UPF format
     Using radial grid of  899 points,  6 beta functions with: 
                l(1) =   0
                l(2) =   0
                l(3) =   1
                l(4) =   1
                l(5) =   2
                l(6) =   2
     Q(r) pseudized with  8 coefficients,  rinner =    0.900   0.900   0.900
                                                       0.900   0.900

     atomic species   valence    mass     pseudopotential
        Si             4.00    28.08600     Si( 1.00)

     48 Sym. Ops., with inversion, found



   Cartesian axes

     site n.     atom                  positions (alat units)
         1           Si  tau(   1) = (   0.0000000   0.0000000   0.0000000  )
         2           Si  tau(   2) = (   0.2500000   0.2500000   0.2500000  )

     number of k points=    80
                       cart. coord. in units 2pi/alat
        k(    1) = (  -0.1250000   0.1250000   0.1250000), wk =   0.0312500
        k(    2) = (  -0.1250000   0.6250000   0.1250000), wk =   0.0000000
        k(    3) = (  -0.3750000   0.3750000  -0.1250000), wk =   0.0625000
        k(    4) = (  -0.3750000   0.8750000  -0.1250000), wk =   0.0000000
        k(    5) = (   0.3750000  -0.3750000   0.6250000), wk =   0.0625000
        k(    6) = (   0.3750000   0.1250000   0.6250000), wk =   0.0000000
        k(    7) = (   0.1250000  -0.1250000   0.3750000), wk =   0.0625000
        k(    8) = (   0.1250000   0.3750000   0.3750000), wk =   0.0000000
        k(    9) = (  -0.1250000   0.6250000   0.1250000), wk =   0.0312500
        k(   10) = (  -0.1250000   1.1250000   0.1250000), wk =   0.0000000
        k(   11) = (   0.6250000  -0.1250000   0.8750000), wk =   0.0625000
        k(   12) = (   0.6250000   0.3750000   0.8750000), wk =   0.0000000
        k(   13) = (   0.3750000   0.1250000   0.6250000), wk =   0.0625000
        k(   14) = (   0.3750000   0.6250000   0.6250000), wk =   0.0000000
        k(   15) = (  -0.1250000  -0.8750000   0.1250000), wk =   0.0312500
        k(   16) = (  -0.1250000  -0.3750000   0.1250000), wk =   0.0000000
        k(   17) = (  -0.3750000   0.3750000   0.3750000), wk =   0.0312500
        k(   18) = (  -0.3750000   0.8750000   0.3750000), wk =   0.0000000
        k(   19) = (   0.3750000  -0.3750000   1.1250000), wk =   0.0625000
        k(   20) = (   0.3750000   0.1250000   1.1250000), wk =   0.0000000
        k(   21) = (  -0.1250000  -0.1250000   0.1250000), wk =   0.0312500
        k(   22) = (  -0.1250000   0.3750000   0.1250000), wk =   0.0000000
        k(   23) = (   0.1250000  -0.3750000   0.3750000), wk =   0.0625000
        k(   24) = (   0.1250000   0.1250000   0.3750000), wk =   0.0000000
        k(   25) = (   0.3750000  -0.1250000   0.3750000), wk =   0.0312500
        k(   26) = (   0.3750000   0.3750000   0.3750000), wk =   0.0000000
        k(   27) = (   0.3750000   0.1250000   0.3750000), wk =   0.0312500
        k(   28) = (   0.3750000   0.6250000   0.3750000), wk =   0.0000000
        k(   29) = (  -0.6250000   0.3750000  -0.3750000), wk =   0.0625000
        k(   30) = (  -0.6250000   0.8750000  -0.3750000), wk =   0.0000000
        k(   31) = (  -0.3750000   0.6250000  -0.3750000), wk =   0.0312500
        k(   32) = (  -0.3750000   1.1250000  -0.3750000), wk =   0.0000000
        k(   33) = (  -0.3750000  -0.6250000  -0.3750000), wk =   0.0312500
        k(   34) = (  -0.3750000  -0.1250000  -0.3750000), wk =   0.0000000
        k(   35) = (  -0.3750000   0.1250000  -0.1250000), wk =   0.0625000
        k(   36) = (  -0.3750000   0.6250000  -0.1250000), wk =   0.0000000
        k(   37) = (  -0.1250000   0.3750000  -0.1250000), wk =   0.0312500
        k(   38) = (  -0.1250000   0.8750000  -0.1250000), wk =   0.0000000
        k(   39) = (  -0.1250000  -0.3750000  -0.1250000), wk =   0.0312500
        k(   40) = (  -0.1250000   0.1250000  -0.1250000), wk =   0.0000000
        k(   41) = (  -0.1250000  -0.6250000   0.1250000), wk =   0.0312500
        k(   42) = (  -0.1250000  -0.1250000   0.1250000), wk =   0.0000000
        k(   43) = (   0.6250000  -0.1250000  -0.1250000), wk =   0.0625000
        k(   44) = (   0.6250000   0.3750000  -0.1250000), wk =   0.0000000
        k(   45) = (   0.6250000   0.1250000   0.1250000), wk =   0.0625000
        k(   46) = (   0.6250000   0.6250000   0.1250000), wk =   0.0000000
        k(   47) = (  -0.8750000   0.1250000  -0.6250000), wk =   0.0625000
        k(   48) = (  -0.8750000   0.6250000  -0.6250000), wk =   0.0000000
        k(   49) = (  -0.1250000   0.6250000  -0.8750000), wk =   0.0625000
        k(   50) = (  -0.1250000   1.1250000  -0.8750000), wk =   0.0000000
        k(   51) = (  -0.1250000   0.8750000  -0.6250000), wk =   0.0625000
        k(   52) = (  -0.1250000   1.3750000  -0.6250000), wk =   0.0000000
        k(   53) = (  -0.1250000  -0.8750000  -0.6250000), wk =   0.0625000
        k(   54) = (  -0.1250000  -0.3750000  -0.6250000), wk =   0.0000000
        k(   55) = (   0.8750000  -0.6250000   0.1250000), wk =   0.0625000
        k(   56) = (   0.8750000  -0.1250000   0.1250000), wk =   0.0000000
        k(   57) = (  -0.6250000  -0.1250000  -0.3750000), wk =   0.0625000
        k(   58) = (  -0.6250000   0.3750000  -0.3750000), wk =   0.0000000
        k(   59) = (   0.1250000   0.3750000  -0.6250000), wk =   0.0625000
        k(   60) = (   0.1250000   0.8750000  -0.6250000), wk =   0.0000000
        k(   61) = (   0.1250000   0.6250000  -0.3750000), wk =   0.0625000
        k(   62) = (   0.1250000   1.1250000  -0.3750000), wk =   0.0000000
        k(   63) = (   0.1250000  -0.6250000  -0.3750000), wk =   0.0625000
        k(   64) = (   0.1250000  -0.1250000  -0.3750000), wk =   0.0000000
        k(   65) = (   0.6250000  -0.3750000  -0.1250000), wk =   0.0625000
        k(   66) = (   0.6250000   0.1250000  -0.1250000), wk =   0.0000000
        k(   67) = (  -0.1250000   0.8750000   0.1250000), wk =   0.0312500
        k(   68) = (  -0.1250000   1.3750000   0.1250000), wk =   0.0000000
        k(   69) = (  -0.8750000  -0.1250000  -0.1250000), wk =   0.0625000
        k(   70) = (  -0.8750000   0.3750000  -0.1250000), wk =   0.0000000
        k(   71) = (  -0.8750000   0.1250000   0.1250000), wk =   0.0625000
        k(   72) = (  -0.8750000   0.6250000   0.1250000), wk =   0.0000000
        k(   73) = (  -0.3750000  -0.3750000   0.3750000), wk =   0.0312500
        k(   74) = (  -0.3750000   0.1250000   0.3750000), wk =   0.0000000
        k(   75) = (  -1.1250000   0.3750000  -0.3750000), wk =   0.0625000
        k(   76) = (  -1.1250000   0.8750000  -0.3750000), wk =   0.0000000
        k(   77) = (  -0.3750000   1.1250000  -0.3750000), wk =   0.0312500
        k(   78) = (  -0.3750000   1.6250000  -0.3750000), wk =   0.0000000
        k(   79) = (  -0.3750000  -1.1250000  -0.3750000), wk =   0.0312500
        k(   80) = (  -0.3750000  -0.6250000  -0.3750000), wk =   0.0000000

     Dense  grid:     2891 G-vectors     FFT dimensions: (  20,  20,  20)

     Estimated max dynamical RAM per process >       0.33MB

     Estimated total allocated dynamical RAM >       1.33MB

     Check: negative/imaginary core charge=   -0.000006    0.000000

     The potential is recalculated from file :
     ./_ph0/silicon.10.390.save/charge-density.dat

     Starting wfc are    8 atomic wfcs

     Band Structure Calculation
     Davidson diagonalization with overlap

     ethr =  1.25E-10,  avg # of iterations = 11.7

     total cpu time spent up to now is        2.5 secs

     End of band structure calculation

          k =-0.1250 0.1250 0.1250 (   347 PWs)   bands (ev):

    -5.6900   4.2284   5.5384   5.5384

          k =-0.1250 0.6250 0.1250 (   357 PWs)   bands (ev):

    -4.1567   0.9104   3.2469   3.6882

          k =-0.3750 0.3750-0.1250 (   356 PWs)   bands (ev):

    -4.6810   1.2632   3.5855   5.0609

          k =-0.3750 0.8750-0.1250 (   368 PWs)   bands (ev):

    -2.5503  -1.0262   1.9265   2.9793

          k = 0.3750-0.3750 0.6250 (   364 PWs)   bands (ev):

    -3.5679  -0.7738   3.5963   4.3043

          k = 0.3750 0.1250 0.6250 (   362 PWs)   bands (ev):

    -3.7507   0.0626   2.6140   3.9600

          k = 0.1250-0.1250 0.3750 (   358 PWs)   bands (ev):

    -5.1710   2.6170   4.5489   4.6031

          k = 0.1250 0.3750 0.3750 (   356 PWs)   bands (ev):

    -4.6810   1.2632   3.5855   5.0609

          k =-0.1250 0.6250 0.1250 (   357 PWs)   bands (ev):

    -4.1567   0.9104   3.2469   3.6882

          k =-0.1250 1.1250 0.1250 (   362 PWs)   bands (ev):

    -2.7098  -0.9326   2.5213   3.2280

          k = 0.6250-0.1250 0.8750 (   368 PWs)   bands (ev):

    -2.5503  -1.0262   1.9265   2.9793

          k = 0.6250 0.3750 0.8750 (   362 PWs)   bands (ev):

    -3.7507   0.0626   2.6140   3.9600

          k = 0.3750 0.1250 0.6250 (   362 PWs)   bands (ev):

    -3.7507   0.0626   2.6140   3.9600

          k = 0.3750 0.6250 0.6250 (   364 PWs)   bands (ev):

    -3.5679  -0.7738   3.5963   4.3043

          k =-0.1250-0.8750 0.1250 (   362 PWs)   bands (ev):

    -2.7098  -0.9326   2.5213   3.2280

          k =-0.1250-0.3750 0.1250 (   358 PWs)   bands (ev):

    -5.1710   2.6170   4.5489   4.6031

          k =-0.3750 0.3750 0.3750 (   359 PWs)   bands (ev):

    -4.2580   0.0029   4.7591   4.7591

          k =-0.3750 0.8750 0.3750 (   365 PWs)   bands (ev):

    -3.0799  -0.7118   1.9766   3.9942

          k = 0.3750-0.3750 1.1250 (   365 PWs)   bands (ev):

    -3.0799  -0.7118   1.9766   3.9942

          k = 0.3750 0.1250 1.1250 (   368 PWs)   bands (ev):

    -2.5503  -1.0262   1.9265   2.9793

          k =-0.1250-0.1250 0.1250 (   347 PWs)   bands (ev):

    -5.6900   4.2284   5.5384   5.5384

          k =-0.1250 0.3750 0.1250 (   358 PWs)   bands (ev):

    -5.1710   2.6170   4.5489   4.6031

          k = 0.1250-0.3750 0.3750 (   356 PWs)   bands (ev):

    -4.6810   1.2632   3.5855   5.0609

          k = 0.1250 0.1250 0.3750 (   358 PWs)   bands (ev):

    -5.1710   2.6170   4.5489   4.6031

          k = 0.3750-0.1250 0.3750 (   356 PWs)   bands (ev):

    -4.6810   1.2632   3.5855   5.0609

          k = 0.3750 0.3750 0.3750 (   359 PWs)   bands (ev):

    -4.2580   0.0029   4.7591   4.7591

          k = 0.3750 0.1250 0.3750 (   356 PWs)   bands (ev):

    -4.6810   1.2632   3.5855   5.0609

          k = 0.3750 0.6250 0.3750 (   364 PWs)   bands (ev):

    -3.5679  -0.7738   3.5963   4.3043

          k =-0.6250 0.3750-0.3750 (   364 PWs)   bands (ev):

    -3.5679  -0.7738   3.5963   4.3043

          k =-0.6250 0.8750-0.3750 (   362 PWs)   bands (ev):

    -3.7507   0.0626   2.6140   3.9600

          k =-0.3750 0.6250-0.3750 (   364 PWs)   bands (ev):

    -3.5679  -0.7738   3.5963   4.3043

          k =-0.3750 1.1250-0.3750 (   365 PWs)   bands (ev):

    -3.0799  -0.7118   1.9766   3.9942

          k =-0.3750-0.6250-0.3750 (   364 PWs)   bands (ev):

    -3.5679  -0.7738   3.5963   4.3043

          k =-0.3750-0.1250-0.3750 (   356 PWs)   bands (ev):

    -4.6810   1.2632   3.5855   5.0609

          k =-0.3750 0.1250-0.1250 (   358 PWs)   bands (ev):

    -5.1710   2.6170   4.5489   4.6031

          k =-0.3750 0.6250-0.1250 (   362 PWs)   bands (ev):

    -3.7507   0.0626   2.6140   3.9600

          k =-0.1250 0.3750-0.1250 (   358 PWs)   bands (ev):

    -5.1710   2.6170   4.5489   4.6031

          k =-0.1250 0.8750-0.1250 (   362 PWs)   bands (ev):

    -2.7098  -0.9326   2.5213   3.2280

          k =-0.1250-0.3750-0.1250 (   358 PWs)   bands (ev):

    -5.1710   2.6170   4.5489   4.6031

          k =-0.1250 0.1250-0.1250 (   347 PWs)   bands (ev):

    -5.6900   4.2284   5.5384   5.5384

          k =-0.1250-0.6250 0.1250 (   357 PWs)   bands (ev):

    -4.1567   0.9104   3.2469   3.6882

          k =-0.1250-0.1250 0.1250 (   347 PWs)   bands (ev):

    -5.6900   4.2284   5.5384   5.5384

          k = 0.6250-0.1250-0.1250 (   357 PWs)   bands (ev):

    -4.1567   0.9104   3.2469   3.6882

          k = 0.6250 0.3750-0.1250 (   362 PWs)   bands (ev):

    -3.7507   0.0626   2.6140   3.9600

          k = 0.6250 0.1250 0.1250 (   357 PWs)   bands (ev):

    -4.1567   0.9104   3.2469   3.6882

          k = 0.6250 0.6250 0.1250 (   365 PWs)   bands (ev):

    -3.0799  -0.7118   1.9766   3.9942

          k =-0.8750 0.1250-0.6250 (   368 PWs)   bands (ev):

    -2.5503  -1.0262   1.9265   2.9793

          k =-0.8750 0.6250-0.6250 (   356 PWs)   bands (ev):

    -4.6810   1.2632   3.5855   5.0609

          k =-0.1250 0.6250-0.8750 (   368 PWs)   bands (ev):

    -2.5503  -1.0262   1.9265   2.9793

          k =-0.1250 1.1250-0.8750 (   362 PWs)   bands (ev):

    -2.7098  -0.9326   2.5213   3.2280

          k =-0.1250 0.8750-0.6250 (   368 PWs)   bands (ev):

    -2.5503  -1.0262   1.9265   2.9793

          k =-0.1250 1.3750-0.6250 (   365 PWs)   bands (ev):

    -3.0799  -0.7118   1.9766   3.9942

          k =-0.1250-0.8750-0.6250 (   368 PWs)   bands (ev):

    -2.5503  -1.0262   1.9265   2.9793

          k =-0.1250-0.3750-0.6250 (   362 PWs)   bands (ev):

    -3.7507   0.0626   2.6140   3.9600

          k = 0.8750-0.6250 0.1250 (   368 PWs)   bands (ev):

    -2.5503  -1.0262   1.9265   2.9793

          k = 0.8750-0.1250 0.1250 (   362 PWs)   bands (ev):

    -2.7098  -0.9326   2.5213   3.2280

          k =-0.6250-0.1250-0.3750 (   362 PWs)   bands (ev):

    -3.7507   0.0626   2.6140   3.9600

          k =-0.6250 0.3750-0.3750 (   364 PWs)   bands (ev):

    -3.5679  -0.7738   3.5963   4.3043

          k = 0.1250 0.3750-0.6250 (   362 PWs)   bands (ev):

    -3.7507   0.0626   2.6140   3.9600

          k = 0.1250 0.8750-0.6250 (   368 PWs)   bands (ev):

    -2.5503  -1.0262   1.9265   2.9793

          k = 0.1250 0.6250-0.3750 (   362 PWs)   bands (ev):

    -3.7507   0.0626   2.6140   3.9600

          k = 0.1250 1.1250-0.3750 (   368 PWs)   bands (ev):

    -2.5503  -1.0262   1.9265   2.9793

          k = 0.1250-0.6250-0.3750 (   362 PWs)   bands (ev):

    -3.7507   0.0626   2.6140   3.9600

          k = 0.1250-0.1250-0.3750 (   358 PWs)   bands (ev):

    -5.1710   2.6170   4.5489   4.6031

          k = 0.6250-0.3750-0.1250 (   362 PWs)   bands (ev):

    -3.7507   0.0626   2.6140   3.9600

          k = 0.6250 0.1250-0.1250 (   357 PWs)   bands (ev):

    -4.1567   0.9104   3.2469   3.6882

          k =-0.1250 0.8750 0.1250 (   362 PWs)   bands (ev):

    -2.7098  -0.9326   2.5213   3.2280

          k =-0.1250 1.3750 0.1250 (   357 PWs)   bands (ev):

    -4.1567   0.9104   3.2469   3.6882

          k =-0.8750-0.1250-0.1250 (   362 PWs)   bands (ev):

    -2.7098  -0.9326   2.5213   3.2280

          k =-0.8750 0.3750-0.1250 (   368 PWs)   bands (ev):

    -2.5503  -1.0262   1.9265   2.9793

          k =-0.8750 0.1250 0.1250 (   362 PWs)   bands (ev):

    -2.7098  -0.9326   2.5213   3.2280

          k =-0.8750 0.6250 0.1250 (   368 PWs)   bands (ev):

    -2.5503  -1.0262   1.9265   2.9793

          k =-0.3750-0.3750 0.3750 (   359 PWs)   bands (ev):

    -4.2580   0.0029   4.7591   4.7591

          k =-0.3750 0.1250 0.3750 (   356 PWs)   bands (ev):

    -4.6810   1.2632   3.5855   5.0609

          k =-1.1250 0.3750-0.3750 (   365 PWs)   bands (ev):

    -3.0799  -0.7118   1.9766   3.9942

          k =-1.1250 0.8750-0.3750 (   357 PWs)   bands (ev):

    -4.1567   0.9104   3.2469   3.6882

          k =-0.3750 1.1250-0.3750 (   365 PWs)   bands (ev):

    -3.0799  -0.7118   1.9766   3.9942

          k =-0.3750 1.6250-0.3750 (   359 PWs)   bands (ev):

    -4.2580   0.0029   4.7591   4.7591

          k =-0.3750-1.1250-0.3750 (   365 PWs)   bands (ev):

    -3.0799  -0.7118   1.9766   3.9942

          k =-0.3750-0.6250-0.3750 (   364 PWs)   bands (ev):

    -3.5679  -0.7738   3.5963   4.3043

     highest occupied level (ev):     5.5384

     Writing output data file silicon.10.390.save

                                                                                

     bravais-lattice index     =            2
     lattice parameter (alat)  =      10.3900  a.u.
     unit-cell volume          =     280.4056 (a.u.)^3
     number of atoms/cell      =            2
     number of atomic types    =            1
     kinetic-energy cut-off    =      18.0000  Ry
     charge density cut-off    =      72.0000  Ry
     convergence threshold     =      1.0E-12
     beta                      =       0.7000
     number of iterations used =            4
     Exchange-correlation      = SLA  PW   PBE  PBE ( 1  4  3  4 0 0)


     celldm(1)=   10.39000  celldm(2)=    0.00000  celldm(3)=    0.00000
     celldm(4)=    0.00000  celldm(5)=    0.00000  celldm(6)=    0.00000

     crystal axes: (cart. coord. in units of alat)
               a(1) = ( -0.5000  0.0000  0.5000 )  
               a(2) = (  0.0000  0.5000  0.5000 )  
               a(3) = ( -0.5000  0.5000  0.0000 )  

     reciprocal axes: (cart. coord. in units 2 pi/alat)
               b(1) = ( -1.0000 -1.0000  1.0000 )  
               b(2) = (  1.0000  1.0000  1.0000 )  
               b(3) = ( -1.0000  1.0000 -1.0000 )  


     Atoms inside the unit cell: 

     Cartesian axes

     site n.  atom      mass           positions (alat units)
        1     Si  28.0860   tau(    1) = (    0.00000    0.00000    0.00000  )
        2     Si  28.0860   tau(    2) = (    0.25000    0.25000    0.25000  )

     Computing dynamical matrix for 
                    q = (   0.0000000   0.5000000   0.0000000 )

      8 Sym.Ops. (no q -> -q+G )


     G cutoff =  196.8810  (    722 G-vectors)     FFT grid: ( 20, 20, 20)
     number of k points=    80

     PseudoPot. # 1 for Si read from file:
     /home/max/quantum_espresso/qe-6.1/pseudo/si_pbe_v1.uspp.F.UPF.txt
     MD5 check sum: a056efeee980c13900f22a371efd63c1
     Pseudo is Ultrasoft + core correction, Zval =  4.0
     Generated by new atomic code, or converted to UPF format
     Using radial grid of  899 points,  6 beta functions with: 
                l(1) =   0
                l(2) =   0
                l(3) =   1
                l(4) =   1
                l(5) =   2
                l(6) =   2
     Q(r) pseudized with  8 coefficients,  rinner =    0.900   0.900   0.900
                                                       0.900   0.900

     Mode symmetry, C_4v (4mm)  point group:


     Atomic displacements:
     There are   4 irreducible representations

     Representation     1      1 modes -A_1  G_1 D_1  To be done

     Representation     2      1 modes -B_2  G_4 D_2'  To be done

     Representation     3      2 modes -E    G_5 D_5  To be done

     Representation     4      2 modes -E    G_5 D_5  To be done



     Alpha used in Ewald sum =   0.7000
     PHONON       :    21.68s CPU        23.17s WALL



     Representation #  1 mode #   1

     Self-consistent Calculation

      iter #   1 total cpu time :    23.3 secs   av.it.:   5.8
      thresh= 1.000E-02 alpha_mix =  0.700 |ddv_scf|^2 =  2.930E-03

      iter #   2 total cpu time :    23.5 secs   av.it.:   7.6
      thresh= 5.413E-03 alpha_mix =  0.700 |ddv_scf|^2 =  3.886E-02

      iter #   3 total cpu time :    23.7 secs   av.it.:   6.7
      thresh= 1.000E-02 alpha_mix =  0.700 |ddv_scf|^2 =  1.538E-07

      iter #   4 total cpu time :    23.8 secs   av.it.:   8.2
      thresh= 3.922E-05 alpha_mix =  0.700 |ddv_scf|^2 =  1.511E-08

      iter #   5 total cpu time :    24.0 secs   av.it.:   7.8
      thresh= 1.229E-05 alpha_mix =  0.700 |ddv_scf|^2 =  7.156E-10

      iter #   6 total cpu time :    24.2 secs   av.it.:   7.9
      thresh= 2.675E-06 alpha_mix =  0.700 |ddv_scf|^2 =  2.950E-12

      iter #   7 total cpu time :    24.5 secs   av.it.:   7.9
      thresh= 1.718E-07 alpha_mix =  0.700 |ddv_scf|^2 =  5.401E-13

     End of self-consistent calculation

     Convergence has been achieved 


     Representation #  2 mode #   2

     Self-consistent Calculation

      iter #   1 total cpu time :    24.7 secs   av.it.:   4.9
      thresh= 1.000E-02 alpha_mix =  0.700 |ddv_scf|^2 =  5.125E-06

      iter #   2 total cpu time :    24.9 secs   av.it.:   8.7
      thresh= 2.264E-04 alpha_mix =  0.700 |ddv_scf|^2 =  1.337E-06

      iter #   3 total cpu time :    25.1 secs   av.it.:   8.6
      thresh= 1.156E-04 alpha_mix =  0.700 |ddv_scf|^2 =  3.108E-08

      iter #   4 total cpu time :    25.3 secs   av.it.:   8.2
      thresh= 1.763E-05 alpha_mix =  0.700 |ddv_scf|^2 =  7.430E-10

      iter #   5 total cpu time :    25.5 secs   av.it.:   8.6
      thresh= 2.726E-06 alpha_mix =  0.700 |ddv_scf|^2 =  7.574E-12

      iter #   6 total cpu time :    25.6 secs   av.it.:   7.9
      thresh= 2.752E-07 alpha_mix =  0.700 |ddv_scf|^2 =  9.712E-14

     End of self-consistent calculation

     Convergence has been achieved 


     Representation #  3 modes #   3  4

     Self-consistent Calculation

      iter #   1 total cpu time :    25.9 secs   av.it.:   5.0
      thresh= 1.000E-02 alpha_mix =  0.700 |ddv_scf|^2 =  9.390E-07

      iter #   2 total cpu time :    26.5 secs   av.it.:   9.8
      thresh= 9.690E-05 alpha_mix =  0.700 |ddv_scf|^2 =  1.192E-07

      iter #   3 total cpu time :    26.9 secs   av.it.:   9.5
      thresh= 3.453E-05 alpha_mix =  0.700 |ddv_scf|^2 =  4.896E-09

      iter #   4 total cpu time :    27.3 secs   av.it.:   8.9
      thresh= 6.997E-06 alpha_mix =  0.700 |ddv_scf|^2 =  8.766E-12

      iter #   5 total cpu time :    27.6 secs   av.it.:   9.1
      thresh= 2.961E-07 alpha_mix =  0.700 |ddv_scf|^2 =  2.996E-13

     End of self-consistent calculation

     Convergence has been achieved 


     Representation #  4 modes #   5  6

     Self-consistent Calculation

      iter #   1 total cpu time :    27.9 secs   av.it.:   5.0
      thresh= 1.000E-02 alpha_mix =  0.700 |ddv_scf|^2 =  9.414E-07

      iter #   2 total cpu time :    28.5 secs   av.it.:   9.8
      thresh= 9.702E-05 alpha_mix =  0.700 |ddv_scf|^2 =  1.195E-07

      iter #   3 total cpu time :    28.9 secs   av.it.:   9.4
      thresh= 3.456E-05 alpha_mix =  0.700 |ddv_scf|^2 =  7.285E-09

      iter #   4 total cpu time :    29.3 secs   av.it.:   8.9
      thresh= 8.535E-06 alpha_mix =  0.700 |ddv_scf|^2 =  1.538E-11

      iter #   5 total cpu time :    29.7 secs   av.it.:   9.2
      thresh= 3.922E-07 alpha_mix =  0.700 |ddv_scf|^2 =  4.565E-14

     End of self-consistent calculation

     Convergence has been achieved 

     Number of q in the star =    6
     List of q in the star:
          1   0.000000000   0.500000000   0.000000000
          2   0.000000000  -0.500000000   0.000000000
          3   0.500000000   0.000000000   0.000000000
          4   0.000000000   0.000000000   0.500000000
          5   0.000000000   0.000000000  -0.500000000
          6  -0.500000000   0.000000000   0.000000000

     Diagonalizing the dynamical matrix

     q = (    0.000000000   0.500000000   0.000000000 ) 

 **************************************************************************
     freq (    1) =       4.407296 [THz] =     147.011585 [cm-1]
     freq (    2) =       4.407296 [THz] =     147.011585 [cm-1]
     freq (    3) =       7.016396 [THz] =     234.041790 [cm-1]
     freq (    4) =      14.263685 [THz] =     475.785305 [cm-1]
     freq (    5) =      14.263685 [THz] =     475.785305 [cm-1]
     freq (    6) =      14.958326 [THz] =     498.956061 [cm-1]
 **************************************************************************

     Mode symmetry, C_4v (4mm)  point group:

     freq (  1 -  2) =        147.0  [cm-1]   --> E    G_5 D_5       
     freq (  3 -  3) =        234.0  [cm-1]   --> A_1  G_1 D_1       
     freq (  4 -  5) =        475.8  [cm-1]   --> E    G_5 D_5       
     freq (  6 -  6) =        499.0  [cm-1]   --> B_2  G_4 D_2'      

     Calculation of q =    0.7500000  -0.2500000   0.7500000

   Info: using nr1, nr2, nr3 values from input

   Info: using nr1, nr2, nr3 values from input

     Parallelization info
     --------------------
     sticks:   dense  smooth     PW     G-vecs:    dense   smooth      PW
     Min          65      65     30                  722      722     216
     Max          67      67     31                  723      723     218
     Sum         265     265    121                 2891     2891     869



     bravais-lattice index     =            2
     lattice parameter (alat)  =      10.3900  a.u.
     unit-cell volume          =     280.4056 (a.u.)^3
     number of atoms/cell      =            2
     number of atomic types    =            1
     number of electrons       =         8.00
     number of Kohn-Sham states=            4
     kinetic-energy cutoff     =      18.0000  Ry
     charge density cutoff     =      72.0000  Ry
     Exchange-correlation      = SLA  PW   PBE  PBE ( 1  4  3  4 0 0)

     celldm(1)=  10.390000  celldm(2)=   0.000000  celldm(3)=   0.000000
     celldm(4)=   0.000000  celldm(5)=   0.000000  celldm(6)=   0.000000

     crystal axes: (cart. coord. in units of alat)
               a(1) = (  -0.500000   0.000000   0.500000 )  
               a(2) = (   0.000000   0.500000   0.500000 )  
               a(3) = (  -0.500000   0.500000   0.000000 )  

     reciprocal axes: (cart. coord. in units 2 pi/alat)
               b(1) = ( -1.000000 -1.000000  1.000000 )  
               b(2) = (  1.000000  1.000000  1.000000 )  
               b(3) = ( -1.000000  1.000000 -1.000000 )  


     PseudoPot. # 1 for Si read from file:
     /home/max/quantum_espresso/qe-6.1/pseudo/si_pbe_v1.uspp.F.UPF.txt
     MD5 check sum: a056efeee980c13900f22a371efd63c1
     Pseudo is Ultrasoft + core correction, Zval =  4.0
     Generated by new atomic code, or converted to UPF format
     Using radial grid of  899 points,  6 beta functions with: 
                l(1) =   0
                l(2) =   0
                l(3) =   1
                l(4) =   1
                l(5) =   2
                l(6) =   2
     Q(r) pseudized with  8 coefficients,  rinner =    0.900   0.900   0.900
                                                       0.900   0.900

     atomic species   valence    mass     pseudopotential
        Si             4.00    28.08600     Si( 1.00)

     48 Sym. Ops., with inversion, found



   Cartesian axes

     site n.     atom                  positions (alat units)
         1           Si  tau(   1) = (   0.0000000   0.0000000   0.0000000  )
         2           Si  tau(   2) = (   0.2500000   0.2500000   0.2500000  )

     number of k points=   288

     Number of k-points >= 100: set verbosity='high' to print them.

     Dense  grid:     2891 G-vectors     FFT dimensions: (  20,  20,  20)

     Estimated max dynamical RAM per process >       0.33MB

     Estimated total allocated dynamical RAM >       1.33MB

     Check: negative/imaginary core charge=   -0.000006    0.000000

     The potential is recalculated from file :
     ./_ph0/silicon.10.390.save/charge-density.dat

     Starting wfc are    8 atomic wfcs

     Band Structure Calculation
     Davidson diagonalization with overlap

     ethr =  1.25E-10,  avg # of iterations = 11.6

     total cpu time spent up to now is        4.6 secs

     End of band structure calculation

     Number of k-points >= 100: set verbosity='high' to print the bands.

     highest occupied level (ev):     5.5384

     Writing output data file silicon.10.390.save

                                                                                

     bravais-lattice index     =            2
     lattice parameter (alat)  =      10.3900  a.u.
     unit-cell volume          =     280.4056 (a.u.)^3
     number of atoms/cell      =            2
     number of atomic types    =            1
     kinetic-energy cut-off    =      18.0000  Ry
     charge density cut-off    =      72.0000  Ry
     convergence threshold     =      1.0E-12
     beta                      =       0.7000
     number of iterations used =            4
     Exchange-correlation      = SLA  PW   PBE  PBE ( 1  4  3  4 0 0)


     celldm(1)=   10.39000  celldm(2)=    0.00000  celldm(3)=    0.00000
     celldm(4)=    0.00000  celldm(5)=    0.00000  celldm(6)=    0.00000

     crystal axes: (cart. coord. in units of alat)
               a(1) = ( -0.5000  0.0000  0.5000 )  
               a(2) = (  0.0000  0.5000  0.5000 )  
               a(3) = ( -0.5000  0.5000  0.0000 )  

     reciprocal axes: (cart. coord. in units 2 pi/alat)
               b(1) = ( -1.0000 -1.0000  1.0000 )  
               b(2) = (  1.0000  1.0000  1.0000 )  
               b(3) = ( -1.0000  1.0000 -1.0000 )  


     Atoms inside the unit cell: 

     Cartesian axes

     site n.  atom      mass           positions (alat units)
        1     Si  28.0860   tau(    1) = (    0.00000    0.00000    0.00000  )
        2     Si  28.0860   tau(    2) = (    0.25000    0.25000    0.25000  )

     Computing dynamical matrix for 
                    q = (   0.7500000  -0.2500000   0.7500000 )

      2 Sym.Ops. (no q -> -q+G )


     G cutoff =  196.8810  (    723 G-vectors)     FFT grid: ( 20, 20, 20)
     number of k points=   288

     PseudoPot. # 1 for Si read from file:
     /home/max/quantum_espresso/qe-6.1/pseudo/si_pbe_v1.uspp.F.UPF.txt
     MD5 check sum: a056efeee980c13900f22a371efd63c1
     Pseudo is Ultrasoft + core correction, Zval =  4.0
     Generated by new atomic code, or converted to UPF format
     Using radial grid of  899 points,  6 beta functions with: 
                l(1) =   0
                l(2) =   0
                l(3) =   1
                l(4) =   1
                l(5) =   2
                l(6) =   2
     Q(r) pseudized with  8 coefficients,  rinner =    0.900   0.900   0.900
                                                       0.900   0.900

     Mode symmetry, C_s (m)     point group:


     Atomic displacements:
     There are   6 irreducible representations

     Representation     1      1 modes -A'  To be done

     Representation     2      1 modes -A'  To be done

     Representation     3      1 modes -A'  To be done

     Representation     4      1 modes -A'  To be done

     Representation     5      1 modes -A''  To be done

     Representation     6      1 modes -A''  To be done



     Alpha used in Ewald sum =   0.7000
     PHONON       :    30.51s CPU        32.66s WALL



     Representation #  1 mode #   1

     Self-consistent Calculation

      iter #   1 total cpu time :    33.2 secs   av.it.:   5.3
      thresh= 1.000E-02 alpha_mix =  0.700 |ddv_scf|^2 =  6.042E-05

      iter #   2 total cpu time :    33.8 secs   av.it.:   8.9
      thresh= 7.773E-04 alpha_mix =  0.700 |ddv_scf|^2 =  1.599E-04

      iter #   3 total cpu time :    34.6 secs   av.it.:   7.6
      thresh= 1.265E-03 alpha_mix =  0.700 |ddv_scf|^2 =  1.128E-06

      iter #   4 total cpu time :    35.2 secs   av.it.:   8.4
      thresh= 1.062E-04 alpha_mix =  0.700 |ddv_scf|^2 =  5.646E-08

      iter #   5 total cpu time :    35.8 secs   av.it.:   8.3
      thresh= 2.376E-05 alpha_mix =  0.700 |ddv_scf|^2 =  7.220E-09

      iter #   6 total cpu time :    36.6 secs   av.it.:   8.5
      thresh= 8.497E-06 alpha_mix =  0.700 |ddv_scf|^2 =  9.093E-11

      iter #   7 total cpu time :    37.3 secs   av.it.:   8.7
      thresh= 9.536E-07 alpha_mix =  0.700 |ddv_scf|^2 =  3.140E-12

      iter #   8 total cpu time :    37.9 secs   av.it.:   8.6
      thresh= 1.772E-07 alpha_mix =  0.700 |ddv_scf|^2 =  1.967E-13

     End of self-consistent calculation

     Convergence has been achieved 


     Representation #  2 mode #   2

     Self-consistent Calculation

      iter #   1 total cpu time :    38.7 secs   av.it.:   5.4
      thresh= 1.000E-02 alpha_mix =  0.700 |ddv_scf|^2 =  1.074E-04

      iter #   2 total cpu time :    39.3 secs   av.it.:   8.7
      thresh= 1.036E-03 alpha_mix =  0.700 |ddv_scf|^2 =  3.082E-04

      iter #   3 total cpu time :    39.9 secs   av.it.:   7.4
      thresh= 1.756E-03 alpha_mix =  0.700 |ddv_scf|^2 =  7.953E-07

      iter #   4 total cpu time :    40.9 secs   av.it.:   8.5
      thresh= 8.918E-05 alpha_mix =  0.700 |ddv_scf|^2 =  5.516E-08

      iter #   5 total cpu time :    41.5 secs   av.it.:   8.2
      thresh= 2.349E-05 alpha_mix =  0.700 |ddv_scf|^2 =  1.045E-08

      iter #   6 total cpu time :    42.1 secs   av.it.:   8.5
      thresh= 1.022E-05 alpha_mix =  0.700 |ddv_scf|^2 =  8.793E-11

      iter #   7 total cpu time :    43.0 secs   av.it.:   8.8
      thresh= 9.377E-07 alpha_mix =  0.700 |ddv_scf|^2 =  2.724E-12

      iter #   8 total cpu time :    43.6 secs   av.it.:   8.6
      thresh= 1.651E-07 alpha_mix =  0.700 |ddv_scf|^2 =  4.975E-13

     End of self-consistent calculation

     Convergence has been achieved 


     Representation #  3 mode #   3

     Self-consistent Calculation

      iter #   1 total cpu time :    44.1 secs   av.it.:   5.3
      thresh= 1.000E-02 alpha_mix =  0.700 |ddv_scf|^2 =  8.421E-05

      iter #   2 total cpu time :    45.1 secs   av.it.:   8.8
      thresh= 9.176E-04 alpha_mix =  0.700 |ddv_scf|^2 =  2.257E-04

      iter #   3 total cpu time :    45.7 secs   av.it.:   7.4
      thresh= 1.502E-03 alpha_mix =  0.700 |ddv_scf|^2 =  1.355E-06

      iter #   4 total cpu time :    46.5 secs   av.it.:   8.2
      thresh= 1.164E-04 alpha_mix =  0.700 |ddv_scf|^2 =  5.647E-08

      iter #   5 total cpu time :    47.1 secs   av.it.:   8.4
      thresh= 2.376E-05 alpha_mix =  0.700 |ddv_scf|^2 =  1.079E-08

      iter #   6 total cpu time :    47.8 secs   av.it.:   8.5
      thresh= 1.039E-05 alpha_mix =  0.700 |ddv_scf|^2 =  5.005E-11

      iter #   7 total cpu time :    48.6 secs   av.it.:   8.7
      thresh= 7.075E-07 alpha_mix =  0.700 |ddv_scf|^2 =  1.913E-12

      iter #   8 total cpu time :    49.2 secs   av.it.:   8.8
      thresh= 1.383E-07 alpha_mix =  0.700 |ddv_scf|^2 =  3.659E-13

     End of self-consistent calculation

     Convergence has been achieved 


     Representation #  4 mode #   4

     Self-consistent Calculation

      iter #   1 total cpu time :    49.8 secs   av.it.:   5.2
      thresh= 1.000E-02 alpha_mix =  0.700 |ddv_scf|^2 =  3.722E-05

      iter #   2 total cpu time :    50.8 secs   av.it.:   8.9
[...]
        k(   59) = (  -0.8750000   0.1250000  -0.1250000), wk =   0.0625000
        k(   60) = (  -1.3750000  -0.8750000  -0.1250000), wk =   0.0000000
        k(   61) = (  -1.1250000   0.3750000  -0.3750000), wk =   0.0625000
        k(   62) = (  -1.6250000  -0.6250000  -0.3750000), wk =   0.0000000
        k(   63) = (  -0.3750000   0.3750000   1.1250000), wk =   0.0625000
        k(   64) = (  -0.8750000  -0.6250000   1.1250000), wk =   0.0000000

     Dense  grid:     2891 G-vectors     FFT dimensions: (  20,  20,  20)

     Estimated max dynamical RAM per process >       0.33MB

     Estimated total allocated dynamical RAM >       1.33MB

     Check: negative/imaginary core charge=   -0.000006    0.000000

     The potential is recalculated from file :
     ./_ph0/silicon.10.390.save/charge-density.dat

     Starting wfc are    8 atomic wfcs

     Band Structure Calculation
     Davidson diagonalization with overlap

     ethr =  1.25E-10,  avg # of iterations = 11.6

     total cpu time spent up to now is        7.1 secs

     End of band structure calculation

          k =-0.1250 0.1250 0.1250 (   347 PWs)   bands (ev):

    -5.6900   4.2284   5.5384   5.5384

          k =-0.6250-0.8750 0.1250 (   368 PWs)   bands (ev):

    -2.5503  -1.0262   1.9265   2.9793

          k =-0.3750 0.3750-0.1250 (   356 PWs)   bands (ev):

    -4.6810   1.2632   3.5855   5.0609

          k =-0.8750-0.6250-0.1250 (   368 PWs)   bands (ev):

    -2.5503  -1.0262   1.9265   2.9793

          k = 0.3750-0.3750 0.6250 (   364 PWs)   bands (ev):

    -3.5679  -0.7738   3.5963   4.3043

          k =-0.1250-1.3750 0.6250 (   365 PWs)   bands (ev):

    -3.0799  -0.7118   1.9766   3.9942

          k = 0.1250-0.1250 0.3750 (   358 PWs)   bands (ev):

    -5.1710   2.6170   4.5489   4.6031

          k =-0.3750-1.1250 0.3750 (   365 PWs)   bands (ev):

    -3.0799  -0.7118   1.9766   3.9942

          k =-0.1250 0.6250 0.1250 (   357 PWs)   bands (ev):

    -4.1567   0.9104   3.2469   3.6882

          k =-0.6250-0.3750 0.1250 (   362 PWs)   bands (ev):

    -3.7507   0.0626   2.6140   3.9600

          k = 0.6250-0.1250 0.8750 (   368 PWs)   bands (ev):

    -2.5503  -1.0262   1.9265   2.9793

          k = 0.1250-1.1250 0.8750 (   362 PWs)   bands (ev):

    -2.7098  -0.9326   2.5213   3.2280

          k = 0.3750 0.1250 0.6250 (   362 PWs)   bands (ev):

    -3.7507   0.0626   2.6140   3.9600

          k =-0.1250-0.8750 0.6250 (   368 PWs)   bands (ev):

    -2.5503  -1.0262   1.9265   2.9793

          k =-0.1250-0.8750 0.1250 (   362 PWs)   bands (ev):

    -2.7098  -0.9326   2.5213   3.2280

          k =-0.6250-1.8750 0.1250 (   357 PWs)   bands (ev):

    -4.1567   0.9104   3.2469   3.6882

          k =-0.3750 0.3750 0.3750 (   359 PWs)   bands (ev):

    -4.2580   0.0029   4.7591   4.7591

          k =-0.8750-0.6250 0.3750 (   362 PWs)   bands (ev):

    -3.7507   0.0626   2.6140   3.9600

          k = 0.3750-0.3750 1.1250 (   365 PWs)   bands (ev):

    -3.0799  -0.7118   1.9766   3.9942

          k =-0.1250-1.3750 1.1250 (   368 PWs)   bands (ev):

    -2.5503  -1.0262   1.9265   2.9793

          k = 0.1250-0.3750 0.3750 (   356 PWs)   bands (ev):

    -4.6810   1.2632   3.5855   5.0609

          k =-0.3750-1.3750 0.3750 (   364 PWs)   bands (ev):

    -3.5679  -0.7738   3.5963   4.3043

          k = 0.3750-0.3750-0.1250 (   356 PWs)   bands (ev):

    -4.6810   1.2632   3.5855   5.0609

          k =-0.1250-1.3750-0.1250 (   357 PWs)   bands (ev):

    -4.1567   0.9104   3.2469   3.6882

          k =-0.6250 0.3750-0.3750 (   364 PWs)   bands (ev):

    -3.5679  -0.7738   3.5963   4.3043

          k =-1.1250-0.6250-0.3750 (   362 PWs)   bands (ev):

    -3.7507   0.0626   2.6140   3.9600

          k =-0.3750 0.3750 0.6250 (   364 PWs)   bands (ev):

    -3.5679  -0.7738   3.5963   4.3043

          k =-0.8750-0.6250 0.6250 (   356 PWs)   bands (ev):

    -4.6810   1.2632   3.5855   5.0609

          k =-0.3750 0.1250-0.1250 (   358 PWs)   bands (ev):

    -5.1710   2.6170   4.5489   4.6031

          k =-0.8750-0.8750-0.1250 (   362 PWs)   bands (ev):

    -2.7098  -0.9326   2.5213   3.2280

          k =-0.1250 0.1250 0.3750 (   358 PWs)   bands (ev):

    -5.1710   2.6170   4.5489   4.6031

          k =-0.6250-0.8750 0.3750 (   362 PWs)   bands (ev):

    -3.7507   0.0626   2.6140   3.9600

          k = 0.1250 0.6250-0.1250 (   357 PWs)   bands (ev):

    -4.1567   0.9104   3.2469   3.6882

          k =-0.3750-0.3750-0.1250 (   356 PWs)   bands (ev):

    -4.6810   1.2632   3.5855   5.0609

          k = 0.6250 0.1250-0.1250 (   357 PWs)   bands (ev):

    -4.1567   0.9104   3.2469   3.6882

          k = 0.1250-0.8750-0.1250 (   362 PWs)   bands (ev):

    -2.7098  -0.9326   2.5213   3.2280

          k =-0.8750 0.1250-0.6250 (   368 PWs)   bands (ev):

    -2.5503  -1.0262   1.9265   2.9793

          k =-1.3750-0.8750-0.6250 (   356 PWs)   bands (ev):

    -4.6810   1.2632   3.5855   5.0609

          k = 0.8750-0.1250 0.6250 (   368 PWs)   bands (ev):

    -2.5503  -1.0262   1.9265   2.9793

          k = 0.3750-1.1250 0.6250 (   362 PWs)   bands (ev):

    -3.7507   0.0626   2.6140   3.9600

          k =-0.6250 0.1250 0.8750 (   368 PWs)   bands (ev):

    -2.5503  -1.0262   1.9265   2.9793

          k =-1.1250-0.8750 0.8750 (   347 PWs)   bands (ev):

    -5.6900   4.2284   5.5384   5.5384

          k =-0.1250 0.8750 0.6250 (   368 PWs)   bands (ev):

    -2.5503  -1.0262   1.9265   2.9793

          k =-0.6250-0.1250 0.6250 (   365 PWs)   bands (ev):

    -3.0799  -0.7118   1.9766   3.9942

          k = 0.1250 0.8750-0.6250 (   368 PWs)   bands (ev):

    -2.5503  -1.0262   1.9265   2.9793

          k =-0.3750-0.1250-0.6250 (   362 PWs)   bands (ev):

    -3.7507   0.0626   2.6140   3.9600

          k =-0.6250-0.1250-0.3750 (   362 PWs)   bands (ev):

    -3.7507   0.0626   2.6140   3.9600

          k =-1.1250-1.1250-0.3750 (   357 PWs)   bands (ev):

    -4.1567   0.9104   3.2469   3.6882

          k = 0.6250 0.1250 0.3750 (   362 PWs)   bands (ev):

    -3.7507   0.0626   2.6140   3.9600

          k = 0.1250-0.8750 0.3750 (   368 PWs)   bands (ev):

    -2.5503  -1.0262   1.9265   2.9793

          k =-0.3750-0.1250 0.6250 (   362 PWs)   bands (ev):

    -3.7507   0.0626   2.6140   3.9600

          k =-0.8750-1.1250 0.6250 (   358 PWs)   bands (ev):

    -5.1710   2.6170   4.5489   4.6031

          k = 0.1250 0.6250 0.3750 (   362 PWs)   bands (ev):

    -3.7507   0.0626   2.6140   3.9600

          k =-0.3750-0.3750 0.3750 (   359 PWs)   bands (ev):

    -4.2580   0.0029   4.7591   4.7591

          k =-0.1250 0.6250-0.3750 (   362 PWs)   bands (ev):

    -3.7507   0.0626   2.6140   3.9600

          k =-0.6250-0.3750-0.3750 (   364 PWs)   bands (ev):

    -3.5679  -0.7738   3.5963   4.3043

          k = 0.1250-0.8750-0.1250 (   362 PWs)   bands (ev):

    -2.7098  -0.9326   2.5213   3.2280

          k =-0.3750-1.8750-0.1250 (   358 PWs)   bands (ev):

    -5.1710   2.6170   4.5489   4.6031

          k =-0.8750 0.1250-0.1250 (   362 PWs)   bands (ev):

    -2.7098  -0.9326   2.5213   3.2280

          k =-1.3750-0.8750-0.1250 (   368 PWs)   bands (ev):

    -2.5503  -1.0262   1.9265   2.9793

          k =-1.1250 0.3750-0.3750 (   365 PWs)   bands (ev):

    -3.0799  -0.7118   1.9766   3.9942

          k =-1.6250-0.6250-0.3750 (   364 PWs)   bands (ev):

    -3.5679  -0.7738   3.5963   4.3043

          k =-0.3750 0.3750 1.1250 (   365 PWs)   bands (ev):

    -3.0799  -0.7118   1.9766   3.9942

          k =-0.8750-0.6250 1.1250 (   358 PWs)   bands (ev):

    -5.1710   2.6170   4.5489   4.6031

     highest occupied level (ev):     5.5384

     Writing output data file silicon.10.390.save

                                                                                

     bravais-lattice index     =            2
     lattice parameter (alat)  =      10.3900  a.u.
     unit-cell volume          =     280.4056 (a.u.)^3
     number of atoms/cell      =            2
     number of atomic types    =            1
     kinetic-energy cut-off    =      18.0000  Ry
     charge density cut-off    =      72.0000  Ry
     convergence threshold     =      1.0E-12
     beta                      =       0.7000
     number of iterations used =            4
     Exchange-correlation      = SLA  PW   PBE  PBE ( 1  4  3  4 0 0)


     celldm(1)=   10.39000  celldm(2)=    0.00000  celldm(3)=    0.00000
     celldm(4)=    0.00000  celldm(5)=    0.00000  celldm(6)=    0.00000

     crystal axes: (cart. coord. in units of alat)
               a(1) = ( -0.5000  0.0000  0.5000 )  
               a(2) = (  0.0000  0.5000  0.5000 )  
               a(3) = ( -0.5000  0.5000  0.0000 )  

     reciprocal axes: (cart. coord. in units 2 pi/alat)
               b(1) = ( -1.0000 -1.0000  1.0000 )  
               b(2) = (  1.0000  1.0000  1.0000 )  
               b(3) = ( -1.0000  1.0000 -1.0000 )  


     Atoms inside the unit cell: 

     Cartesian axes

     site n.  atom      mass           positions (alat units)
        1     Si  28.0860   tau(    1) = (    0.00000    0.00000    0.00000  )
        2     Si  28.0860   tau(    2) = (    0.25000    0.25000    0.25000  )

     Computing dynamical matrix for 
                    q = (  -0.5000000  -1.0000000   0.0000000 )

      8 Sym.Ops. (no q -> -q+G )


     G cutoff =  196.8810  (    722 G-vectors)     FFT grid: ( 20, 20, 20)
     number of k points=    64

     PseudoPot. # 1 for Si read from file:
     /home/max/quantum_espresso/qe-6.1/pseudo/si_pbe_v1.uspp.F.UPF.txt
     MD5 check sum: a056efeee980c13900f22a371efd63c1
     Pseudo is Ultrasoft + core correction, Zval =  4.0
     Generated by new atomic code, or converted to UPF format
     Using radial grid of  899 points,  6 beta functions with: 
                l(1) =   0
                l(2) =   0
                l(3) =   1
                l(4) =   1
                l(5) =   2
                l(6) =   2
     Q(r) pseudized with  8 coefficients,  rinner =    0.900   0.900   0.900
                                                       0.900   0.900


     Atomic displacements:
     There are   3 irreducible representations

     Representation     1      2 modes -  To be done

     Representation     2      2 modes -  To be done

     Representation     3      2 modes -  To be done



     Alpha used in Ewald sum =   0.7000
     PHONON       :  1m15.25s CPU     1m21.28s WALL



     Representation #  1 modes #   1  2

     Self-consistent Calculation

      iter #   1 total cpu time :    81.5 secs   av.it.:   5.3
      thresh= 1.000E-02 alpha_mix =  0.700 |ddv_scf|^2 =  6.269E-06

      iter #   2 total cpu time :    81.9 secs   av.it.:   9.9
      thresh= 2.504E-04 alpha_mix =  0.700 |ddv_scf|^2 =  3.379E-06

      iter #   3 total cpu time :    82.2 secs   av.it.:   9.3
      thresh= 1.838E-04 alpha_mix =  0.700 |ddv_scf|^2 =  8.429E-09

      iter #   4 total cpu time :    82.6 secs   av.it.:   9.1
      thresh= 9.181E-06 alpha_mix =  0.700 |ddv_scf|^2 =  2.241E-11

      iter #   5 total cpu time :    83.0 secs   av.it.:   9.0
      thresh= 4.734E-07 alpha_mix =  0.700 |ddv_scf|^2 =  6.648E-13

     End of self-consistent calculation

     Convergence has been achieved 


     Representation #  2 modes #   3  4

     Self-consistent Calculation

      iter #   1 total cpu time :    83.2 secs   av.it.:   5.2
      thresh= 1.000E-02 alpha_mix =  0.700 |ddv_scf|^2 =  9.717E-06

      iter #   2 total cpu time :    83.5 secs   av.it.:   9.9
      thresh= 3.117E-04 alpha_mix =  0.700 |ddv_scf|^2 =  1.317E-05

      iter #   3 total cpu time :    83.9 secs   av.it.:   9.1
      thresh= 3.629E-04 alpha_mix =  0.700 |ddv_scf|^2 =  1.011E-08

      iter #   4 total cpu time :    84.2 secs   av.it.:   8.9
      thresh= 1.006E-05 alpha_mix =  0.700 |ddv_scf|^2 =  9.479E-11

      iter #   5 total cpu time :    84.6 secs   av.it.:   9.4
      thresh= 9.736E-07 alpha_mix =  0.700 |ddv_scf|^2 =  1.838E-12

      iter #   6 total cpu time :    85.0 secs   av.it.:   9.1
      thresh= 1.356E-07 alpha_mix =  0.700 |ddv_scf|^2 =  1.650E-14

     End of self-consistent calculation

     Convergence has been achieved 


     Representation #  3 modes #   5  6

     Self-consistent Calculation

      iter #   1 total cpu time :    85.2 secs   av.it.:   5.1
      thresh= 1.000E-02 alpha_mix =  0.700 |ddv_scf|^2 =  2.618E-06

      iter #   2 total cpu time :    85.5 secs   av.it.:   9.7
      thresh= 1.618E-04 alpha_mix =  0.700 |ddv_scf|^2 =  1.426E-06

      iter #   3 total cpu time :    85.8 secs   av.it.:   9.1
      thresh= 1.194E-04 alpha_mix =  0.700 |ddv_scf|^2 =  8.111E-09

      iter #   4 total cpu time :    86.1 secs   av.it.:   8.7
      thresh= 9.006E-06 alpha_mix =  0.700 |ddv_scf|^2 =  4.467E-11

      iter #   5 total cpu time :    86.8 secs   av.it.:   9.1
      thresh= 6.683E-07 alpha_mix =  0.700 |ddv_scf|^2 =  7.088E-13

     End of self-consistent calculation

     Convergence has been achieved 

     Number of q in the star =    6
     List of q in the star:
          1  -0.500000000  -1.000000000   0.000000000
          2   0.000000000   1.000000000   0.500000000
          3   0.000000000  -1.000000000  -0.500000000
          4   0.500000000   1.000000000   0.000000000
          5  -1.000000000  -0.500000000   0.000000000
          6   0.000000000  -0.500000000  -1.000000000

     Diagonalizing the dynamical matrix

     q = (   -0.500000000  -1.000000000   0.000000000 ) 

 **************************************************************************
     freq (    1) =       7.775885 [THz] =     259.375619 [cm-1]
     freq (    2) =       7.775885 [THz] =     259.375619 [cm-1]
     freq (    3) =      11.047385 [THz] =     368.501087 [cm-1]
     freq (    4) =      11.047385 [THz] =     368.501087 [cm-1]
     freq (    5) =      13.791325 [THz] =     460.029068 [cm-1]
     freq (    6) =      13.791325 [THz] =     460.029068 [cm-1]
 **************************************************************************

     init_run     :      0.83s CPU      0.93s WALL (       7 calls)
     electrons    :      5.01s CPU      5.43s WALL (       7 calls)

     Called by init_run:
     wfcinit      :      0.00s CPU      0.00s WALL (       7 calls)
     potinit      :      0.02s CPU      0.03s WALL (       7 calls)

     Called by electrons:
     c_bands      :      5.01s CPU      5.41s WALL (       7 calls)
     v_of_rho     :      0.01s CPU      0.01s WALL (       8 calls)
     newd         :      0.04s CPU      0.06s WALL (       8 calls)

     Called by c_bands:
     init_us_2    :      0.68s CPU      0.73s WALL (   17588 calls)
     cegterg      :      4.26s CPU      4.60s WALL (     796 calls)

     Called by sum_band:

     Called by *egterg:
     h_psi        :     44.06s CPU     47.54s WALL (  152259 calls)
     s_psi        :      5.80s CPU      6.23s WALL (  309238 calls)
     g_psi        :      0.03s CPU      0.03s WALL (    9268 calls)
     cdiaghg      :      0.49s CPU      0.55s WALL (   10064 calls)

     Called by h_psi:
     h_psi:pot    :     43.88s CPU     47.34s WALL (  152259 calls)
     h_psi:calbec :      4.68s CPU      5.14s WALL (  152259 calls)
     vloc_psi     :     36.08s CPU     38.89s WALL (  152259 calls)
     add_vuspsi   :      2.91s CPU      3.09s WALL (  152259 calls)

     General routines
     calbec       :     10.11s CPU     11.01s WALL (  345610 calls)
     fft          :      0.48s CPU      0.49s WALL (    5239 calls)
     ffts         :      0.14s CPU      0.15s WALL (    2748 calls)
     fftw         :     41.89s CPU     45.24s WALL ( 1378736 calls)
     davcio       :      0.33s CPU      0.37s WALL (   79045 calls)

     Parallel routines
     fft_scatter  :     10.22s CPU     11.59s WALL ( 1386723 calls)

     PHONON       :  1m20.40s CPU     1m26.81s WALL

     INITIALIZATION: 
     phq_setup    :      0.05s CPU      0.05s WALL (       8 calls)
     phq_init     :      1.99s CPU      2.12s WALL (       8 calls)

     phq_init     :      1.99s CPU      2.12s WALL (       8 calls)
     set_drhoc    :      0.29s CPU      0.29s WALL (      24 calls)
     init_vloc    :      0.01s CPU      0.01s WALL (       8 calls)
     init_us_1    :      0.68s CPU      0.74s WALL (       8 calls)
     newd         :      0.04s CPU      0.06s WALL (       8 calls)
     dvanqq       :      0.23s CPU      0.23s WALL (       8 calls)
     drho         :      1.04s CPU      1.15s WALL (       8 calls)

     DYNAMICAL MATRIX:
     dynmat0      :      0.48s CPU      0.49s WALL (       8 calls)
     phqscf       :     69.78s CPU     75.41s WALL (       8 calls)
     dynmatrix    :      0.01s CPU      0.02s WALL (       8 calls)

     phqscf       :     69.78s CPU     75.41s WALL (       8 calls)
     solve_linter :     69.01s CPU     74.58s WALL (      32 calls)
     drhodv       :      0.50s CPU      0.53s WALL (      32 calls)

     dynmat0      :      0.48s CPU      0.49s WALL (       8 calls)
     dynmat_us    :      0.26s CPU      0.27s WALL (       8 calls)
     d2ionq       :      0.01s CPU      0.01s WALL (       8 calls)
     dynmatcc     :      0.21s CPU      0.21s WALL (       8 calls)

     dynmat_us    :      0.26s CPU      0.27s WALL (       8 calls)
     addusdynmat  :      0.00s CPU      0.00s WALL (       8 calls)

     phqscf       :     69.78s CPU     75.41s WALL (       8 calls)
     solve_linter :     69.01s CPU     74.58s WALL (      32 calls)

     solve_linter :     69.01s CPU     74.58s WALL (      32 calls)
     dvqpsi_us    :      1.61s CPU      1.70s WALL (    2508 calls)
     ortho        :      1.05s CPU      1.12s WALL (   15550 calls)
     cgsolve      :     54.07s CPU     58.53s WALL (   15550 calls)
     incdrhoscf   :      4.76s CPU      5.15s WALL (   15550 calls)
     addusddens   :      1.15s CPU      1.17s WALL (     228 calls)
     vpsifft      :      3.47s CPU      3.75s WALL (   12922 calls)
     dv_of_drho   :      0.22s CPU      0.22s WALL (     295 calls)
     mix_pot      :      0.08s CPU      0.13s WALL (     201 calls)
     psymdvscf    :      0.80s CPU      0.82s WALL (     196 calls)
     newdq        :      1.24s CPU      1.31s WALL (     201 calls)
     adddvscf     :      0.46s CPU      0.50s WALL (   13042 calls)
     drhodvus     :      0.00s CPU      0.00s WALL (      32 calls)

     dvqpsi_us    :      1.61s CPU      1.70s WALL (    2508 calls)
     dvqpsi_us_on :      0.81s CPU      0.86s WALL (    2508 calls)

     cgsolve      :     54.07s CPU     58.53s WALL (   15550 calls)
     ch_psi       :     52.14s CPU     56.35s WALL (  141399 calls)

     ch_psi       :     52.14s CPU     56.35s WALL (  141399 calls)
     h_psi        :     44.06s CPU     47.54s WALL (  152259 calls)
     last         :      8.50s CPU      9.28s WALL (  141399 calls)

     h_psi        :     44.06s CPU     47.54s WALL (  152259 calls)
     add_vuspsi   :      2.91s CPU      3.09s WALL (  152259 calls)

     incdrhoscf   :      4.76s CPU      5.15s WALL (   15550 calls)
     addusdbec    :      0.69s CPU      0.76s WALL (   17998 calls)

     drhodvus     :      0.00s CPU      0.00s WALL (      32 calls)

      General routines
     calbec       :     10.11s CPU     11.01s WALL (  345610 calls)
     fft          :      0.48s CPU      0.49s WALL (    5239 calls)
     ffts         :      0.14s CPU      0.15s WALL (    2748 calls)
     fftw         :     41.89s CPU     45.24s WALL ( 1378736 calls)
     davcio       :      0.33s CPU      0.37s WALL (   79045 calls)
     write_rec    :      0.20s CPU      0.22s WALL (     233 calls)


     PHONON       :  1m20.40s CPU     1m26.81s WALL


   This run was terminated on:  17:13:52   9Nov2017            

=------------------------------------------------------------------------------=
   JOB DONE.
=------------------------------------------------------------------------------=
