
     Program PWSCF v.6.1 (svn rev. 13369) starts on 10Nov2017 at 12: 7:55 

     This program is part of the open-source Quantum ESPRESSO suite
     for quantum simulation of materials; please cite
         "P. Giannozzi et al., J. Phys.:Condens. Matter 21 395502 (2009);
          URL http://www.quantum-espresso.org", 
     in publications or presentations arising from this work. More details at
     http://www.quantum-espresso.org/quote

     Parallel version (MPI), running on     4 processors
     R & G space division:  proc/nbgrp/npool/nimage =       4
     Waiting for input...
     Reading input from standard input
     Message from routine read_cards :
     DEPRECATED: no units specified in ATOMIC_POSITIONS card
     Message from routine read_cards :
     ATOMIC_POSITIONS: units set to alat

     Current dimensions of program PWSCF are:
     Max number of different atomic species (ntypx) = 10
     Max number of k-points (npk) =  40000
     Max angular momentum in pseudopotentials (lmaxx) =  3

     Subspace diagonalization in iterative solution of the eigenvalue problem:
     a serial algorithm will be used


     Parallelization info
     --------------------
     sticks:   dense  smooth     PW     G-vecs:    dense   smooth      PW
     Min         109      52     21                 1545      526     132
     Max         110      53     22                 1546      529     135
     Sum         439     211     85                 6183     2109     531



     bravais-lattice index     =            2
     lattice parameter (alat)  =      10.3330  a.u.
     unit-cell volume          =     275.8159 (a.u.)^3
     number of atoms/cell      =            2
     number of atomic types    =            1
     number of electrons       =         8.00
     number of Kohn-Sham states=            4
     kinetic-energy cutoff     =      15.0000  Ry
     charge density cutoff     =     120.0000  Ry
     convergence threshold     =      1.0E-08
     mixing beta               =       0.7000
     number of iterations used =            8  plain     mixing
     Exchange-correlation      = SLA  PW   PBE  PBE ( 1  4  3  4 0 0)

     celldm(1)=  10.333000  celldm(2)=   0.000000  celldm(3)=   0.000000
     celldm(4)=   0.000000  celldm(5)=   0.000000  celldm(6)=   0.000000

     crystal axes: (cart. coord. in units of alat)
               a(1) = (  -0.500000   0.000000   0.500000 )  
               a(2) = (   0.000000   0.500000   0.500000 )  
               a(3) = (  -0.500000   0.500000   0.000000 )  

     reciprocal axes: (cart. coord. in units 2 pi/alat)
               b(1) = ( -1.000000 -1.000000  1.000000 )  
               b(2) = (  1.000000  1.000000  1.000000 )  
               b(3) = ( -1.000000  1.000000 -1.000000 )  


     PseudoPot. # 1 for Si read from file:
     /home/max/quantum_espresso/qe-6.1/pseudo/si_pbe_v1.uspp.F.UPF.txt
     MD5 check sum: a056efeee980c13900f22a371efd63c1
     Pseudo is Ultrasoft + core correction, Zval =  4.0
     Generated by new atomic code, or converted to UPF format
     Using radial grid of  899 points,  6 beta functions with: 
                l(1) =   0
                l(2) =   0
                l(3) =   1
                l(4) =   1
                l(5) =   2
                l(6) =   2
     Q(r) pseudized with  8 coefficients,  rinner =    0.900   0.900   0.900
                                                       0.900   0.900

     atomic species   valence    mass     pseudopotential
        Si             4.00    28.08600     Si( 1.00)

     24 Sym. Ops. (no inversion) found
          (note: 24 additional sym.ops. were found but ignored
           their fractional translations are incommensurate with FFT grid)


   Cartesian axes

     site n.     atom                  positions (alat units)
         1           Si  tau(   1) = (   0.0000000   0.0000000   0.0000000  )
         2           Si  tau(   2) = (   0.2500000   0.2500000   0.2500000  )

     number of k points=    28
                       cart. coord. in units 2pi/alat
        k(    1) = (  -0.0833333   0.0833333   0.0833333), wk =   0.0185185
        k(    2) = (  -0.2500000   0.2500000  -0.0833333), wk =   0.0555556
        k(    3) = (  -0.4166667   0.4166667  -0.2500000), wk =   0.0555556
        k(    4) = (   0.4166667  -0.4166667   0.5833333), wk =   0.0555556
        k(    5) = (   0.2500000  -0.2500000   0.4166667), wk =   0.0555556
        k(    6) = (   0.0833333  -0.0833333   0.2500000), wk =   0.0555556
        k(    7) = (  -0.0833333   0.4166667   0.0833333), wk =   0.0555556
        k(    8) = (  -0.2500000   0.5833333  -0.0833333), wk =   0.1111111
        k(    9) = (   0.5833333  -0.2500000   0.7500000), wk =   0.1111111
        k(   10) = (   0.4166667  -0.0833333   0.5833333), wk =   0.1111111
        k(   11) = (   0.2500000   0.0833333   0.4166667), wk =   0.1111111
        k(   12) = (  -0.0833333   0.7500000   0.0833333), wk =   0.0555556
        k(   13) = (   0.7500000  -0.0833333   0.9166667), wk =   0.1111111
        k(   14) = (   0.5833333   0.0833333   0.7500000), wk =   0.1111111
        k(   15) = (   0.4166667   0.2500000   0.5833333), wk =   0.1111111
        k(   16) = (  -0.0833333  -0.9166667   0.0833333), wk =   0.0555556
        k(   17) = (  -0.2500000  -0.7500000  -0.0833333), wk =   0.1111111
        k(   18) = (  -0.0833333  -0.5833333   0.0833333), wk =   0.0555556
        k(   19) = (  -0.2500000   0.2500000   0.2500000), wk =   0.0185185
        k(   20) = (  -0.4166667   0.4166667   0.0833333), wk =   0.0555556
        k(   21) = (   0.4166667  -0.4166667   0.9166667), wk =   0.0555556
        k(   22) = (   0.2500000  -0.2500000   0.7500000), wk =   0.0555556
        k(   23) = (  -0.2500000   0.5833333   0.2500000), wk =   0.0555556
        k(   24) = (   0.5833333  -0.2500000   1.0833333), wk =   0.1111111
        k(   25) = (   0.4166667  -0.0833333   0.9166667), wk =   0.1111111
        k(   26) = (  -0.2500000  -1.0833333   0.2500000), wk =   0.0555556
        k(   27) = (  -0.4166667   0.4166667   0.4166667), wk =   0.0185185
        k(   28) = (   0.4166667  -0.4166667   1.2500000), wk =   0.0555556

     Dense  grid:     6183 G-vectors     FFT dimensions: (  25,  25,  25)

     Smooth grid:     2109 G-vectors     FFT dimensions: (  18,  18,  18)

     Estimated max dynamical RAM per process >       1.11MB

     Estimated total allocated dynamical RAM >       4.44MB

     Initial potential from superposition of free atoms

     starting charge    7.99866, renormalised to    8.00000
     Starting wfc are    8 randomized atomic wfcs

     total cpu time spent up to now is        0.3 secs

     per-process dynamical memory:     7.9 Mb

     Self-consistent Calculation

     iteration #  1     ecut=    15.00 Ry     beta=0.70
     Davidson diagonalization with overlap
     ethr =  1.00E-02,  avg # of iterations =  2.0

     Threshold (ethr) on eigenvalues was too large:
     Diagonalizing with lowered threshold

     Davidson diagonalization with overlap
     ethr =  6.72E-04,  avg # of iterations =  1.0

     total cpu time spent up to now is        0.5 secs

     total energy              =     -19.18430201 Ry
     Harris-Foulkes estimate   =     -19.19651567 Ry
     estimated scf accuracy    <       0.05365270 Ry

     iteration #  2     ecut=    15.00 Ry     beta=0.70
     Davidson diagonalization with overlap
     ethr =  6.71E-04,  avg # of iterations =  1.0

     total cpu time spent up to now is        0.6 secs

     total energy              =     -19.18597558 Ry
     Harris-Foulkes estimate   =     -19.18615203 Ry
     estimated scf accuracy    <       0.00246780 Ry

     iteration #  3     ecut=    15.00 Ry     beta=0.70
     Davidson diagonalization with overlap
     ethr =  3.08E-05,  avg # of iterations =  1.9

     total cpu time spent up to now is        0.7 secs

     total energy              =     -19.18623854 Ry
     Harris-Foulkes estimate   =     -19.18625057 Ry
     estimated scf accuracy    <       0.00003998 Ry

     iteration #  4     ecut=    15.00 Ry     beta=0.70
     Davidson diagonalization with overlap
     ethr =  5.00E-07,  avg # of iterations =  2.6

     total cpu time spent up to now is        0.8 secs

     total energy              =     -19.18625721 Ry
     Harris-Foulkes estimate   =     -19.18625749 Ry
     estimated scf accuracy    <       0.00000152 Ry

     iteration #  5     ecut=    15.00 Ry     beta=0.70
     Davidson diagonalization with overlap
     ethr =  1.90E-08,  avg # of iterations =  2.2

     total cpu time spent up to now is        0.9 secs

     total energy              =     -19.18625754 Ry
     Harris-Foulkes estimate   =     -19.18625755 Ry
     estimated scf accuracy    <       0.00000003 Ry

     iteration #  6     ecut=    15.00 Ry     beta=0.70
     Davidson diagonalization with overlap
     ethr =  3.95E-10,  avg # of iterations =  2.7

     total cpu time spent up to now is        1.0 secs

     End of self-consistent calculation

          k =-0.0833 0.0833 0.0833 (   271 PWs)   bands (ev):

    -5.7373   5.1294   5.8430   5.8430

          k =-0.2500 0.2500-0.0833 (   282 PWs)   bands (ev):

    -5.2704   3.0641   4.6251   5.6326

          k =-0.4167 0.4167-0.2500 (   272 PWs)   bands (ev):

    -4.1942   0.3397   4.1638   5.0039

          k = 0.4167-0.4167 0.5833 (   267 PWs)   bands (ev):

    -3.5094  -0.7824   4.2296   4.6304

          k = 0.2500-0.2500 0.4167 (   273 PWs)   bands (ev):

    -4.5993   1.1743   4.6907   4.7197

          k = 0.0833-0.0833 0.2500 (   277 PWs)   bands (ev):

    -5.5022   4.0661   5.2071   5.3871

          k =-0.0833 0.4167 0.0833 (   282 PWs)   bands (ev):

    -5.0319   2.8703   4.4697   4.4875

          k =-0.2500 0.5833-0.0833 (   273 PWs)   bands (ev):

    -4.1347   1.0511   3.1746   4.1062

          k = 0.5833-0.2500 0.7500 (   267 PWs)   bands (ev):

    -3.0373  -0.6673   2.5783   3.8844

          k = 0.4167-0.0833 0.5833 (   269 PWs)   bands (ev):

    -3.7467   0.3712   2.5419   4.3612

          k = 0.2500 0.0833 0.4167 (   277 PWs)   bands (ev):

    -4.8102   2.0477   3.8603   5.0167

          k =-0.0833 0.7500 0.0833 (   267 PWs)   bands (ev):

    -3.4313   0.2302   3.1415   3.4735

          k = 0.7500-0.0833 0.9167 (   269 PWs)   bands (ev):

    -2.2542  -1.0949   2.3164   3.0759

          k = 0.5833 0.0833 0.7500 (   270 PWs)   bands (ev):

    -2.6250  -0.7585   1.8397   3.6123

          k = 0.4167 0.2500 0.5833 (   267 PWs)   bands (ev):

    -3.6375  -0.2938   3.4629   4.4568

          k =-0.0833-0.9167 0.0833 (   270 PWs)   bands (ev):

    -2.3429  -1.1012   2.8756   3.2609

          k =-0.2500-0.7500-0.0833 (   265 PWs)   bands (ev):

    -3.2648   0.0105   2.6306   3.4116

          k =-0.0833-0.5833 0.0833 (   272 PWs)   bands (ev):

    -4.3360   1.5803   3.6760   3.8906

          k =-0.2500 0.2500 0.2500 (   274 PWs)   bands (ev):

    -5.0434   2.1010   5.2360   5.2360

          k =-0.4167 0.4167 0.0833 (   268 PWs)   bands (ev):

    -4.3738   1.1718   3.1391   5.0684

          k = 0.4167-0.4167 0.9167 (   269 PWs)   bands (ev):

    -3.2143  -0.2551   2.0516   4.2945

          k = 0.2500-0.2500 0.7500 (   265 PWs)   bands (ev):

    -3.1589  -0.3333   2.5209   3.8214

          k =-0.2500 0.5833 0.2500 (   271 PWs)   bands (ev):

    -3.9564   0.3755   3.5908   4.1882

          k = 0.5833-0.2500 1.0833 (   268 PWs)   bands (ev):

    -2.9699  -0.3724   2.1510   3.4113

          k = 0.4167-0.0833 0.9167 (   266 PWs)   bands (ev):

    -2.1524  -1.1019   1.9934   2.7560

          k =-0.2500-1.0833 0.2500 (   270 PWs)   bands (ev):

    -2.3606  -1.0076   1.8689   3.6290

          k =-0.4167 0.4167 0.4167 (   269 PWs)   bands (ev):

    -3.8714  -0.3897   4.8521   4.8521

          k = 0.4167-0.4167 1.2500 (   263 PWs)   bands (ev):

    -3.2768  -0.6891   3.0463   4.4201

     highest occupied level (ev):     5.8430

!    total energy              =     -19.18625756 Ry
     Harris-Foulkes estimate   =     -19.18625756 Ry
     estimated scf accuracy    <          3.4E-09 Ry

     The total energy is the sum of the following terms:

     one-electron contribution =       4.95917252 Ry
     hartree contribution      =       1.13136862 Ry
     xc contribution           =      -8.59456337 Ry
     ewald contribution        =     -16.68223534 Ry

     convergence has been achieved in   6 iterations


     Computing stress (Cartesian axis) and pressure

          total   stress  (Ry/bohr**3)                   (kbar)     P=  -14.02
  -0.00009530   0.00000000  -0.00000000        -14.02      0.00     -0.00
  -0.00000000  -0.00009530   0.00000000         -0.00    -14.02      0.00
   0.00000000   0.00000000  -0.00009530          0.00      0.00    -14.02


     Writing output data file silicon.15.save

     init_run     :      0.19s CPU      0.22s WALL (       1 calls)
     electrons    :      0.62s CPU      0.68s WALL (       1 calls)
     stress       :      0.11s CPU      0.12s WALL (       1 calls)

     Called by init_run:
     wfcinit      :      0.04s CPU      0.04s WALL (       1 calls)
     potinit      :      0.01s CPU      0.02s WALL (       1 calls)

     Called by electrons:
     c_bands      :      0.41s CPU      0.45s WALL (       7 calls)
     sum_band     :      0.13s CPU      0.14s WALL (       7 calls)
     v_of_rho     :      0.03s CPU      0.03s WALL (       7 calls)
     newd         :      0.06s CPU      0.06s WALL (       7 calls)
     mix_rho      :      0.00s CPU      0.00s WALL (       7 calls)

     Called by c_bands:
     init_us_2    :      0.02s CPU      0.03s WALL (     448 calls)
     cegterg      :      0.36s CPU      0.40s WALL (     196 calls)

     Called by sum_band:
     sum_band:bec :      0.00s CPU      0.00s WALL (     196 calls)
     addusdens    :      0.06s CPU      0.06s WALL (       7 calls)

     Called by *egterg:
     h_psi        :      0.30s CPU      0.34s WALL (     602 calls)
     s_psi        :      0.02s CPU      0.02s WALL (     602 calls)
     g_psi        :      0.00s CPU      0.00s WALL (     378 calls)
     cdiaghg      :      0.03s CPU      0.03s WALL (     546 calls)

     Called by h_psi:
     h_psi:pot    :      0.30s CPU      0.33s WALL (     602 calls)
     h_psi:calbec :      0.03s CPU      0.03s WALL (     602 calls)
     vloc_psi     :      0.25s CPU      0.28s WALL (     602 calls)
     add_vuspsi   :      0.02s CPU      0.03s WALL (     602 calls)

     General routines
     calbec       :      0.04s CPU      0.04s WALL (     826 calls)
     fft          :      0.02s CPU      0.02s WALL (     126 calls)
     ffts         :      0.01s CPU      0.01s WALL (      14 calls)
     fftw         :      0.27s CPU      0.30s WALL (    5410 calls)
     interpolate  :      0.01s CPU      0.01s WALL (      14 calls)
     davcio       :      0.00s CPU      0.00s WALL (      28 calls)

     Parallel routines
     fft_scatter  :      0.06s CPU      0.07s WALL (    5550 calls)

     PWSCF        :     1.12s CPU         1.23s WALL


   This run was terminated on:  12: 7:56  10Nov2017            

=------------------------------------------------------------------------------=
   JOB DONE.
=------------------------------------------------------------------------------=
