
     Program PWSCF v.6.1 (svn rev. 13369) starts on 10Nov2017 at 10:28:47 

     This program is part of the open-source Quantum ESPRESSO suite
     for quantum simulation of materials; please cite
         "P. Giannozzi et al., J. Phys.:Condens. Matter 21 395502 (2009);
          URL http://www.quantum-espresso.org", 
     in publications or presentations arising from this work. More details at
     http://www.quantum-espresso.org/quote

     Parallel version (MPI), running on     4 processors
     R & G space division:  proc/nbgrp/npool/nimage =       4
     Waiting for input...
     Reading input from standard input
     Message from routine read_cards :
     DEPRECATED: no units specified in ATOMIC_POSITIONS card
     Message from routine read_cards :
     ATOMIC_POSITIONS: units set to alat

     Current dimensions of program PWSCF are:
     Max number of different atomic species (ntypx) = 10
     Max number of k-points (npk) =  40000
     Max angular momentum in pseudopotentials (lmaxx) =  3

     Subspace diagonalization in iterative solution of the eigenvalue problem:
     a serial algorithm will be used


     Parallelization info
     --------------------
     sticks:   dense  smooth     PW     G-vecs:    dense   smooth      PW
     Min         217     108     37                 4240     1495     301
     Max         219     109     38                 4241     1498     304
     Sum         871     433    151                16961     5985    1211



     bravais-lattice index     =            2
     lattice parameter (alat)  =      10.2900  a.u.
     unit-cell volume          =     272.3868 (a.u.)^3
     number of atoms/cell      =            2
     number of atomic types    =            1
     number of electrons       =         8.00
     number of Kohn-Sham states=            4
     kinetic-energy cutoff     =      30.0000  Ry
     charge density cutoff     =     240.0000  Ry
     convergence threshold     =      1.0E-08
     mixing beta               =       0.7000
     number of iterations used =            8  plain     mixing
     Exchange-correlation      = SLA  PW   PBE  PBE ( 1  4  3  4 0 0)

     celldm(1)=  10.290000  celldm(2)=   0.000000  celldm(3)=   0.000000
     celldm(4)=   0.000000  celldm(5)=   0.000000  celldm(6)=   0.000000

     crystal axes: (cart. coord. in units of alat)
               a(1) = (  -0.500000   0.000000   0.500000 )  
               a(2) = (   0.000000   0.500000   0.500000 )  
               a(3) = (  -0.500000   0.500000   0.000000 )  

     reciprocal axes: (cart. coord. in units 2 pi/alat)
               b(1) = ( -1.000000 -1.000000  1.000000 )  
               b(2) = (  1.000000  1.000000  1.000000 )  
               b(3) = ( -1.000000  1.000000 -1.000000 )  


     PseudoPot. # 1 for Si read from file:
     /home/max/quantum_espresso/qe-6.1/pseudo/si_pbe_v1.uspp.F.UPF.txt
     MD5 check sum: a056efeee980c13900f22a371efd63c1
     Pseudo is Ultrasoft + core correction, Zval =  4.0
     Generated by new atomic code, or converted to UPF format
     Using radial grid of  899 points,  6 beta functions with: 
                l(1) =   0
                l(2) =   0
                l(3) =   1
                l(4) =   1
                l(5) =   2
                l(6) =   2
     Q(r) pseudized with  8 coefficients,  rinner =    0.900   0.900   0.900
                                                       0.900   0.900

     atomic species   valence    mass     pseudopotential
        Si             4.00    28.08600     Si( 1.00)

     48 Sym. Ops., with inversion, found (24 have fractional translation)



   Cartesian axes

     site n.     atom                  positions (alat units)
         1           Si  tau(   1) = (   0.0000000   0.0000000   0.0000000  )
         2           Si  tau(   2) = (   0.2500000   0.2500000   0.2500000  )

     number of k points=    28
                       cart. coord. in units 2pi/alat
        k(    1) = (  -0.0833333   0.0833333   0.0833333), wk =   0.0185185
        k(    2) = (  -0.2500000   0.2500000  -0.0833333), wk =   0.0555556
        k(    3) = (  -0.4166667   0.4166667  -0.2500000), wk =   0.0555556
        k(    4) = (   0.4166667  -0.4166667   0.5833333), wk =   0.0555556
        k(    5) = (   0.2500000  -0.2500000   0.4166667), wk =   0.0555556
        k(    6) = (   0.0833333  -0.0833333   0.2500000), wk =   0.0555556
        k(    7) = (  -0.0833333   0.4166667   0.0833333), wk =   0.0555556
        k(    8) = (  -0.2500000   0.5833333  -0.0833333), wk =   0.1111111
        k(    9) = (   0.5833333  -0.2500000   0.7500000), wk =   0.1111111
        k(   10) = (   0.4166667  -0.0833333   0.5833333), wk =   0.1111111
        k(   11) = (   0.2500000   0.0833333   0.4166667), wk =   0.1111111
        k(   12) = (  -0.0833333   0.7500000   0.0833333), wk =   0.0555556
        k(   13) = (   0.7500000  -0.0833333   0.9166667), wk =   0.1111111
        k(   14) = (   0.5833333   0.0833333   0.7500000), wk =   0.1111111
        k(   15) = (   0.4166667   0.2500000   0.5833333), wk =   0.1111111
        k(   16) = (  -0.0833333  -0.9166667   0.0833333), wk =   0.0555556
        k(   17) = (  -0.2500000  -0.7500000  -0.0833333), wk =   0.1111111
        k(   18) = (  -0.0833333  -0.5833333   0.0833333), wk =   0.0555556
        k(   19) = (  -0.2500000   0.2500000   0.2500000), wk =   0.0185185
        k(   20) = (  -0.4166667   0.4166667   0.0833333), wk =   0.0555556
        k(   21) = (   0.4166667  -0.4166667   0.9166667), wk =   0.0555556
        k(   22) = (   0.2500000  -0.2500000   0.7500000), wk =   0.0555556
        k(   23) = (  -0.2500000   0.5833333   0.2500000), wk =   0.0555556
        k(   24) = (   0.5833333  -0.2500000   1.0833333), wk =   0.1111111
        k(   25) = (   0.4166667  -0.0833333   0.9166667), wk =   0.1111111
        k(   26) = (  -0.2500000  -1.0833333   0.2500000), wk =   0.0555556
        k(   27) = (  -0.4166667   0.4166667   0.4166667), wk =   0.0185185
        k(   28) = (   0.4166667  -0.4166667   1.2500000), wk =   0.0555556

     Dense  grid:    16961 G-vectors     FFT dimensions: (  36,  36,  36)

     Smooth grid:     5985 G-vectors     FFT dimensions: (  25,  25,  25)

     Estimated max dynamical RAM per process >       3.02MB

     Estimated total allocated dynamical RAM >      12.08MB

     Initial potential from superposition of free atoms

     starting charge    7.99866, renormalised to    8.00000
     Starting wfc are    8 randomized atomic wfcs

     total cpu time spent up to now is        0.8 secs

     per-process dynamical memory:    10.1 Mb

     Self-consistent Calculation

     iteration #  1     ecut=    30.00 Ry     beta=0.70
     Davidson diagonalization with overlap
     ethr =  1.00E-02,  avg # of iterations =  2.0

     Threshold (ethr) on eigenvalues was too large:
     Diagonalizing with lowered threshold

     Davidson diagonalization with overlap
     ethr =  6.92E-04,  avg # of iterations =  1.0

     total cpu time spent up to now is        1.2 secs

     total energy              =     -19.19103687 Ry
     Harris-Foulkes estimate   =     -19.20399625 Ry
     estimated scf accuracy    <       0.05475565 Ry

     iteration #  2     ecut=    30.00 Ry     beta=0.70
     Davidson diagonalization with overlap
     ethr =  6.84E-04,  avg # of iterations =  1.0

     total cpu time spent up to now is        1.4 secs

     total energy              =     -19.19286370 Ry
     Harris-Foulkes estimate   =     -19.19303395 Ry
     estimated scf accuracy    <       0.00244323 Ry

     iteration #  3     ecut=    30.00 Ry     beta=0.70
     Davidson diagonalization with overlap
     ethr =  3.05E-05,  avg # of iterations =  2.0

     total cpu time spent up to now is        1.7 secs

     total energy              =     -19.19319728 Ry
     Harris-Foulkes estimate   =     -19.19321114 Ry
     estimated scf accuracy    <       0.00004469 Ry

     iteration #  4     ecut=    30.00 Ry     beta=0.70
     Davidson diagonalization with overlap
     ethr =  5.59E-07,  avg # of iterations =  3.4

     total cpu time spent up to now is        2.0 secs

     total energy              =     -19.19323834 Ry
     Harris-Foulkes estimate   =     -19.19323940 Ry
     estimated scf accuracy    <       0.00000367 Ry

     iteration #  5     ecut=    30.00 Ry     beta=0.70
     Davidson diagonalization with overlap
     ethr =  4.58E-08,  avg # of iterations =  2.0

     total cpu time spent up to now is        2.6 secs

     total energy              =     -19.19323881 Ry
     Harris-Foulkes estimate   =     -19.19323880 Ry
     estimated scf accuracy    <       0.00000001 Ry

     iteration #  6     ecut=    30.00 Ry     beta=0.70
     Davidson diagonalization with overlap
     ethr =  1.26E-10,  avg # of iterations =  4.0

     total cpu time spent up to now is        3.0 secs

     End of self-consistent calculation

          k =-0.0833 0.0833 0.0833 (   737 PWs)   bands (ev):

    -5.7045   5.2505   5.9663   5.9663

          k =-0.2500 0.2500-0.0833 (   760 PWs)   bands (ev):

    -5.2297   3.1737   4.7347   5.7565

          k =-0.4167 0.4167-0.2500 (   763 PWs)   bands (ev):

    -4.1421   0.4199   4.2712   5.1213

          k = 0.4167-0.4167 0.5833 (   759 PWs)   bands (ev):

    -3.4473  -0.7195   4.3371   4.7420

          k = 0.2500-0.2500 0.4167 (   762 PWs)   bands (ev):

    -4.5520   1.2636   4.8020   4.8349

          k = 0.0833-0.0833 0.2500 (   761 PWs)   bands (ev):

    -5.4648   4.1829   5.3224   5.5080

          k =-0.0833 0.4167 0.0833 (   758 PWs)   bands (ev):

    -4.9894   2.9852   4.5794   4.5947

          k =-0.2500 0.5833-0.0833 (   759 PWs)   bands (ev):

    -4.0827   1.1502   3.2655   4.2090

          k = 0.5833-0.2500 0.7500 (   751 PWs)   bands (ev):

    -2.9717  -0.5936   2.6652   3.9827

          k = 0.4167-0.0833 0.5833 (   760 PWs)   bands (ev):

    -3.6900   0.4598   2.6244   4.4674

          k = 0.2500 0.0833 0.4167 (   763 PWs)   bands (ev):

    -4.7649   2.1511   3.9603   5.1333

          k =-0.0833 0.7500 0.0833 (   758 PWs)   bands (ev):

    -3.3738   0.3243   3.2303   3.5690

          k = 0.7500-0.0833 0.9167 (   750 PWs)   bands (ev):

    -2.1827  -1.0115   2.3915   3.1639

          k = 0.5833 0.0833 0.7500 (   747 PWs)   bands (ev):

    -2.5532  -0.6758   1.9097   3.7076

          k = 0.4167 0.2500 0.5833 (   759 PWs)   bands (ev):

    -3.5788  -0.2209   3.5624   4.5648

          k =-0.0833-0.9167 0.0833 (   755 PWs)   bands (ev):

    -2.2738  -1.0194   2.9616   3.3542

          k =-0.2500-0.7500-0.0833 (   755 PWs)   bands (ev):

    -3.2061   0.1018   2.7117   3.5032

          k =-0.0833-0.5833 0.0833 (   753 PWs)   bands (ev):

    -4.2874   1.6865   3.7732   3.9900

          k =-0.2500 0.2500 0.2500 (   757 PWs)   bands (ev):

    -5.0011   2.1977   5.3543   5.3543

          k =-0.4167 0.4167 0.0833 (   753 PWs)   bands (ev):

    -4.3247   1.2656   3.2296   5.1854

          k = 0.4167-0.4167 0.9167 (   759 PWs)   bands (ev):

    -3.1508  -0.1720   2.1266   4.4016

          k = 0.2500-0.2500 0.7500 (   758 PWs)   bands (ev):

    -3.0986  -0.2511   2.6034   3.9212

          k =-0.2500 0.5833 0.2500 (   759 PWs)   bands (ev):

    -3.9025   0.4607   3.6920   4.2932

          k = 0.5833-0.2500 1.0833 (   754 PWs)   bands (ev):

    -2.9047  -0.2856   2.2265   3.5012

          k = 0.4167-0.0833 0.9167 (   749 PWs)   bands (ev):

    -2.0770  -1.0193   2.0634   2.8362

          k =-0.2500-1.0833 0.2500 (   747 PWs)   bands (ev):

    -2.2869  -0.9247   1.9375   3.7272

          k =-0.4167 0.4167 0.4167 (   763 PWs)   bands (ev):

    -3.8146  -0.3206   4.9667   4.9667

          k = 0.4167-0.4167 1.2500 (   757 PWs)   bands (ev):

    -3.2125  -0.6224   3.1383   4.5280

     highest occupied level (ev):     5.9663

!    total energy              =     -19.19323884 Ry
     Harris-Foulkes estimate   =     -19.19323884 Ry
     estimated scf accuracy    <          8.7E-10 Ry

     The total energy is the sum of the following terms:

     one-electron contribution =       5.04756461 Ry
     hartree contribution      =       1.12278223 Ry
     xc contribution           =      -8.61163841 Ry
     ewald contribution        =     -16.75194727 Ry

     convergence has been achieved in   6 iterations

     Writing output data file silicon.10.29.save

     init_run     :      0.43s CPU      0.72s WALL (       1 calls)
     electrons    :      1.58s CPU      2.15s WALL (       1 calls)

     Called by init_run:
     wfcinit      :      0.07s CPU      0.09s WALL (       1 calls)
     potinit      :      0.02s CPU      0.04s WALL (       1 calls)

     Called by electrons:
     c_bands      :      1.02s CPU      1.38s WALL (       7 calls)
     sum_band     :      0.33s CPU      0.47s WALL (       7 calls)
     v_of_rho     :      0.09s CPU      0.13s WALL (       7 calls)
     newd         :      0.15s CPU      0.19s WALL (       7 calls)
     mix_rho      :      0.01s CPU      0.01s WALL (       7 calls)

     Called by c_bands:
     init_us_2    :      0.05s CPU      0.06s WALL (     420 calls)
     cegterg      :      0.89s CPU      1.21s WALL (     196 calls)

     Called by sum_band:
     sum_band:bec :      0.00s CPU      0.00s WALL (     196 calls)
     addusdens    :      0.16s CPU      0.20s WALL (       7 calls)

     Called by *egterg:
     h_psi        :      0.72s CPU      0.98s WALL (     656 calls)
     s_psi        :      0.05s CPU      0.06s WALL (     656 calls)
     g_psi        :      0.00s CPU      0.00s WALL (     432 calls)
     cdiaghg      :      0.06s CPU      0.08s WALL (     600 calls)

     Called by h_psi:
     h_psi:pot    :      0.72s CPU      0.97s WALL (     656 calls)
     h_psi:calbec :      0.08s CPU      0.11s WALL (     656 calls)
     vloc_psi     :      0.59s CPU      0.80s WALL (     656 calls)
     add_vuspsi   :      0.05s CPU      0.06s WALL (     656 calls)

     General routines
     calbec       :      0.10s CPU      0.15s WALL (     852 calls)
     fft          :      0.08s CPU      0.17s WALL (     112 calls)
     ffts         :      0.00s CPU      0.01s WALL (      14 calls)
     fftw         :      0.59s CPU      0.86s WALL (    5720 calls)
     interpolate  :      0.01s CPU      0.02s WALL (      14 calls)
     davcio       :      0.00s CPU      0.00s WALL (      28 calls)

     Parallel routines
     fft_scatter  :      0.33s CPU      0.65s WALL (    5846 calls)

     PWSCF        :     2.22s CPU         3.11s WALL


   This run was terminated on:  10:28:50  10Nov2017            

=------------------------------------------------------------------------------=
   JOB DONE.
=------------------------------------------------------------------------------=
