
     Program PWSCF v.6.1 (svn rev. 13369) starts on 10Nov2017 at 10:31: 7 

     This program is part of the open-source Quantum ESPRESSO suite
     for quantum simulation of materials; please cite
         "P. Giannozzi et al., J. Phys.:Condens. Matter 21 395502 (2009);
          URL http://www.quantum-espresso.org", 
     in publications or presentations arising from this work. More details at
     http://www.quantum-espresso.org/quote

     Parallel version (MPI), running on     4 processors
     R & G space division:  proc/nbgrp/npool/nimage =       4
     Waiting for input...
     Reading input from standard input
     Message from routine read_cards :
     DEPRECATED: no units specified in ATOMIC_POSITIONS card
     Message from routine read_cards :
     ATOMIC_POSITIONS: units set to alat

     Current dimensions of program PWSCF are:
     Max number of different atomic species (ntypx) = 10
     Max number of k-points (npk) =  40000
     Max angular momentum in pseudopotentials (lmaxx) =  3

     Subspace diagonalization in iterative solution of the eigenvalue problem:
     a serial algorithm will be used


     Parallelization info
     --------------------
     sticks:   dense  smooth     PW     G-vecs:    dense   smooth      PW
     Min         217     109     37                 4288     1520     301
     Max         219     111     38                 4289     1521     304
     Sum         871     439    151                17153     6081    1211



     bravais-lattice index     =            2
     lattice parameter (alat)  =      10.3180  a.u.
     unit-cell volume          =     274.6165 (a.u.)^3
     number of atoms/cell      =            2
     number of atomic types    =            1
     number of electrons       =         8.00
     number of Kohn-Sham states=            4
     kinetic-energy cutoff     =      30.0000  Ry
     charge density cutoff     =     240.0000  Ry
     convergence threshold     =      1.0E-08
     mixing beta               =       0.7000
     number of iterations used =            8  plain     mixing
     Exchange-correlation      = SLA  PW   PBE  PBE ( 1  4  3  4 0 0)

     celldm(1)=  10.318000  celldm(2)=   0.000000  celldm(3)=   0.000000
     celldm(4)=   0.000000  celldm(5)=   0.000000  celldm(6)=   0.000000

     crystal axes: (cart. coord. in units of alat)
               a(1) = (  -0.500000   0.000000   0.500000 )  
               a(2) = (   0.000000   0.500000   0.500000 )  
               a(3) = (  -0.500000   0.500000   0.000000 )  

     reciprocal axes: (cart. coord. in units 2 pi/alat)
               b(1) = ( -1.000000 -1.000000  1.000000 )  
               b(2) = (  1.000000  1.000000  1.000000 )  
               b(3) = ( -1.000000  1.000000 -1.000000 )  


     PseudoPot. # 1 for Si read from file:
     /home/max/quantum_espresso/qe-6.1/pseudo/si_pbe_v1.uspp.F.UPF.txt
     MD5 check sum: a056efeee980c13900f22a371efd63c1
     Pseudo is Ultrasoft + core correction, Zval =  4.0
     Generated by new atomic code, or converted to UPF format
     Using radial grid of  899 points,  6 beta functions with: 
                l(1) =   0
                l(2) =   0
                l(3) =   1
                l(4) =   1
                l(5) =   2
                l(6) =   2
     Q(r) pseudized with  8 coefficients,  rinner =    0.900   0.900   0.900
                                                       0.900   0.900

     atomic species   valence    mass     pseudopotential
        Si             4.00    28.08600     Si( 1.00)

     48 Sym. Ops., with inversion, found (24 have fractional translation)



   Cartesian axes

     site n.     atom                  positions (alat units)
         1           Si  tau(   1) = (   0.0000000   0.0000000   0.0000000  )
         2           Si  tau(   2) = (   0.2500000   0.2500000   0.2500000  )

     number of k points=    28
                       cart. coord. in units 2pi/alat
        k(    1) = (  -0.0833333   0.0833333   0.0833333), wk =   0.0185185
        k(    2) = (  -0.2500000   0.2500000  -0.0833333), wk =   0.0555556
        k(    3) = (  -0.4166667   0.4166667  -0.2500000), wk =   0.0555556
        k(    4) = (   0.4166667  -0.4166667   0.5833333), wk =   0.0555556
        k(    5) = (   0.2500000  -0.2500000   0.4166667), wk =   0.0555556
        k(    6) = (   0.0833333  -0.0833333   0.2500000), wk =   0.0555556
        k(    7) = (  -0.0833333   0.4166667   0.0833333), wk =   0.0555556
        k(    8) = (  -0.2500000   0.5833333  -0.0833333), wk =   0.1111111
        k(    9) = (   0.5833333  -0.2500000   0.7500000), wk =   0.1111111
        k(   10) = (   0.4166667  -0.0833333   0.5833333), wk =   0.1111111
        k(   11) = (   0.2500000   0.0833333   0.4166667), wk =   0.1111111
        k(   12) = (  -0.0833333   0.7500000   0.0833333), wk =   0.0555556
        k(   13) = (   0.7500000  -0.0833333   0.9166667), wk =   0.1111111
        k(   14) = (   0.5833333   0.0833333   0.7500000), wk =   0.1111111
        k(   15) = (   0.4166667   0.2500000   0.5833333), wk =   0.1111111
        k(   16) = (  -0.0833333  -0.9166667   0.0833333), wk =   0.0555556
        k(   17) = (  -0.2500000  -0.7500000  -0.0833333), wk =   0.1111111
        k(   18) = (  -0.0833333  -0.5833333   0.0833333), wk =   0.0555556
        k(   19) = (  -0.2500000   0.2500000   0.2500000), wk =   0.0185185
        k(   20) = (  -0.4166667   0.4166667   0.0833333), wk =   0.0555556
        k(   21) = (   0.4166667  -0.4166667   0.9166667), wk =   0.0555556
        k(   22) = (   0.2500000  -0.2500000   0.7500000), wk =   0.0555556
        k(   23) = (  -0.2500000   0.5833333   0.2500000), wk =   0.0555556
        k(   24) = (   0.5833333  -0.2500000   1.0833333), wk =   0.1111111
        k(   25) = (   0.4166667  -0.0833333   0.9166667), wk =   0.1111111
        k(   26) = (  -0.2500000  -1.0833333   0.2500000), wk =   0.0555556
        k(   27) = (  -0.4166667   0.4166667   0.4166667), wk =   0.0185185
        k(   28) = (   0.4166667  -0.4166667   1.2500000), wk =   0.0555556

     Dense  grid:    17153 G-vectors     FFT dimensions: (  36,  36,  36)

     Smooth grid:     6081 G-vectors     FFT dimensions: (  25,  25,  25)

     Estimated max dynamical RAM per process >       3.04MB

     Estimated total allocated dynamical RAM >      12.16MB

     Initial potential from superposition of free atoms

     starting charge    7.99866, renormalised to    8.00000
     Starting wfc are    8 randomized atomic wfcs

     total cpu time spent up to now is        0.5 secs

     per-process dynamical memory:     9.9 Mb

     Self-consistent Calculation

     iteration #  1     ecut=    30.00 Ry     beta=0.70
     Davidson diagonalization with overlap
     ethr =  1.00E-02,  avg # of iterations =  2.0

     Threshold (ethr) on eigenvalues was too large:
     Diagonalizing with lowered threshold

     Davidson diagonalization with overlap
     ethr =  6.83E-04,  avg # of iterations =  1.0

     total cpu time spent up to now is        1.5 secs

     total energy              =     -19.19120305 Ry
     Harris-Foulkes estimate   =     -19.20382899 Ry
     estimated scf accuracy    <       0.05404630 Ry

     iteration #  2     ecut=    30.00 Ry     beta=0.70
     Davidson diagonalization with overlap
     ethr =  6.76E-04,  avg # of iterations =  1.0

     total cpu time spent up to now is        1.7 secs

     total energy              =     -19.19298028 Ry
     Harris-Foulkes estimate   =     -19.19314975 Ry
     estimated scf accuracy    <       0.00244457 Ry

     iteration #  3     ecut=    30.00 Ry     beta=0.70
     Davidson diagonalization with overlap
     ethr =  3.06E-05,  avg # of iterations =  2.0

     total cpu time spent up to now is        1.9 secs

     total energy              =     -19.19331301 Ry
     Harris-Foulkes estimate   =     -19.19332613 Ry
     estimated scf accuracy    <       0.00004287 Ry

     iteration #  4     ecut=    30.00 Ry     beta=0.70
     Davidson diagonalization with overlap
     ethr =  5.36E-07,  avg # of iterations =  3.4

     total cpu time spent up to now is        2.2 secs

     total energy              =     -19.19335356 Ry
     Harris-Foulkes estimate   =     -19.19335445 Ry
     estimated scf accuracy    <       0.00000322 Ry

     iteration #  5     ecut=    30.00 Ry     beta=0.70
     Davidson diagonalization with overlap
     ethr =  4.03E-08,  avg # of iterations =  2.0

     total cpu time spent up to now is        2.4 secs

     End of self-consistent calculation

          k =-0.0833 0.0833 0.0833 (   749 PWs)   bands (ev):

    -5.7335   5.1664   5.8836   5.8836

          k =-0.2500 0.2500-0.0833 (   765 PWs)   bands (ev):

    -5.2621   3.0964   4.6615   5.6742

          k =-0.4167 0.4167-0.2500 (   764 PWs)   bands (ev):

    -4.1832   0.3616   4.1985   5.0434

          k = 0.4167-0.4167 0.5833 (   765 PWs)   bands (ev):

    -3.4960  -0.7676   4.2624   4.6673

          k = 0.2500-0.2500 0.4167 (   769 PWs)   bands (ev):

    -4.5896   1.1991   4.7280   4.7567

          k = 0.0833-0.0833 0.2500 (   765 PWs)   bands (ev):

    -5.4955   4.0998   5.2456   5.4263

          k =-0.0833 0.4167 0.0833 (   770 PWs)   bands (ev):

    -5.0236   2.9026   4.5057   4.5234

          k =-0.2500 0.5833-0.0833 (   763 PWs)   bands (ev):

    -4.1236   1.0777   3.2035   4.1399

          k = 0.5833-0.2500 0.7500 (   759 PWs)   bands (ev):

    -3.0234  -0.6492   2.6049   3.9161

          k = 0.4167-0.0833 0.5833 (   766 PWs)   bands (ev):

    -3.7345   0.3935   2.5675   4.3961

          k = 0.2500 0.0833 0.4167 (   765 PWs)   bands (ev):

    -4.8008   2.0769   3.8927   5.0552

          k =-0.0833 0.7500 0.0833 (   763 PWs)   bands (ev):

    -3.4195   0.2524   3.1698   3.5045

          k = 0.7500-0.0833 0.9167 (   751 PWs)   bands (ev):

    -2.2382  -1.0749   2.3398   3.1041

          k = 0.5833 0.0833 0.7500 (   750 PWs)   bands (ev):

    -2.6078  -0.7376   1.8612   3.6432

          k = 0.4167 0.2500 0.5833 (   763 PWs)   bands (ev):

    -3.6250  -0.2759   3.4936   4.4922

          k =-0.0833-0.9167 0.0833 (   764 PWs)   bands (ev):

    -2.3276  -1.0822   2.9033   3.2912

          k =-0.2500-0.7500-0.0833 (   762 PWs)   bands (ev):

    -3.2536   0.0322   2.6557   3.4409

          k =-0.0833-0.5833 0.0833 (   762 PWs)   bands (ev):

    -4.3265   1.6072   3.7077   3.9228

          k =-0.2500 0.2500 0.2500 (   769 PWs)   bands (ev):

    -5.0353   2.1285   5.2757   5.2757

          k =-0.4167 0.4167 0.0833 (   763 PWs)   bands (ev):

    -4.3640   1.1966   3.1675   5.1072

          k = 0.4167-0.4167 0.9167 (   765 PWs)   bands (ev):

    -3.2002  -0.2346   2.0746   4.3302

          k = 0.2500-0.2500 0.7500 (   763 PWs)   bands (ev):

    -3.1480  -0.3134   2.5461   3.8538

          k =-0.2500 0.5833 0.2500 (   767 PWs)   bands (ev):

    -3.9453   0.3984   3.6222   4.2231

          k = 0.5833-0.2500 1.0833 (   757 PWs)   bands (ev):

    -2.9556  -0.3508   2.1742   3.4398

          k = 0.4167-0.0833 0.9167 (   755 PWs)   bands (ev):

    -2.1346  -1.0826   2.0149   2.7811

          k =-0.2500-1.0833 0.2500 (   756 PWs)   bands (ev):

    -2.3432  -0.9864   1.8900   3.6613

          k =-0.4167 0.4167 0.4167 (   769 PWs)   bands (ev):

    -3.8592  -0.3720   4.8899   4.8899

          k = 0.4167-0.4167 1.2500 (   761 PWs)   bands (ev):

    -3.2627  -0.6742   3.0731   4.4554

     highest occupied level (ev):     5.8836

!    total energy              =     -19.19335398 Ry
     Harris-Foulkes estimate   =     -19.19335398 Ry
     estimated scf accuracy    <          9.5E-09 Ry

     The total energy is the sum of the following terms:

     one-electron contribution =       4.98520798 Ry
     hartree contribution      =       1.12988400 Ry
     xc contribution           =      -8.60195852 Ry
     ewald contribution        =     -16.70648744 Ry

     convergence has been achieved in   5 iterations

     Writing output data file silicon.10.318.save

     init_run     :      0.34s CPU      0.40s WALL (       1 calls)
     electrons    :      1.31s CPU      1.91s WALL (       1 calls)

     Called by init_run:
     wfcinit      :      0.07s CPU      0.09s WALL (       1 calls)
     potinit      :      0.02s CPU      0.02s WALL (       1 calls)

     Called by electrons:
     c_bands      :      0.83s CPU      1.29s WALL (       6 calls)
     sum_band     :      0.29s CPU      0.40s WALL (       6 calls)
     v_of_rho     :      0.07s CPU      0.09s WALL (       6 calls)
     newd         :      0.13s CPU      0.15s WALL (       6 calls)
     mix_rho      :      0.01s CPU      0.01s WALL (       6 calls)

     Called by c_bands:
     init_us_2    :      0.05s CPU      0.06s WALL (     364 calls)
     cegterg      :      0.70s CPU      1.12s WALL (     168 calls)

     Called by sum_band:
     sum_band:bec :      0.00s CPU      0.00s WALL (     168 calls)
     addusdens    :      0.14s CPU      0.17s WALL (       6 calls)

     Called by *egterg:
     h_psi        :      0.61s CPU      0.93s WALL (     516 calls)
     s_psi        :      0.04s CPU      0.05s WALL (     516 calls)
     g_psi        :      0.00s CPU      0.00s WALL (     320 calls)
     cdiaghg      :      0.04s CPU      0.06s WALL (     460 calls)

     Called by h_psi:
     h_psi:pot    :      0.60s CPU      0.93s WALL (     516 calls)
     h_psi:calbec :      0.08s CPU      0.11s WALL (     516 calls)
     vloc_psi     :      0.49s CPU      0.77s WALL (     516 calls)
     add_vuspsi   :      0.04s CPU      0.05s WALL (     516 calls)

     General routines
     calbec       :      0.10s CPU      0.15s WALL (     684 calls)
     fft          :      0.06s CPU      0.08s WALL (      96 calls)
     ffts         :      0.00s CPU      0.00s WALL (      12 calls)
     fftw         :      0.50s CPU      0.81s WALL (    4622 calls)
     interpolate  :      0.01s CPU      0.01s WALL (      12 calls)
     davcio       :      0.00s CPU      0.00s WALL (      28 calls)

     Parallel routines
     fft_scatter  :      0.30s CPU      0.57s WALL (    4730 calls)

     PWSCF        :     1.85s CPU         2.55s WALL


   This run was terminated on:  10:31: 9  10Nov2017            

=------------------------------------------------------------------------------=
   JOB DONE.
=------------------------------------------------------------------------------=
