
     Program PWSCF v.6.1 (svn rev. 13369) starts on 10Nov2017 at 10:28: 2 

     This program is part of the open-source Quantum ESPRESSO suite
     for quantum simulation of materials; please cite
         "P. Giannozzi et al., J. Phys.:Condens. Matter 21 395502 (2009);
          URL http://www.quantum-espresso.org", 
     in publications or presentations arising from this work. More details at
     http://www.quantum-espresso.org/quote

     Parallel version (MPI), running on     4 processors
     R & G space division:  proc/nbgrp/npool/nimage =       4
     Waiting for input...
     Reading input from standard input
     Message from routine read_cards :
     DEPRECATED: no units specified in ATOMIC_POSITIONS card
     Message from routine read_cards :
     ATOMIC_POSITIONS: units set to alat

     Current dimensions of program PWSCF are:
     Max number of different atomic species (ntypx) = 10
     Max number of k-points (npk) =  40000
     Max angular momentum in pseudopotentials (lmaxx) =  3

     Subspace diagonalization in iterative solution of the eigenvalue problem:
     a serial algorithm will be used


     Parallelization info
     --------------------
     sticks:   dense  smooth     PW     G-vecs:    dense   smooth      PW
     Min         211     107     37                 4088     1454     284
     Max         212     109     38                 4091     1455     285
     Sum         847     433    151                16361     5817    1139



     bravais-lattice index     =            2
     lattice parameter (alat)  =      10.1400  a.u.
     unit-cell volume          =     260.6477 (a.u.)^3
     number of atoms/cell      =            2
     number of atomic types    =            1
     number of electrons       =         8.00
     number of Kohn-Sham states=            4
     kinetic-energy cutoff     =      30.0000  Ry
     charge density cutoff     =     240.0000  Ry
     convergence threshold     =      1.0E-08
     mixing beta               =       0.7000
     number of iterations used =            8  plain     mixing
     Exchange-correlation      = SLA  PW   PBE  PBE ( 1  4  3  4 0 0)

     celldm(1)=  10.140000  celldm(2)=   0.000000  celldm(3)=   0.000000
     celldm(4)=   0.000000  celldm(5)=   0.000000  celldm(6)=   0.000000

     crystal axes: (cart. coord. in units of alat)
               a(1) = (  -0.500000   0.000000   0.500000 )  
               a(2) = (   0.000000   0.500000   0.500000 )  
               a(3) = (  -0.500000   0.500000   0.000000 )  

     reciprocal axes: (cart. coord. in units 2 pi/alat)
               b(1) = ( -1.000000 -1.000000  1.000000 )  
               b(2) = (  1.000000  1.000000  1.000000 )  
               b(3) = ( -1.000000  1.000000 -1.000000 )  


     PseudoPot. # 1 for Si read from file:
     /home/max/quantum_espresso/qe-6.1/pseudo/si_pbe_v1.uspp.F.UPF.txt
     MD5 check sum: a056efeee980c13900f22a371efd63c1
     Pseudo is Ultrasoft + core correction, Zval =  4.0
     Generated by new atomic code, or converted to UPF format
     Using radial grid of  899 points,  6 beta functions with: 
                l(1) =   0
                l(2) =   0
                l(3) =   1
                l(4) =   1
                l(5) =   2
                l(6) =   2
     Q(r) pseudized with  8 coefficients,  rinner =    0.900   0.900   0.900
                                                       0.900   0.900

     atomic species   valence    mass     pseudopotential
        Si             4.00    28.08600     Si( 1.00)

     48 Sym. Ops., with inversion, found (24 have fractional translation)



   Cartesian axes

     site n.     atom                  positions (alat units)
         1           Si  tau(   1) = (   0.0000000   0.0000000   0.0000000  )
         2           Si  tau(   2) = (   0.2500000   0.2500000   0.2500000  )

     number of k points=    28
                       cart. coord. in units 2pi/alat
        k(    1) = (  -0.0833333   0.0833333   0.0833333), wk =   0.0185185
        k(    2) = (  -0.2500000   0.2500000  -0.0833333), wk =   0.0555556
        k(    3) = (  -0.4166667   0.4166667  -0.2500000), wk =   0.0555556
        k(    4) = (   0.4166667  -0.4166667   0.5833333), wk =   0.0555556
        k(    5) = (   0.2500000  -0.2500000   0.4166667), wk =   0.0555556
        k(    6) = (   0.0833333  -0.0833333   0.2500000), wk =   0.0555556
        k(    7) = (  -0.0833333   0.4166667   0.0833333), wk =   0.0555556
        k(    8) = (  -0.2500000   0.5833333  -0.0833333), wk =   0.1111111
        k(    9) = (   0.5833333  -0.2500000   0.7500000), wk =   0.1111111
        k(   10) = (   0.4166667  -0.0833333   0.5833333), wk =   0.1111111
        k(   11) = (   0.2500000   0.0833333   0.4166667), wk =   0.1111111
        k(   12) = (  -0.0833333   0.7500000   0.0833333), wk =   0.0555556
        k(   13) = (   0.7500000  -0.0833333   0.9166667), wk =   0.1111111
        k(   14) = (   0.5833333   0.0833333   0.7500000), wk =   0.1111111
        k(   15) = (   0.4166667   0.2500000   0.5833333), wk =   0.1111111
        k(   16) = (  -0.0833333  -0.9166667   0.0833333), wk =   0.0555556
        k(   17) = (  -0.2500000  -0.7500000  -0.0833333), wk =   0.1111111
        k(   18) = (  -0.0833333  -0.5833333   0.0833333), wk =   0.0555556
        k(   19) = (  -0.2500000   0.2500000   0.2500000), wk =   0.0185185
        k(   20) = (  -0.4166667   0.4166667   0.0833333), wk =   0.0555556
        k(   21) = (   0.4166667  -0.4166667   0.9166667), wk =   0.0555556
        k(   22) = (   0.2500000  -0.2500000   0.7500000), wk =   0.0555556
        k(   23) = (  -0.2500000   0.5833333   0.2500000), wk =   0.0555556
        k(   24) = (   0.5833333  -0.2500000   1.0833333), wk =   0.1111111
        k(   25) = (   0.4166667  -0.0833333   0.9166667), wk =   0.1111111
        k(   26) = (  -0.2500000  -1.0833333   0.2500000), wk =   0.0555556
        k(   27) = (  -0.4166667   0.4166667   0.4166667), wk =   0.0185185
        k(   28) = (   0.4166667  -0.4166667   1.2500000), wk =   0.0555556

     Dense  grid:    16361 G-vectors     FFT dimensions: (  36,  36,  36)

     Smooth grid:     5817 G-vectors     FFT dimensions: (  25,  25,  25)

     Estimated max dynamical RAM per process >       2.93MB

     Estimated total allocated dynamical RAM >      11.73MB

     Initial potential from superposition of free atoms

     starting charge    7.99866, renormalised to    8.00000
     Starting wfc are    8 randomized atomic wfcs

     total cpu time spent up to now is        0.5 secs

     per-process dynamical memory:    10.0 Mb

     Self-consistent Calculation

     iteration #  1     ecut=    30.00 Ry     beta=0.70
     Davidson diagonalization with overlap
     ethr =  1.00E-02,  avg # of iterations =  2.0

     Threshold (ethr) on eigenvalues was too large:
     Diagonalizing with lowered threshold

     Davidson diagonalization with overlap
     ethr =  7.44E-04,  avg # of iterations =  1.0

     total cpu time spent up to now is        0.9 secs

     total energy              =     -19.18798319 Ry
     Harris-Foulkes estimate   =     -19.20286471 Ry
     estimated scf accuracy    <       0.05879549 Ry

     iteration #  2     ecut=    30.00 Ry     beta=0.70
     Davidson diagonalization with overlap
     ethr =  7.35E-04,  avg # of iterations =  1.0

     total cpu time spent up to now is        1.1 secs

     total energy              =     -19.19016204 Ry
     Harris-Foulkes estimate   =     -19.19032860 Ry
     estimated scf accuracy    <       0.00242955 Ry

     iteration #  3     ecut=    30.00 Ry     beta=0.70
     Davidson diagonalization with overlap
     ethr =  3.04E-05,  avg # of iterations =  2.2

     total cpu time spent up to now is        1.8 secs

     total energy              =     -19.19055004 Ry
     Harris-Foulkes estimate   =     -19.19056741 Ry
     estimated scf accuracy    <       0.00005222 Ry

     iteration #  4     ecut=    30.00 Ry     beta=0.70
     Davidson diagonalization with overlap
     ethr =  6.53E-07,  avg # of iterations =  3.4

     total cpu time spent up to now is        2.1 secs

     total energy              =     -19.19059313 Ry
     Harris-Foulkes estimate   =     -19.19059492 Ry
     estimated scf accuracy    <       0.00000556 Ry

     iteration #  5     ecut=    30.00 Ry     beta=0.70
     Davidson diagonalization with overlap
     ethr =  6.95E-08,  avg # of iterations =  2.0

     total cpu time spent up to now is        2.3 secs

     total energy              =     -19.19059389 Ry
     Harris-Foulkes estimate   =     -19.19059389 Ry
     estimated scf accuracy    <       0.00000003 Ry

     iteration #  6     ecut=    30.00 Ry     beta=0.70
     Davidson diagonalization with overlap
     ethr =  3.14E-10,  avg # of iterations =  3.7

     total cpu time spent up to now is        2.6 secs

     End of self-consistent calculation

          k =-0.0833 0.0833 0.0833 (   728 PWs)   bands (ev):

    -5.5425   5.7132   6.4251   6.4251

          k =-0.2500 0.2500-0.0833 (   723 PWs)   bands (ev):

    -5.0491   3.5982   5.1409   6.2142

          k =-0.4167 0.4167-0.2500 (   735 PWs)   bands (ev):

    -3.9133   0.7410   4.6751   5.5550

          k = 0.4167-0.4167 0.5833 (   725 PWs)   bands (ev):

    -3.1764  -0.4553   4.7525   5.1577

          k = 0.2500-0.2500 0.4167 (   726 PWs)   bands (ev):

    -4.3428   1.6185   5.2132   5.2699

          k = 0.0833-0.0833 0.2500 (   717 PWs)   bands (ev):

    -5.2935   4.6386   5.7488   5.9620

          k =-0.0833 0.4167 0.0833 (   717 PWs)   bands (ev):

    -4.7997   3.4391   4.9906   4.9911

          k =-0.2500 0.5833-0.0833 (   728 PWs)   bands (ev):

    -3.8555   1.5498   3.6112   4.5934

          k = 0.5833-0.2500 0.7500 (   722 PWs)   bands (ev):

    -2.6840  -0.2881   3.0020   4.3526

          k = 0.4167-0.0833 0.5833 (   721 PWs)   bands (ev):

    -3.4433   0.8250   2.9418   4.8642

          k = 0.2500 0.0833 0.4167 (   724 PWs)   bands (ev):

    -4.5656   2.5588   4.3364   5.5678

          k =-0.0833 0.7500 0.0833 (   726 PWs)   bands (ev):

    -3.1201   0.7224   3.5663   3.9275

          k = 0.7500-0.0833 0.9167 (   728 PWs)   bands (ev):

    -1.8752  -0.6606   2.6785   3.4962

          k = 0.5833 0.0833 0.7500 (   720 PWs)   bands (ev):

    -2.2493  -0.3351   2.1801   4.0651

          k = 0.4167 0.2500 0.5833 (   725 PWs)   bands (ev):

    -3.3219   0.0813   3.9455   4.9686

          k =-0.0833-0.9167 0.0833 (   724 PWs)   bands (ev):

    -1.9758  -0.6716   3.2856   3.7052

          k =-0.2500-0.7500-0.0833 (   724 PWs)   bands (ev):

    -2.9423   0.4869   3.0229   3.8490

          k =-0.0833-0.5833 0.0833 (   720 PWs)   bands (ev):

    -4.0700   2.1241   4.1375   4.3636

          k =-0.2500 0.2500 0.2500 (   721 PWs)   bands (ev):

    -4.8109   2.5788   5.7913   5.7913

          k =-0.4167 0.4167 0.0833 (   729 PWs)   bands (ev):

    -4.1063   1.6452   3.5750   5.6198

          k = 0.4167-0.4167 0.9167 (   718 PWs)   bands (ev):

    -2.8765   0.1729   2.4169   4.7987

          k = 0.2500-0.2500 0.7500 (   713 PWs)   bands (ev):

    -2.8247   0.0920   2.9232   4.2956

          k =-0.2500 0.5833 0.2500 (   722 PWs)   bands (ev):

    -3.6650   0.8032   4.0809   4.6826

          k = 0.5833-0.2500 1.0833 (   723 PWs)   bands (ev):

    -2.6221   0.0744   2.5179   3.8417

          k = 0.4167-0.0833 0.9167 (   720 PWs)   bands (ev):

    -1.7569  -0.6686   2.3323   3.1417

          k =-0.2500-1.0833 0.2500 (   722 PWs)   bands (ev):

    -1.9739  -0.5838   2.2013   4.0940

          k =-0.4167 0.4167 0.4167 (   730 PWs)   bands (ev):

    -3.5663  -0.0380   5.3943   5.3943

          k = 0.4167-0.4167 1.2500 (   720 PWs)   bands (ev):

    -2.9332  -0.3382   3.5013   4.9319

     highest occupied level (ev):     6.4251

!    total energy              =     -19.19059393 Ry
     Harris-Foulkes estimate   =     -19.19059394 Ry
     estimated scf accuracy    <          2.1E-09 Ry

     The total energy is the sum of the following terms:

     one-electron contribution =       5.38947016 Ry
     hartree contribution      =       1.08446404 Ry
     xc contribution           =      -8.66477099 Ry
     ewald contribution        =     -16.99975714 Ry

     convergence has been achieved in   6 iterations

     Writing output data file silicon.10.14.save

     init_run     :      0.33s CPU      0.38s WALL (       1 calls)
     electrons    :      1.51s CPU      2.18s WALL (       1 calls)

     Called by init_run:
     wfcinit      :      0.07s CPU      0.09s WALL (       1 calls)
     potinit      :      0.02s CPU      0.02s WALL (       1 calls)

     Called by electrons:
     c_bands      :      0.95s CPU      1.46s WALL (       7 calls)
     sum_band     :      0.31s CPU      0.41s WALL (       7 calls)
     v_of_rho     :      0.10s CPU      0.13s WALL (       7 calls)
     newd         :      0.15s CPU      0.18s WALL (       7 calls)
     mix_rho      :      0.01s CPU      0.01s WALL (       7 calls)

     Called by c_bands:
     init_us_2    :      0.05s CPU      0.06s WALL (     420 calls)
     cegterg      :      0.83s CPU      1.31s WALL (     196 calls)

     Called by sum_band:
     sum_band:bec :      0.00s CPU      0.00s WALL (     196 calls)
     addusdens    :      0.14s CPU      0.19s WALL (       7 calls)

     Called by *egterg:
     h_psi        :      0.68s CPU      1.03s WALL (     653 calls)
     s_psi        :      0.05s CPU      0.05s WALL (     653 calls)
     g_psi        :      0.00s CPU      0.00s WALL (     429 calls)
     cdiaghg      :      0.06s CPU      0.10s WALL (     597 calls)

     Called by h_psi:
     h_psi:pot    :      0.67s CPU      1.03s WALL (     653 calls)
     h_psi:calbec :      0.07s CPU      0.12s WALL (     653 calls)
     vloc_psi     :      0.55s CPU      0.85s WALL (     653 calls)
     add_vuspsi   :      0.05s CPU      0.06s WALL (     653 calls)

     General routines
     calbec       :      0.09s CPU      0.15s WALL (     849 calls)
     fft          :      0.08s CPU      0.11s WALL (     112 calls)
     ffts         :      0.00s CPU      0.00s WALL (      14 calls)
     fftw         :      0.56s CPU      0.88s WALL (    5656 calls)
     interpolate  :      0.01s CPU      0.01s WALL (      14 calls)
     davcio       :      0.00s CPU      0.00s WALL (      28 calls)

     Parallel routines
     fft_scatter  :      0.31s CPU      0.60s WALL (    5782 calls)

     PWSCF        :     2.04s CPU         2.78s WALL


   This run was terminated on:  10:28: 5  10Nov2017            

=------------------------------------------------------------------------------=
   JOB DONE.
=------------------------------------------------------------------------------=
