
     Program PHONON v.6.1 (svn rev. 13369) starts on  9Nov2017 at 12:34:26 

     This program is part of the open-source Quantum ESPRESSO suite
     for quantum simulation of materials; please cite
         "P. Giannozzi et al., J. Phys.:Condens. Matter 21 395502 (2009);
          URL http://www.quantum-espresso.org", 
     in publications or presentations arising from this work. More details at
     http://www.quantum-espresso.org/quote

     Parallel version (MPI), running on     4 processors
     R & G space division:  proc/nbgrp/npool/nimage =       4

     Reading data from directory:
     ./silicon.10.339.save

   Info: using nr1, nr2, nr3 values from input

   Info: using nr1, nr2, nr3 values from input

     IMPORTANT: XC functional enforced from input :
     Exchange-correlation      = SLA  PW   PBE  PBE ( 1  4  3  4 0 0)
     Any further DFT definition will be discarded
     Please, verify this is what you really want


     Parallelization info
     --------------------
     sticks:   dense  smooth     PW     G-vecs:    dense   smooth      PW
     Min          63      63     22                  684      684     140
     Max          64      64     23                  688      688     141
     Sum         253     253     91                 2741     2741     561


     Check: negative/imaginary core charge=   -0.000005    0.000000


     Dynamical matrices for ( 4, 4, 4)  uniform grid of q-points
     (   8q-points):
       N         xq(1)         xq(2)         xq(3) 
       1   0.000000000   0.000000000   0.000000000
       2  -0.250000000   0.250000000  -0.250000000
       3   0.500000000  -0.500000000   0.500000000
       4   0.000000000   0.500000000   0.000000000
       5   0.750000000  -0.250000000   0.750000000
       6   0.500000000   0.000000000   0.500000000
       7   0.000000000  -1.000000000   0.000000000
       8  -0.500000000  -1.000000000   0.000000000

     Calculation of q =    0.0000000   0.0000000   0.0000000

                                                                                

     bravais-lattice index     =            2
     lattice parameter (alat)  =      10.3390  a.u.
     unit-cell volume          =     276.2966 (a.u.)^3
     number of atoms/cell      =            2
     number of atomic types    =            1
     kinetic-energy cut-off    =      18.0000  Ry
     charge density cut-off    =      72.0000  Ry
     convergence threshold     =      1.0E-12
     beta                      =       0.7000
     number of iterations used =            4
     Exchange-correlation      = SLA  PW   PBE  PBE ( 1  4  3  4 0 0)


     celldm(1)=   10.33900  celldm(2)=    0.00000  celldm(3)=    0.00000
     celldm(4)=    0.00000  celldm(5)=    0.00000  celldm(6)=    0.00000

     crystal axes: (cart. coord. in units of alat)
               a(1) = ( -0.5000  0.0000  0.5000 )  
               a(2) = (  0.0000  0.5000  0.5000 )  
               a(3) = ( -0.5000  0.5000  0.0000 )  

     reciprocal axes: (cart. coord. in units 2 pi/alat)
               b(1) = ( -1.0000 -1.0000  1.0000 )  
               b(2) = (  1.0000  1.0000  1.0000 )  
               b(3) = ( -1.0000  1.0000 -1.0000 )  


     Atoms inside the unit cell: 

     Cartesian axes

     site n.  atom      mass           positions (alat units)
        1     Si  28.0860   tau(    1) = (    0.00000    0.00000    0.00000  )
        2     Si  28.0860   tau(    2) = (    0.25000    0.25000    0.25000  )

     Computing dynamical matrix for 
                    q = (   0.0000000   0.0000000   0.0000000 )

     49 Sym.Ops. (with q -> -q+G )


     G cutoff =  194.9530  (    685 G-vectors)     FFT grid: ( 20, 20, 20)
     number of k points=    10

     PseudoPot. # 1 for Si read from file:
     /home/max/quantum_espresso/qe-6.1/pseudo/si_pbe_v1.uspp.F.UPF.txt
     MD5 check sum: a056efeee980c13900f22a371efd63c1
     Pseudo is Ultrasoft + core correction, Zval =  4.0
     Generated by new atomic code, or converted to UPF format
     Using radial grid of  899 points,  6 beta functions with: 
                l(1) =   0
                l(2) =   0
                l(3) =   1
                l(4) =   1
                l(5) =   2
                l(6) =   2
     Q(r) pseudized with  8 coefficients,  rinner =    0.900   0.900   0.900
                                                       0.900   0.900

     Mode symmetry, O_h (m-3m)  point group:


     Electric field:
     Dielectric constant
     Born effective charges in two ways 


     Atomic displacements:
     There are   2 irreducible representations

     Representation     1      3 modes -T_2g G_25' G_5+  To be done

     Representation     2      3 modes -T_1u G_15  G_4-  To be done



     Alpha used in Ewald sum =   0.7000
     PHONON       :     0.40s CPU         0.43s WALL


     Electric Fields Calculation

      iter #   1 total cpu time :     1.0 secs   av.it.:   5.6
      thresh= 1.000E-02 alpha_mix =  0.700 |ddv_scf|^2 =  9.059E-07

      iter #   2 total cpu time :     1.2 secs   av.it.:   9.9
      thresh= 9.518E-05 alpha_mix =  0.700 |ddv_scf|^2 =  5.589E-08

      iter #   3 total cpu time :     1.4 secs   av.it.:   9.8
      thresh= 2.364E-05 alpha_mix =  0.700 |ddv_scf|^2 =  4.243E-09

      iter #   4 total cpu time :     1.6 secs   av.it.:   9.0
      thresh= 6.514E-06 alpha_mix =  0.700 |ddv_scf|^2 =  2.514E-11

      iter #   5 total cpu time :     1.8 secs   av.it.:   9.2
      thresh= 5.014E-07 alpha_mix =  0.700 |ddv_scf|^2 =  1.335E-14

     End of electric fields calculation

          Dielectric constant in cartesian axis 

          (      13.882212175       0.000000000       0.000000000 )
          (       0.000000000      13.882212175      -0.000000000 )
          (       0.000000000      -0.000000000      13.882212175 )

          Effective charges (d Force / dE) in cartesian axis

           atom      1   Si 
      Ex  (       -0.03104       -0.00000       -0.00000 )
      Ey  (       -0.00000       -0.03104        0.00000 )
      Ez  (        0.00000        0.00000       -0.03104 )
           atom      2   Si 
      Ex  (       -0.03104        0.00000       -0.00000 )
      Ey  (        0.00000       -0.03104        0.00000 )
      Ez  (        0.00000        0.00000       -0.03104 )


     Representation #  1 modes #   1  2  3

     Self-consistent Calculation

      iter #   1 total cpu time :     2.2 secs   av.it.:   4.9
      thresh= 1.000E-02 alpha_mix =  0.700 |ddv_scf|^2 =  2.261E-07

      iter #   2 total cpu time :     2.4 secs   av.it.:   9.8
      thresh= 4.755E-05 alpha_mix =  0.700 |ddv_scf|^2 =  1.403E-08

      iter #   3 total cpu time :     2.8 secs   av.it.:   9.3
      thresh= 1.185E-05 alpha_mix =  0.700 |ddv_scf|^2 =  8.629E-10

      iter #   4 total cpu time :     3.0 secs   av.it.:   9.0
      thresh= 2.938E-06 alpha_mix =  0.700 |ddv_scf|^2 =  1.897E-12

      iter #   5 total cpu time :     3.2 secs   av.it.:   9.4
      thresh= 1.377E-07 alpha_mix =  0.700 |ddv_scf|^2 =  1.234E-14

     End of self-consistent calculation

     Convergence has been achieved 


     Representation #  2 modes #   4  5  6

     Self-consistent Calculation

      iter #   1 total cpu time :     3.4 secs   av.it.:   5.0
      thresh= 1.000E-02 alpha_mix =  0.700 |ddv_scf|^2 =  1.712E-07

      iter #   2 total cpu time :     3.6 secs   av.it.:   9.6
      thresh= 4.138E-05 alpha_mix =  0.700 |ddv_scf|^2 =  1.338E-08

      iter #   3 total cpu time :     3.8 secs   av.it.:   9.3
      thresh= 1.157E-05 alpha_mix =  0.700 |ddv_scf|^2 =  8.520E-10

      iter #   4 total cpu time :     4.0 secs   av.it.:   9.5
      thresh= 2.919E-06 alpha_mix =  0.700 |ddv_scf|^2 =  5.102E-12

      iter #   5 total cpu time :     4.2 secs   av.it.:   9.0
      thresh= 2.259E-07 alpha_mix =  0.700 |ddv_scf|^2 =  4.451E-15

     End of self-consistent calculation

     Convergence has been achieved 

     Number of q in the star =    1
     List of q in the star:
          1   0.000000000   0.000000000   0.000000000

          Dielectric constant in cartesian axis 

          (      13.882212175       0.000000000       0.000000000 )
          (       0.000000000      13.882212175      -0.000000000 )
          (       0.000000000      -0.000000000      13.882212175 )

          Effective charges (d Force / dE) in cartesian axis

           atom      1   Si 
      Ex  (       -0.03104       -0.00000       -0.00000 )
      Ey  (       -0.00000       -0.03104        0.00000 )
      Ez  (        0.00000        0.00000       -0.03104 )
           atom      2   Si 
      Ex  (       -0.03104        0.00000       -0.00000 )
      Ey  (        0.00000       -0.03104        0.00000 )
      Ez  (        0.00000        0.00000       -0.03104 )

          Effective charges (d P / du) in cartesian axis 

           atom      1   Si 
      Px  (       -0.07271       -0.00000        0.00000 )
      Py  (       -0.00000       -0.07271        0.00000 )
      Pz  (        0.00000       -0.00000       -0.07271 )
           atom      2   Si 
      Px  (       -0.07271        0.00000        0.00000 )
      Py  (        0.00000       -0.07271       -0.00000 )
      Pz  (        0.00000       -0.00000       -0.07271 )

     Diagonalizing the dynamical matrix

     q = (    0.000000000   0.000000000   0.000000000 ) 

 **************************************************************************
     freq (    1) =       1.950512 [THz] =      65.062082 [cm-1]
     freq (    2) =       1.950512 [THz] =      65.062082 [cm-1]
     freq (    3) =       1.950512 [THz] =      65.062082 [cm-1]
     freq (    4) =      14.985885 [THz] =     499.875312 [cm-1]
     freq (    5) =      14.985885 [THz] =     499.875312 [cm-1]
     freq (    6) =      14.985885 [THz] =     499.875312 [cm-1]
 **************************************************************************

     Mode symmetry, O_h (m-3m)  point group:

     freq (  1 -  3) =         65.1  [cm-1]   --> T_1u G_15  G_4- I  
     freq (  4 -  6) =        499.9  [cm-1]   --> T_2g G_25' G_5+ R  

     Calculation of q =   -0.2500000   0.2500000  -0.2500000

   Info: using nr1, nr2, nr3 values from input

   Info: using nr1, nr2, nr3 values from input

     Parallelization info
     --------------------
     sticks:   dense  smooth     PW     G-vecs:    dense   smooth      PW
     Min          63      63     24                  684      684     161
     Max          64      64     25                  688      688     162
     Sum         253     253     97                 2741     2741     645



     bravais-lattice index     =            2
     lattice parameter (alat)  =      10.3390  a.u.
     unit-cell volume          =     276.2966 (a.u.)^3
     number of atoms/cell      =            2
     number of atomic types    =            1
     number of electrons       =         8.00
     number of Kohn-Sham states=            4
     kinetic-energy cutoff     =      18.0000  Ry
     charge density cutoff     =      72.0000  Ry
     Exchange-correlation      = SLA  PW   PBE  PBE ( 1  4  3  4 0 0)

     celldm(1)=  10.339000  celldm(2)=   0.000000  celldm(3)=   0.000000
     celldm(4)=   0.000000  celldm(5)=   0.000000  celldm(6)=   0.000000

     crystal axes: (cart. coord. in units of alat)
               a(1) = (  -0.500000   0.000000   0.500000 )  
               a(2) = (   0.000000   0.500000   0.500000 )  
               a(3) = (  -0.500000   0.500000   0.000000 )  

     reciprocal axes: (cart. coord. in units 2 pi/alat)
               b(1) = ( -1.000000 -1.000000  1.000000 )  
               b(2) = (  1.000000  1.000000  1.000000 )  
               b(3) = ( -1.000000  1.000000 -1.000000 )  


     PseudoPot. # 1 for Si read from file:
     /home/max/quantum_espresso/qe-6.1/pseudo/si_pbe_v1.uspp.F.UPF.txt
     MD5 check sum: a056efeee980c13900f22a371efd63c1
     Pseudo is Ultrasoft + core correction, Zval =  4.0
     Generated by new atomic code, or converted to UPF format
     Using radial grid of  899 points,  6 beta functions with: 
                l(1) =   0
                l(2) =   0
                l(3) =   1
                l(4) =   1
                l(5) =   2
                l(6) =   2
     Q(r) pseudized with  8 coefficients,  rinner =    0.900   0.900   0.900
                                                       0.900   0.900

     atomic species   valence    mass     pseudopotential
        Si             4.00    28.08600     Si( 1.00)

     48 Sym. Ops., with inversion, found



   Cartesian axes

     site n.     atom                  positions (alat units)
         1           Si  tau(   1) = (   0.0000000   0.0000000   0.0000000  )
         2           Si  tau(   2) = (   0.2500000   0.2500000   0.2500000  )

     number of k points=   120

     Number of k-points >= 100: set verbosity='high' to print them.

     Dense  grid:     2741 G-vectors     FFT dimensions: (  20,  20,  20)

     Estimated max dynamical RAM per process >       0.33MB

     Estimated total allocated dynamical RAM >       1.31MB

     Check: negative/imaginary core charge=   -0.000005    0.000000

     The potential is recalculated from file :
     ./_ph0/silicon.10.339.save/charge-density.dat

     Starting wfc are    8 atomic wfcs

     Band Structure Calculation
     Davidson diagonalization with overlap

     ethr =  1.25E-10,  avg # of iterations = 11.7

     total cpu time spent up to now is        1.0 secs

     End of band structure calculation

     Number of k-points >= 100: set verbosity='high' to print the bands.

     highest occupied level (ev):     5.6843

     Writing output data file silicon.10.339.save

                                                                                

     bravais-lattice index     =            2
     lattice parameter (alat)  =      10.3390  a.u.
     unit-cell volume          =     276.2966 (a.u.)^3
     number of atoms/cell      =            2
     number of atomic types    =            1
     kinetic-energy cut-off    =      18.0000  Ry
     charge density cut-off    =      72.0000  Ry
     convergence threshold     =      1.0E-12
     beta                      =       0.7000
     number of iterations used =            4
     Exchange-correlation      = SLA  PW   PBE  PBE ( 1  4  3  4 0 0)


     celldm(1)=   10.33900  celldm(2)=    0.00000  celldm(3)=    0.00000
     celldm(4)=    0.00000  celldm(5)=    0.00000  celldm(6)=    0.00000

     crystal axes: (cart. coord. in units of alat)
               a(1) = ( -0.5000  0.0000  0.5000 )  
               a(2) = (  0.0000  0.5000  0.5000 )  
               a(3) = ( -0.5000  0.5000  0.0000 )  

     reciprocal axes: (cart. coord. in units 2 pi/alat)
               b(1) = ( -1.0000 -1.0000  1.0000 )  
               b(2) = (  1.0000  1.0000  1.0000 )  
               b(3) = ( -1.0000  1.0000 -1.0000 )  


     Atoms inside the unit cell: 

     Cartesian axes

     site n.  atom      mass           positions (alat units)
        1     Si  28.0860   tau(    1) = (    0.00000    0.00000    0.00000  )
        2     Si  28.0860   tau(    2) = (    0.25000    0.25000    0.25000  )

     Computing dynamical matrix for 
                    q = (  -0.2500000   0.2500000  -0.2500000 )

      6 Sym.Ops. (no q -> -q+G )


     G cutoff =  194.9530  (    685 G-vectors)     FFT grid: ( 20, 20, 20)
     number of k points=   120

     PseudoPot. # 1 for Si read from file:
     /home/max/quantum_espresso/qe-6.1/pseudo/si_pbe_v1.uspp.F.UPF.txt
     MD5 check sum: a056efeee980c13900f22a371efd63c1
     Pseudo is Ultrasoft + core correction, Zval =  4.0
     Generated by new atomic code, or converted to UPF format
     Using radial grid of  899 points,  6 beta functions with: 
                l(1) =   0
                l(2) =   0
                l(3) =   1
                l(4) =   1
                l(5) =   2
                l(6) =   2
     Q(r) pseudized with  8 coefficients,  rinner =    0.900   0.900   0.900
                                                       0.900   0.900

     Mode symmetry, C_3v (3m)   point group:


     Atomic displacements:
     There are   4 irreducible representations

     Representation     1      1 modes -A_1  L_1  To be done

     Representation     2      1 modes -A_1  L_1  To be done

     Representation     3      2 modes -E    L_3  To be done

     Representation     4      2 modes -E    L_3  To be done



     Alpha used in Ewald sum =   0.7000
     PHONON       :     5.28s CPU         5.79s WALL



     Representation #  1 mode #   1

     Self-consistent Calculation

      iter #   1 total cpu time :     6.0 secs   av.it.:   5.5
      thresh= 1.000E-02 alpha_mix =  0.700 |ddv_scf|^2 =  2.467E-03

      iter #   2 total cpu time :     6.3 secs   av.it.:   7.5
      thresh= 4.967E-03 alpha_mix =  0.700 |ddv_scf|^2 =  3.725E-02

      iter #   3 total cpu time :     6.6 secs   av.it.:   6.3
      thresh= 1.000E-02 alpha_mix =  0.700 |ddv_scf|^2 =  1.717E-06

      iter #   4 total cpu time :     7.0 secs   av.it.:   8.2
      thresh= 1.310E-04 alpha_mix =  0.700 |ddv_scf|^2 =  1.150E-07

      iter #   5 total cpu time :     7.3 secs   av.it.:   8.1
      thresh= 3.392E-05 alpha_mix =  0.700 |ddv_scf|^2 =  4.391E-09

      iter #   6 total cpu time :     7.6 secs   av.it.:   8.0
      thresh= 6.626E-06 alpha_mix =  0.700 |ddv_scf|^2 =  4.743E-09

      iter #   7 total cpu time :     7.9 secs   av.it.:   6.1
      thresh= 6.887E-06 alpha_mix =  0.700 |ddv_scf|^2 =  4.319E-10

      iter #   8 total cpu time :     8.1 secs   av.it.:   7.3
      thresh= 2.078E-06 alpha_mix =  0.700 |ddv_scf|^2 =  3.640E-12

      iter #   9 total cpu time :     8.4 secs   av.it.:   7.2
      thresh= 1.908E-07 alpha_mix =  0.700 |ddv_scf|^2 =  1.281E-13

     End of self-consistent calculation

     Convergence has been achieved 


     Representation #  2 mode #   2

     Self-consistent Calculation

      iter #   1 total cpu time :     8.9 secs   av.it.:   5.5
      thresh= 1.000E-02 alpha_mix =  0.700 |ddv_scf|^2 =  2.467E-03

      iter #   2 total cpu time :     9.1 secs   av.it.:   7.5
      thresh= 4.967E-03 alpha_mix =  0.700 |ddv_scf|^2 =  3.725E-02

      iter #   3 total cpu time :     9.4 secs   av.it.:   6.3
      thresh= 1.000E-02 alpha_mix =  0.700 |ddv_scf|^2 =  1.717E-06

      iter #   4 total cpu time :     9.7 secs   av.it.:   8.2
      thresh= 1.310E-04 alpha_mix =  0.700 |ddv_scf|^2 =  1.150E-07

      iter #   5 total cpu time :    10.0 secs   av.it.:   8.1
      thresh= 3.392E-05 alpha_mix =  0.700 |ddv_scf|^2 =  4.391E-09

      iter #   6 total cpu time :    10.3 secs   av.it.:   8.0
      thresh= 6.626E-06 alpha_mix =  0.700 |ddv_scf|^2 =  4.743E-09

      iter #   7 total cpu time :    10.5 secs   av.it.:   6.1
      thresh= 6.887E-06 alpha_mix =  0.700 |ddv_scf|^2 =  4.319E-10

      iter #   8 total cpu time :    11.0 secs   av.it.:   7.3
      thresh= 2.078E-06 alpha_mix =  0.700 |ddv_scf|^2 =  3.640E-12

      iter #   9 total cpu time :    11.2 secs   av.it.:   7.2
      thresh= 1.908E-07 alpha_mix =  0.700 |ddv_scf|^2 =  1.281E-13

     End of self-consistent calculation

     Convergence has been achieved 


     Representation #  3 modes #   3  4

     Self-consistent Calculation

      iter #   1 total cpu time :    11.7 secs   av.it.:   4.9
      thresh= 1.000E-02 alpha_mix =  0.700 |ddv_scf|^2 =  5.578E-07

      iter #   2 total cpu time :    12.4 secs   av.it.:   9.5
      thresh= 7.469E-05 alpha_mix =  0.700 |ddv_scf|^2 =  4.123E-08

      iter #   3 total cpu time :    13.2 secs   av.it.:   9.2
      thresh= 2.030E-05 alpha_mix =  0.700 |ddv_scf|^2 =  3.546E-09

      iter #   4 total cpu time :    13.8 secs   av.it.:   9.0
      thresh= 5.955E-06 alpha_mix =  0.700 |ddv_scf|^2 =  1.089E-11

      iter #   5 total cpu time :    14.5 secs   av.it.:   9.2
      thresh= 3.299E-07 alpha_mix =  0.700 |ddv_scf|^2 =  4.944E-13

     End of self-consistent calculation

     Convergence has been achieved 


     Representation #  4 modes #   5  6

     Self-consistent Calculation

      iter #   1 total cpu time :    15.1 secs   av.it.:   5.0
      thresh= 1.000E-02 alpha_mix =  0.700 |ddv_scf|^2 =  5.577E-07

      iter #   2 total cpu time :    15.8 secs   av.it.:   9.6
      thresh= 7.468E-05 alpha_mix =  0.700 |ddv_scf|^2 =  4.119E-08

      iter #   3 total cpu time :    16.4 secs   av.it.:   9.4
      thresh= 2.029E-05 alpha_mix =  0.700 |ddv_scf|^2 =  3.543E-09

      iter #   4 total cpu time :    17.2 secs   av.it.:   9.1
      thresh= 5.952E-06 alpha_mix =  0.700 |ddv_scf|^2 =  1.089E-11

      iter #   5 total cpu time :    17.9 secs   av.it.:   9.2
      thresh= 3.300E-07 alpha_mix =  0.700 |ddv_scf|^2 =  4.947E-13

     End of self-consistent calculation

     Convergence has been achieved 

     Number of q in the star =    8
     List of q in the star:
          1  -0.250000000   0.250000000  -0.250000000
          2   0.250000000  -0.250000000  -0.250000000
          3   0.250000000  -0.250000000   0.250000000
          4   0.250000000   0.250000000   0.250000000
          5  -0.250000000  -0.250000000  -0.250000000
          6  -0.250000000  -0.250000000   0.250000000
          7  -0.250000000   0.250000000   0.250000000
          8   0.250000000   0.250000000  -0.250000000

     Diagonalizing the dynamical matrix

     q = (   -0.250000000   0.250000000  -0.250000000 ) 

 **************************************************************************
     freq (    1) =       3.396833 [THz] =     113.306142 [cm-1]
     freq (    2) =       3.396833 [THz] =     113.306142 [cm-1]
     freq (    3) =       6.926012 [THz] =     231.026890 [cm-1]
     freq (    4) =      14.060798 [THz] =     469.017733 [cm-1]
     freq (    5) =      14.368839 [THz] =     479.292893 [cm-1]
     freq (    6) =      14.368839 [THz] =     479.292893 [cm-1]
 **************************************************************************

     Mode symmetry, C_3v (3m)   point group:

     freq (  1 -  2) =        113.3  [cm-1]   --> E    L_3           
     freq (  3 -  3) =        231.0  [cm-1]   --> A_1  L_1           
     freq (  4 -  4) =        469.0  [cm-1]   --> A_1  L_1           
     freq (  5 -  6) =        479.3  [cm-1]   --> E    L_3           

     Calculation of q =    0.5000000  -0.5000000   0.5000000

   Info: using nr1, nr2, nr3 values from input

   Info: using nr1, nr2, nr3 values from input

     Parallelization info
     --------------------
     sticks:   dense  smooth     PW     G-vecs:    dense   smooth      PW
     Min          63      63     27                  684      684     186
     Max          64      64     28                  688      688     189
     Sum         253     253    109                 2741     2741     749



     bravais-lattice index     =            2
     lattice parameter (alat)  =      10.3390  a.u.
     unit-cell volume          =     276.2966 (a.u.)^3
     number of atoms/cell      =            2
     number of atomic types    =            1
     number of electrons       =         8.00
     number of Kohn-Sham states=            4
     kinetic-energy cutoff     =      18.0000  Ry
     charge density cutoff     =      72.0000  Ry
     Exchange-correlation      = SLA  PW   PBE  PBE ( 1  4  3  4 0 0)

     celldm(1)=  10.339000  celldm(2)=   0.000000  celldm(3)=   0.000000
     celldm(4)=   0.000000  celldm(5)=   0.000000  celldm(6)=   0.000000

     crystal axes: (cart. coord. in units of alat)
               a(1) = (  -0.500000   0.000000   0.500000 )  
               a(2) = (   0.000000   0.500000   0.500000 )  
               a(3) = (  -0.500000   0.500000   0.000000 )  

     reciprocal axes: (cart. coord. in units 2 pi/alat)
               b(1) = ( -1.000000 -1.000000  1.000000 )  
               b(2) = (  1.000000  1.000000  1.000000 )  
               b(3) = ( -1.000000  1.000000 -1.000000 )  


     PseudoPot. # 1 for Si read from file:
     /home/max/quantum_espresso/qe-6.1/pseudo/si_pbe_v1.uspp.F.UPF.txt
     MD5 check sum: a056efeee980c13900f22a371efd63c1
     Pseudo is Ultrasoft + core correction, Zval =  4.0
     Generated by new atomic code, or converted to UPF format
     Using radial grid of  899 points,  6 beta functions with: 
                l(1) =   0
                l(2) =   0
                l(3) =   1
                l(4) =   1
                l(5) =   2
                l(6) =   2
     Q(r) pseudized with  8 coefficients,  rinner =    0.900   0.900   0.900
                                                       0.900   0.900

     atomic species   valence    mass     pseudopotential
        Si             4.00    28.08600     Si( 1.00)

     48 Sym. Ops., with inversion, found



   Cartesian axes

     site n.     atom                  positions (alat units)
         1           Si  tau(   1) = (   0.0000000   0.0000000   0.0000000  )
         2           Si  tau(   2) = (   0.2500000   0.2500000   0.2500000  )

     number of k points=    60
                       cart. coord. in units 2pi/alat
        k(    1) = (  -0.1250000   0.1250000   0.1250000), wk =   0.0468750
        k(    2) = (   0.3750000  -0.3750000   0.6250000), wk =   0.0000000
        k(    3) = (  -0.3750000   0.3750000  -0.1250000), wk =   0.0468750
        k(    4) = (   0.1250000  -0.1250000   0.3750000), wk =   0.0000000
        k(    5) = (   0.3750000  -0.3750000   0.6250000), wk =   0.0468750
        k(    6) = (   0.8750000  -0.8750000   1.1250000), wk =   0.0000000
        k(    7) = (   0.1250000  -0.1250000   0.3750000), wk =   0.0468750
        k(    8) = (   0.6250000  -0.6250000   0.8750000), wk =   0.0000000
        k(    9) = (  -0.1250000   0.6250000   0.1250000), wk =   0.0937500
        k(   10) = (   0.3750000   0.1250000   0.6250000), wk =   0.0000000
        k(   11) = (   0.6250000  -0.1250000   0.8750000), wk =   0.0937500
        k(   12) = (   1.1250000  -0.6250000   1.3750000), wk =   0.0000000
        k(   13) = (   0.3750000   0.1250000   0.6250000), wk =   0.0937500
        k(   14) = (   0.8750000  -0.3750000   1.1250000), wk =   0.0000000
        k(   15) = (  -0.1250000  -0.8750000   0.1250000), wk =   0.0937500
        k(   16) = (   0.3750000  -1.3750000   0.6250000), wk =   0.0000000
        k(   17) = (  -0.3750000   0.3750000   0.3750000), wk =   0.0468750
        k(   18) = (   0.1250000  -0.1250000   0.8750000), wk =   0.0000000
        k(   19) = (   0.3750000  -0.3750000   1.1250000), wk =   0.0468750
        k(   20) = (   0.8750000  -0.8750000   1.6250000), wk =   0.0000000
        k(   21) = (   0.1250000  -0.1250000   0.1250000), wk =   0.0156250
        k(   22) = (   0.6250000  -0.6250000   0.6250000), wk =   0.0000000
        k(   23) = (  -0.3750000  -0.3750000  -0.1250000), wk =   0.0937500
        k(   24) = (   0.1250000  -0.8750000   0.3750000), wk =   0.0000000
        k(   25) = (  -0.1250000  -0.3750000   0.3750000), wk =   0.0468750
        k(   26) = (   0.3750000  -0.8750000   0.8750000), wk =   0.0000000
        k(   27) = (   0.3750000   0.3750000   0.6250000), wk =   0.0937500
        k(   28) = (   0.8750000  -0.1250000   1.1250000), wk =   0.0000000
        k(   29) = (   0.6250000   0.3750000  -0.3750000), wk =   0.0468750
        k(   30) = (   1.1250000  -0.1250000   0.1250000), wk =   0.0000000
        k(   31) = (   0.1250000   0.1250000   0.3750000), wk =   0.0937500
        k(   32) = (   0.6250000  -0.3750000   0.8750000), wk =   0.0000000
        k(   33) = (   0.3750000   0.1250000  -0.1250000), wk =   0.0468750
        k(   34) = (   0.8750000  -0.3750000   0.3750000), wk =   0.0000000
        k(   35) = (  -0.1250000  -0.6250000  -0.1250000), wk =   0.0468750
        k(   36) = (   0.3750000  -1.1250000   0.3750000), wk =   0.0000000
        k(   37) = (   0.1250000  -0.6250000   0.1250000), wk =   0.0468750
        k(   38) = (   0.6250000  -1.1250000   0.6250000), wk =   0.0000000
        k(   39) = (   0.6250000   0.1250000   0.8750000), wk =   0.0937500
        k(   40) = (   1.1250000  -0.3750000   1.3750000), wk =   0.0000000
        k(   41) = (  -0.8750000   0.1250000   0.6250000), wk =   0.0937500
        k(   42) = (  -0.3750000  -0.3750000   1.1250000), wk =   0.0000000
        k(   43) = (   0.8750000   0.1250000  -0.6250000), wk =   0.0937500
        k(   44) = (   1.3750000  -0.3750000  -0.1250000), wk =   0.0000000
        k(   45) = (   0.3750000  -0.1250000   0.6250000), wk =   0.0937500
        k(   46) = (   0.8750000  -0.6250000   1.1250000), wk =   0.0000000
        k(   47) = (  -0.6250000  -0.1250000   0.3750000), wk =   0.0937500
        k(   48) = (  -0.1250000  -0.6250000   0.8750000), wk =   0.0000000
        k(   49) = (   0.6250000  -0.1250000  -0.3750000), wk =   0.0937500
        k(   50) = (   1.1250000  -0.6250000   0.1250000), wk =   0.0000000
        k(   51) = (  -0.1250000   0.8750000  -0.1250000), wk =   0.0468750
        k(   52) = (   0.3750000   0.3750000   0.3750000), wk =   0.0000000
        k(   53) = (   0.1250000   0.8750000   0.1250000), wk =   0.0468750
        k(   54) = (   0.6250000   0.3750000   0.6250000), wk =   0.0000000
        k(   55) = (   0.3750000  -0.3750000   0.3750000), wk =   0.0156250
        k(   56) = (   0.8750000  -0.8750000   0.8750000), wk =   0.0000000
        k(   57) = (   0.3750000   0.3750000   1.1250000), wk =   0.0937500
        k(   58) = (   0.8750000  -0.1250000   1.6250000), wk =   0.0000000
        k(   59) = (   1.1250000   0.3750000  -0.3750000), wk =   0.0468750
        k(   60) = (   1.6250000  -0.1250000   0.1250000), wk =   0.0000000

     Dense  grid:     2741 G-vectors     FFT dimensions: (  20,  20,  20)

     Estimated max dynamical RAM per process >       0.33MB

     Estimated total allocated dynamical RAM >       1.31MB

     Check: negative/imaginary core charge=   -0.000005    0.000000

     The potential is recalculated from file :
     ./_ph0/silicon.10.339.save/charge-density.dat

     Starting wfc are    8 atomic wfcs

     Band Structure Calculation
     Davidson diagonalization with overlap

     ethr =  1.25E-10,  avg # of iterations = 11.7

     total cpu time spent up to now is        1.6 secs

     End of band structure calculation

          k =-0.1250 0.1250 0.1250 (   338 PWs)   bands (ev):

    -5.6363   4.3755   5.6843   5.6843

          k = 0.3750-0.3750 0.6250 (   361 PWs)   bands (ev):

    -3.4810  -0.6832   3.7238   4.4343

          k =-0.3750 0.3750-0.1250 (   352 PWs)   bands (ev):

    -4.6141   1.3858   3.7062   5.2028

          k = 0.1250-0.1250 0.3750 (   353 PWs)   bands (ev):

    -5.1108   2.7577   4.6791   4.7418

          k = 0.3750-0.3750 0.6250 (   361 PWs)   bands (ev):

    -3.4810  -0.6832   3.7238   4.4343

          k = 0.8750-0.8750 1.1250 (   338 PWs)   bands (ev):

    -5.6363   4.3755   5.6843   5.6843

          k = 0.1250-0.1250 0.3750 (   353 PWs)   bands (ev):

    -5.1108   2.7577   4.6791   4.7418

          k = 0.6250-0.6250 0.8750 (   352 PWs)   bands (ev):

    -4.6141   1.3858   3.7062   5.2028

          k =-0.1250 0.6250 0.1250 (   351 PWs)   bands (ev):

    -4.0831   1.0460   3.3597   3.8072

          k = 0.3750 0.1250 0.6250 (   357 PWs)   bands (ev):

    -3.6700   0.1788   2.7206   4.0824

          k = 0.6250-0.1250 0.8750 (   361 PWs)   bands (ev):

    -2.4506  -0.9125   2.0145   3.0838

          k = 1.1250-0.6250 1.3750 (   352 PWs)   bands (ev):

    -4.6141   1.3858   3.7062   5.2028

          k = 0.3750 0.1250 0.6250 (   357 PWs)   bands (ev):

    -3.6700   0.1788   2.7206   4.0824

          k = 0.8750-0.3750 1.1250 (   351 PWs)   bands (ev):

    -4.0831   1.0460   3.3597   3.8072

          k =-0.1250-0.8750 0.1250 (   358 PWs)   bands (ev):

    -2.6163  -0.8158   2.6193   3.3414

          k = 0.3750-1.3750 0.6250 (   361 PWs)   bands (ev):

    -3.4810  -0.6832   3.7238   4.4343

          k =-0.3750 0.3750 0.3750 (   353 PWs)   bands (ev):

    -4.1839   0.1029   4.8971   4.8971

          k = 0.1250-0.1250 0.8750 (   358 PWs)   bands (ev):

    -2.6163  -0.8158   2.6193   3.3414

          k = 0.3750-0.3750 1.1250 (   361 PWs)   bands (ev):

    -2.9866  -0.6053   2.0706   4.1190

          k = 0.8750-0.8750 1.6250 (   351 PWs)   bands (ev):

    -4.0831   1.0460   3.3597   3.8072

          k = 0.1250-0.1250 0.1250 (   338 PWs)   bands (ev):

    -5.6363   4.3755   5.6843   5.6843

          k = 0.6250-0.6250 0.6250 (   353 PWs)   bands (ev):

    -4.1839   0.1029   4.8971   4.8971

          k =-0.3750-0.3750-0.1250 (   352 PWs)   bands (ev):

    -4.6141   1.3858   3.7062   5.2028

          k = 0.1250-0.8750 0.3750 (   361 PWs)   bands (ev):

    -2.4506  -0.9125   2.0145   3.0838

          k =-0.1250-0.3750 0.3750 (   352 PWs)   bands (ev):

    -4.6141   1.3858   3.7062   5.2028

          k = 0.3750-0.8750 0.8750 (   351 PWs)   bands (ev):

    -4.0831   1.0460   3.3597   3.8072

          k = 0.3750 0.3750 0.6250 (   361 PWs)   bands (ev):

    -3.4810  -0.6832   3.7238   4.4343

          k = 0.8750-0.1250 1.1250 (   358 PWs)   bands (ev):

    -2.6163  -0.8158   2.6193   3.3414

          k = 0.6250 0.3750-0.3750 (   361 PWs)   bands (ev):

    -3.4810  -0.6832   3.7238   4.4343

          k = 1.1250-0.1250 0.1250 (   358 PWs)   bands (ev):

    -2.6163  -0.8158   2.6193   3.3414

          k = 0.1250 0.1250 0.3750 (   353 PWs)   bands (ev):

    -5.1108   2.7577   4.6791   4.7418

          k = 0.6250-0.3750 0.8750 (   357 PWs)   bands (ev):

    -3.6700   0.1788   2.7206   4.0824

          k = 0.3750 0.1250-0.1250 (   353 PWs)   bands (ev):

    -5.1108   2.7577   4.6791   4.7418

          k = 0.8750-0.3750 0.3750 (   361 PWs)   bands (ev):

    -2.9866  -0.6053   2.0706   4.1190

          k =-0.1250-0.6250-0.1250 (   351 PWs)   bands (ev):

    -4.0831   1.0460   3.3597   3.8072

          k = 0.3750-1.1250 0.3750 (   361 PWs)   bands (ev):

    -2.9866  -0.6053   2.0706   4.1190

          k = 0.1250-0.6250 0.1250 (   351 PWs)   bands (ev):

    -4.0831   1.0460   3.3597   3.8072

          k = 0.6250-1.1250 0.6250 (   352 PWs)   bands (ev):

    -4.6141   1.3858   3.7062   5.2028

          k = 0.6250 0.1250 0.8750 (   361 PWs)   bands (ev):

    -2.4506  -0.9125   2.0145   3.0838

          k = 1.1250-0.3750 1.3750 (   357 PWs)   bands (ev):

    -3.6700   0.1788   2.7206   4.0824

          k =-0.8750 0.1250 0.6250 (   361 PWs)   bands (ev):

    -2.4506  -0.9125   2.0145   3.0838

          k =-0.3750-0.3750 1.1250 (   361 PWs)   bands (ev):

    -2.9866  -0.6053   2.0706   4.1190

          k = 0.8750 0.1250-0.6250 (   361 PWs)   bands (ev):

    -2.4506  -0.9125   2.0145   3.0838

          k = 1.3750-0.3750-0.1250 (   357 PWs)   bands (ev):

    -3.6700   0.1788   2.7206   4.0824

          k = 0.3750-0.1250 0.6250 (   357 PWs)   bands (ev):

    -3.6700   0.1788   2.7206   4.0824

          k = 0.8750-0.6250 1.1250 (   353 PWs)   bands (ev):

    -5.1108   2.7577   4.6791   4.7418

          k =-0.6250-0.1250 0.3750 (   357 PWs)   bands (ev):

    -3.6700   0.1788   2.7206   4.0824

          k =-0.1250-0.6250 0.8750 (   361 PWs)   bands (ev):

    -2.4506  -0.9125   2.0145   3.0838

          k = 0.6250-0.1250-0.3750 (   357 PWs)   bands (ev):

    -3.6700   0.1788   2.7206   4.0824

          k = 1.1250-0.6250 0.1250 (   361 PWs)   bands (ev):

    -2.4506  -0.9125   2.0145   3.0838

          k =-0.1250 0.8750-0.1250 (   358 PWs)   bands (ev):

    -2.6163  -0.8158   2.6193   3.3414

          k = 0.3750 0.3750 0.3750 (   353 PWs)   bands (ev):

    -4.1839   0.1029   4.8971   4.8971

          k = 0.1250 0.8750 0.1250 (   358 PWs)   bands (ev):

    -2.6163  -0.8158   2.6193   3.3414

          k = 0.6250 0.3750 0.6250 (   361 PWs)   bands (ev):

    -3.4810  -0.6832   3.7238   4.4343

          k = 0.3750-0.3750 0.3750 (   353 PWs)   bands (ev):

    -4.1839   0.1029   4.8971   4.8971

          k = 0.8750-0.8750 0.8750 (   338 PWs)   bands (ev):

    -5.6363   4.3755   5.6843   5.6843

          k = 0.3750 0.3750 1.1250 (   361 PWs)   bands (ev):

    -2.9866  -0.6053   2.0706   4.1190

          k = 0.8750-0.1250 1.6250 (   361 PWs)   bands (ev):

    -2.4506  -0.9125   2.0145   3.0838

          k = 1.1250 0.3750-0.3750 (   361 PWs)   bands (ev):

    -2.9866  -0.6053   2.0706   4.1190

          k = 1.6250-0.1250 0.1250 (   353 PWs)   bands (ev):

    -5.1108   2.7577   4.6791   4.7418

     highest occupied level (ev):     5.6843

     Writing output data file silicon.10.339.save

                                                                                

     bravais-lattice index     =            2
     lattice parameter (alat)  =      10.3390  a.u.
     unit-cell volume          =     276.2966 (a.u.)^3
     number of atoms/cell      =            2
     number of atomic types    =            1
     kinetic-energy cut-off    =      18.0000  Ry
     charge density cut-off    =      72.0000  Ry
     convergence threshold     =      1.0E-12
     beta                      =       0.7000
     number of iterations used =            4
     Exchange-correlation      = SLA  PW   PBE  PBE ( 1  4  3  4 0 0)


     celldm(1)=   10.33900  celldm(2)=    0.00000  celldm(3)=    0.00000
     celldm(4)=    0.00000  celldm(5)=    0.00000  celldm(6)=    0.00000

     crystal axes: (cart. coord. in units of alat)
               a(1) = ( -0.5000  0.0000  0.5000 )  
               a(2) = (  0.0000  0.5000  0.5000 )  
               a(3) = ( -0.5000  0.5000  0.0000 )  

     reciprocal axes: (cart. coord. in units 2 pi/alat)
               b(1) = ( -1.0000 -1.0000  1.0000 )  
               b(2) = (  1.0000  1.0000  1.0000 )  
               b(3) = ( -1.0000  1.0000 -1.0000 )  


     Atoms inside the unit cell: 

     Cartesian axes

     site n.  atom      mass           positions (alat units)
        1     Si  28.0860   tau(    1) = (    0.00000    0.00000    0.00000  )
        2     Si  28.0860   tau(    2) = (    0.25000    0.25000    0.25000  )

     Computing dynamical matrix for 
                    q = (   0.5000000  -0.5000000   0.5000000 )

     13 Sym.Ops. (with q -> -q+G )


     G cutoff =  194.9530  (    685 G-vectors)     FFT grid: ( 20, 20, 20)
     number of k points=    60

     PseudoPot. # 1 for Si read from file:
     /home/max/quantum_espresso/qe-6.1/pseudo/si_pbe_v1.uspp.F.UPF.txt
     MD5 check sum: a056efeee980c13900f22a371efd63c1
     Pseudo is Ultrasoft + core correction, Zval =  4.0
     Generated by new atomic code, or converted to UPF format
     Using radial grid of  899 points,  6 beta functions with: 
                l(1) =   0
                l(2) =   0
                l(3) =   1
                l(4) =   1
                l(5) =   2
                l(6) =   2
     Q(r) pseudized with  8 coefficients,  rinner =    0.900   0.900   0.900
                                                       0.900   0.900


     Atomic displacements:
     There are   4 irreducible representations

     Representation     1      1 modes -  To be done

     Representation     2      1 modes -  To be done

     Representation     3      2 modes -  To be done

     Representation     4      2 modes -  To be done



     Alpha used in Ewald sum =   0.7000
     PHONON       :    16.51s CPU        18.91s WALL



     Representation #  1 mode #   1

     Self-consistent Calculation

      iter #   1 total cpu time :    19.0 secs   av.it.:   4.8
      thresh= 1.000E-02 alpha_mix =  0.700 |ddv_scf|^2 =  2.479E-05

      iter #   2 total cpu time :    19.2 secs   av.it.:   8.3
      thresh= 4.979E-04 alpha_mix =  0.700 |ddv_scf|^2 =  2.212E-05

      iter #   3 total cpu time :    19.4 secs   av.it.:   7.5
      thresh= 4.704E-04 alpha_mix =  0.700 |ddv_scf|^2 =  4.231E-08

      iter #   4 total cpu time :    19.5 secs   av.it.:   7.5
      thresh= 2.057E-05 alpha_mix =  0.700 |ddv_scf|^2 =  1.439E-10

      iter #   5 total cpu time :    19.7 secs   av.it.:   7.9
      thresh= 1.199E-06 alpha_mix =  0.700 |ddv_scf|^2 =  3.573E-12

      iter #   6 total cpu time :    19.9 secs   av.it.:   7.9
      thresh= 1.890E-07 alpha_mix =  0.700 |ddv_scf|^2 =  5.511E-14

     End of self-consistent calculation

     Convergence has been achieved 


     Representation #  2 mode #   2

     Self-consistent Calculation

      iter #   1 total cpu time :    20.0 secs   av.it.:   5.6
      thresh= 1.000E-02 alpha_mix =  0.700 |ddv_scf|^2 =  3.442E-04

      iter #   2 total cpu time :    20.2 secs   av.it.:   8.3
      thresh= 1.855E-03 alpha_mix =  0.700 |ddv_scf|^2 =  1.061E-03

      iter #   3 total cpu time :    20.4 secs   av.it.:   7.1
      thresh= 3.258E-03 alpha_mix =  0.700 |ddv_scf|^2 =  1.151E-07

      iter #   4 total cpu time :    20.5 secs   av.it.:   8.2
      thresh= 3.392E-05 alpha_mix =  0.700 |ddv_scf|^2 =  7.427E-09

      iter #   5 total cpu time :    20.9 secs   av.it.:   8.5
      thresh= 8.618E-06 alpha_mix =  0.700 |ddv_scf|^2 =  1.309E-10

      iter #   6 total cpu time :    21.1 secs   av.it.:   8.3
      thresh= 1.144E-06 alpha_mix =  0.700 |ddv_scf|^2 =  2.086E-12

      iter #   7 total cpu time :    21.2 secs   av.it.:   7.8
      thresh= 1.444E-07 alpha_mix =  0.700 |ddv_scf|^2 =  3.176E-15

     End of self-consistent calculation

     Convergence has been achieved 


     Representation #  3 modes #   3  4

     Self-consistent Calculation

      iter #   1 total cpu time :    21.5 secs   av.it.:   4.7
      thresh= 1.000E-02 alpha_mix =  0.700 |ddv_scf|^2 =  3.049E-07

      iter #   2 total cpu time :    21.8 secs   av.it.:   9.1
      thresh= 5.522E-05 alpha_mix =  0.700 |ddv_scf|^2 =  2.519E-08

      iter #   3 total cpu time :    22.2 secs   av.it.:   8.4
      thresh= 1.587E-05 alpha_mix =  0.700 |ddv_scf|^2 =  4.949E-10

      iter #   4 total cpu time :    22.5 secs   av.it.:   8.9
      thresh= 2.225E-06 alpha_mix =  0.700 |ddv_scf|^2 =  6.209E-12

      iter #   5 total cpu time :    23.1 secs   av.it.:   8.7
      thresh= 2.492E-07 alpha_mix =  0.700 |ddv_scf|^2 =  3.234E-14

     End of self-consistent calculation

     Convergence has been achieved 


     Representation #  4 modes #   5  6

     Self-consistent Calculation

      iter #   1 total cpu time :    23.3 secs   av.it.:   5.0
      thresh= 1.000E-02 alpha_mix =  0.700 |ddv_scf|^2 =  9.809E-07

      iter #   2 total cpu time :    23.7 secs   av.it.:   9.4
      thresh= 9.904E-05 alpha_mix =  0.700 |ddv_scf|^2 =  7.675E-08

      iter #   3 total cpu time :    24.1 secs   av.it.:   9.3
      thresh= 2.770E-05 alpha_mix =  0.700 |ddv_scf|^2 =  4.948E-09

      iter #   4 total cpu time :    24.4 secs   av.it.:   8.5
      thresh= 7.034E-06 alpha_mix =  0.700 |ddv_scf|^2 =  6.639E-12

      iter #   5 total cpu time :    24.9 secs   av.it.:   8.8
      thresh= 2.577E-07 alpha_mix =  0.700 |ddv_scf|^2 =  2.304E-14

     End of self-consistent calculation

     Convergence has been achieved 

     Number of q in the star =    4
     List of q in the star:
          1   0.500000000  -0.500000000   0.500000000
          2   0.500000000   0.500000000   0.500000000
          3  -0.500000000   0.500000000   0.500000000
          4   0.500000000   0.500000000  -0.500000000

     Diagonalizing the dynamical matrix

     q = (    0.500000000  -0.500000000   0.500000000 ) 

 **************************************************************************
     freq (    1) =       4.571933 [THz] =     152.503255 [cm-1]
     freq (    2) =       4.571933 [THz] =     152.503255 [cm-1]
     freq (    3) =      11.548893 [THz] =     385.229618 [cm-1]
     freq (    4) =      12.107437 [THz] =     403.860636 [cm-1]
     freq (    5) =      14.384995 [THz] =     479.831775 [cm-1]
     freq (    6) =      14.384995 [THz] =     479.831775 [cm-1]
 **************************************************************************

     Calculation of q =    0.0000000   0.5000000   0.0000000

   Info: using nr1, nr2, nr3 values from input

   Info: using nr1, nr2, nr3 values from input

     Parallelization info
     --------------------
     sticks:   dense  smooth     PW     G-vecs:    dense   smooth      PW
     Min          63      63     27                  684      684     175
     Max          64      64     28                  688      688     176
     Sum         253     253    109                 2741     2741     701



     bravais-lattice index     =            2
     lattice parameter (alat)  =      10.3390  a.u.
     unit-cell volume          =     276.2966 (a.u.)^3
     number of atoms/cell      =            2
     number of atomic types    =            1
     number of electrons       =         8.00
     number of Kohn-Sham states=            4
     kinetic-energy cutoff     =      18.0000  Ry
     charge density cutoff     =      72.0000  Ry
     Exchange-correlation      = SLA  PW   PBE  PBE ( 1  4  3  4 0 0)

     celldm(1)=  10.339000  celldm(2)=   0.000000  celldm(3)=   0.000000
     celldm(4)=   0.000000  celldm(5)=   0.000000  celldm(6)=   0.000000

     crystal axes: (cart. coord. in units of alat)
               a(1) = (  -0.500000   0.000000   0.500000 )  
               a(2) = (   0.000000   0.500000   0.500000 )  
               a(3) = (  -0.500000   0.500000   0.000000 )  

     reciprocal axes: (cart. coord. in units 2 pi/alat)
               b(1) = ( -1.000000 -1.000000  1.000000 )  
               b(2) = (  1.000000  1.000000  1.000000 )  
               b(3) = ( -1.000000  1.000000 -1.000000 )  


     PseudoPot. # 1 for Si read from file:
     /home/max/quantum_espresso/qe-6.1/pseudo/si_pbe_v1.uspp.F.UPF.txt
     MD5 check sum: a056efeee980c13900f22a371efd63c1
     Pseudo is Ultrasoft + core correction, Zval =  4.0
     Generated by new atomic code, or converted to UPF format
     Using radial grid of  899 points,  6 beta functions with: 
                l(1) =   0
                l(2) =   0
                l(3) =   1
                l(4) =   1
                l(5) =   2
                l(6) =   2
     Q(r) pseudized with  8 coefficients,  rinner =    0.900   0.900   0.900
                                                       0.900   0.900

     atomic species   valence    mass     pseudopotential
        Si             4.00    28.08600     Si( 1.00)

     48 Sym. Ops., with inversion, found



   Cartesian axes

     site n.     atom                  positions (alat units)
         1           Si  tau(   1) = (   0.0000000   0.0000000   0.0000000  )
         2           Si  tau(   2) = (   0.2500000   0.2500000   0.2500000  )

     number of k points=    80
                       cart. coord. in units 2pi/alat
        k(    1) = (  -0.1250000   0.1250000   0.1250000), wk =   0.0312500
        k(    2) = (  -0.1250000   0.6250000   0.1250000), wk =   0.0000000
        k(    3) = (  -0.3750000   0.3750000  -0.1250000), wk =   0.0625000
        k(    4) = (  -0.3750000   0.8750000  -0.1250000), wk =   0.0000000
        k(    5) = (   0.3750000  -0.3750000   0.6250000), wk =   0.0625000
        k(    6) = (   0.3750000   0.1250000   0.6250000), wk =   0.0000000
        k(    7) = (   0.1250000  -0.1250000   0.3750000), wk =   0.0625000
        k(    8) = (   0.1250000   0.3750000   0.3750000), wk =   0.0000000
        k(    9) = (  -0.1250000   0.6250000   0.1250000), wk =   0.0312500
        k(   10) = (  -0.1250000   1.1250000   0.1250000), wk =   0.0000000
        k(   11) = (   0.6250000  -0.1250000   0.8750000), wk =   0.0625000
        k(   12) = (   0.6250000   0.3750000   0.8750000), wk =   0.0000000
        k(   13) = (   0.3750000   0.1250000   0.6250000), wk =   0.0625000
        k(   14) = (   0.3750000   0.6250000   0.6250000), wk =   0.0000000
        k(   15) = (  -0.1250000  -0.8750000   0.1250000), wk =   0.0312500
        k(   16) = (  -0.1250000  -0.3750000   0.1250000), wk =   0.0000000
        k(   17) = (  -0.3750000   0.3750000   0.3750000), wk =   0.0312500
        k(   18) = (  -0.3750000   0.8750000   0.3750000), wk =   0.0000000
        k(   19) = (   0.3750000  -0.3750000   1.1250000), wk =   0.0625000
        k(   20) = (   0.3750000   0.1250000   1.1250000), wk =   0.0000000
        k(   21) = (  -0.1250000  -0.1250000   0.1250000), wk =   0.0312500
        k(   22) = (  -0.1250000   0.3750000   0.1250000), wk =   0.0000000
        k(   23) = (   0.1250000  -0.3750000   0.3750000), wk =   0.0625000
        k(   24) = (   0.1250000   0.1250000   0.3750000), wk =   0.0000000
        k(   25) = (   0.3750000  -0.1250000   0.3750000), wk =   0.0312500
        k(   26) = (   0.3750000   0.3750000   0.3750000), wk =   0.0000000
        k(   27) = (   0.3750000   0.1250000   0.3750000), wk =   0.0312500
        k(   28) = (   0.3750000   0.6250000   0.3750000), wk =   0.0000000
        k(   29) = (  -0.6250000   0.3750000  -0.3750000), wk =   0.0625000
        k(   30) = (  -0.6250000   0.8750000  -0.3750000), wk =   0.0000000
        k(   31) = (  -0.3750000   0.6250000  -0.3750000), wk =   0.0312500
        k(   32) = (  -0.3750000   1.1250000  -0.3750000), wk =   0.0000000
        k(   33) = (  -0.3750000  -0.6250000  -0.3750000), wk =   0.0312500
        k(   34) = (  -0.3750000  -0.1250000  -0.3750000), wk =   0.0000000
        k(   35) = (  -0.3750000   0.1250000  -0.1250000), wk =   0.0625000
        k(   36) = (  -0.3750000   0.6250000  -0.1250000), wk =   0.0000000
        k(   37) = (  -0.1250000   0.3750000  -0.1250000), wk =   0.0312500
        k(   38) = (  -0.1250000   0.8750000  -0.1250000), wk =   0.0000000
        k(   39) = (  -0.1250000  -0.3750000  -0.1250000), wk =   0.0312500
        k(   40) = (  -0.1250000   0.1250000  -0.1250000), wk =   0.0000000
        k(   41) = (  -0.1250000  -0.6250000   0.1250000), wk =   0.0312500
        k(   42) = (  -0.1250000  -0.1250000   0.1250000), wk =   0.0000000
        k(   43) = (   0.6250000  -0.1250000  -0.1250000), wk =   0.0625000
        k(   44) = (   0.6250000   0.3750000  -0.1250000), wk =   0.0000000
        k(   45) = (   0.6250000   0.1250000   0.1250000), wk =   0.0625000
        k(   46) = (   0.6250000   0.6250000   0.1250000), wk =   0.0000000
        k(   47) = (  -0.8750000   0.1250000  -0.6250000), wk =   0.0625000
        k(   48) = (  -0.8750000   0.6250000  -0.6250000), wk =   0.0000000
        k(   49) = (  -0.1250000   0.6250000  -0.8750000), wk =   0.0625000
        k(   50) = (  -0.1250000   1.1250000  -0.8750000), wk =   0.0000000
        k(   51) = (  -0.1250000   0.8750000  -0.6250000), wk =   0.0625000
        k(   52) = (  -0.1250000   1.3750000  -0.6250000), wk =   0.0000000
        k(   53) = (  -0.1250000  -0.8750000  -0.6250000), wk =   0.0625000
        k(   54) = (  -0.1250000  -0.3750000  -0.6250000), wk =   0.0000000
        k(   55) = (   0.8750000  -0.6250000   0.1250000), wk =   0.0625000
        k(   56) = (   0.8750000  -0.1250000   0.1250000), wk =   0.0000000
        k(   57) = (  -0.6250000  -0.1250000  -0.3750000), wk =   0.0625000
        k(   58) = (  -0.6250000   0.3750000  -0.3750000), wk =   0.0000000
        k(   59) = (   0.1250000   0.3750000  -0.6250000), wk =   0.0625000
        k(   60) = (   0.1250000   0.8750000  -0.6250000), wk =   0.0000000
        k(   61) = (   0.1250000   0.6250000  -0.3750000), wk =   0.0625000
        k(   62) = (   0.1250000   1.1250000  -0.3750000), wk =   0.0000000
        k(   63) = (   0.1250000  -0.6250000  -0.3750000), wk =   0.0625000
        k(   64) = (   0.1250000  -0.1250000  -0.3750000), wk =   0.0000000
        k(   65) = (   0.6250000  -0.3750000  -0.1250000), wk =   0.0625000
        k(   66) = (   0.6250000   0.1250000  -0.1250000), wk =   0.0000000
        k(   67) = (  -0.1250000   0.8750000   0.1250000), wk =   0.0312500
        k(   68) = (  -0.1250000   1.3750000   0.1250000), wk =   0.0000000
        k(   69) = (  -0.8750000  -0.1250000  -0.1250000), wk =   0.0625000
        k(   70) = (  -0.8750000   0.3750000  -0.1250000), wk =   0.0000000
        k(   71) = (  -0.8750000   0.1250000   0.1250000), wk =   0.0625000
        k(   72) = (  -0.8750000   0.6250000   0.1250000), wk =   0.0000000
        k(   73) = (  -0.3750000  -0.3750000   0.3750000), wk =   0.0312500
        k(   74) = (  -0.3750000   0.1250000   0.3750000), wk =   0.0000000
        k(   75) = (  -1.1250000   0.3750000  -0.3750000), wk =   0.0625000
        k(   76) = (  -1.1250000   0.8750000  -0.3750000), wk =   0.0000000
        k(   77) = (  -0.3750000   1.1250000  -0.3750000), wk =   0.0312500
        k(   78) = (  -0.3750000   1.6250000  -0.3750000), wk =   0.0000000
        k(   79) = (  -0.3750000  -1.1250000  -0.3750000), wk =   0.0312500
        k(   80) = (  -0.3750000  -0.6250000  -0.3750000), wk =   0.0000000

     Dense  grid:     2741 G-vectors     FFT dimensions: (  20,  20,  20)

     Estimated max dynamical RAM per process >       0.33MB

     Estimated total allocated dynamical RAM >       1.31MB

     Check: negative/imaginary core charge=   -0.000005    0.000000

     The potential is recalculated from file :
     ./_ph0/silicon.10.339.save/charge-density.dat

     Starting wfc are    8 atomic wfcs

     Band Structure Calculation
     Davidson diagonalization with overlap

     ethr =  1.25E-10,  avg # of iterations = 11.7

     total cpu time spent up to now is        2.4 secs

     End of band structure calculation

          k =-0.1250 0.1250 0.1250 (   338 PWs)   bands (ev):

    -5.6363   4.3755   5.6843   5.6843

          k =-0.1250 0.6250 0.1250 (   351 PWs)   bands (ev):

    -4.0831   1.0460   3.3597   3.8072

          k =-0.3750 0.3750-0.1250 (   352 PWs)   bands (ev):

    -4.6141   1.3858   3.7062   5.2028

          k =-0.3750 0.8750-0.1250 (   361 PWs)   bands (ev):

    -2.4506  -0.9125   2.0145   3.0838

          k = 0.3750-0.3750 0.6250 (   361 PWs)   bands (ev):

    -3.4810  -0.6832   3.7238   4.4343

          k = 0.3750 0.1250 0.6250 (   357 PWs)   bands (ev):

    -3.6700   0.1788   2.7206   4.0824

          k = 0.1250-0.1250 0.3750 (   353 PWs)   bands (ev):

    -5.1108   2.7577   4.6791   4.7418

          k = 0.1250 0.3750 0.3750 (   352 PWs)   bands (ev):

    -4.6141   1.3858   3.7062   5.2028

          k =-0.1250 0.6250 0.1250 (   351 PWs)   bands (ev):

    -4.0831   1.0460   3.3597   3.8072

          k =-0.1250 1.1250 0.1250 (   358 PWs)   bands (ev):

    -2.6163  -0.8158   2.6193   3.3414

          k = 0.6250-0.1250 0.8750 (   361 PWs)   bands (ev):

    -2.4506  -0.9125   2.0145   3.0838

          k = 0.6250 0.3750 0.8750 (   357 PWs)   bands (ev):

    -3.6700   0.1788   2.7206   4.0824

          k = 0.3750 0.1250 0.6250 (   357 PWs)   bands (ev):

    -3.6700   0.1788   2.7206   4.0824

          k = 0.3750 0.6250 0.6250 (   361 PWs)   bands (ev):

    -3.4810  -0.6832   3.7238   4.4343

          k =-0.1250-0.8750 0.1250 (   358 PWs)   bands (ev):

    -2.6163  -0.8158   2.6193   3.3414

          k =-0.1250-0.3750 0.1250 (   353 PWs)   bands (ev):

    -5.1108   2.7577   4.6791   4.7418

          k =-0.3750 0.3750 0.3750 (   353 PWs)   bands (ev):

    -4.1839   0.1029   4.8971   4.8971

          k =-0.3750 0.8750 0.3750 (   361 PWs)   bands (ev):

    -2.9866  -0.6053   2.0706   4.1190

          k = 0.3750-0.3750 1.1250 (   361 PWs)   bands (ev):

    -2.9866  -0.6053   2.0706   4.1190

          k = 0.3750 0.1250 1.1250 (   361 PWs)   bands (ev):

    -2.4506  -0.9125   2.0145   3.0838

          k =-0.1250-0.1250 0.1250 (   338 PWs)   bands (ev):

    -5.6363   4.3755   5.6843   5.6843

          k =-0.1250 0.3750 0.1250 (   353 PWs)   bands (ev):

    -5.1108   2.7577   4.6791   4.7418

          k = 0.1250-0.3750 0.3750 (   352 PWs)   bands (ev):

    -4.6141   1.3858   3.7062   5.2028

          k = 0.1250 0.1250 0.3750 (   353 PWs)   bands (ev):

    -5.1108   2.7577   4.6791   4.7418

          k = 0.3750-0.1250 0.3750 (   352 PWs)   bands (ev):

    -4.6141   1.3858   3.7062   5.2028

          k = 0.3750 0.3750 0.3750 (   353 PWs)   bands (ev):

    -4.1839   0.1029   4.8971   4.8971

          k = 0.3750 0.1250 0.3750 (   352 PWs)   bands (ev):

    -4.6141   1.3858   3.7062   5.2028

          k = 0.3750 0.6250 0.3750 (   361 PWs)   bands (ev):

    -3.4810  -0.6832   3.7238   4.4343

          k =-0.6250 0.3750-0.3750 (   361 PWs)   bands (ev):

    -3.4810  -0.6832   3.7238   4.4343

          k =-0.6250 0.8750-0.3750 (   357 PWs)   bands (ev):

    -3.6700   0.1788   2.7206   4.0824

          k =-0.3750 0.6250-0.3750 (   361 PWs)   bands (ev):

    -3.4810  -0.6832   3.7238   4.4343

          k =-0.3750 1.1250-0.3750 (   361 PWs)   bands (ev):

    -2.9866  -0.6053   2.0706   4.1190

          k =-0.3750-0.6250-0.3750 (   361 PWs)   bands (ev):

    -3.4810  -0.6832   3.7238   4.4343

          k =-0.3750-0.1250-0.3750 (   352 PWs)   bands (ev):

    -4.6141   1.3858   3.7062   5.2028

          k =-0.3750 0.1250-0.1250 (   353 PWs)   bands (ev):

    -5.1108   2.7577   4.6791   4.7418

          k =-0.3750 0.6250-0.1250 (   357 PWs)   bands (ev):

    -3.6700   0.1788   2.7206   4.0824

          k =-0.1250 0.3750-0.1250 (   353 PWs)   bands (ev):

    -5.1108   2.7577   4.6791   4.7418

          k =-0.1250 0.8750-0.1250 (   358 PWs)   bands (ev):

    -2.6163  -0.8158   2.6193   3.3414

          k =-0.1250-0.3750-0.1250 (   353 PWs)   bands (ev):

    -5.1108   2.7577   4.6791   4.7418

          k =-0.1250 0.1250-0.1250 (   338 PWs)   bands (ev):

    -5.6363   4.3755   5.6843   5.6843

          k =-0.1250-0.6250 0.1250 (   351 PWs)   bands (ev):

    -4.0831   1.0460   3.3597   3.8072

          k =-0.1250-0.1250 0.1250 (   338 PWs)   bands (ev):

    -5.6363   4.3755   5.6843   5.6843

          k = 0.6250-0.1250-0.1250 (   351 PWs)   bands (ev):

    -4.0831   1.0460   3.3597   3.8072

          k = 0.6250 0.3750-0.1250 (   357 PWs)   bands (ev):

    -3.6700   0.1788   2.7206   4.0824

          k = 0.6250 0.1250 0.1250 (   351 PWs)   bands (ev):

    -4.0831   1.0460   3.3597   3.8072

          k = 0.6250 0.6250 0.1250 (   361 PWs)   bands (ev):

    -2.9866  -0.6053   2.0706   4.1190

          k =-0.8750 0.1250-0.6250 (   361 PWs)   bands (ev):

    -2.4506  -0.9125   2.0145   3.0838

          k =-0.8750 0.6250-0.6250 (   352 PWs)   bands (ev):

    -4.6141   1.3858   3.7062   5.2028

          k =-0.1250 0.6250-0.8750 (   361 PWs)   bands (ev):

    -2.4506  -0.9125   2.0145   3.0838

          k =-0.1250 1.1250-0.8750 (   358 PWs)   bands (ev):

    -2.6163  -0.8158   2.6193   3.3414

          k =-0.1250 0.8750-0.6250 (   361 PWs)   bands (ev):

    -2.4506  -0.9125   2.0145   3.0838

          k =-0.1250 1.3750-0.6250 (   361 PWs)   bands (ev):

    -2.9866  -0.6053   2.0706   4.1190

          k =-0.1250-0.8750-0.6250 (   361 PWs)   bands (ev):

    -2.4506  -0.9125   2.0145   3.0838

          k =-0.1250-0.3750-0.6250 (   357 PWs)   bands (ev):

    -3.6700   0.1788   2.7206   4.0824

          k = 0.8750-0.6250 0.1250 (   361 PWs)   bands (ev):

    -2.4506  -0.9125   2.0145   3.0838

          k = 0.8750-0.1250 0.1250 (   358 PWs)   bands (ev):

    -2.6163  -0.8158   2.6193   3.3414

          k =-0.6250-0.1250-0.3750 (   357 PWs)   bands (ev):

    -3.6700   0.1788   2.7206   4.0824

          k =-0.6250 0.3750-0.3750 (   361 PWs)   bands (ev):

    -3.4810  -0.6832   3.7238   4.4343

          k = 0.1250 0.3750-0.6250 (   357 PWs)   bands (ev):

    -3.6700   0.1788   2.7206   4.0824

          k = 0.1250 0.8750-0.6250 (   361 PWs)   bands (ev):

    -2.4506  -0.9125   2.0145   3.0838

          k = 0.1250 0.6250-0.3750 (   357 PWs)   bands (ev):

    -3.6700   0.1788   2.7206   4.0824

          k = 0.1250 1.1250-0.3750 (   361 PWs)   bands (ev):

    -2.4506  -0.9125   2.0145   3.0838

          k = 0.1250-0.6250-0.3750 (   357 PWs)   bands (ev):

    -3.6700   0.1788   2.7206   4.0824

          k = 0.1250-0.1250-0.3750 (   353 PWs)   bands (ev):

    -5.1108   2.7577   4.6791   4.7418

          k = 0.6250-0.3750-0.1250 (   357 PWs)   bands (ev):

    -3.6700   0.1788   2.7206   4.0824

          k = 0.6250 0.1250-0.1250 (   351 PWs)   bands (ev):

    -4.0831   1.0460   3.3597   3.8072

          k =-0.1250 0.8750 0.1250 (   358 PWs)   bands (ev):

    -2.6163  -0.8158   2.6193   3.3414

          k =-0.1250 1.3750 0.1250 (   351 PWs)   bands (ev):

    -4.0831   1.0460   3.3597   3.8072

          k =-0.8750-0.1250-0.1250 (   358 PWs)   bands (ev):

    -2.6163  -0.8158   2.6193   3.3414

          k =-0.8750 0.3750-0.1250 (   361 PWs)   bands (ev):

    -2.4506  -0.9125   2.0145   3.0838

          k =-0.8750 0.1250 0.1250 (   358 PWs)   bands (ev):

    -2.6163  -0.8158   2.6193   3.3414

          k =-0.8750 0.6250 0.1250 (   361 PWs)   bands (ev):

    -2.4506  -0.9125   2.0145   3.0838

          k =-0.3750-0.3750 0.3750 (   353 PWs)   bands (ev):

    -4.1839   0.1029   4.8971   4.8971

          k =-0.3750 0.1250 0.3750 (   352 PWs)   bands (ev):

    -4.6141   1.3858   3.7062   5.2028

          k =-1.1250 0.3750-0.3750 (   361 PWs)   bands (ev):

    -2.9866  -0.6053   2.0706   4.1190

          k =-1.1250 0.8750-0.3750 (   351 PWs)   bands (ev):

    -4.0831   1.0460   3.3597   3.8072

          k =-0.3750 1.1250-0.3750 (   361 PWs)   bands (ev):

    -2.9866  -0.6053   2.0706   4.1190

          k =-0.3750 1.6250-0.3750 (   353 PWs)   bands (ev):

    -4.1839   0.1029   4.8971   4.8971

          k =-0.3750-1.1250-0.3750 (   361 PWs)   bands (ev):

    -2.9866  -0.6053   2.0706   4.1190

          k =-0.3750-0.6250-0.3750 (   361 PWs)   bands (ev):

    -3.4810  -0.6832   3.7238   4.4343

     highest occupied level (ev):     5.6843

     Writing output data file silicon.10.339.save

                                                                                

     bravais-lattice index     =            2
     lattice parameter (alat)  =      10.3390  a.u.
     unit-cell volume          =     276.2966 (a.u.)^3
     number of atoms/cell      =            2
     number of atomic types    =            1
     kinetic-energy cut-off    =      18.0000  Ry
     charge density cut-off    =      72.0000  Ry
     convergence threshold     =      1.0E-12
     beta                      =       0.7000
     number of iterations used =            4
     Exchange-correlation      = SLA  PW   PBE  PBE ( 1  4  3  4 0 0)


     celldm(1)=   10.33900  celldm(2)=    0.00000  celldm(3)=    0.00000
     celldm(4)=    0.00000  celldm(5)=    0.00000  celldm(6)=    0.00000

     crystal axes: (cart. coord. in units of alat)
               a(1) = ( -0.5000  0.0000  0.5000 )  
               a(2) = (  0.0000  0.5000  0.5000 )  
               a(3) = ( -0.5000  0.5000  0.0000 )  

     reciprocal axes: (cart. coord. in units 2 pi/alat)
               b(1) = ( -1.0000 -1.0000  1.0000 )  
               b(2) = (  1.0000  1.0000  1.0000 )  
               b(3) = ( -1.0000  1.0000 -1.0000 )  


     Atoms inside the unit cell: 

     Cartesian axes

     site n.  atom      mass           positions (alat units)
        1     Si  28.0860   tau(    1) = (    0.00000    0.00000    0.00000  )
        2     Si  28.0860   tau(    2) = (    0.25000    0.25000    0.25000  )

     Computing dynamical matrix for 
                    q = (   0.0000000   0.5000000   0.0000000 )

      8 Sym.Ops. (no q -> -q+G )


     G cutoff =  194.9530  (    685 G-vectors)     FFT grid: ( 20, 20, 20)
     number of k points=    80

     PseudoPot. # 1 for Si read from file:
     /home/max/quantum_espresso/qe-6.1/pseudo/si_pbe_v1.uspp.F.UPF.txt
     MD5 check sum: a056efeee980c13900f22a371efd63c1
     Pseudo is Ultrasoft + core correction, Zval =  4.0
     Generated by new atomic code, or converted to UPF format
     Using radial grid of  899 points,  6 beta functions with: 
                l(1) =   0
                l(2) =   0
                l(3) =   1
                l(4) =   1
                l(5) =   2
                l(6) =   2
     Q(r) pseudized with  8 coefficients,  rinner =    0.900   0.900   0.900
                                                       0.900   0.900

     Mode symmetry, C_4v (4mm)  point group:


     Atomic displacements:
     There are   4 irreducible representations

     Representation     1      1 modes -A_1  G_1 D_1  To be done

     Representation     2      1 modes -B_2  G_4 D_2'  To be done

     Representation     3      2 modes -E    G_5 D_5  To be done

     Representation     4      2 modes -E    G_5 D_5  To be done



     Alpha used in Ewald sum =   0.7000
     PHONON       :    22.78s CPU        25.97s WALL



     Representation #  1 mode #   1

     Self-consistent Calculation

      iter #   1 total cpu time :    26.1 secs   av.it.:   5.8
      thresh= 1.000E-02 alpha_mix =  0.700 |ddv_scf|^2 =  2.967E-03

      iter #   2 total cpu time :    26.3 secs   av.it.:   7.7
      thresh= 5.447E-03 alpha_mix =  0.700 |ddv_scf|^2 =  3.906E-02

      iter #   3 total cpu time :    26.5 secs   av.it.:   6.7
      thresh= 1.000E-02 alpha_mix =  0.700 |ddv_scf|^2 =  1.376E-07

      iter #   4 total cpu time :    27.1 secs   av.it.:   8.2
      thresh= 3.709E-05 alpha_mix =  0.700 |ddv_scf|^2 =  1.264E-08

      iter #   5 total cpu time :    27.3 secs   av.it.:   7.8
      thresh= 1.124E-05 alpha_mix =  0.700 |ddv_scf|^2 =  7.354E-10

      iter #   6 total cpu time :    27.5 secs   av.it.:   7.9
      thresh= 2.712E-06 alpha_mix =  0.700 |ddv_scf|^2 =  2.654E-12

      iter #   7 total cpu time :    27.7 secs   av.it.:   8.0
      thresh= 1.629E-07 alpha_mix =  0.700 |ddv_scf|^2 =  5.291E-13

     End of self-consistent calculation

     Convergence has been achieved 


     Representation #  2 mode #   2

     Self-consistent Calculation

      iter #   1 total cpu time :    27.9 secs   av.it.:   4.9
      thresh= 1.000E-02 alpha_mix =  0.700 |ddv_scf|^2 =  5.518E-06

      iter #   2 total cpu time :    28.1 secs   av.it.:   8.7
      thresh= 2.349E-04 alpha_mix =  0.700 |ddv_scf|^2 =  1.338E-06

      iter #   3 total cpu time :    28.3 secs   av.it.:   8.6
      thresh= 1.157E-04 alpha_mix =  0.700 |ddv_scf|^2 =  4.324E-08

      iter #   4 total cpu time :    28.5 secs   av.it.:   8.2
      thresh= 2.079E-05 alpha_mix =  0.700 |ddv_scf|^2 =  7.041E-10

      iter #   5 total cpu time :    28.9 secs   av.it.:   8.6
      thresh= 2.654E-06 alpha_mix =  0.700 |ddv_scf|^2 =  6.924E-12

      iter #   6 total cpu time :    29.1 secs   av.it.:   7.9
      thresh= 2.631E-07 alpha_mix =  0.700 |ddv_scf|^2 =  7.073E-14

     End of self-consistent calculation

     Convergence has been achieved 


     Representation #  3 modes #   3  4

     Self-consistent Calculation

      iter #   1 total cpu time :    29.5 secs   av.it.:   5.0
      thresh= 1.000E-02 alpha_mix =  0.700 |ddv_scf|^2 =  1.026E-06

      iter #   2 total cpu time :    29.9 secs   av.it.:   9.7
      thresh= 1.013E-04 alpha_mix =  0.700 |ddv_scf|^2 =  1.269E-07

      iter #   3 total cpu time :    30.4 secs   av.it.:   9.5
      thresh= 3.562E-05 alpha_mix =  0.700 |ddv_scf|^2 =  6.754E-09

      iter #   4 total cpu time :    31.0 secs   av.it.:   8.8
      thresh= 8.218E-06 alpha_mix =  0.700 |ddv_scf|^2 =  9.420E-12

      iter #   5 total cpu time :    31.4 secs   av.it.:   9.2
      thresh= 3.069E-07 alpha_mix =  0.700 |ddv_scf|^2 =  2.868E-13

     End of self-consistent calculation

     Convergence has been achieved 


     Representation #  4 modes #   5  6

     Self-consistent Calculation

      iter #   1 total cpu time :    31.8 secs   av.it.:   5.0
      thresh= 1.000E-02 alpha_mix =  0.700 |ddv_scf|^2 =  9.088E-07

      iter #   2 total cpu time :    32.2 secs   av.it.:   9.8
      thresh= 9.533E-05 alpha_mix =  0.700 |ddv_scf|^2 =  1.150E-07

      iter #   3 total cpu time :    33.0 secs   av.it.:   9.5
      thresh= 3.392E-05 alpha_mix =  0.700 |ddv_scf|^2 =  6.191E-09

      iter #   4 total cpu time :    33.5 secs   av.it.:   8.9
      thresh= 7.868E-06 alpha_mix =  0.700 |ddv_scf|^2 =  1.408E-11

      iter #   5 total cpu time :    33.9 secs   av.it.:   9.2
      thresh= 3.753E-07 alpha_mix =  0.700 |ddv_scf|^2 =  4.322E-14

     End of self-consistent calculation

     Convergence has been achieved 

     Number of q in the star =    6
     List of q in the star:
          1   0.000000000   0.500000000   0.000000000
          2   0.000000000  -0.500000000   0.000000000
          3   0.500000000   0.000000000   0.000000000
          4   0.000000000   0.000000000   0.500000000
          5   0.000000000   0.000000000  -0.500000000
          6  -0.500000000   0.000000000   0.000000000

     Diagonalizing the dynamical matrix

     q = (    0.000000000   0.500000000   0.000000000 ) 

 **************************************************************************
     freq (    1) =       4.223286 [THz] =     140.873673 [cm-1]
     freq (    2) =       4.223286 [THz] =     140.873673 [cm-1]
     freq (    3) =       7.174578 [THz] =     239.318159 [cm-1]
     freq (    4) =      13.676121 [THz] =     456.186282 [cm-1]
     freq (    5) =      13.676121 [THz] =     456.186282 [cm-1]
     freq (    6) =      14.294745 [THz] =     476.821384 [cm-1]
 **************************************************************************

     Mode symmetry, C_4v (4mm)  point group:

     freq (  1 -  2) =        140.9  [cm-1]   --> E    G_5 D_5       
     freq (  3 -  3) =        239.3  [cm-1]   --> A_1  G_1 D_1       
     freq (  4 -  5) =        456.2  [cm-1]   --> E    G_5 D_5       
     freq (  6 -  6) =        476.8  [cm-1]   --> B_2  G_4 D_2'      

     Calculation of q =    0.7500000  -0.2500000   0.7500000

   Info: using nr1, nr2, nr3 values from input

   Info: using nr1, nr2, nr3 values from input

     Parallelization info
     --------------------
     sticks:   dense  smooth     PW     G-vecs:    dense   smooth      PW
     Min          63      63     30                  684      684     216
     Max          64      64     31                  688      688     218
     Sum         253     253    121                 2741     2741     869



     bravais-lattice index     =            2
     lattice parameter (alat)  =      10.3390  a.u.
     unit-cell volume          =     276.2966 (a.u.)^3
     number of atoms/cell      =            2
     number of atomic types    =            1
     number of electrons       =         8.00
     number of Kohn-Sham states=            4
     kinetic-energy cutoff     =      18.0000  Ry
     charge density cutoff     =      72.0000  Ry
     Exchange-correlation      = SLA  PW   PBE  PBE ( 1  4  3  4 0 0)

     celldm(1)=  10.339000  celldm(2)=   0.000000  celldm(3)=   0.000000
     celldm(4)=   0.000000  celldm(5)=   0.000000  celldm(6)=   0.000000

     crystal axes: (cart. coord. in units of alat)
               a(1) = (  -0.500000   0.000000   0.500000 )  
               a(2) = (   0.000000   0.500000   0.500000 )  
               a(3) = (  -0.500000   0.500000   0.000000 )  

     reciprocal axes: (cart. coord. in units 2 pi/alat)
               b(1) = ( -1.000000 -1.000000  1.000000 )  
               b(2) = (  1.000000  1.000000  1.000000 )  
               b(3) = ( -1.000000  1.000000 -1.000000 )  


     PseudoPot. # 1 for Si read from file:
     /home/max/quantum_espresso/qe-6.1/pseudo/si_pbe_v1.uspp.F.UPF.txt
     MD5 check sum: a056efeee980c13900f22a371efd63c1
     Pseudo is Ultrasoft + core correction, Zval =  4.0
     Generated by new atomic code, or converted to UPF format
     Using radial grid of  899 points,  6 beta functions with: 
                l(1) =   0
                l(2) =   0
                l(3) =   1
                l(4) =   1
                l(5) =   2
                l(6) =   2
     Q(r) pseudized with  8 coefficients,  rinner =    0.900   0.900   0.900
                                                       0.900   0.900

     atomic species   valence    mass     pseudopotential
        Si             4.00    28.08600     Si( 1.00)

     48 Sym. Ops., with inversion, found



   Cartesian axes

     site n.     atom                  positions (alat units)
         1           Si  tau(   1) = (   0.0000000   0.0000000   0.0000000  )
         2           Si  tau(   2) = (   0.2500000   0.2500000   0.2500000  )

     number of k points=   288

     Number of k-points >= 100: set verbosity='high' to print them.

     Dense  grid:     2741 G-vectors     FFT dimensions: (  20,  20,  20)

     Estimated max dynamical RAM per process >       0.33MB

     Estimated total allocated dynamical RAM >       1.31MB

     Check: negative/imaginary core charge=   -0.000005    0.000000

     The potential is recalculated from file :
     ./_ph0/silicon.10.339.save/charge-density.dat

     Starting wfc are    8 atomic wfcs

     Band Structure Calculation
     Davidson diagonalization with overlap

     ethr =  1.25E-10,  avg # of iterations = 11.6

     total cpu time spent up to now is        4.7 secs

     End of band structure calculation

     Number of k-points >= 100: set verbosity='high' to print the bands.

     highest occupied level (ev):     5.6843

     Writing output data file silicon.10.339.save

                                                                                

     bravais-lattice index     =            2
     lattice parameter (alat)  =      10.3390  a.u.
     unit-cell volume          =     276.2966 (a.u.)^3
     number of atoms/cell      =            2
     number of atomic types    =            1
     kinetic-energy cut-off    =      18.0000  Ry
     charge density cut-off    =      72.0000  Ry
     convergence threshold     =      1.0E-12
     beta                      =       0.7000
     number of iterations used =            4
     Exchange-correlation      = SLA  PW   PBE  PBE ( 1  4  3  4 0 0)


     celldm(1)=   10.33900  celldm(2)=    0.00000  celldm(3)=    0.00000
     celldm(4)=    0.00000  celldm(5)=    0.00000  celldm(6)=    0.00000

     crystal axes: (cart. coord. in units of alat)
               a(1) = ( -0.5000  0.0000  0.5000 )  
               a(2) = (  0.0000  0.5000  0.5000 )  
               a(3) = ( -0.5000  0.5000  0.0000 )  

     reciprocal axes: (cart. coord. in units 2 pi/alat)
               b(1) = ( -1.0000 -1.0000  1.0000 )  
               b(2) = (  1.0000  1.0000  1.0000 )  
               b(3) = ( -1.0000  1.0000 -1.0000 )  


     Atoms inside the unit cell: 

     Cartesian axes

     site n.  atom      mass           positions (alat units)
        1     Si  28.0860   tau(    1) = (    0.00000    0.00000    0.00000  )
        2     Si  28.0860   tau(    2) = (    0.25000    0.25000    0.25000  )

     Computing dynamical matrix for 
                    q = (   0.7500000  -0.2500000   0.7500000 )

      2 Sym.Ops. (no q -> -q+G )


     G cutoff =  194.9530  (    685 G-vectors)     FFT grid: ( 20, 20, 20)
     number of k points=   288

     PseudoPot. # 1 for Si read from file:
     /home/max/quantum_espresso/qe-6.1/pseudo/si_pbe_v1.uspp.F.UPF.txt
     MD5 check sum: a056efeee980c13900f22a371efd63c1
     Pseudo is Ultrasoft + core correction, Zval =  4.0
     Generated by new atomic code, or converted to UPF format
     Using radial grid of  899 points,  6 beta functions with: 
                l(1) =   0
                l(2) =   0
                l(3) =   1
                l(4) =   1
                l(5) =   2
                l(6) =   2
     Q(r) pseudized with  8 coefficients,  rinner =    0.900   0.900   0.900
                                                       0.900   0.900

     Mode symmetry, C_s (m)     point group:


     Atomic displacements:
     There are   6 irreducible representations

     Representation     1      1 modes -A'  To be done

     Representation     2      1 modes -A'  To be done

     Representation     3      1 modes -A'  To be done

     Representation     4      1 modes -A'  To be done

     Representation     5      1 modes -A''  To be done

     Representation     6      1 modes -A''  To be done



     Alpha used in Ewald sum =   0.7000
     PHONON       :    32.82s CPU        37.25s WALL



     Representation #  1 mode #   1

     Self-consistent Calculation

      iter #   1 total cpu time :    37.8 secs   av.it.:   5.3
      thresh= 1.000E-02 alpha_mix =  0.700 |ddv_scf|^2 =  6.113E-05

      iter #   2 total cpu time :    38.7 secs   av.it.:   8.9
      thresh= 7.818E-04 alpha_mix =  0.700 |ddv_scf|^2 =  1.601E-04

      iter #   3 total cpu time :    39.6 secs   av.it.:   7.6
      thresh= 1.265E-03 alpha_mix =  0.700 |ddv_scf|^2 =  1.139E-06

      iter #   4 total cpu time :    40.4 secs   av.it.:   8.4
      thresh= 1.067E-04 alpha_mix =  0.700 |ddv_scf|^2 =  5.698E-08

      iter #   5 total cpu time :    41.3 secs   av.it.:   8.3
      thresh= 2.387E-05 alpha_mix =  0.700 |ddv_scf|^2 =  7.291E-09

      iter #   6 total cpu time :    42.1 secs   av.it.:   8.5
      thresh= 8.539E-06 alpha_mix =  0.700 |ddv_scf|^2 =  8.010E-11

      iter #   7 total cpu time :    43.0 secs   av.it.:   8.8
      thresh= 8.950E-07 alpha_mix =  0.700 |ddv_scf|^2 =  2.903E-12

      iter #   8 total cpu time :    43.7 secs   av.it.:   8.6
      thresh= 1.704E-07 alpha_mix =  0.700 |ddv_scf|^2 =  1.778E-13

     End of self-consistent calculation

     Convergence has been achieved 


     Representation #  2 mode #   2

     Self-consistent Calculation

      iter #   1 total cpu time :    44.4 secs   av.it.:   5.4
      thresh= 1.000E-02 alpha_mix =  0.700 |ddv_scf|^2 =  1.088E-04

      iter #   2 total cpu time :    45.3 secs   av.it.:   8.7
      thresh= 1.043E-03 alpha_mix =  0.700 |ddv_scf|^2 =  3.102E-04

      iter #   3 total cpu time :    46.0 secs   av.it.:   7.4
      thresh= 1.761E-03 alpha_mix =  0.700 |ddv_scf|^2 =  7.841E-07

      iter #   4 total cpu time :    46.9 secs   av.it.:   8.5
      thresh= 8.855E-05 alpha_mix =  0.700 |ddv_scf|^2 =  5.641E-08

      iter #   5 total cpu time :    47.7 secs   av.it.:   8.2
      thresh= 2.375E-05 alpha_mix =  0.700 |ddv_scf|^2 =  1.032E-08

      iter #   6 total cpu time :    48.4 secs   av.it.:   8.5
      thresh= 1.016E-05 alpha_mix =  0.700 |ddv_scf|^2 =  7.932E-11

      iter #   7 total cpu time :    49.3 secs   av.it.:   8.8
      thresh= 8.906E-07 alpha_mix =  0.700 |ddv_scf|^2 =  2.663E-12

      iter #   8 total cpu time :    50.1 secs   av.it.:   8.7
      thresh= 1.632E-07 alpha_mix =  0.700 |ddv_scf|^2 =  8.480E-13

     End of self-consistent calculation

     Convergence has been achieved 


     Representation #  3 mode #   3

     Self-consistent Calculation

      iter #   1 total cpu time :    51.1 secs   av.it.:   5.3
      thresh= 1.000E-02 alpha_mix =  0.700 |ddv_scf|^2 =  8.527E-05

      iter #   2 total cpu time :    51.9 secs   av.it.:   8.8
      thresh= 9.234E-04 alpha_mix =  0.700 |ddv_scf|^2 =  2.276E-04

      iter #   3 total cpu time :    52.6 secs   av.it.:   7.4
      thresh= 1.509E-03 alpha_mix =  0.700 |ddv_scf|^2 =  1.339E-06

      iter #   4 total cpu time :    53.7 secs   av.it.:   8.2
      thresh= 1.157E-04 alpha_mix =  0.700 |ddv_scf|^2 =  5.747E-08

      iter #   5 total cpu time :    54.4 secs   av.it.:   8.4
      thresh= 2.397E-05 alpha_mix =  0.700 |ddv_scf|^2 =  1.059E-08

      iter #   6 total cpu time :    55.3 secs   av.it.:   8.5
      thresh= 1.029E-05 alpha_mix =  0.700 |ddv_scf|^2 =  4.640E-11

      iter #   7 total cpu time :    56.1 secs   av.it.:   8.7
      thresh= 6.812E-07 alpha_mix =  0.700 |ddv_scf|^2 =  1.599E-12

      iter #   8 total cpu time :    57.0 secs   av.it.:   8.8
      thresh= 1.265E-07 alpha_mix =  0.700 |ddv_scf|^2 =  2.477E-13

     End of self-consistent calculation

     Convergence has been achieved 


     Representation #  4 mode #   4

     Self-consistent Calculation

      iter #   1 total cpu time :    57.6 secs   av.it.:   5.2
      thresh= 1.000E-02 alpha_mix =  0.700 |ddv_scf|^2 =  3.765E-05

      iter #   2 total cpu time :    58.4 secs   av.it.:   8.9
[...]
        k(   59) = (  -0.8750000   0.1250000  -0.1250000), wk =   0.0625000
        k(   60) = (  -1.3750000  -0.8750000  -0.1250000), wk =   0.0000000
        k(   61) = (  -1.1250000   0.3750000  -0.3750000), wk =   0.0625000
        k(   62) = (  -1.6250000  -0.6250000  -0.3750000), wk =   0.0000000
        k(   63) = (  -0.3750000   0.3750000   1.1250000), wk =   0.0625000
        k(   64) = (  -0.8750000  -0.6250000   1.1250000), wk =   0.0000000

     Dense  grid:     2741 G-vectors     FFT dimensions: (  20,  20,  20)

     Estimated max dynamical RAM per process >       0.33MB

     Estimated total allocated dynamical RAM >       1.31MB

     Check: negative/imaginary core charge=   -0.000005    0.000000

     The potential is recalculated from file :
     ./_ph0/silicon.10.339.save/charge-density.dat

     Starting wfc are    8 atomic wfcs

     Band Structure Calculation
     Davidson diagonalization with overlap

     ethr =  1.25E-10,  avg # of iterations = 11.6

     total cpu time spent up to now is        7.4 secs

     End of band structure calculation

          k =-0.1250 0.1250 0.1250 (   338 PWs)   bands (ev):

    -5.6363   4.3755   5.6843   5.6843

          k =-0.6250-0.8750 0.1250 (   361 PWs)   bands (ev):

    -2.4506  -0.9125   2.0145   3.0838

          k =-0.3750 0.3750-0.1250 (   352 PWs)   bands (ev):

    -4.6141   1.3858   3.7062   5.2028

          k =-0.8750-0.6250-0.1250 (   361 PWs)   bands (ev):

    -2.4506  -0.9125   2.0145   3.0838

          k = 0.3750-0.3750 0.6250 (   361 PWs)   bands (ev):

    -3.4810  -0.6832   3.7238   4.4343

          k =-0.1250-1.3750 0.6250 (   361 PWs)   bands (ev):

    -2.9866  -0.6053   2.0706   4.1190

          k = 0.1250-0.1250 0.3750 (   353 PWs)   bands (ev):

    -5.1108   2.7577   4.6791   4.7418

          k =-0.3750-1.1250 0.3750 (   361 PWs)   bands (ev):

    -2.9866  -0.6053   2.0706   4.1190

          k =-0.1250 0.6250 0.1250 (   351 PWs)   bands (ev):

    -4.0831   1.0460   3.3597   3.8072

          k =-0.6250-0.3750 0.1250 (   357 PWs)   bands (ev):

    -3.6700   0.1788   2.7206   4.0824

          k = 0.6250-0.1250 0.8750 (   361 PWs)   bands (ev):

    -2.4506  -0.9125   2.0145   3.0838

          k = 0.1250-1.1250 0.8750 (   358 PWs)   bands (ev):

    -2.6163  -0.8158   2.6193   3.3414

          k = 0.3750 0.1250 0.6250 (   357 PWs)   bands (ev):

    -3.6700   0.1788   2.7206   4.0824

          k =-0.1250-0.8750 0.6250 (   361 PWs)   bands (ev):

    -2.4506  -0.9125   2.0145   3.0838

          k =-0.1250-0.8750 0.1250 (   358 PWs)   bands (ev):

    -2.6163  -0.8158   2.6193   3.3414

          k =-0.6250-1.8750 0.1250 (   351 PWs)   bands (ev):

    -4.0831   1.0460   3.3597   3.8072

          k =-0.3750 0.3750 0.3750 (   353 PWs)   bands (ev):

    -4.1839   0.1029   4.8971   4.8971

          k =-0.8750-0.6250 0.3750 (   357 PWs)   bands (ev):

    -3.6700   0.1788   2.7206   4.0824

          k = 0.3750-0.3750 1.1250 (   361 PWs)   bands (ev):

    -2.9866  -0.6053   2.0706   4.1190

          k =-0.1250-1.3750 1.1250 (   361 PWs)   bands (ev):

    -2.4506  -0.9125   2.0145   3.0838

          k = 0.1250-0.3750 0.3750 (   352 PWs)   bands (ev):

    -4.6141   1.3858   3.7062   5.2028

          k =-0.3750-1.3750 0.3750 (   361 PWs)   bands (ev):

    -3.4810  -0.6832   3.7238   4.4343

          k = 0.3750-0.3750-0.1250 (   352 PWs)   bands (ev):

    -4.6141   1.3858   3.7062   5.2028

          k =-0.1250-1.3750-0.1250 (   351 PWs)   bands (ev):

    -4.0831   1.0460   3.3597   3.8072

          k =-0.6250 0.3750-0.3750 (   361 PWs)   bands (ev):

    -3.4810  -0.6832   3.7238   4.4343

          k =-1.1250-0.6250-0.3750 (   357 PWs)   bands (ev):

    -3.6700   0.1788   2.7206   4.0824

          k =-0.3750 0.3750 0.6250 (   361 PWs)   bands (ev):

    -3.4810  -0.6832   3.7238   4.4343

          k =-0.8750-0.6250 0.6250 (   352 PWs)   bands (ev):

    -4.6141   1.3858   3.7062   5.2028

          k =-0.3750 0.1250-0.1250 (   353 PWs)   bands (ev):

    -5.1108   2.7577   4.6791   4.7418

          k =-0.8750-0.8750-0.1250 (   358 PWs)   bands (ev):

    -2.6163  -0.8158   2.6193   3.3414

          k =-0.1250 0.1250 0.3750 (   353 PWs)   bands (ev):

    -5.1108   2.7577   4.6791   4.7418

          k =-0.6250-0.8750 0.3750 (   357 PWs)   bands (ev):

    -3.6700   0.1788   2.7206   4.0824

          k = 0.1250 0.6250-0.1250 (   351 PWs)   bands (ev):

    -4.0831   1.0460   3.3597   3.8072

          k =-0.3750-0.3750-0.1250 (   352 PWs)   bands (ev):

    -4.6141   1.3858   3.7062   5.2028

          k = 0.6250 0.1250-0.1250 (   351 PWs)   bands (ev):

    -4.0831   1.0460   3.3597   3.8072

          k = 0.1250-0.8750-0.1250 (   358 PWs)   bands (ev):

    -2.6163  -0.8158   2.6193   3.3414

          k =-0.8750 0.1250-0.6250 (   361 PWs)   bands (ev):

    -2.4506  -0.9125   2.0145   3.0838

          k =-1.3750-0.8750-0.6250 (   352 PWs)   bands (ev):

    -4.6141   1.3858   3.7062   5.2028

          k = 0.8750-0.1250 0.6250 (   361 PWs)   bands (ev):

    -2.4506  -0.9125   2.0145   3.0838

          k = 0.3750-1.1250 0.6250 (   357 PWs)   bands (ev):

    -3.6700   0.1788   2.7206   4.0824

          k =-0.6250 0.1250 0.8750 (   361 PWs)   bands (ev):

    -2.4506  -0.9125   2.0145   3.0838

          k =-1.1250-0.8750 0.8750 (   338 PWs)   bands (ev):

    -5.6363   4.3755   5.6843   5.6843

          k =-0.1250 0.8750 0.6250 (   361 PWs)   bands (ev):

    -2.4506  -0.9125   2.0145   3.0838

          k =-0.6250-0.1250 0.6250 (   361 PWs)   bands (ev):

    -2.9866  -0.6053   2.0706   4.1190

          k = 0.1250 0.8750-0.6250 (   361 PWs)   bands (ev):

    -2.4506  -0.9125   2.0145   3.0838

          k =-0.3750-0.1250-0.6250 (   357 PWs)   bands (ev):

    -3.6700   0.1788   2.7206   4.0824

          k =-0.6250-0.1250-0.3750 (   357 PWs)   bands (ev):

    -3.6700   0.1788   2.7206   4.0824

          k =-1.1250-1.1250-0.3750 (   351 PWs)   bands (ev):

    -4.0831   1.0460   3.3597   3.8072

          k = 0.6250 0.1250 0.3750 (   357 PWs)   bands (ev):

    -3.6700   0.1788   2.7206   4.0824

          k = 0.1250-0.8750 0.3750 (   361 PWs)   bands (ev):

    -2.4506  -0.9125   2.0145   3.0838

          k =-0.3750-0.1250 0.6250 (   357 PWs)   bands (ev):

    -3.6700   0.1788   2.7206   4.0824

          k =-0.8750-1.1250 0.6250 (   353 PWs)   bands (ev):

    -5.1108   2.7577   4.6791   4.7418

          k = 0.1250 0.6250 0.3750 (   357 PWs)   bands (ev):

    -3.6700   0.1788   2.7206   4.0824

          k =-0.3750-0.3750 0.3750 (   353 PWs)   bands (ev):

    -4.1839   0.1029   4.8971   4.8971

          k =-0.1250 0.6250-0.3750 (   357 PWs)   bands (ev):

    -3.6700   0.1788   2.7206   4.0824

          k =-0.6250-0.3750-0.3750 (   361 PWs)   bands (ev):

    -3.4810  -0.6832   3.7238   4.4343

          k = 0.1250-0.8750-0.1250 (   358 PWs)   bands (ev):

    -2.6163  -0.8158   2.6193   3.3414

          k =-0.3750-1.8750-0.1250 (   353 PWs)   bands (ev):

    -5.1108   2.7577   4.6791   4.7418

          k =-0.8750 0.1250-0.1250 (   358 PWs)   bands (ev):

    -2.6163  -0.8158   2.6193   3.3414

          k =-1.3750-0.8750-0.1250 (   361 PWs)   bands (ev):

    -2.4506  -0.9125   2.0145   3.0838

          k =-1.1250 0.3750-0.3750 (   361 PWs)   bands (ev):

    -2.9866  -0.6053   2.0706   4.1190

          k =-1.6250-0.6250-0.3750 (   361 PWs)   bands (ev):

    -3.4810  -0.6832   3.7238   4.4343

          k =-0.3750 0.3750 1.1250 (   361 PWs)   bands (ev):

    -2.9866  -0.6053   2.0706   4.1190

          k =-0.8750-0.6250 1.1250 (   353 PWs)   bands (ev):

    -5.1108   2.7577   4.6791   4.7418

     highest occupied level (ev):     5.6843

     Writing output data file silicon.10.339.save

                                                                                

     bravais-lattice index     =            2
     lattice parameter (alat)  =      10.3390  a.u.
     unit-cell volume          =     276.2966 (a.u.)^3
     number of atoms/cell      =            2
     number of atomic types    =            1
     kinetic-energy cut-off    =      18.0000  Ry
     charge density cut-off    =      72.0000  Ry
     convergence threshold     =      1.0E-12
     beta                      =       0.7000
     number of iterations used =            4
     Exchange-correlation      = SLA  PW   PBE  PBE ( 1  4  3  4 0 0)


     celldm(1)=   10.33900  celldm(2)=    0.00000  celldm(3)=    0.00000
     celldm(4)=    0.00000  celldm(5)=    0.00000  celldm(6)=    0.00000

     crystal axes: (cart. coord. in units of alat)
               a(1) = ( -0.5000  0.0000  0.5000 )  
               a(2) = (  0.0000  0.5000  0.5000 )  
               a(3) = ( -0.5000  0.5000  0.0000 )  

     reciprocal axes: (cart. coord. in units 2 pi/alat)
               b(1) = ( -1.0000 -1.0000  1.0000 )  
               b(2) = (  1.0000  1.0000  1.0000 )  
               b(3) = ( -1.0000  1.0000 -1.0000 )  


     Atoms inside the unit cell: 

     Cartesian axes

     site n.  atom      mass           positions (alat units)
        1     Si  28.0860   tau(    1) = (    0.00000    0.00000    0.00000  )
        2     Si  28.0860   tau(    2) = (    0.25000    0.25000    0.25000  )

     Computing dynamical matrix for 
                    q = (  -0.5000000  -1.0000000   0.0000000 )

      8 Sym.Ops. (no q -> -q+G )


     G cutoff =  194.9530  (    685 G-vectors)     FFT grid: ( 20, 20, 20)
     number of k points=    64

     PseudoPot. # 1 for Si read from file:
     /home/max/quantum_espresso/qe-6.1/pseudo/si_pbe_v1.uspp.F.UPF.txt
     MD5 check sum: a056efeee980c13900f22a371efd63c1
     Pseudo is Ultrasoft + core correction, Zval =  4.0
     Generated by new atomic code, or converted to UPF format
     Using radial grid of  899 points,  6 beta functions with: 
                l(1) =   0
                l(2) =   0
                l(3) =   1
                l(4) =   1
                l(5) =   2
                l(6) =   2
     Q(r) pseudized with  8 coefficients,  rinner =    0.900   0.900   0.900
                                                       0.900   0.900


     Atomic displacements:
     There are   3 irreducible representations

     Representation     1      2 modes -  To be done

     Representation     2      2 modes -  To be done

     Representation     3      2 modes -  To be done



     Alpha used in Ewald sum =   0.7000
     PHONON       :  1m25.19s CPU     1m35.95s WALL



     Representation #  1 modes #   1  2

     Self-consistent Calculation

      iter #   1 total cpu time :    96.2 secs   av.it.:   5.3
      thresh= 1.000E-02 alpha_mix =  0.700 |ddv_scf|^2 =  6.324E-06

      iter #   2 total cpu time :    96.7 secs   av.it.:   9.9
      thresh= 2.515E-04 alpha_mix =  0.700 |ddv_scf|^2 =  3.423E-06

      iter #   3 total cpu time :    97.2 secs   av.it.:   9.2
      thresh= 1.850E-04 alpha_mix =  0.700 |ddv_scf|^2 =  8.478E-09

      iter #   4 total cpu time :    97.5 secs   av.it.:   9.1
      thresh= 9.207E-06 alpha_mix =  0.700 |ddv_scf|^2 =  1.916E-11

      iter #   5 total cpu time :    97.9 secs   av.it.:   9.2
      thresh= 4.377E-07 alpha_mix =  0.700 |ddv_scf|^2 =  5.284E-13

     End of self-consistent calculation

     Convergence has been achieved 


     Representation #  2 modes #   3  4

     Self-consistent Calculation

      iter #   1 total cpu time :    98.2 secs   av.it.:   5.2
      thresh= 1.000E-02 alpha_mix =  0.700 |ddv_scf|^2 =  9.807E-06

      iter #   2 total cpu time :    98.6 secs   av.it.:   9.9
      thresh= 3.132E-04 alpha_mix =  0.700 |ddv_scf|^2 =  1.307E-05

      iter #   3 total cpu time :    99.1 secs   av.it.:   9.1
      thresh= 3.615E-04 alpha_mix =  0.700 |ddv_scf|^2 =  9.977E-09

      iter #   4 total cpu time :    99.5 secs   av.it.:   8.9
      thresh= 9.989E-06 alpha_mix =  0.700 |ddv_scf|^2 =  8.181E-11

      iter #   5 total cpu time :    99.9 secs   av.it.:   9.4
      thresh= 9.045E-07 alpha_mix =  0.700 |ddv_scf|^2 =  1.750E-12

      iter #   6 total cpu time :   100.2 secs   av.it.:   9.1
      thresh= 1.323E-07 alpha_mix =  0.700 |ddv_scf|^2 =  1.453E-14

     End of self-consistent calculation

     Convergence has been achieved 


     Representation #  3 modes #   5  6

     Self-consistent Calculation

      iter #   1 total cpu time :   100.5 secs   av.it.:   5.1
      thresh= 1.000E-02 alpha_mix =  0.700 |ddv_scf|^2 =  2.648E-06

      iter #   2 total cpu time :   101.3 secs   av.it.:   9.7
      thresh= 1.627E-04 alpha_mix =  0.700 |ddv_scf|^2 =  1.444E-06

      iter #   3 total cpu time :   101.7 secs   av.it.:   9.1
      thresh= 1.202E-04 alpha_mix =  0.700 |ddv_scf|^2 =  8.358E-09

      iter #   4 total cpu time :   102.0 secs   av.it.:   8.8
      thresh= 9.142E-06 alpha_mix =  0.700 |ddv_scf|^2 =  4.275E-11

      iter #   5 total cpu time :   102.4 secs   av.it.:   9.1
      thresh= 6.538E-07 alpha_mix =  0.700 |ddv_scf|^2 =  6.984E-13

     End of self-consistent calculation

     Convergence has been achieved 

     Number of q in the star =    6
     List of q in the star:
          1  -0.500000000  -1.000000000   0.000000000
          2   0.000000000   1.000000000   0.500000000
          3   0.000000000  -1.000000000  -0.500000000
          4   0.500000000   1.000000000   0.000000000
          5  -1.000000000  -0.500000000   0.000000000
          6   0.000000000  -0.500000000  -1.000000000

     Diagonalizing the dynamical matrix

     q = (   -0.500000000  -1.000000000   0.000000000 ) 

 **************************************************************************
     freq (    1) =       7.014132 [THz] =     233.966251 [cm-1]
     freq (    2) =       7.014132 [THz] =     233.966251 [cm-1]
     freq (    3) =      10.770192 [THz] =     359.254934 [cm-1]
     freq (    4) =      10.770192 [THz] =     359.254934 [cm-1]
     freq (    5) =      13.755731 [THz] =     458.841804 [cm-1]
     freq (    6) =      13.755731 [THz] =     458.841804 [cm-1]
 **************************************************************************

     init_run     :      0.53s CPU      0.60s WALL (       7 calls)
     electrons    :      5.34s CPU      5.91s WALL (       7 calls)

     Called by init_run:
     wfcinit      :      0.00s CPU      0.00s WALL (       7 calls)
     potinit      :      0.02s CPU      0.02s WALL (       7 calls)

     Called by electrons:
     c_bands      :      5.33s CPU      5.89s WALL (       7 calls)
     v_of_rho     :      0.01s CPU      0.01s WALL (       8 calls)
     newd         :      0.03s CPU      0.03s WALL (       8 calls)

     Called by c_bands:
     init_us_2    :      0.69s CPU      0.79s WALL (   17588 calls)
     cegterg      :      4.46s CPU      4.87s WALL (     796 calls)

     Called by sum_band:

     Called by *egterg:
     h_psi        :     49.96s CPU     56.07s WALL (  152207 calls)
     s_psi        :      5.86s CPU      6.58s WALL (  309134 calls)
     g_psi        :      0.03s CPU      0.03s WALL (    9268 calls)
     cdiaghg      :      0.48s CPU      0.53s WALL (   10064 calls)

     Called by h_psi:
     h_psi:pot    :     49.76s CPU     55.86s WALL (  152207 calls)
     h_psi:calbec :      5.48s CPU      6.17s WALL (  152207 calls)
     vloc_psi     :     41.12s CPU     46.15s WALL (  152207 calls)
     add_vuspsi   :      2.93s CPU      3.28s WALL (  152207 calls)

     General routines
     calbec       :     11.93s CPU     13.47s WALL (  345506 calls)
     fft          :      0.50s CPU      0.57s WALL (    5239 calls)
     ffts         :      0.15s CPU      0.17s WALL (    2748 calls)
     fftw         :     48.04s CPU     54.03s WALL ( 1378182 calls)
     davcio       :      0.32s CPU      0.37s WALL (   79045 calls)

     Parallel routines
     fft_scatter  :     15.51s CPU     17.85s WALL ( 1386169 calls)

     PHONON       :  1m31.00s CPU     1m42.43s WALL

     INITIALIZATION: 
     phq_setup    :      0.05s CPU      0.06s WALL (       8 calls)
     phq_init     :      2.44s CPU      2.60s WALL (       8 calls)

     phq_init     :      2.44s CPU      2.60s WALL (       8 calls)
     set_drhoc    :      0.29s CPU      0.29s WALL (      24 calls)
     init_vloc    :      0.01s CPU      0.01s WALL (       8 calls)
     init_us_1    :      0.49s CPU      0.53s WALL (       8 calls)
     newd         :      0.03s CPU      0.03s WALL (       8 calls)
     dvanqq       :      0.26s CPU      0.28s WALL (       8 calls)
     drho         :      1.41s CPU      1.52s WALL (       8 calls)

     DYNAMICAL MATRIX:
     dynmat0      :      0.52s CPU      0.54s WALL (       8 calls)
     phqscf       :     79.85s CPU     90.29s WALL (       8 calls)
     dynmatrix    :      0.01s CPU      0.02s WALL (       8 calls)

     phqscf       :     79.85s CPU     90.29s WALL (       8 calls)
     solve_linter :     79.09s CPU     89.41s WALL (      32 calls)
     drhodv       :      0.55s CPU      0.65s WALL (      32 calls)

     dynmat0      :      0.52s CPU      0.54s WALL (       8 calls)
     dynmat_us    :      0.29s CPU      0.30s WALL (       8 calls)
     d2ionq       :      0.01s CPU      0.01s WALL (       8 calls)
     dynmatcc     :      0.21s CPU      0.22s WALL (       8 calls)

     dynmat_us    :      0.29s CPU      0.30s WALL (       8 calls)
     addusdynmat  :      0.00s CPU      0.00s WALL (       8 calls)

     phqscf       :     79.85s CPU     90.29s WALL (       8 calls)
     solve_linter :     79.09s CPU     89.41s WALL (      32 calls)

     solve_linter :     79.09s CPU     89.41s WALL (      32 calls)
     dvqpsi_us    :      1.80s CPU      1.98s WALL (    2508 calls)
     ortho        :      1.38s CPU      1.58s WALL (   15550 calls)
     cgsolve      :     62.22s CPU     70.25s WALL (   15550 calls)
     incdrhoscf   :      5.48s CPU      6.22s WALL (   15550 calls)
     addusddens   :      1.18s CPU      1.30s WALL (     228 calls)
     vpsifft      :      3.94s CPU      4.48s WALL (   12922 calls)
     dv_of_drho   :      0.22s CPU      0.25s WALL (     295 calls)
     mix_pot      :      0.06s CPU      0.06s WALL (     201 calls)
     psymdvscf    :      0.82s CPU      0.91s WALL (     196 calls)
     newdq        :      1.34s CPU      1.53s WALL (     201 calls)
     adddvscf     :      0.47s CPU      0.52s WALL (   13042 calls)
     drhodvus     :      0.00s CPU      0.00s WALL (      32 calls)

     dvqpsi_us    :      1.80s CPU      1.98s WALL (    2508 calls)
     dvqpsi_us_on :      0.84s CPU      0.92s WALL (    2508 calls)

     cgsolve      :     62.22s CPU     70.25s WALL (   15550 calls)
     ch_psi       :     59.32s CPU     66.80s WALL (  141347 calls)

     ch_psi       :     59.32s CPU     66.80s WALL (  141347 calls)
     h_psi        :     49.96s CPU     56.07s WALL (  152207 calls)
     last         :     10.01s CPU     11.47s WALL (  141347 calls)

     h_psi        :     49.96s CPU     56.07s WALL (  152207 calls)
     add_vuspsi   :      2.93s CPU      3.28s WALL (  152207 calls)

     incdrhoscf   :      5.48s CPU      6.22s WALL (   15550 calls)
     addusdbec    :      0.86s CPU      0.96s WALL (   17998 calls)

     drhodvus     :      0.00s CPU      0.00s WALL (      32 calls)

      General routines
     calbec       :     11.93s CPU     13.47s WALL (  345506 calls)
     fft          :      0.50s CPU      0.57s WALL (    5239 calls)
     ffts         :      0.15s CPU      0.17s WALL (    2748 calls)
     fftw         :     48.04s CPU     54.03s WALL ( 1378182 calls)
     davcio       :      0.32s CPU      0.37s WALL (   79045 calls)
     write_rec    :      0.27s CPU      0.32s WALL (     233 calls)


     PHONON       :  1m31.00s CPU     1m42.43s WALL


   This run was terminated on:  12:36: 8   9Nov2017            

=------------------------------------------------------------------------------=
   JOB DONE.
=------------------------------------------------------------------------------=
