
     Program PWSCF v.6.1 (svn rev. 13369) starts on 10Nov2017 at 13:43:50 

     This program is part of the open-source Quantum ESPRESSO suite
     for quantum simulation of materials; please cite
         "P. Giannozzi et al., J. Phys.:Condens. Matter 21 395502 (2009);
          URL http://www.quantum-espresso.org", 
     in publications or presentations arising from this work. More details at
     http://www.quantum-espresso.org/quote

     Parallel version (MPI), running on     4 processors
     R & G space division:  proc/nbgrp/npool/nimage =       4
     Waiting for input...
     Reading input from standard input
     Message from routine read_cards :
     DEPRECATED: no units specified in ATOMIC_POSITIONS card
     Message from routine read_cards :
     ATOMIC_POSITIONS: units set to alat

     Current dimensions of program PWSCF are:
     Max number of different atomic species (ntypx) = 10
     Max number of k-points (npk) =  40000
     Max angular momentum in pseudopotentials (lmaxx) =  3

     Subspace diagonalization in iterative solution of the eigenvalue problem:
     a serial algorithm will be used


     Parallelization info
     --------------------
     sticks:   dense  smooth     PW     G-vecs:    dense   smooth      PW
     Min          75      37     13                  845      309      70
     Max          76      38     14                  846      312      71
     Sum         301     151     55                 3383     1243     283



     bravais-lattice index     =            2
     lattice parameter (alat)  =      10.3330  a.u.
     unit-cell volume          =     275.8159 (a.u.)^3
     number of atoms/cell      =            2
     number of atomic types    =            1
     number of electrons       =         8.00
     number of Kohn-Sham states=            4
     kinetic-energy cutoff     =      10.0000  Ry
     charge density cutoff     =      80.0000  Ry
     convergence threshold     =      1.0E-08
     mixing beta               =       0.7000
     number of iterations used =            8  plain     mixing
     Exchange-correlation      = SLA  PW   PBE  PBE ( 1  4  3  4 0 0)

     celldm(1)=  10.333000  celldm(2)=   0.000000  celldm(3)=   0.000000
     celldm(4)=   0.000000  celldm(5)=   0.000000  celldm(6)=   0.000000

     crystal axes: (cart. coord. in units of alat)
               a(1) = (  -0.500000   0.000000   0.500000 )  
               a(2) = (   0.000000   0.500000   0.500000 )  
               a(3) = (  -0.500000   0.500000   0.000000 )  

     reciprocal axes: (cart. coord. in units 2 pi/alat)
               b(1) = ( -1.000000 -1.000000  1.000000 )  
               b(2) = (  1.000000  1.000000  1.000000 )  
               b(3) = ( -1.000000  1.000000 -1.000000 )  


     PseudoPot. # 1 for Si read from file:
     /home/s1333534/quantum_espresso/qe-6.1/pseudo/si_pbe_v1.uspp.F.UPF.txt
     MD5 check sum: a056efeee980c13900f22a371efd63c1
     Pseudo is Ultrasoft + core correction, Zval =  4.0
     Generated by new atomic code, or converted to UPF format
     Using radial grid of  899 points,  6 beta functions with: 
                l(1) =   0
                l(2) =   0
                l(3) =   1
                l(4) =   1
                l(5) =   2
                l(6) =   2
     Q(r) pseudized with  8 coefficients,  rinner =    0.900   0.900   0.900
                                                       0.900   0.900

     atomic species   valence    mass     pseudopotential
        Si             4.00    28.08600     Si( 1.00)

     48 Sym. Ops., with inversion, found (24 have fractional translation)



   Cartesian axes

     site n.     atom                  positions (alat units)
         1           Si  tau(   1) = (   0.0000000   0.0000000   0.0000000  )
         2           Si  tau(   2) = (   0.2500000   0.2500000   0.2500000  )

     number of k points=    10
                       cart. coord. in units 2pi/alat
        k(    1) = (  -0.1250000   0.1250000   0.1250000), wk =   0.0625000
        k(    2) = (  -0.3750000   0.3750000  -0.1250000), wk =   0.1875000
        k(    3) = (   0.3750000  -0.3750000   0.6250000), wk =   0.1875000
        k(    4) = (   0.1250000  -0.1250000   0.3750000), wk =   0.1875000
        k(    5) = (  -0.1250000   0.6250000   0.1250000), wk =   0.1875000
        k(    6) = (   0.6250000  -0.1250000   0.8750000), wk =   0.3750000
        k(    7) = (   0.3750000   0.1250000   0.6250000), wk =   0.3750000
        k(    8) = (  -0.1250000  -0.8750000   0.1250000), wk =   0.1875000
        k(    9) = (  -0.3750000   0.3750000   0.3750000), wk =   0.0625000
        k(   10) = (   0.3750000  -0.3750000   1.1250000), wk =   0.1875000

     Dense  grid:     3383 G-vectors     FFT dimensions: (  24,  24,  24)

     Smooth grid:     1243 G-vectors     FFT dimensions: (  15,  15,  15)

     Estimated max dynamical RAM per process >       0.64MB

     Estimated total allocated dynamical RAM >       2.57MB

     Check: negative/imaginary core charge=   -0.000007    0.000000

     Initial potential from superposition of free atoms

     starting charge    7.99866, renormalised to    8.00000
     Starting wfc are    8 randomized atomic wfcs

     total cpu time spent up to now is        0.4 secs

     per-process dynamical memory:     6.5 Mb

     Self-consistent Calculation

     iteration #  1     ecut=    10.00 Ry     beta=0.70
     Davidson diagonalization with overlap
     ethr =  1.00E-02,  avg # of iterations =  2.0

     Threshold (ethr) on eigenvalues was too large:
     Diagonalizing with lowered threshold

     Davidson diagonalization with overlap
     ethr =  6.56E-04,  avg # of iterations =  1.1

     total cpu time spent up to now is        0.4 secs

     total energy              =     -19.15416569 Ry
     Harris-Foulkes estimate   =     -19.16402526 Ry
     estimated scf accuracy    <       0.05284143 Ry

     iteration #  2     ecut=    10.00 Ry     beta=0.70
     Davidson diagonalization with overlap
     ethr =  6.61E-04,  avg # of iterations =  1.0

     total cpu time spent up to now is        0.5 secs

     total energy              =     -19.15568915 Ry
     Harris-Foulkes estimate   =     -19.15578262 Ry
     estimated scf accuracy    <       0.00259478 Ry

     iteration #  3     ecut=    10.00 Ry     beta=0.70
     Davidson diagonalization with overlap
     ethr =  3.24E-05,  avg # of iterations =  1.7

     total cpu time spent up to now is        0.5 secs

     total energy              =     -19.15592392 Ry
     Harris-Foulkes estimate   =     -19.15593130 Ry
     estimated scf accuracy    <       0.00003600 Ry

     iteration #  4     ecut=    10.00 Ry     beta=0.70
     Davidson diagonalization with overlap
     ethr =  4.50E-07,  avg # of iterations =  2.6

     total cpu time spent up to now is        0.5 secs

     total energy              =     -19.15593896 Ry
     Harris-Foulkes estimate   =     -19.15593900 Ry
     estimated scf accuracy    <       0.00000057 Ry

     iteration #  5     ecut=    10.00 Ry     beta=0.70
     Davidson diagonalization with overlap
     ethr =  7.16E-09,  avg # of iterations =  2.5

     total cpu time spent up to now is        0.5 secs

     total energy              =     -19.15593914 Ry
     Harris-Foulkes estimate   =     -19.15593914 Ry
     estimated scf accuracy    <       0.00000002 Ry

     iteration #  6     ecut=    10.00 Ry     beta=0.70
     Davidson diagonalization with overlap
     ethr =  2.48E-10,  avg # of iterations =  2.2

     total cpu time spent up to now is        0.5 secs

     End of self-consistent calculation

          k =-0.1250 0.1250 0.1250 (   153 PWs)   bands (ev):

    -5.5575   4.4351   5.7226   5.7226

          k =-0.3750 0.3750-0.1250 (   148 PWs)   bands (ev):

    -4.5208   1.4656   3.7434   5.2347

          k = 0.3750-0.3750 0.6250 (   149 PWs)   bands (ev):

    -3.3814  -0.6138   3.7711   4.4604

          k = 0.1250-0.1250 0.3750 (   148 PWs)   bands (ev):

    -5.0173   2.8399   4.7098   4.7863

          k =-0.1250 0.6250 0.1250 (   143 PWs)   bands (ev):

    -3.9769   1.1579   3.3890   3.8299

          k = 0.6250-0.1250 0.8750 (   146 PWs)   bands (ev):

    -2.3386  -0.8023   2.0319   3.1025

          k = 0.3750 0.1250 0.6250 (   147 PWs)   bands (ev):

    -3.5673   0.2725   2.7540   4.1082

          k =-0.1250-0.8750 0.1250 (   144 PWs)   bands (ev):

    -2.5072  -0.6970   2.6368   3.3598

          k =-0.3750 0.3750 0.3750 (   147 PWs)   bands (ev):

    -4.0827   0.1680   4.9281   4.9281

          k = 0.3750-0.3750 1.1250 (   147 PWs)   bands (ev):

    -2.8746  -0.5139   2.0982   4.1422

     highest occupied level (ev):     5.7226

!    total energy              =     -19.15593914 Ry
     Harris-Foulkes estimate   =     -19.15593914 Ry
     estimated scf accuracy    <          2.4E-09 Ry

     The total energy is the sum of the following terms:

     one-electron contribution =       5.00071768 Ry
     hartree contribution      =       1.12437927 Ry
     xc contribution           =      -8.59880077 Ry
     ewald contribution        =     -16.68223532 Ry

     convergence has been achieved in   6 iterations


     Computing stress (Cartesian axis) and pressure

          total   stress  (Ry/bohr**3)                   (kbar)     P=  -20.96
  -0.00014248   0.00000000   0.00000000        -20.96      0.00      0.00
   0.00000000  -0.00014248  -0.00000000          0.00    -20.96     -0.00
   0.00000000  -0.00000000  -0.00014248          0.00     -0.00    -20.96


     Writing output data file silicon.10.save

     init_run     :      0.10s CPU      0.23s WALL (       1 calls)
     electrons    :      0.11s CPU      0.15s WALL (       1 calls)
     stress       :      0.04s CPU      0.04s WALL (       1 calls)

     Called by init_run:
     wfcinit      :      0.01s CPU      0.06s WALL (       1 calls)
     potinit      :      0.01s CPU      0.03s WALL (       1 calls)

     Called by electrons:
     c_bands      :      0.03s CPU      0.04s WALL (       7 calls)
     sum_band     :      0.04s CPU      0.04s WALL (       7 calls)
     v_of_rho     :      0.02s CPU      0.02s WALL (       7 calls)
     newd         :      0.03s CPU      0.04s WALL (       7 calls)
     mix_rho      :      0.00s CPU      0.02s WALL (       7 calls)

     Called by c_bands:
     init_us_2    :      0.00s CPU      0.00s WALL (     160 calls)
     cegterg      :      0.03s CPU      0.03s WALL (      70 calls)

     Called by sum_band:
     sum_band:bec :      0.00s CPU      0.00s WALL (      70 calls)
     addusdens    :      0.03s CPU      0.03s WALL (       7 calls)

     Called by *egterg:
     h_psi        :      0.02s CPU      0.04s WALL (     211 calls)
     s_psi        :      0.00s CPU      0.00s WALL (     211 calls)
     g_psi        :      0.00s CPU      0.00s WALL (     131 calls)
     cdiaghg      :      0.01s CPU      0.05s WALL (     191 calls)

     Called by h_psi:
     h_psi:pot    :      0.02s CPU      0.04s WALL (     211 calls)
     h_psi:calbec :      0.00s CPU      0.01s WALL (     211 calls)
     vloc_psi     :      0.01s CPU      0.02s WALL (     211 calls)
     add_vuspsi   :      0.00s CPU      0.00s WALL (     211 calls)

     General routines
     calbec       :      0.00s CPU      0.02s WALL (     291 calls)
     fft          :      0.01s CPU      0.07s WALL (     126 calls)
     ffts         :      0.00s CPU      0.00s WALL (      14 calls)
     fftw         :      0.01s CPU      0.02s WALL (    1918 calls)
     interpolate  :      0.00s CPU      0.00s WALL (      14 calls)
     davcio       :      0.00s CPU      0.00s WALL (      10 calls)

     Parallel routines
     fft_scatter  :      0.01s CPU      0.01s WALL (    2058 calls)

     PWSCF        :     0.35s CPU         0.82s WALL


   This run was terminated on:  13:43:51  10Nov2017            

=------------------------------------------------------------------------------=
   JOB DONE.
=------------------------------------------------------------------------------=
