
     Program PHONON v.6.1 (svn rev. 13369) starts on 10Nov2017 at 15:27:56 

     This program is part of the open-source Quantum ESPRESSO suite
     for quantum simulation of materials; please cite
         "P. Giannozzi et al., J. Phys.:Condens. Matter 21 395502 (2009);
          URL http://www.quantum-espresso.org", 
     in publications or presentations arising from this work. More details at
     http://www.quantum-espresso.org/quote

     Parallel version (MPI), running on     4 processors
     R & G space division:  proc/nbgrp/npool/nimage =       4

     Reading data from directory:
     ./silicon.10.280.save

   Info: using nr1, nr2, nr3 values from input

   Info: using nr1, nr2, nr3 values from input

     IMPORTANT: XC functional enforced from input :
     Exchange-correlation      = SLA  PW   PBE  PBE ( 1  4  3  4 0 0)
     Any further DFT definition will be discarded
     Please, verify this is what you really want


     Parallelization info
     --------------------
     sticks:   dense  smooth     PW     G-vecs:    dense   smooth      PW
     Min         214     108     37                 4221     1495     284
     Max         215     109     38                 4224     1498     285
     Sum         859     433    151                16889     5985    1139



     Dynamical matrices for ( 4, 4, 4)  uniform grid of q-points
     (   8q-points):
       N         xq(1)         xq(2)         xq(3) 
       1   0.000000000   0.000000000   0.000000000
       2  -0.250000000   0.250000000  -0.250000000
       3   0.500000000  -0.500000000   0.500000000
       4   0.000000000   0.500000000   0.000000000
       5   0.750000000  -0.250000000   0.750000000
       6   0.500000000   0.000000000   0.500000000
       7   0.000000000  -1.000000000   0.000000000
       8  -0.500000000  -1.000000000   0.000000000

     Calculation of q =    0.0000000   0.0000000   0.0000000

                                                                                

     bravais-lattice index     =            2
     lattice parameter (alat)  =      10.2800  a.u.
     unit-cell volume          =     271.5935 (a.u.)^3
     number of atoms/cell      =            2
     number of atomic types    =            1
     kinetic-energy cut-off    =      30.0000  Ry
     charge density cut-off    =     240.0000  Ry
     convergence threshold     =      1.0E-12
     beta                      =       0.7000
     number of iterations used =            4
     Exchange-correlation      = SLA  PW   PBE  PBE ( 1  4  3  4 0 0)


     celldm(1)=   10.28000  celldm(2)=    0.00000  celldm(3)=    0.00000
     celldm(4)=    0.00000  celldm(5)=    0.00000  celldm(6)=    0.00000

     crystal axes: (cart. coord. in units of alat)
               a(1) = ( -0.5000  0.0000  0.5000 )  
               a(2) = (  0.0000  0.5000  0.5000 )  
               a(3) = ( -0.5000  0.5000  0.0000 )  

     reciprocal axes: (cart. coord. in units 2 pi/alat)
               b(1) = ( -1.0000 -1.0000  1.0000 )  
               b(2) = (  1.0000  1.0000  1.0000 )  
               b(3) = ( -1.0000  1.0000 -1.0000 )  


     Atoms inside the unit cell: 

     Cartesian axes

     site n.  atom      mass           positions (alat units)
        1     Si  28.0860   tau(    1) = (    0.00000    0.00000    0.00000  )
        2     Si  28.0860   tau(    2) = (    0.25000    0.25000    0.25000  )

     Computing dynamical matrix for 
                    q = (   0.0000000   0.0000000   0.0000000 )

     49 Sym.Ops. (with q -> -q+G )


     G cutoff =  642.4476  (   4224 G-vectors)     FFT grid: ( 36, 36, 36)
     G cutoff =  321.2238  (   1497 G-vectors)  smooth grid: ( 25, 25, 25)
     number of k points=    10

     PseudoPot. # 1 for Si read from file:
     /home/s1333534/quantum_espresso/qe-6.1/pseudo/si_pbe_v1.uspp.F.UPF.txt
     MD5 check sum: a056efeee980c13900f22a371efd63c1
     Pseudo is Ultrasoft + core correction, Zval =  4.0
     Generated by new atomic code, or converted to UPF format
     Using radial grid of  899 points,  6 beta functions with: 
                l(1) =   0
                l(2) =   0
                l(3) =   1
                l(4) =   1
                l(5) =   2
                l(6) =   2
     Q(r) pseudized with  8 coefficients,  rinner =    0.900   0.900   0.900
                                                       0.900   0.900

     Mode symmetry, O_h (m-3m)  point group:


     Electric field:
     Dielectric constant
     Born effective charges in two ways 


     Atomic displacements:
     There are   2 irreducible representations

     Representation     1      3 modes -T_2g G_25' G_5+  To be done

     Representation     2      3 modes -T_1u G_15  G_4-  To be done



     Alpha used in Ewald sum =   2.5000
     PHONON       :     0.93s CPU         1.25s WALL


     Electric Fields Calculation

      iter #   1 total cpu time :     2.3 secs   av.it.:   5.7
      thresh= 1.000E-02 alpha_mix =  0.700 |ddv_scf|^2 =  1.339E-07

      iter #   2 total cpu time :     3.0 secs   av.it.:  11.7
      thresh= 3.659E-05 alpha_mix =  0.700 |ddv_scf|^2 =  7.719E-09

      iter #   3 total cpu time :     3.6 secs   av.it.:  11.5
      thresh= 8.786E-06 alpha_mix =  0.700 |ddv_scf|^2 =  5.056E-10

      iter #   4 total cpu time :     4.2 secs   av.it.:  10.2
      thresh= 2.248E-06 alpha_mix =  0.700 |ddv_scf|^2 =  3.223E-12

      iter #   5 total cpu time :     4.7 secs   av.it.:  11.1
      thresh= 1.795E-07 alpha_mix =  0.700 |ddv_scf|^2 =  3.201E-15

     End of electric fields calculation

          Dielectric constant in cartesian axis 

          (      13.866031714       0.000000000       0.000000000 )
          (      -0.000000000      13.866031714      -0.000000000 )
          (       0.000000000       0.000000000      13.866031714 )

          Effective charges (d Force / dE) in cartesian axis

           atom      1   Si 
      Ex  (       -0.03948        0.00000        0.00000 )
      Ey  (        0.00000       -0.03948        0.00000 )
      Ez  (       -0.00000       -0.00000       -0.03948 )
           atom      2   Si 
      Ex  (       -0.03948        0.00000        0.00000 )
      Ey  (        0.00000       -0.03948       -0.00000 )
      Ez  (        0.00000       -0.00000       -0.03948 )


     Representation #  1 modes #   1  2  3

     Self-consistent Calculation

      iter #   1 total cpu time :     5.9 secs   av.it.:   5.1
      thresh= 1.000E-02 alpha_mix =  0.700 |ddv_scf|^2 =  2.357E-08

      iter #   2 total cpu time :     6.6 secs   av.it.:  11.5
      thresh= 1.535E-05 alpha_mix =  0.700 |ddv_scf|^2 =  9.676E-10

      iter #   3 total cpu time :     7.3 secs   av.it.:  11.1
      thresh= 3.111E-06 alpha_mix =  0.700 |ddv_scf|^2 =  6.583E-11

      iter #   4 total cpu time :     7.9 secs   av.it.:  10.1
      thresh= 8.114E-07 alpha_mix =  0.700 |ddv_scf|^2 =  1.597E-13

     End of self-consistent calculation

     Convergence has been achieved 


     Representation #  2 modes #   4  5  6

     Self-consistent Calculation

      iter #   1 total cpu time :     8.6 secs   av.it.:   5.2
      thresh= 1.000E-02 alpha_mix =  0.700 |ddv_scf|^2 =  1.861E-08

      iter #   2 total cpu time :     9.3 secs   av.it.:  11.6
      thresh= 1.364E-05 alpha_mix =  0.700 |ddv_scf|^2 =  1.099E-09

      iter #   3 total cpu time :     9.9 secs   av.it.:  11.1
      thresh= 3.315E-06 alpha_mix =  0.700 |ddv_scf|^2 =  6.793E-11

      iter #   4 total cpu time :    10.5 secs   av.it.:  11.3
      thresh= 8.242E-07 alpha_mix =  0.700 |ddv_scf|^2 =  2.617E-13

     End of self-consistent calculation

     Convergence has been achieved 

     Number of q in the star =    1
     List of q in the star:
          1   0.000000000   0.000000000   0.000000000

          Dielectric constant in cartesian axis 

          (      13.866031714       0.000000000       0.000000000 )
          (      -0.000000000      13.866031714      -0.000000000 )
          (       0.000000000       0.000000000      13.866031714 )

          Effective charges (d Force / dE) in cartesian axis

           atom      1   Si 
      Ex  (       -0.03948        0.00000        0.00000 )
      Ey  (        0.00000       -0.03948        0.00000 )
      Ez  (       -0.00000       -0.00000       -0.03948 )
           atom      2   Si 
      Ex  (       -0.03948        0.00000        0.00000 )
      Ey  (        0.00000       -0.03948       -0.00000 )
      Ez  (        0.00000       -0.00000       -0.03948 )

          Effective charges (d P / du) in cartesian axis 

           atom      1   Si 
      Px  (       -0.07186        0.00000        0.00000 )
      Py  (        0.00000       -0.07186       -0.00000 )
      Pz  (        0.00000       -0.00000       -0.07186 )
           atom      2   Si 
      Px  (       -0.07186       -0.00000       -0.00000 )
      Py  (       -0.00000       -0.07186       -0.00000 )
      Pz  (       -0.00000       -0.00000       -0.07186 )

     Diagonalizing the dynamical matrix

     q = (    0.000000000   0.000000000   0.000000000 ) 

 **************************************************************************
     freq (    1) =      -0.469687 [THz] =     -15.667060 [cm-1]
     freq (    2) =      -0.469687 [THz] =     -15.667060 [cm-1]
     freq (    3) =      -0.469687 [THz] =     -15.667060 [cm-1]
     freq (    4) =      15.300481 [THz] =     510.369116 [cm-1]
     freq (    5) =      15.300481 [THz] =     510.369116 [cm-1]
     freq (    6) =      15.300481 [THz] =     510.369116 [cm-1]
 **************************************************************************

     Mode symmetry, O_h (m-3m)  point group:

     freq (  1 -  3) =        -15.7  [cm-1]   --> T_1u G_15  G_4- I  
     freq (  4 -  6) =        510.4  [cm-1]   --> T_2g G_25' G_5+ R  

     Calculation of q =   -0.2500000   0.2500000  -0.2500000

   Info: using nr1, nr2, nr3 values from input

   Info: using nr1, nr2, nr3 values from input

     Parallelization info
     --------------------
     sticks:   dense  smooth     PW     G-vecs:    dense   smooth      PW
     Min         214     108     37                 4221     1495     309
     Max         215     109     38                 4224     1498     312
     Sum         859     433    151                16889     5985    1243



     bravais-lattice index     =            2
     lattice parameter (alat)  =      10.2800  a.u.
     unit-cell volume          =     271.5935 (a.u.)^3
     number of atoms/cell      =            2
     number of atomic types    =            1
     number of electrons       =         8.00
     number of Kohn-Sham states=            4
     kinetic-energy cutoff     =      30.0000  Ry
     charge density cutoff     =     240.0000  Ry
     Exchange-correlation      = SLA  PW   PBE  PBE ( 1  4  3  4 0 0)

     celldm(1)=  10.280000  celldm(2)=   0.000000  celldm(3)=   0.000000
     celldm(4)=   0.000000  celldm(5)=   0.000000  celldm(6)=   0.000000

     crystal axes: (cart. coord. in units of alat)
               a(1) = (  -0.500000   0.000000   0.500000 )  
               a(2) = (   0.000000   0.500000   0.500000 )  
               a(3) = (  -0.500000   0.500000   0.000000 )  

     reciprocal axes: (cart. coord. in units 2 pi/alat)
               b(1) = ( -1.000000 -1.000000  1.000000 )  
               b(2) = (  1.000000  1.000000  1.000000 )  
               b(3) = ( -1.000000  1.000000 -1.000000 )  


     PseudoPot. # 1 for Si read from file:
     /home/s1333534/quantum_espresso/qe-6.1/pseudo/si_pbe_v1.uspp.F.UPF.txt
     MD5 check sum: a056efeee980c13900f22a371efd63c1
     Pseudo is Ultrasoft + core correction, Zval =  4.0
     Generated by new atomic code, or converted to UPF format
     Using radial grid of  899 points,  6 beta functions with: 
                l(1) =   0
                l(2) =   0
                l(3) =   1
                l(4) =   1
                l(5) =   2
                l(6) =   2
     Q(r) pseudized with  8 coefficients,  rinner =    0.900   0.900   0.900
                                                       0.900   0.900

     atomic species   valence    mass     pseudopotential
        Si             4.00    28.08600     Si( 1.00)

     48 Sym. Ops., with inversion, found



   Cartesian axes

     site n.     atom                  positions (alat units)
         1           Si  tau(   1) = (   0.0000000   0.0000000   0.0000000  )
         2           Si  tau(   2) = (   0.2500000   0.2500000   0.2500000  )

     number of k points=   120

     Number of k-points >= 100: set verbosity='high' to print them.

     Dense  grid:    16889 G-vectors     FFT dimensions: (  36,  36,  36)

     Smooth grid:     5985 G-vectors     FFT dimensions: (  25,  25,  25)

     Estimated max dynamical RAM per process >       1.50MB

     Estimated total allocated dynamical RAM >       6.02MB

     The potential is recalculated from file :
     ./_ph0/silicon.10.280.save/charge-density.dat

     Starting wfc are    8 atomic wfcs

     Band Structure Calculation
     Davidson diagonalization with overlap

     ethr =  1.25E-10,  avg # of iterations = 12.2

     total cpu time spent up to now is        1.4 secs

     End of band structure calculation

     Number of k-points >= 100: set verbosity='high' to print the bands.

     highest occupied level (ev):     5.8526

     Writing output data file silicon.10.280.save

                                                                                

     bravais-lattice index     =            2
     lattice parameter (alat)  =      10.2800  a.u.
     unit-cell volume          =     271.5935 (a.u.)^3
     number of atoms/cell      =            2
     number of atomic types    =            1
     kinetic-energy cut-off    =      30.0000  Ry
     charge density cut-off    =     240.0000  Ry
     convergence threshold     =      1.0E-12
     beta                      =       0.7000
     number of iterations used =            4
     Exchange-correlation      = SLA  PW   PBE  PBE ( 1  4  3  4 0 0)


     celldm(1)=   10.28000  celldm(2)=    0.00000  celldm(3)=    0.00000
     celldm(4)=    0.00000  celldm(5)=    0.00000  celldm(6)=    0.00000

     crystal axes: (cart. coord. in units of alat)
               a(1) = ( -0.5000  0.0000  0.5000 )  
               a(2) = (  0.0000  0.5000  0.5000 )  
               a(3) = ( -0.5000  0.5000  0.0000 )  

     reciprocal axes: (cart. coord. in units 2 pi/alat)
               b(1) = ( -1.0000 -1.0000  1.0000 )  
               b(2) = (  1.0000  1.0000  1.0000 )  
               b(3) = ( -1.0000  1.0000 -1.0000 )  


     Atoms inside the unit cell: 

     Cartesian axes

     site n.  atom      mass           positions (alat units)
        1     Si  28.0860   tau(    1) = (    0.00000    0.00000    0.00000  )
        2     Si  28.0860   tau(    2) = (    0.25000    0.25000    0.25000  )

     Computing dynamical matrix for 
                    q = (  -0.2500000   0.2500000  -0.2500000 )

      6 Sym.Ops. (no q -> -q+G )


     G cutoff =  642.4476  (   4224 G-vectors)     FFT grid: ( 36, 36, 36)
     G cutoff =  321.2238  (   1496 G-vectors)  smooth grid: ( 25, 25, 25)
     number of k points=   120

     PseudoPot. # 1 for Si read from file:
     /home/s1333534/quantum_espresso/qe-6.1/pseudo/si_pbe_v1.uspp.F.UPF.txt
     MD5 check sum: a056efeee980c13900f22a371efd63c1
     Pseudo is Ultrasoft + core correction, Zval =  4.0
     Generated by new atomic code, or converted to UPF format
     Using radial grid of  899 points,  6 beta functions with: 
                l(1) =   0
                l(2) =   0
                l(3) =   1
                l(4) =   1
                l(5) =   2
                l(6) =   2
     Q(r) pseudized with  8 coefficients,  rinner =    0.900   0.900   0.900
                                                       0.900   0.900

     Mode symmetry, C_3v (3m)   point group:


     Atomic displacements:
     There are   4 irreducible representations

     Representation     1      1 modes -A_1  L_1  To be done

     Representation     2      1 modes -A_1  L_1  To be done

     Representation     3      2 modes -E    L_3  To be done

     Representation     4      2 modes -E    L_3  To be done



     Alpha used in Ewald sum =   2.5000
     PHONON       :    10.64s CPU        13.69s WALL



     Representation #  1 mode #   1

     Self-consistent Calculation

      iter #   1 total cpu time :    14.1 secs   av.it.:   5.9
      thresh= 1.000E-02 alpha_mix =  0.700 |ddv_scf|^2 =  4.328E-04

      iter #   2 total cpu time :    14.7 secs   av.it.:   9.0
      thresh= 2.080E-03 alpha_mix =  0.700 |ddv_scf|^2 =  6.560E-03

      iter #   3 total cpu time :    15.2 secs   av.it.:   7.0
      thresh= 8.099E-03 alpha_mix =  0.700 |ddv_scf|^2 =  2.713E-07

      iter #   4 total cpu time :    15.8 secs   av.it.:   9.6
      thresh= 5.208E-05 alpha_mix =  0.700 |ddv_scf|^2 =  1.764E-08

      iter #   5 total cpu time :    16.4 secs   av.it.:   9.5
      thresh= 1.328E-05 alpha_mix =  0.700 |ddv_scf|^2 =  3.375E-10

      iter #   6 total cpu time :    17.0 secs   av.it.:   9.7
      thresh= 1.837E-06 alpha_mix =  0.700 |ddv_scf|^2 =  1.076E-09

      iter #   7 total cpu time :    17.5 secs   av.it.:   7.6
      thresh= 3.280E-06 alpha_mix =  0.700 |ddv_scf|^2 =  3.579E-11

      iter #   8 total cpu time :    18.1 secs   av.it.:   9.3
      thresh= 5.982E-07 alpha_mix =  0.700 |ddv_scf|^2 =  5.257E-13

     End of self-consistent calculation

     Convergence has been achieved 


     Representation #  2 mode #   2

     Self-consistent Calculation

      iter #   1 total cpu time :    18.6 secs   av.it.:   5.9
      thresh= 1.000E-02 alpha_mix =  0.700 |ddv_scf|^2 =  4.328E-04

      iter #   2 total cpu time :    19.2 secs   av.it.:   9.0
      thresh= 2.080E-03 alpha_mix =  0.700 |ddv_scf|^2 =  6.560E-03

      iter #   3 total cpu time :    19.7 secs   av.it.:   7.0
      thresh= 8.099E-03 alpha_mix =  0.700 |ddv_scf|^2 =  2.713E-07

      iter #   4 total cpu time :    20.3 secs   av.it.:   9.6
      thresh= 5.208E-05 alpha_mix =  0.700 |ddv_scf|^2 =  1.764E-08

      iter #   5 total cpu time :    20.9 secs   av.it.:   9.5
      thresh= 1.328E-05 alpha_mix =  0.700 |ddv_scf|^2 =  3.375E-10

      iter #   6 total cpu time :    21.5 secs   av.it.:   9.7
      thresh= 1.837E-06 alpha_mix =  0.700 |ddv_scf|^2 =  1.076E-09

      iter #   7 total cpu time :    22.0 secs   av.it.:   7.6
      thresh= 3.280E-06 alpha_mix =  0.700 |ddv_scf|^2 =  3.579E-11

      iter #   8 total cpu time :    22.5 secs   av.it.:   9.3
      thresh= 5.982E-07 alpha_mix =  0.700 |ddv_scf|^2 =  5.257E-13

     End of self-consistent calculation

     Convergence has been achieved 


     Representation #  3 modes #   3  4

     Self-consistent Calculation

      iter #   1 total cpu time :    23.4 secs   av.it.:   5.2
      thresh= 1.000E-02 alpha_mix =  0.700 |ddv_scf|^2 =  6.645E-08

      iter #   2 total cpu time :    24.6 secs   av.it.:  11.4
      thresh= 2.578E-05 alpha_mix =  0.700 |ddv_scf|^2 =  4.272E-09

      iter #   3 total cpu time :    25.9 secs   av.it.:  11.1
      thresh= 6.536E-06 alpha_mix =  0.700 |ddv_scf|^2 =  2.264E-10

      iter #   4 total cpu time :    27.0 secs   av.it.:  11.0
      thresh= 1.505E-06 alpha_mix =  0.700 |ddv_scf|^2 =  8.513E-13

     End of self-consistent calculation

     Convergence has been achieved 


     Representation #  4 modes #   5  6

     Self-consistent Calculation

      iter #   1 total cpu time :    27.9 secs   av.it.:   5.3
      thresh= 1.000E-02 alpha_mix =  0.700 |ddv_scf|^2 =  6.646E-08

      iter #   2 total cpu time :    29.1 secs   av.it.:  11.4
      thresh= 2.578E-05 alpha_mix =  0.700 |ddv_scf|^2 =  4.273E-09

      iter #   3 total cpu time :    30.4 secs   av.it.:  11.2
      thresh= 6.536E-06 alpha_mix =  0.700 |ddv_scf|^2 =  2.264E-10

      iter #   4 total cpu time :    31.5 secs   av.it.:  11.0
      thresh= 1.504E-06 alpha_mix =  0.700 |ddv_scf|^2 =  8.551E-13

     End of self-consistent calculation

     Convergence has been achieved 

     Number of q in the star =    8
     List of q in the star:
          1  -0.250000000   0.250000000  -0.250000000
          2   0.250000000  -0.250000000  -0.250000000
          3   0.250000000  -0.250000000   0.250000000
          4   0.250000000   0.250000000   0.250000000
          5  -0.250000000  -0.250000000  -0.250000000
          6  -0.250000000  -0.250000000   0.250000000
          7  -0.250000000   0.250000000   0.250000000
          8   0.250000000   0.250000000  -0.250000000

     Diagonalizing the dynamical matrix

     q = (   -0.250000000   0.250000000  -0.250000000 ) 

 **************************************************************************
     freq (    1) =       2.754431 [THz] =      91.877932 [cm-1]
     freq (    2) =       2.754431 [THz] =      91.877932 [cm-1]
     freq (    3) =       6.837373 [THz] =     228.070222 [cm-1]
     freq (    4) =      14.447257 [THz] =     481.908616 [cm-1]
     freq (    5) =      14.747823 [THz] =     491.934433 [cm-1]
     freq (    6) =      14.747823 [THz] =     491.934433 [cm-1]
 **************************************************************************

     Mode symmetry, C_3v (3m)   point group:

     freq (  1 -  2) =         91.9  [cm-1]   --> E    L_3           
     freq (  3 -  3) =        228.1  [cm-1]   --> A_1  L_1           
     freq (  4 -  4) =        481.9  [cm-1]   --> A_1  L_1           
     freq (  5 -  6) =        491.9  [cm-1]   --> E    L_3           

     Calculation of q =    0.5000000  -0.5000000   0.5000000

   Info: using nr1, nr2, nr3 values from input

   Info: using nr1, nr2, nr3 values from input

     Parallelization info
     --------------------
     sticks:   dense  smooth     PW     G-vecs:    dense   smooth      PW
     Min         214     108     40                 4221     1495     351
     Max         215     109     41                 4224     1498     354
     Sum         859     433    163                16889     5985    1411



     bravais-lattice index     =            2
     lattice parameter (alat)  =      10.2800  a.u.
     unit-cell volume          =     271.5935 (a.u.)^3
     number of atoms/cell      =            2
     number of atomic types    =            1
     number of electrons       =         8.00
     number of Kohn-Sham states=            4
     kinetic-energy cutoff     =      30.0000  Ry
     charge density cutoff     =     240.0000  Ry
     Exchange-correlation      = SLA  PW   PBE  PBE ( 1  4  3  4 0 0)

     celldm(1)=  10.280000  celldm(2)=   0.000000  celldm(3)=   0.000000
     celldm(4)=   0.000000  celldm(5)=   0.000000  celldm(6)=   0.000000

     crystal axes: (cart. coord. in units of alat)
               a(1) = (  -0.500000   0.000000   0.500000 )  
               a(2) = (   0.000000   0.500000   0.500000 )  
               a(3) = (  -0.500000   0.500000   0.000000 )  

     reciprocal axes: (cart. coord. in units 2 pi/alat)
               b(1) = ( -1.000000 -1.000000  1.000000 )  
               b(2) = (  1.000000  1.000000  1.000000 )  
               b(3) = ( -1.000000  1.000000 -1.000000 )  


     PseudoPot. # 1 for Si read from file:
     /home/s1333534/quantum_espresso/qe-6.1/pseudo/si_pbe_v1.uspp.F.UPF.txt
     MD5 check sum: a056efeee980c13900f22a371efd63c1
     Pseudo is Ultrasoft + core correction, Zval =  4.0
     Generated by new atomic code, or converted to UPF format
     Using radial grid of  899 points,  6 beta functions with: 
                l(1) =   0
                l(2) =   0
                l(3) =   1
                l(4) =   1
                l(5) =   2
                l(6) =   2
     Q(r) pseudized with  8 coefficients,  rinner =    0.900   0.900   0.900
                                                       0.900   0.900

     atomic species   valence    mass     pseudopotential
        Si             4.00    28.08600     Si( 1.00)

     48 Sym. Ops., with inversion, found



   Cartesian axes

     site n.     atom                  positions (alat units)
         1           Si  tau(   1) = (   0.0000000   0.0000000   0.0000000  )
         2           Si  tau(   2) = (   0.2500000   0.2500000   0.2500000  )

     number of k points=    60
                       cart. coord. in units 2pi/alat
        k(    1) = (  -0.1250000   0.1250000   0.1250000), wk =   0.0468750
        k(    2) = (   0.3750000  -0.3750000   0.6250000), wk =   0.0000000
        k(    3) = (  -0.3750000   0.3750000  -0.1250000), wk =   0.0468750
        k(    4) = (   0.1250000  -0.1250000   0.3750000), wk =   0.0000000
        k(    5) = (   0.3750000  -0.3750000   0.6250000), wk =   0.0468750
        k(    6) = (   0.8750000  -0.8750000   1.1250000), wk =   0.0000000
        k(    7) = (   0.1250000  -0.1250000   0.3750000), wk =   0.0468750
        k(    8) = (   0.6250000  -0.6250000   0.8750000), wk =   0.0000000
        k(    9) = (  -0.1250000   0.6250000   0.1250000), wk =   0.0937500
        k(   10) = (   0.3750000   0.1250000   0.6250000), wk =   0.0000000
        k(   11) = (   0.6250000  -0.1250000   0.8750000), wk =   0.0937500
        k(   12) = (   1.1250000  -0.6250000   1.3750000), wk =   0.0000000
        k(   13) = (   0.3750000   0.1250000   0.6250000), wk =   0.0937500
        k(   14) = (   0.8750000  -0.3750000   1.1250000), wk =   0.0000000
        k(   15) = (  -0.1250000  -0.8750000   0.1250000), wk =   0.0937500
        k(   16) = (   0.3750000  -1.3750000   0.6250000), wk =   0.0000000
        k(   17) = (  -0.3750000   0.3750000   0.3750000), wk =   0.0468750
        k(   18) = (   0.1250000  -0.1250000   0.8750000), wk =   0.0000000
        k(   19) = (   0.3750000  -0.3750000   1.1250000), wk =   0.0468750
        k(   20) = (   0.8750000  -0.8750000   1.6250000), wk =   0.0000000
        k(   21) = (   0.1250000  -0.1250000   0.1250000), wk =   0.0156250
        k(   22) = (   0.6250000  -0.6250000   0.6250000), wk =   0.0000000
        k(   23) = (  -0.3750000  -0.3750000  -0.1250000), wk =   0.0937500
        k(   24) = (   0.1250000  -0.8750000   0.3750000), wk =   0.0000000
        k(   25) = (  -0.1250000  -0.3750000   0.3750000), wk =   0.0468750
        k(   26) = (   0.3750000  -0.8750000   0.8750000), wk =   0.0000000
        k(   27) = (   0.3750000   0.3750000   0.6250000), wk =   0.0937500
        k(   28) = (   0.8750000  -0.1250000   1.1250000), wk =   0.0000000
        k(   29) = (   0.6250000   0.3750000  -0.3750000), wk =   0.0468750
        k(   30) = (   1.1250000  -0.1250000   0.1250000), wk =   0.0000000
        k(   31) = (   0.1250000   0.1250000   0.3750000), wk =   0.0937500
        k(   32) = (   0.6250000  -0.3750000   0.8750000), wk =   0.0000000
        k(   33) = (   0.3750000   0.1250000  -0.1250000), wk =   0.0468750
        k(   34) = (   0.8750000  -0.3750000   0.3750000), wk =   0.0000000
        k(   35) = (  -0.1250000  -0.6250000  -0.1250000), wk =   0.0468750
        k(   36) = (   0.3750000  -1.1250000   0.3750000), wk =   0.0000000
        k(   37) = (   0.1250000  -0.6250000   0.1250000), wk =   0.0468750
        k(   38) = (   0.6250000  -1.1250000   0.6250000), wk =   0.0000000
        k(   39) = (   0.6250000   0.1250000   0.8750000), wk =   0.0937500
        k(   40) = (   1.1250000  -0.3750000   1.3750000), wk =   0.0000000
        k(   41) = (  -0.8750000   0.1250000   0.6250000), wk =   0.0937500
        k(   42) = (  -0.3750000  -0.3750000   1.1250000), wk =   0.0000000
        k(   43) = (   0.8750000   0.1250000  -0.6250000), wk =   0.0937500
        k(   44) = (   1.3750000  -0.3750000  -0.1250000), wk =   0.0000000
        k(   45) = (   0.3750000  -0.1250000   0.6250000), wk =   0.0937500
        k(   46) = (   0.8750000  -0.6250000   1.1250000), wk =   0.0000000
        k(   47) = (  -0.6250000  -0.1250000   0.3750000), wk =   0.0937500
        k(   48) = (  -0.1250000  -0.6250000   0.8750000), wk =   0.0000000
        k(   49) = (   0.6250000  -0.1250000  -0.3750000), wk =   0.0937500
        k(   50) = (   1.1250000  -0.6250000   0.1250000), wk =   0.0000000
        k(   51) = (  -0.1250000   0.8750000  -0.1250000), wk =   0.0468750
        k(   52) = (   0.3750000   0.3750000   0.3750000), wk =   0.0000000
        k(   53) = (   0.1250000   0.8750000   0.1250000), wk =   0.0468750
        k(   54) = (   0.6250000   0.3750000   0.6250000), wk =   0.0000000
        k(   55) = (   0.3750000  -0.3750000   0.3750000), wk =   0.0156250
        k(   56) = (   0.8750000  -0.8750000   0.8750000), wk =   0.0000000
        k(   57) = (   0.3750000   0.3750000   1.1250000), wk =   0.0937500
        k(   58) = (   0.8750000  -0.1250000   1.6250000), wk =   0.0000000
        k(   59) = (   1.1250000   0.3750000  -0.3750000), wk =   0.0468750
        k(   60) = (   1.6250000  -0.1250000   0.1250000), wk =   0.0000000

     Dense  grid:    16889 G-vectors     FFT dimensions: (  36,  36,  36)

     Smooth grid:     5985 G-vectors     FFT dimensions: (  25,  25,  25)

     Estimated max dynamical RAM per process >       1.50MB

     Estimated total allocated dynamical RAM >       6.02MB

     The potential is recalculated from file :
     ./_ph0/silicon.10.280.save/charge-density.dat

     Starting wfc are    8 atomic wfcs

     Band Structure Calculation
     Davidson diagonalization with overlap

     ethr =  1.25E-10,  avg # of iterations = 12.2

     total cpu time spent up to now is        2.3 secs

     End of band structure calculation

          k =-0.1250 0.1250 0.1250 (   746 PWs)   bands (ev):

    -5.5805   4.5435   5.8526   5.8526

          k = 0.3750-0.3750 0.6250 (   755 PWs)   bands (ev):

    -3.3796  -0.5848   3.8690   4.5851

          k =-0.3750 0.3750-0.1250 (   757 PWs)   bands (ev):

    -4.5397   1.5258   3.8410   5.3687

          k = 0.1250-0.1250 0.3750 (   757 PWs)   bands (ev):

    -5.0456   2.9205   4.8290   4.9019

          k = 0.3750-0.3750 0.6250 (   755 PWs)   bands (ev):

    -3.3796  -0.5848   3.8690   4.5851

          k = 0.8750-0.8750 1.1250 (   746 PWs)   bands (ev):

    -5.5805   4.5435   5.8526   5.8526

          k = 0.1250-0.1250 0.3750 (   757 PWs)   bands (ev):

    -5.0456   2.9205   4.8290   4.9019

          k = 0.6250-0.6250 0.8750 (   757 PWs)   bands (ev):

    -4.5397   1.5258   3.8410   5.3687

          k =-0.1250 0.6250 0.1250 (   757 PWs)   bands (ev):

    -4.0004   1.2053   3.4841   3.9436

          k = 0.3750 0.1250 0.6250 (   756 PWs)   bands (ev):

    -3.5774   0.3122   2.8362   4.2215

          k = 0.6250-0.1250 0.8750 (   749 PWs)   bands (ev):

    -2.3343  -0.7782   2.1043   3.1980

          k = 1.1250-0.6250 1.3750 (   757 PWs)   bands (ev):

    -4.5397   1.5258   3.8410   5.3687

          k = 0.3750 0.1250 0.6250 (   756 PWs)   bands (ev):

    -3.5774   0.3122   2.8362   4.2215

          k = 0.8750-0.3750 1.1250 (   757 PWs)   bands (ev):

    -4.0004   1.2053   3.4841   3.9436

          k =-0.1250-0.8750 0.1250 (   757 PWs)   bands (ev):

    -2.5080  -0.6776   2.7247   3.4710

          k = 0.3750-1.3750 0.6250 (   755 PWs)   bands (ev):

    -3.3796  -0.5848   3.8690   4.5851

          k =-0.3750 0.3750 0.3750 (   763 PWs)   bands (ev):

    -4.0992   0.2127   5.0573   5.0573

          k = 0.1250-0.1250 0.8750 (   757 PWs)   bands (ev):

    -2.5080  -0.6776   2.7247   3.4710

          k = 0.3750-0.3750 1.1250 (   757 PWs)   bands (ev):

    -2.8776  -0.4839   2.1694   4.2629

          k = 0.8750-0.8750 1.6250 (   757 PWs)   bands (ev):

    -4.0004   1.2053   3.4841   3.9436

          k = 0.1250-0.1250 0.1250 (   746 PWs)   bands (ev):

    -5.5805   4.5435   5.8526   5.8526

          k = 0.6250-0.6250 0.6250 (   763 PWs)   bands (ev):

    -4.0992   0.2127   5.0573   5.0573

          k =-0.3750-0.3750-0.1250 (   757 PWs)   bands (ev):

    -4.5397   1.5258   3.8410   5.3687

          k = 0.1250-0.8750 0.3750 (   749 PWs)   bands (ev):

    -2.3343  -0.7782   2.1043   3.1980

          k =-0.1250-0.3750 0.3750 (   757 PWs)   bands (ev):

    -4.5397   1.5258   3.8410   5.3687

          k = 0.3750-0.8750 0.8750 (   757 PWs)   bands (ev):

    -4.0004   1.2053   3.4841   3.9436

          k = 0.3750 0.3750 0.6250 (   755 PWs)   bands (ev):

    -3.3796  -0.5848   3.8690   4.5851

          k = 0.8750-0.1250 1.1250 (   757 PWs)   bands (ev):

    -2.5080  -0.6776   2.7247   3.4710

          k = 0.6250 0.3750-0.3750 (   755 PWs)   bands (ev):

    -3.3796  -0.5848   3.8690   4.5851

          k = 1.1250-0.1250 0.1250 (   757 PWs)   bands (ev):

    -2.5080  -0.6776   2.7247   3.4710

          k = 0.1250 0.1250 0.3750 (   757 PWs)   bands (ev):

    -5.0456   2.9205   4.8290   4.9019

          k = 0.6250-0.3750 0.8750 (   756 PWs)   bands (ev):

    -3.5774   0.3122   2.8362   4.2215

          k = 0.3750 0.1250-0.1250 (   757 PWs)   bands (ev):

    -5.0456   2.9205   4.8290   4.9019

          k = 0.8750-0.3750 0.3750 (   757 PWs)   bands (ev):

    -2.8776  -0.4839   2.1694   4.2629

          k =-0.1250-0.6250-0.1250 (   757 PWs)   bands (ev):

    -4.0004   1.2053   3.4841   3.9436

          k = 0.3750-1.1250 0.3750 (   757 PWs)   bands (ev):

    -2.8776  -0.4839   2.1694   4.2629

          k = 0.1250-0.6250 0.1250 (   757 PWs)   bands (ev):

    -4.0004   1.2053   3.4841   3.9436

          k = 0.6250-1.1250 0.6250 (   757 PWs)   bands (ev):

    -4.5397   1.5258   3.8410   5.3687

          k = 0.6250 0.1250 0.8750 (   749 PWs)   bands (ev):

    -2.3343  -0.7782   2.1043   3.1980

          k = 1.1250-0.3750 1.3750 (   756 PWs)   bands (ev):

    -3.5774   0.3122   2.8362   4.2215

          k =-0.8750 0.1250 0.6250 (   749 PWs)   bands (ev):

    -2.3343  -0.7782   2.1043   3.1980

          k =-0.3750-0.3750 1.1250 (   757 PWs)   bands (ev):

    -2.8776  -0.4839   2.1694   4.2629

          k = 0.8750 0.1250-0.6250 (   749 PWs)   bands (ev):

    -2.3343  -0.7782   2.1043   3.1980

          k = 1.3750-0.3750-0.1250 (   756 PWs)   bands (ev):

    -3.5774   0.3122   2.8362   4.2215

          k = 0.3750-0.1250 0.6250 (   756 PWs)   bands (ev):

    -3.5774   0.3122   2.8362   4.2215

          k = 0.8750-0.6250 1.1250 (   757 PWs)   bands (ev):

    -5.0456   2.9205   4.8290   4.9019

          k =-0.6250-0.1250 0.3750 (   756 PWs)   bands (ev):

    -3.5774   0.3122   2.8362   4.2215

          k =-0.1250-0.6250 0.8750 (   749 PWs)   bands (ev):

    -2.3343  -0.7782   2.1043   3.1980

          k = 0.6250-0.1250-0.3750 (   756 PWs)   bands (ev):

    -3.5774   0.3122   2.8362   4.2215

          k = 1.1250-0.6250 0.1250 (   749 PWs)   bands (ev):

    -2.3343  -0.7782   2.1043   3.1980

          k =-0.1250 0.8750-0.1250 (   757 PWs)   bands (ev):

    -2.5080  -0.6776   2.7247   3.4710

          k = 0.3750 0.3750 0.3750 (   763 PWs)   bands (ev):

    -4.0992   0.2127   5.0573   5.0573

          k = 0.1250 0.8750 0.1250 (   757 PWs)   bands (ev):

    -2.5080  -0.6776   2.7247   3.4710

          k = 0.6250 0.3750 0.6250 (   755 PWs)   bands (ev):

    -3.3796  -0.5848   3.8690   4.5851

          k = 0.3750-0.3750 0.3750 (   763 PWs)   bands (ev):

    -4.0992   0.2127   5.0573   5.0573

          k = 0.8750-0.8750 0.8750 (   746 PWs)   bands (ev):

    -5.5805   4.5435   5.8526   5.8526

          k = 0.3750 0.3750 1.1250 (   757 PWs)   bands (ev):

    -2.8776  -0.4839   2.1694   4.2629

          k = 0.8750-0.1250 1.6250 (   749 PWs)   bands (ev):

    -2.3343  -0.7782   2.1043   3.1980

          k = 1.1250 0.3750-0.3750 (   757 PWs)   bands (ev):

    -2.8776  -0.4839   2.1694   4.2629

          k = 1.6250-0.1250 0.1250 (   757 PWs)   bands (ev):

    -5.0456   2.9205   4.8290   4.9019

     highest occupied level (ev):     5.8526

     Writing output data file silicon.10.280.save

                                                                                

     bravais-lattice index     =            2
     lattice parameter (alat)  =      10.2800  a.u.
     unit-cell volume          =     271.5935 (a.u.)^3
     number of atoms/cell      =            2
     number of atomic types    =            1
     kinetic-energy cut-off    =      30.0000  Ry
     charge density cut-off    =     240.0000  Ry
     convergence threshold     =      1.0E-12
     beta                      =       0.7000
     number of iterations used =            4
     Exchange-correlation      = SLA  PW   PBE  PBE ( 1  4  3  4 0 0)


     celldm(1)=   10.28000  celldm(2)=    0.00000  celldm(3)=    0.00000
     celldm(4)=    0.00000  celldm(5)=    0.00000  celldm(6)=    0.00000

     crystal axes: (cart. coord. in units of alat)
               a(1) = ( -0.5000  0.0000  0.5000 )  
               a(2) = (  0.0000  0.5000  0.5000 )  
               a(3) = ( -0.5000  0.5000  0.0000 )  

     reciprocal axes: (cart. coord. in units 2 pi/alat)
               b(1) = ( -1.0000 -1.0000  1.0000 )  
               b(2) = (  1.0000  1.0000  1.0000 )  
               b(3) = ( -1.0000  1.0000 -1.0000 )  


     Atoms inside the unit cell: 

     Cartesian axes

     site n.  atom      mass           positions (alat units)
        1     Si  28.0860   tau(    1) = (    0.00000    0.00000    0.00000  )
        2     Si  28.0860   tau(    2) = (    0.25000    0.25000    0.25000  )

     Computing dynamical matrix for 
                    q = (   0.5000000  -0.5000000   0.5000000 )

     13 Sym.Ops. (with q -> -q+G )


     G cutoff =  642.4476  (   4224 G-vectors)     FFT grid: ( 36, 36, 36)
     G cutoff =  321.2238  (   1497 G-vectors)  smooth grid: ( 25, 25, 25)
     number of k points=    60

     PseudoPot. # 1 for Si read from file:
     /home/s1333534/quantum_espresso/qe-6.1/pseudo/si_pbe_v1.uspp.F.UPF.txt
     MD5 check sum: a056efeee980c13900f22a371efd63c1
     Pseudo is Ultrasoft + core correction, Zval =  4.0
     Generated by new atomic code, or converted to UPF format
     Using radial grid of  899 points,  6 beta functions with: 
                l(1) =   0
                l(2) =   0
                l(3) =   1
                l(4) =   1
                l(5) =   2
                l(6) =   2
     Q(r) pseudized with  8 coefficients,  rinner =    0.900   0.900   0.900
                                                       0.900   0.900


     Atomic displacements:
     There are   4 irreducible representations

     Representation     1      1 modes -  To be done

     Representation     2      1 modes -  To be done

     Representation     3      2 modes -  To be done

     Representation     4      2 modes -  To be done



     Alpha used in Ewald sum =   2.5000
     PHONON       :    27.36s CPU        33.70s WALL



     Representation #  1 mode #   1

     Self-consistent Calculation

      iter #   1 total cpu time :    34.0 secs   av.it.:   5.1
      thresh= 1.000E-02 alpha_mix =  0.700 |ddv_scf|^2 =  4.244E-06

      iter #   2 total cpu time :    34.4 secs   av.it.:   9.9
      thresh= 2.060E-04 alpha_mix =  0.700 |ddv_scf|^2 =  3.843E-06

      iter #   3 total cpu time :    34.8 secs   av.it.:   9.2
      thresh= 1.960E-04 alpha_mix =  0.700 |ddv_scf|^2 =  2.344E-09

      iter #   4 total cpu time :    35.2 secs   av.it.:   9.4
      thresh= 4.842E-06 alpha_mix =  0.700 |ddv_scf|^2 =  2.240E-11

      iter #   5 total cpu time :    35.5 secs   av.it.:   9.3
      thresh= 4.733E-07 alpha_mix =  0.700 |ddv_scf|^2 =  3.057E-13

     End of self-consistent calculation

     Convergence has been achieved 


     Representation #  2 mode #   2

     Self-consistent Calculation

      iter #   1 total cpu time :    35.9 secs   av.it.:   6.0
      thresh= 1.000E-02 alpha_mix =  0.700 |ddv_scf|^2 =  6.041E-05

      iter #   2 total cpu time :    36.3 secs   av.it.:   9.7
      thresh= 7.772E-04 alpha_mix =  0.700 |ddv_scf|^2 =  1.873E-04

      iter #   3 total cpu time :    36.7 secs   av.it.:   8.6
      thresh= 1.369E-03 alpha_mix =  0.700 |ddv_scf|^2 =  1.260E-08

      iter #   4 total cpu time :    37.1 secs   av.it.:   9.8
      thresh= 1.123E-05 alpha_mix =  0.700 |ddv_scf|^2 =  6.370E-10

      iter #   5 total cpu time :    37.5 secs   av.it.:  10.2
      thresh= 2.524E-06 alpha_mix =  0.700 |ddv_scf|^2 =  1.974E-11

      iter #   6 total cpu time :    37.9 secs   av.it.:   9.7
      thresh= 4.443E-07 alpha_mix =  0.700 |ddv_scf|^2 =  1.506E-13

     End of self-consistent calculation

     Convergence has been achieved 


     Representation #  3 modes #   3  4

     Self-consistent Calculation

      iter #   1 total cpu time :    38.5 secs   av.it.:   5.1
      thresh= 1.000E-02 alpha_mix =  0.700 |ddv_scf|^2 =  2.712E-08

      iter #   2 total cpu time :    39.2 secs   av.it.:  10.9
      thresh= 1.647E-05 alpha_mix =  0.700 |ddv_scf|^2 =  1.604E-09

      iter #   3 total cpu time :    40.0 secs   av.it.:  10.7
      thresh= 4.006E-06 alpha_mix =  0.700 |ddv_scf|^2 =  5.293E-11

      iter #   4 total cpu time :    40.7 secs   av.it.:  10.7
      thresh= 7.275E-07 alpha_mix =  0.700 |ddv_scf|^2 =  4.346E-13

     End of self-consistent calculation

     Convergence has been achieved 


     Representation #  4 modes #   5  6

     Self-consistent Calculation

      iter #   1 total cpu time :    41.3 secs   av.it.:   5.1
      thresh= 1.000E-02 alpha_mix =  0.700 |ddv_scf|^2 =  1.384E-07

      iter #   2 total cpu time :    42.1 secs   av.it.:  11.1
      thresh= 3.721E-05 alpha_mix =  0.700 |ddv_scf|^2 =  1.109E-08

      iter #   3 total cpu time :    42.8 secs   av.it.:  10.9
      thresh= 1.053E-05 alpha_mix =  0.700 |ddv_scf|^2 =  2.925E-10

      iter #   4 total cpu time :    43.5 secs   av.it.:   9.8
      thresh= 1.710E-06 alpha_mix =  0.700 |ddv_scf|^2 =  5.182E-13

     End of self-consistent calculation

     Convergence has been achieved 

     Number of q in the star =    4
     List of q in the star:
          1   0.500000000  -0.500000000   0.500000000
          2   0.500000000   0.500000000   0.500000000
          3  -0.500000000   0.500000000   0.500000000
          4   0.500000000   0.500000000  -0.500000000

     Diagonalizing the dynamical matrix

     q = (    0.500000000  -0.500000000   0.500000000 ) 

 **************************************************************************
     freq (    1) =       3.218309 [THz] =     107.351217 [cm-1]
     freq (    2) =       3.218309 [THz] =     107.351217 [cm-1]
     freq (    3) =      11.159220 [THz] =     372.231510 [cm-1]
     freq (    4) =      12.270765 [THz] =     409.308654 [cm-1]
     freq (    5) =      14.556856 [THz] =     485.564442 [cm-1]
     freq (    6) =      14.556856 [THz] =     485.564442 [cm-1]
 **************************************************************************

     Calculation of q =    0.0000000   0.5000000   0.0000000

   Info: using nr1, nr2, nr3 values from input

   Info: using nr1, nr2, nr3 values from input

     Parallelization info
     --------------------
     sticks:   dense  smooth     PW     G-vecs:    dense   smooth      PW
     Min         214     108     37                 4221     1495     309
     Max         215     109     38                 4224     1498     312
     Sum         859     433    151                16889     5985    1243



     bravais-lattice index     =            2
     lattice parameter (alat)  =      10.2800  a.u.
     unit-cell volume          =     271.5935 (a.u.)^3
     number of atoms/cell      =            2
     number of atomic types    =            1
     number of electrons       =         8.00
     number of Kohn-Sham states=            4
     kinetic-energy cutoff     =      30.0000  Ry
     charge density cutoff     =     240.0000  Ry
     Exchange-correlation      = SLA  PW   PBE  PBE ( 1  4  3  4 0 0)

     celldm(1)=  10.280000  celldm(2)=   0.000000  celldm(3)=   0.000000
     celldm(4)=   0.000000  celldm(5)=   0.000000  celldm(6)=   0.000000

     crystal axes: (cart. coord. in units of alat)
               a(1) = (  -0.500000   0.000000   0.500000 )  
               a(2) = (   0.000000   0.500000   0.500000 )  
               a(3) = (  -0.500000   0.500000   0.000000 )  

     reciprocal axes: (cart. coord. in units 2 pi/alat)
               b(1) = ( -1.000000 -1.000000  1.000000 )  
               b(2) = (  1.000000  1.000000  1.000000 )  
               b(3) = ( -1.000000  1.000000 -1.000000 )  


     PseudoPot. # 1 for Si read from file:
     /home/s1333534/quantum_espresso/qe-6.1/pseudo/si_pbe_v1.uspp.F.UPF.txt
     MD5 check sum: a056efeee980c13900f22a371efd63c1
     Pseudo is Ultrasoft + core correction, Zval =  4.0
     Generated by new atomic code, or converted to UPF format
     Using radial grid of  899 points,  6 beta functions with: 
                l(1) =   0
                l(2) =   0
                l(3) =   1
                l(4) =   1
                l(5) =   2
                l(6) =   2
     Q(r) pseudized with  8 coefficients,  rinner =    0.900   0.900   0.900
                                                       0.900   0.900

     atomic species   valence    mass     pseudopotential
        Si             4.00    28.08600     Si( 1.00)

     48 Sym. Ops., with inversion, found



   Cartesian axes

     site n.     atom                  positions (alat units)
         1           Si  tau(   1) = (   0.0000000   0.0000000   0.0000000  )
         2           Si  tau(   2) = (   0.2500000   0.2500000   0.2500000  )

     number of k points=    80
                       cart. coord. in units 2pi/alat
        k(    1) = (  -0.1250000   0.1250000   0.1250000), wk =   0.0312500
        k(    2) = (  -0.1250000   0.6250000   0.1250000), wk =   0.0000000
        k(    3) = (  -0.3750000   0.3750000  -0.1250000), wk =   0.0625000
        k(    4) = (  -0.3750000   0.8750000  -0.1250000), wk =   0.0000000
        k(    5) = (   0.3750000  -0.3750000   0.6250000), wk =   0.0625000
        k(    6) = (   0.3750000   0.1250000   0.6250000), wk =   0.0000000
        k(    7) = (   0.1250000  -0.1250000   0.3750000), wk =   0.0625000
        k(    8) = (   0.1250000   0.3750000   0.3750000), wk =   0.0000000
        k(    9) = (  -0.1250000   0.6250000   0.1250000), wk =   0.0312500
        k(   10) = (  -0.1250000   1.1250000   0.1250000), wk =   0.0000000
        k(   11) = (   0.6250000  -0.1250000   0.8750000), wk =   0.0625000
        k(   12) = (   0.6250000   0.3750000   0.8750000), wk =   0.0000000
        k(   13) = (   0.3750000   0.1250000   0.6250000), wk =   0.0625000
        k(   14) = (   0.3750000   0.6250000   0.6250000), wk =   0.0000000
        k(   15) = (  -0.1250000  -0.8750000   0.1250000), wk =   0.0312500
        k(   16) = (  -0.1250000  -0.3750000   0.1250000), wk =   0.0000000
        k(   17) = (  -0.3750000   0.3750000   0.3750000), wk =   0.0312500
        k(   18) = (  -0.3750000   0.8750000   0.3750000), wk =   0.0000000
        k(   19) = (   0.3750000  -0.3750000   1.1250000), wk =   0.0625000
        k(   20) = (   0.3750000   0.1250000   1.1250000), wk =   0.0000000
        k(   21) = (  -0.1250000  -0.1250000   0.1250000), wk =   0.0312500
        k(   22) = (  -0.1250000   0.3750000   0.1250000), wk =   0.0000000
        k(   23) = (   0.1250000  -0.3750000   0.3750000), wk =   0.0625000
        k(   24) = (   0.1250000   0.1250000   0.3750000), wk =   0.0000000
        k(   25) = (   0.3750000  -0.1250000   0.3750000), wk =   0.0312500
        k(   26) = (   0.3750000   0.3750000   0.3750000), wk =   0.0000000
        k(   27) = (   0.3750000   0.1250000   0.3750000), wk =   0.0312500
        k(   28) = (   0.3750000   0.6250000   0.3750000), wk =   0.0000000
        k(   29) = (  -0.6250000   0.3750000  -0.3750000), wk =   0.0625000
        k(   30) = (  -0.6250000   0.8750000  -0.3750000), wk =   0.0000000
        k(   31) = (  -0.3750000   0.6250000  -0.3750000), wk =   0.0312500
        k(   32) = (  -0.3750000   1.1250000  -0.3750000), wk =   0.0000000
        k(   33) = (  -0.3750000  -0.6250000  -0.3750000), wk =   0.0312500
        k(   34) = (  -0.3750000  -0.1250000  -0.3750000), wk =   0.0000000
        k(   35) = (  -0.3750000   0.1250000  -0.1250000), wk =   0.0625000
        k(   36) = (  -0.3750000   0.6250000  -0.1250000), wk =   0.0000000
        k(   37) = (  -0.1250000   0.3750000  -0.1250000), wk =   0.0312500
        k(   38) = (  -0.1250000   0.8750000  -0.1250000), wk =   0.0000000
        k(   39) = (  -0.1250000  -0.3750000  -0.1250000), wk =   0.0312500
        k(   40) = (  -0.1250000   0.1250000  -0.1250000), wk =   0.0000000
        k(   41) = (  -0.1250000  -0.6250000   0.1250000), wk =   0.0312500
        k(   42) = (  -0.1250000  -0.1250000   0.1250000), wk =   0.0000000
        k(   43) = (   0.6250000  -0.1250000  -0.1250000), wk =   0.0625000
        k(   44) = (   0.6250000   0.3750000  -0.1250000), wk =   0.0000000
        k(   45) = (   0.6250000   0.1250000   0.1250000), wk =   0.0625000
        k(   46) = (   0.6250000   0.6250000   0.1250000), wk =   0.0000000
        k(   47) = (  -0.8750000   0.1250000  -0.6250000), wk =   0.0625000
        k(   48) = (  -0.8750000   0.6250000  -0.6250000), wk =   0.0000000
        k(   49) = (  -0.1250000   0.6250000  -0.8750000), wk =   0.0625000
        k(   50) = (  -0.1250000   1.1250000  -0.8750000), wk =   0.0000000
        k(   51) = (  -0.1250000   0.8750000  -0.6250000), wk =   0.0625000
        k(   52) = (  -0.1250000   1.3750000  -0.6250000), wk =   0.0000000
        k(   53) = (  -0.1250000  -0.8750000  -0.6250000), wk =   0.0625000
        k(   54) = (  -0.1250000  -0.3750000  -0.6250000), wk =   0.0000000
        k(   55) = (   0.8750000  -0.6250000   0.1250000), wk =   0.0625000
        k(   56) = (   0.8750000  -0.1250000   0.1250000), wk =   0.0000000
        k(   57) = (  -0.6250000  -0.1250000  -0.3750000), wk =   0.0625000
        k(   58) = (  -0.6250000   0.3750000  -0.3750000), wk =   0.0000000
        k(   59) = (   0.1250000   0.3750000  -0.6250000), wk =   0.0625000
        k(   60) = (   0.1250000   0.8750000  -0.6250000), wk =   0.0000000
        k(   61) = (   0.1250000   0.6250000  -0.3750000), wk =   0.0625000
        k(   62) = (   0.1250000   1.1250000  -0.3750000), wk =   0.0000000
        k(   63) = (   0.1250000  -0.6250000  -0.3750000), wk =   0.0625000
        k(   64) = (   0.1250000  -0.1250000  -0.3750000), wk =   0.0000000
        k(   65) = (   0.6250000  -0.3750000  -0.1250000), wk =   0.0625000
        k(   66) = (   0.6250000   0.1250000  -0.1250000), wk =   0.0000000
        k(   67) = (  -0.1250000   0.8750000   0.1250000), wk =   0.0312500
        k(   68) = (  -0.1250000   1.3750000   0.1250000), wk =   0.0000000
        k(   69) = (  -0.8750000  -0.1250000  -0.1250000), wk =   0.0625000
        k(   70) = (  -0.8750000   0.3750000  -0.1250000), wk =   0.0000000
        k(   71) = (  -0.8750000   0.1250000   0.1250000), wk =   0.0625000
        k(   72) = (  -0.8750000   0.6250000   0.1250000), wk =   0.0000000
        k(   73) = (  -0.3750000  -0.3750000   0.3750000), wk =   0.0312500
        k(   74) = (  -0.3750000   0.1250000   0.3750000), wk =   0.0000000
        k(   75) = (  -1.1250000   0.3750000  -0.3750000), wk =   0.0625000
        k(   76) = (  -1.1250000   0.8750000  -0.3750000), wk =   0.0000000
        k(   77) = (  -0.3750000   1.1250000  -0.3750000), wk =   0.0312500
        k(   78) = (  -0.3750000   1.6250000  -0.3750000), wk =   0.0000000
        k(   79) = (  -0.3750000  -1.1250000  -0.3750000), wk =   0.0312500
        k(   80) = (  -0.3750000  -0.6250000  -0.3750000), wk =   0.0000000

     Dense  grid:    16889 G-vectors     FFT dimensions: (  36,  36,  36)

     Smooth grid:     5985 G-vectors     FFT dimensions: (  25,  25,  25)

     Estimated max dynamical RAM per process >       1.50MB

     Estimated total allocated dynamical RAM >       6.02MB

     The potential is recalculated from file :
     ./_ph0/silicon.10.280.save/charge-density.dat

     Starting wfc are    8 atomic wfcs

     Band Structure Calculation
     Davidson diagonalization with overlap

     ethr =  1.25E-10,  avg # of iterations = 12.2

     total cpu time spent up to now is        3.5 secs

     End of band structure calculation

          k =-0.1250 0.1250 0.1250 (   746 PWs)   bands (ev):

    -5.5805   4.5435   5.8526   5.8526

          k =-0.1250 0.6250 0.1250 (   757 PWs)   bands (ev):

    -4.0004   1.2053   3.4841   3.9436

          k =-0.3750 0.3750-0.1250 (   757 PWs)   bands (ev):

    -4.5397   1.5258   3.8410   5.3687

          k =-0.3750 0.8750-0.1250 (   749 PWs)   bands (ev):

    -2.3343  -0.7782   2.1043   3.1980

          k = 0.3750-0.3750 0.6250 (   755 PWs)   bands (ev):

    -3.3796  -0.5848   3.8690   4.5851

          k = 0.3750 0.1250 0.6250 (   756 PWs)   bands (ev):

    -3.5774   0.3122   2.8362   4.2215

          k = 0.1250-0.1250 0.3750 (   757 PWs)   bands (ev):

    -5.0456   2.9205   4.8290   4.9019

          k = 0.1250 0.3750 0.3750 (   757 PWs)   bands (ev):

    -4.5397   1.5258   3.8410   5.3687

          k =-0.1250 0.6250 0.1250 (   757 PWs)   bands (ev):

    -4.0004   1.2053   3.4841   3.9436

          k =-0.1250 1.1250 0.1250 (   757 PWs)   bands (ev):

    -2.5080  -0.6776   2.7247   3.4710

          k = 0.6250-0.1250 0.8750 (   749 PWs)   bands (ev):

    -2.3343  -0.7782   2.1043   3.1980

          k = 0.6250 0.3750 0.8750 (   756 PWs)   bands (ev):

    -3.5774   0.3122   2.8362   4.2215

          k = 0.3750 0.1250 0.6250 (   756 PWs)   bands (ev):

    -3.5774   0.3122   2.8362   4.2215

          k = 0.3750 0.6250 0.6250 (   755 PWs)   bands (ev):

    -3.3796  -0.5848   3.8690   4.5851

          k =-0.1250-0.8750 0.1250 (   757 PWs)   bands (ev):

    -2.5080  -0.6776   2.7247   3.4710

          k =-0.1250-0.3750 0.1250 (   757 PWs)   bands (ev):

    -5.0456   2.9205   4.8290   4.9019

          k =-0.3750 0.3750 0.3750 (   763 PWs)   bands (ev):

    -4.0992   0.2127   5.0573   5.0573

          k =-0.3750 0.8750 0.3750 (   757 PWs)   bands (ev):

    -2.8776  -0.4839   2.1694   4.2629

          k = 0.3750-0.3750 1.1250 (   757 PWs)   bands (ev):

    -2.8776  -0.4839   2.1694   4.2629

          k = 0.3750 0.1250 1.1250 (   749 PWs)   bands (ev):

    -2.3343  -0.7782   2.1043   3.1980

          k =-0.1250-0.1250 0.1250 (   746 PWs)   bands (ev):

    -5.5805   4.5435   5.8526   5.8526

          k =-0.1250 0.3750 0.1250 (   757 PWs)   bands (ev):

    -5.0456   2.9205   4.8290   4.9019

          k = 0.1250-0.3750 0.3750 (   757 PWs)   bands (ev):

    -4.5397   1.5258   3.8410   5.3687

          k = 0.1250 0.1250 0.3750 (   757 PWs)   bands (ev):

    -5.0456   2.9205   4.8290   4.9019

          k = 0.3750-0.1250 0.3750 (   757 PWs)   bands (ev):

    -4.5397   1.5258   3.8410   5.3687

          k = 0.3750 0.3750 0.3750 (   763 PWs)   bands (ev):

    -4.0992   0.2127   5.0573   5.0573

          k = 0.3750 0.1250 0.3750 (   757 PWs)   bands (ev):

    -4.5397   1.5258   3.8410   5.3687

          k = 0.3750 0.6250 0.3750 (   755 PWs)   bands (ev):

    -3.3796  -0.5848   3.8690   4.5851

          k =-0.6250 0.3750-0.3750 (   755 PWs)   bands (ev):

    -3.3796  -0.5848   3.8690   4.5851

          k =-0.6250 0.8750-0.3750 (   756 PWs)   bands (ev):

    -3.5774   0.3122   2.8362   4.2215

          k =-0.3750 0.6250-0.3750 (   755 PWs)   bands (ev):

    -3.3796  -0.5848   3.8690   4.5851

          k =-0.3750 1.1250-0.3750 (   757 PWs)   bands (ev):

    -2.8776  -0.4839   2.1694   4.2629

          k =-0.3750-0.6250-0.3750 (   755 PWs)   bands (ev):

    -3.3796  -0.5848   3.8690   4.5851

          k =-0.3750-0.1250-0.3750 (   757 PWs)   bands (ev):

    -4.5397   1.5258   3.8410   5.3687

          k =-0.3750 0.1250-0.1250 (   757 PWs)   bands (ev):

    -5.0456   2.9205   4.8290   4.9019

          k =-0.3750 0.6250-0.1250 (   756 PWs)   bands (ev):

    -3.5774   0.3122   2.8362   4.2215

          k =-0.1250 0.3750-0.1250 (   757 PWs)   bands (ev):

    -5.0456   2.9205   4.8290   4.9019

          k =-0.1250 0.8750-0.1250 (   757 PWs)   bands (ev):

    -2.5080  -0.6776   2.7247   3.4710

          k =-0.1250-0.3750-0.1250 (   757 PWs)   bands (ev):

    -5.0456   2.9205   4.8290   4.9019

          k =-0.1250 0.1250-0.1250 (   746 PWs)   bands (ev):

    -5.5805   4.5435   5.8526   5.8526

          k =-0.1250-0.6250 0.1250 (   757 PWs)   bands (ev):

    -4.0004   1.2053   3.4841   3.9436

          k =-0.1250-0.1250 0.1250 (   746 PWs)   bands (ev):

    -5.5805   4.5435   5.8526   5.8526

          k = 0.6250-0.1250-0.1250 (   757 PWs)   bands (ev):

    -4.0004   1.2053   3.4841   3.9436

          k = 0.6250 0.3750-0.1250 (   756 PWs)   bands (ev):

    -3.5774   0.3122   2.8362   4.2215

          k = 0.6250 0.1250 0.1250 (   757 PWs)   bands (ev):

    -4.0004   1.2053   3.4841   3.9436

          k = 0.6250 0.6250 0.1250 (   757 PWs)   bands (ev):

    -2.8776  -0.4839   2.1694   4.2629

          k =-0.8750 0.1250-0.6250 (   749 PWs)   bands (ev):

    -2.3343  -0.7782   2.1043   3.1980

          k =-0.8750 0.6250-0.6250 (   757 PWs)   bands (ev):

    -4.5397   1.5258   3.8410   5.3687

          k =-0.1250 0.6250-0.8750 (   749 PWs)   bands (ev):

    -2.3343  -0.7782   2.1043   3.1980

          k =-0.1250 1.1250-0.8750 (   757 PWs)   bands (ev):

    -2.5080  -0.6776   2.7247   3.4710

          k =-0.1250 0.8750-0.6250 (   749 PWs)   bands (ev):

    -2.3343  -0.7782   2.1043   3.1980

          k =-0.1250 1.3750-0.6250 (   757 PWs)   bands (ev):

    -2.8776  -0.4839   2.1694   4.2629

          k =-0.1250-0.8750-0.6250 (   749 PWs)   bands (ev):

    -2.3343  -0.7782   2.1043   3.1980

          k =-0.1250-0.3750-0.6250 (   756 PWs)   bands (ev):

    -3.5774   0.3122   2.8362   4.2215

          k = 0.8750-0.6250 0.1250 (   749 PWs)   bands (ev):

    -2.3343  -0.7782   2.1043   3.1980

          k = 0.8750-0.1250 0.1250 (   757 PWs)   bands (ev):

    -2.5080  -0.6776   2.7247   3.4710

          k =-0.6250-0.1250-0.3750 (   756 PWs)   bands (ev):

    -3.5774   0.3122   2.8362   4.2215

          k =-0.6250 0.3750-0.3750 (   755 PWs)   bands (ev):

    -3.3796  -0.5848   3.8690   4.5851

          k = 0.1250 0.3750-0.6250 (   756 PWs)   bands (ev):

    -3.5774   0.3122   2.8362   4.2215

          k = 0.1250 0.8750-0.6250 (   749 PWs)   bands (ev):

    -2.3343  -0.7782   2.1043   3.1980

          k = 0.1250 0.6250-0.3750 (   756 PWs)   bands (ev):

    -3.5774   0.3122   2.8362   4.2215

          k = 0.1250 1.1250-0.3750 (   749 PWs)   bands (ev):

    -2.3343  -0.7782   2.1043   3.1980

          k = 0.1250-0.6250-0.3750 (   756 PWs)   bands (ev):

    -3.5774   0.3122   2.8362   4.2215

          k = 0.1250-0.1250-0.3750 (   757 PWs)   bands (ev):

    -5.0456   2.9205   4.8290   4.9019

          k = 0.6250-0.3750-0.1250 (   756 PWs)   bands (ev):

    -3.5774   0.3122   2.8362   4.2215

          k = 0.6250 0.1250-0.1250 (   757 PWs)   bands (ev):

    -4.0004   1.2053   3.4841   3.9436

          k =-0.1250 0.8750 0.1250 (   757 PWs)   bands (ev):

    -2.5080  -0.6776   2.7247   3.4710

          k =-0.1250 1.3750 0.1250 (   757 PWs)   bands (ev):

    -4.0004   1.2053   3.4841   3.9436

          k =-0.8750-0.1250-0.1250 (   757 PWs)   bands (ev):

    -2.5080  -0.6776   2.7247   3.4710

          k =-0.8750 0.3750-0.1250 (   749 PWs)   bands (ev):

    -2.3343  -0.7782   2.1043   3.1980

          k =-0.8750 0.1250 0.1250 (   757 PWs)   bands (ev):

    -2.5080  -0.6776   2.7247   3.4710

          k =-0.8750 0.6250 0.1250 (   749 PWs)   bands (ev):

    -2.3343  -0.7782   2.1043   3.1980

          k =-0.3750-0.3750 0.3750 (   763 PWs)   bands (ev):

    -4.0992   0.2127   5.0573   5.0573

          k =-0.3750 0.1250 0.3750 (   757 PWs)   bands (ev):

    -4.5397   1.5258   3.8410   5.3687

          k =-1.1250 0.3750-0.3750 (   757 PWs)   bands (ev):

    -2.8776  -0.4839   2.1694   4.2629

          k =-1.1250 0.8750-0.3750 (   757 PWs)   bands (ev):

    -4.0004   1.2053   3.4841   3.9436

          k =-0.3750 1.1250-0.3750 (   757 PWs)   bands (ev):

    -2.8776  -0.4839   2.1694   4.2629

          k =-0.3750 1.6250-0.3750 (   763 PWs)   bands (ev):

    -4.0992   0.2127   5.0573   5.0573

          k =-0.3750-1.1250-0.3750 (   757 PWs)   bands (ev):

    -2.8776  -0.4839   2.1694   4.2629

          k =-0.3750-0.6250-0.3750 (   755 PWs)   bands (ev):

    -3.3796  -0.5848   3.8690   4.5851

     highest occupied level (ev):     5.8526

     Writing output data file silicon.10.280.save

                                                                                

     bravais-lattice index     =            2
     lattice parameter (alat)  =      10.2800  a.u.
     unit-cell volume          =     271.5935 (a.u.)^3
     number of atoms/cell      =            2
     number of atomic types    =            1
     kinetic-energy cut-off    =      30.0000  Ry
     charge density cut-off    =     240.0000  Ry
     convergence threshold     =      1.0E-12
     beta                      =       0.7000
     number of iterations used =            4
     Exchange-correlation      = SLA  PW   PBE  PBE ( 1  4  3  4 0 0)


     celldm(1)=   10.28000  celldm(2)=    0.00000  celldm(3)=    0.00000
     celldm(4)=    0.00000  celldm(5)=    0.00000  celldm(6)=    0.00000

     crystal axes: (cart. coord. in units of alat)
               a(1) = ( -0.5000  0.0000  0.5000 )  
               a(2) = (  0.0000  0.5000  0.5000 )  
               a(3) = ( -0.5000  0.5000  0.0000 )  

     reciprocal axes: (cart. coord. in units 2 pi/alat)
               b(1) = ( -1.0000 -1.0000  1.0000 )  
               b(2) = (  1.0000  1.0000  1.0000 )  
               b(3) = ( -1.0000  1.0000 -1.0000 )  


     Atoms inside the unit cell: 

     Cartesian axes

     site n.  atom      mass           positions (alat units)
        1     Si  28.0860   tau(    1) = (    0.00000    0.00000    0.00000  )
        2     Si  28.0860   tau(    2) = (    0.25000    0.25000    0.25000  )

     Computing dynamical matrix for 
                    q = (   0.0000000   0.5000000   0.0000000 )

      8 Sym.Ops. (no q -> -q+G )


     G cutoff =  642.4476  (   4224 G-vectors)     FFT grid: ( 36, 36, 36)
     G cutoff =  321.2238  (   1496 G-vectors)  smooth grid: ( 25, 25, 25)
     number of k points=    80

     PseudoPot. # 1 for Si read from file:
     /home/s1333534/quantum_espresso/qe-6.1/pseudo/si_pbe_v1.uspp.F.UPF.txt
     MD5 check sum: a056efeee980c13900f22a371efd63c1
     Pseudo is Ultrasoft + core correction, Zval =  4.0
     Generated by new atomic code, or converted to UPF format
     Using radial grid of  899 points,  6 beta functions with: 
                l(1) =   0
                l(2) =   0
                l(3) =   1
                l(4) =   1
                l(5) =   2
                l(6) =   2
     Q(r) pseudized with  8 coefficients,  rinner =    0.900   0.900   0.900
                                                       0.900   0.900

     Mode symmetry, C_4v (4mm)  point group:


     Atomic displacements:
     There are   4 irreducible representations

     Representation     1      1 modes -A_1  G_1 D_1  To be done

     Representation     2      1 modes -B_2  G_4 D_2'  To be done

     Representation     3      2 modes -E    G_5 D_5  To be done

     Representation     4      2 modes -E    G_5 D_5  To be done



     Alpha used in Ewald sum =   2.5000
     PHONON       :    37.04s CPU        45.79s WALL



     Representation #  1 mode #   1

     Self-consistent Calculation

      iter #   1 total cpu time :    46.1 secs   av.it.:   6.2
      thresh= 1.000E-02 alpha_mix =  0.700 |ddv_scf|^2 =  5.202E-04

      iter #   2 total cpu time :    46.6 secs   av.it.:   9.2
      thresh= 2.281E-03 alpha_mix =  0.700 |ddv_scf|^2 =  6.857E-03

      iter #   3 total cpu time :    47.0 secs   av.it.:   7.3
      thresh= 8.280E-03 alpha_mix =  0.700 |ddv_scf|^2 =  1.055E-08

      iter #   4 total cpu time :    47.4 secs   av.it.:  10.1
      thresh= 1.027E-05 alpha_mix =  0.700 |ddv_scf|^2 =  9.783E-10

      iter #   5 total cpu time :    47.9 secs   av.it.:   9.6
      thresh= 3.128E-06 alpha_mix =  0.700 |ddv_scf|^2 =  1.174E-10

      iter #   6 total cpu time :    48.3 secs   av.it.:   9.3
      thresh= 1.083E-06 alpha_mix =  0.700 |ddv_scf|^2 =  3.479E-13

     End of self-consistent calculation

     Convergence has been achieved 


     Representation #  2 mode #   2

     Self-consistent Calculation

      iter #   1 total cpu time :    48.7 secs   av.it.:   5.1
      thresh= 1.000E-02 alpha_mix =  0.700 |ddv_scf|^2 =  8.153E-07

      iter #   2 total cpu time :    49.2 secs   av.it.:  10.4
      thresh= 9.029E-05 alpha_mix =  0.700 |ddv_scf|^2 =  2.180E-07

      iter #   3 total cpu time :    49.6 secs   av.it.:   9.9
      thresh= 4.669E-05 alpha_mix =  0.700 |ddv_scf|^2 =  2.203E-09

      iter #   4 total cpu time :    50.1 secs   av.it.:  10.1
      thresh= 4.694E-06 alpha_mix =  0.700 |ddv_scf|^2 =  8.346E-11

      iter #   5 total cpu time :    50.5 secs   av.it.:  10.3
      thresh= 9.136E-07 alpha_mix =  0.700 |ddv_scf|^2 =  5.119E-13

     End of self-consistent calculation

     Convergence has been achieved 


     Representation #  3 modes #   3  4

     Self-consistent Calculation

      iter #   1 total cpu time :    51.2 secs   av.it.:   5.2
      thresh= 1.000E-02 alpha_mix =  0.700 |ddv_scf|^2 =  1.448E-07

      iter #   2 total cpu time :    52.1 secs   av.it.:  11.5
      thresh= 3.805E-05 alpha_mix =  0.700 |ddv_scf|^2 =  1.994E-08

      iter #   3 total cpu time :    53.1 secs   av.it.:  11.1
      thresh= 1.412E-05 alpha_mix =  0.700 |ddv_scf|^2 =  3.356E-10

      iter #   4 total cpu time :    53.9 secs   av.it.:  10.8
      thresh= 1.832E-06 alpha_mix =  0.700 |ddv_scf|^2 =  7.754E-13

     End of self-consistent calculation

     Convergence has been achieved 


     Representation #  4 modes #   5  6

     Self-consistent Calculation

      iter #   1 total cpu time :    54.6 secs   av.it.:   5.3
      thresh= 1.000E-02 alpha_mix =  0.700 |ddv_scf|^2 =  1.328E-07

      iter #   2 total cpu time :    55.5 secs   av.it.:  11.4
      thresh= 3.644E-05 alpha_mix =  0.700 |ddv_scf|^2 =  1.778E-08

      iter #   3 total cpu time :    56.4 secs   av.it.:  11.2
      thresh= 1.334E-05 alpha_mix =  0.700 |ddv_scf|^2 =  3.443E-10

      iter #   4 total cpu time :    57.2 secs   av.it.:  11.0
      thresh= 1.856E-06 alpha_mix =  0.700 |ddv_scf|^2 =  8.397E-13

     End of self-consistent calculation

     Convergence has been achieved 

     Number of q in the star =    6
     List of q in the star:
          1   0.000000000   0.500000000   0.000000000
          2   0.000000000  -0.500000000   0.000000000
          3   0.500000000   0.000000000   0.000000000
          4   0.000000000   0.000000000   0.500000000
          5   0.000000000   0.000000000  -0.500000000
          6  -0.500000000   0.000000000   0.000000000

     Diagonalizing the dynamical matrix

     q = (    0.000000000   0.500000000   0.000000000 ) 

 **************************************************************************
     freq (    1) =       3.733098 [THz] =     124.522751 [cm-1]
     freq (    2) =       3.733098 [THz] =     124.522751 [cm-1]
     freq (    3) =       7.176944 [THz] =     239.397084 [cm-1]
     freq (    4) =      14.097319 [THz] =     470.235944 [cm-1]
     freq (    5) =      14.097319 [THz] =     470.235944 [cm-1]
     freq (    6) =      14.678282 [THz] =     489.614779 [cm-1]
 **************************************************************************

     Mode symmetry, C_4v (4mm)  point group:

     freq (  1 -  2) =        124.5  [cm-1]   --> E    G_5 D_5       
     freq (  3 -  3) =        239.4  [cm-1]   --> A_1  G_1 D_1       
     freq (  4 -  5) =        470.2  [cm-1]   --> E    G_5 D_5       
     freq (  6 -  6) =        489.6  [cm-1]   --> B_2  G_4 D_2'      

     Calculation of q =    0.7500000  -0.2500000   0.7500000

   Info: using nr1, nr2, nr3 values from input

   Info: using nr1, nr2, nr3 values from input

     Parallelization info
     --------------------
     sticks:   dense  smooth     PW     G-vecs:    dense   smooth      PW
     Min         214     108     40                 4221     1495     362
     Max         215     109     41                 4224     1498     366
     Sum         859     433    163                16889     5985    1459



     bravais-lattice index     =            2
     lattice parameter (alat)  =      10.2800  a.u.
     unit-cell volume          =     271.5935 (a.u.)^3
     number of atoms/cell      =            2
     number of atomic types    =            1
     number of electrons       =         8.00
     number of Kohn-Sham states=            4
     kinetic-energy cutoff     =      30.0000  Ry
     charge density cutoff     =     240.0000  Ry
     Exchange-correlation      = SLA  PW   PBE  PBE ( 1  4  3  4 0 0)

     celldm(1)=  10.280000  celldm(2)=   0.000000  celldm(3)=   0.000000
     celldm(4)=   0.000000  celldm(5)=   0.000000  celldm(6)=   0.000000

     crystal axes: (cart. coord. in units of alat)
               a(1) = (  -0.500000   0.000000   0.500000 )  
               a(2) = (   0.000000   0.500000   0.500000 )  
               a(3) = (  -0.500000   0.500000   0.000000 )  

     reciprocal axes: (cart. coord. in units 2 pi/alat)
               b(1) = ( -1.000000 -1.000000  1.000000 )  
               b(2) = (  1.000000  1.000000  1.000000 )  
               b(3) = ( -1.000000  1.000000 -1.000000 )  


     PseudoPot. # 1 for Si read from file:
     /home/s1333534/quantum_espresso/qe-6.1/pseudo/si_pbe_v1.uspp.F.UPF.txt
     MD5 check sum: a056efeee980c13900f22a371efd63c1
     Pseudo is Ultrasoft + core correction, Zval =  4.0
     Generated by new atomic code, or converted to UPF format
     Using radial grid of  899 points,  6 beta functions with: 
                l(1) =   0
                l(2) =   0
                l(3) =   1
                l(4) =   1
                l(5) =   2
                l(6) =   2
     Q(r) pseudized with  8 coefficients,  rinner =    0.900   0.900   0.900
                                                       0.900   0.900

     atomic species   valence    mass     pseudopotential
        Si             4.00    28.08600     Si( 1.00)

     48 Sym. Ops., with inversion, found



   Cartesian axes

     site n.     atom                  positions (alat units)
         1           Si  tau(   1) = (   0.0000000   0.0000000   0.0000000  )
         2           Si  tau(   2) = (   0.2500000   0.2500000   0.2500000  )

     number of k points=   288

     Number of k-points >= 100: set verbosity='high' to print them.

     Dense  grid:    16889 G-vectors     FFT dimensions: (  36,  36,  36)

     Smooth grid:     5985 G-vectors     FFT dimensions: (  25,  25,  25)

     Estimated max dynamical RAM per process >       1.50MB

     Estimated total allocated dynamical RAM >       6.02MB

     The potential is recalculated from file :
     ./_ph0/silicon.10.280.save/charge-density.dat

     Starting wfc are    8 atomic wfcs

     Band Structure Calculation
     Davidson diagonalization with overlap

     ethr =  1.25E-10,  avg # of iterations = 12.1

     total cpu time spent up to now is        6.6 secs

     End of band structure calculation

     Number of k-points >= 100: set verbosity='high' to print the bands.

     highest occupied level (ev):     5.8526

     Writing output data file silicon.10.280.save

                                                                                

     bravais-lattice index     =            2
     lattice parameter (alat)  =      10.2800  a.u.
     unit-cell volume          =     271.5935 (a.u.)^3
     number of atoms/cell      =            2
     number of atomic types    =            1
     kinetic-energy cut-off    =      30.0000  Ry
     charge density cut-off    =     240.0000  Ry
     convergence threshold     =      1.0E-12
     beta                      =       0.7000
     number of iterations used =            4
     Exchange-correlation      = SLA  PW   PBE  PBE ( 1  4  3  4 0 0)


     celldm(1)=   10.28000  celldm(2)=    0.00000  celldm(3)=    0.00000
     celldm(4)=    0.00000  celldm(5)=    0.00000  celldm(6)=    0.00000

     crystal axes: (cart. coord. in units of alat)
               a(1) = ( -0.5000  0.0000  0.5000 )  
               a(2) = (  0.0000  0.5000  0.5000 )  
               a(3) = ( -0.5000  0.5000  0.0000 )  

     reciprocal axes: (cart. coord. in units 2 pi/alat)
               b(1) = ( -1.0000 -1.0000  1.0000 )  
               b(2) = (  1.0000  1.0000  1.0000 )  
               b(3) = ( -1.0000  1.0000 -1.0000 )  


     Atoms inside the unit cell: 

     Cartesian axes

     site n.  atom      mass           positions (alat units)
        1     Si  28.0860   tau(    1) = (    0.00000    0.00000    0.00000  )
        2     Si  28.0860   tau(    2) = (    0.25000    0.25000    0.25000  )

     Computing dynamical matrix for 
                    q = (   0.7500000  -0.2500000   0.7500000 )

      2 Sym.Ops. (no q -> -q+G )


     G cutoff =  642.4476  (   4224 G-vectors)     FFT grid: ( 36, 36, 36)
     G cutoff =  321.2238  (   1497 G-vectors)  smooth grid: ( 25, 25, 25)
     number of k points=   288

     PseudoPot. # 1 for Si read from file:
     /home/s1333534/quantum_espresso/qe-6.1/pseudo/si_pbe_v1.uspp.F.UPF.txt
     MD5 check sum: a056efeee980c13900f22a371efd63c1
     Pseudo is Ultrasoft + core correction, Zval =  4.0
     Generated by new atomic code, or converted to UPF format
     Using radial grid of  899 points,  6 beta functions with: 
                l(1) =   0
                l(2) =   0
                l(3) =   1
                l(4) =   1
                l(5) =   2
                l(6) =   2
     Q(r) pseudized with  8 coefficients,  rinner =    0.900   0.900   0.900
                                                       0.900   0.900

     Mode symmetry, C_s (m)     point group:


     Atomic displacements:
     There are   6 irreducible representations

     Representation     1      1 modes -A'  To be done

     Representation     2      1 modes -A'  To be done

     Representation     3      1 modes -A'  To be done

     Representation     4      1 modes -A'  To be done

     Representation     5      1 modes -A''  To be done

     Representation     6      1 modes -A''  To be done



     Alpha used in Ewald sum =   2.5000
     PHONON       :  0m50.76s CPU     1m 2.73s WALL



     Representation #  1 mode #   1

     Self-consistent Calculation

      iter #   1 total cpu time :    63.6 secs   av.it.:   5.7
      thresh= 1.000E-02 alpha_mix =  0.700 |ddv_scf|^2 =  1.059E-05

      iter #   2 total cpu time :    65.0 secs   av.it.:  10.6
      thresh= 3.255E-04 alpha_mix =  0.700 |ddv_scf|^2 =  2.807E-05

      iter #   3 total cpu time :    66.2 secs   av.it.:   9.2
      thresh= 5.298E-04 alpha_mix =  0.700 |ddv_scf|^2 =  1.887E-07

      iter #   4 total cpu time :    67.5 secs   av.it.:   9.9
      thresh= 4.344E-05 alpha_mix =  0.700 |ddv_scf|^2 =  3.667E-09

      iter #   5 total cpu time :    68.8 secs   av.it.:  10.4
      thresh= 6.056E-06 alpha_mix =  0.700 |ddv_scf|^2 =  6.397E-10

      iter #   6 total cpu time :    70.1 secs   av.it.:  10.3
      thresh= 2.529E-06 alpha_mix =  0.700 |ddv_scf|^2 =  9.152E-12

      iter #   7 total cpu time :    71.4 secs   av.it.:  10.6
      thresh= 3.025E-07 alpha_mix =  0.700 |ddv_scf|^2 =  3.364E-13

     End of self-consistent calculation

     Convergence has been achieved 


     Representation #  2 mode #   2

     Self-consistent Calculation

      iter #   1 total cpu time :    72.5 secs   av.it.:   5.8
      thresh= 1.000E-02 alpha_mix =  0.700 |ddv_scf|^2 =  1.902E-05

      iter #   2 total cpu time :    73.8 secs   av.it.:  10.4
      thresh= 4.361E-04 alpha_mix =  0.700 |ddv_scf|^2 =  5.482E-05

      iter #   3 total cpu time :    75.0 secs   av.it.:   9.0
      thresh= 7.404E-04 alpha_mix =  0.700 |ddv_scf|^2 =  1.252E-07

      iter #   4 total cpu time :    76.2 secs   av.it.:  10.2
      thresh= 3.539E-05 alpha_mix =  0.700 |ddv_scf|^2 =  4.138E-09

      iter #   5 total cpu time :    77.5 secs   av.it.:  10.4
      thresh= 6.433E-06 alpha_mix =  0.700 |ddv_scf|^2 =  8.449E-10

      iter #   6 total cpu time :    78.8 secs   av.it.:  10.3
      thresh= 2.907E-06 alpha_mix =  0.700 |ddv_scf|^2 =  8.614E-12

      iter #   7 total cpu time :    80.0 secs   av.it.:  10.6
      thresh= 2.935E-07 alpha_mix =  0.700 |ddv_scf|^2 =  2.962E-13

     End of self-consistent calculation

     Convergence has been achieved 


     Representation #  3 mode #   3

     Self-consistent Calculation

      iter #   1 total cpu time :    81.1 secs   av.it.:   5.7
      thresh= 1.000E-02 alpha_mix =  0.700 |ddv_scf|^2 =  1.491E-05

      iter #   2 total cpu time :    82.3 secs   av.it.:  10.4
      thresh= 3.862E-04 alpha_mix =  0.700 |ddv_scf|^2 =  4.041E-05

      iter #   3 total cpu time :    83.5 secs   av.it.:   9.0
      thresh= 6.357E-04 alpha_mix =  0.700 |ddv_scf|^2 =  2.192E-07

      iter #   4 total cpu time :    84.8 secs   av.it.:  10.0
      thresh= 4.682E-05 alpha_mix =  0.700 |ddv_scf|^2 =  4.216E-09

      iter #   5 total cpu time :    86.1 secs   av.it.:  10.4
      thresh= 6.493E-06 alpha_mix =  0.700 |ddv_scf|^2 =  8.207E-10

      iter #   6 total cpu time :    87.4 secs   av.it.:  10.3
      thresh= 2.865E-06 alpha_mix =  0.700 |ddv_scf|^2 =  6.025E-12

      iter #   7 total cpu time :    88.7 secs   av.it.:  10.5
      thresh= 2.455E-07 alpha_mix =  0.700 |ddv_scf|^2 =  1.752E-13

     End of self-consistent calculation

     Convergence has been achieved 


     Representation #  4 mode #   4

     Self-consistent Calculation

      iter #   1 total cpu time :    89.7 secs   av.it.:   5.5
      thresh= 1.000E-02 alpha_mix =  0.700 |ddv_scf|^2 =  6.482E-06

      iter #   2 total cpu time :    91.0 secs   av.it.:  10.7
      thresh= 2.546E-04 alpha_mix =  0.700 |ddv_scf|^2 =  1.364E-05

      iter #   3 total cpu time :    92.2 secs   av.it.:   9.4
      thresh= 3.693E-04 alpha_mix =  0.700 |ddv_scf|^2 =  2.955E-07

      iter #   4 total cpu time :    93.6 secs   av.it.:   9.8
      thresh= 5.436E-05 alpha_mix =  0.700 |ddv_scf|^2 =  3.610E-09

      iter #   5 total cpu time :    94.9 secs   av.it.:  10.5
      thresh= 6.009E-06 alpha_mix =  0.700 |ddv_scf|^2 =  6.764E-10

      iter #   6 total cpu time :    96.2 secs   av.it.:  10.4
      thresh= 2.601E-06 alpha_mix =  0.700 |ddv_scf|^2 =  3.894E-12

      iter #   7 total cpu time :    97.5 secs   av.it.:  10.6
      thresh= 1.973E-07 alpha_mix =  0.700 |ddv_scf|^2 =  1.746E-13

     End of self-consistent calculation

     Convergence has been achieved 


     Representation #  5 mode #   5

     Self-consistent Calculation

      iter #   1 total cpu time :    98.5 secs   av.it.:   5.2
      thresh= 1.000E-02 alpha_mix =  0.700 |ddv_scf|^2 =  6.697E-07

      iter #   2 total cpu time :    99.7 secs   av.it.:  10.4
      thresh= 8.184E-05 alpha_mix =  0.700 |ddv_scf|^2 =  1.091E-07

      iter #   3 total cpu time :   101.0 secs   av.it.:  10.1
      thresh= 3.303E-05 alpha_mix =  0.700 |ddv_scf|^2 =  1.455E-09

      iter #   4 total cpu time :   102.2 secs   av.it.:   9.6
      thresh= 3.815E-06 alpha_mix =  0.700 |ddv_scf|^2 =  3.362E-12

      iter #   5 total cpu time :   103.5 secs   av.it.:  10.0
      thresh= 1.834E-07 alpha_mix =  0.700 |ddv_scf|^2 =  9.334E-14

     End of self-consistent calculation

     Convergence has been achieved 


     Representation #  6 mode #   6

     Self-consistent Calculation

      iter #   1 total cpu time :   104.5 secs   av.it.:   5.2
      thresh= 1.000E-02 alpha_mix =  0.700 |ddv_scf|^2 =  6.697E-07

      iter #   2 total cpu time :   105.7 secs   av.it.:  10.4
[...]
        k(   59) = (  -0.8750000   0.1250000  -0.1250000), wk =   0.0625000
        k(   60) = (  -1.3750000  -0.8750000  -0.1250000), wk =   0.0000000
        k(   61) = (  -1.1250000   0.3750000  -0.3750000), wk =   0.0625000
        k(   62) = (  -1.6250000  -0.6250000  -0.3750000), wk =   0.0000000
        k(   63) = (  -0.3750000   0.3750000   1.1250000), wk =   0.0625000
        k(   64) = (  -0.8750000  -0.6250000   1.1250000), wk =   0.0000000

     Dense  grid:    16889 G-vectors     FFT dimensions: (  36,  36,  36)

     Smooth grid:     5985 G-vectors     FFT dimensions: (  25,  25,  25)

     Estimated max dynamical RAM per process >       1.50MB

     Estimated total allocated dynamical RAM >       6.02MB

     The potential is recalculated from file :
     ./_ph0/silicon.10.280.save/charge-density.dat

     Starting wfc are    8 atomic wfcs

     Band Structure Calculation
     Davidson diagonalization with overlap

     ethr =  1.25E-10,  avg # of iterations = 12.1

     total cpu time spent up to now is       10.6 secs

     End of band structure calculation

          k =-0.1250 0.1250 0.1250 (   746 PWs)   bands (ev):

    -5.5805   4.5435   5.8526   5.8526

          k =-0.6250-0.8750 0.1250 (   749 PWs)   bands (ev):

    -2.3343  -0.7782   2.1043   3.1980

          k =-0.3750 0.3750-0.1250 (   757 PWs)   bands (ev):

    -4.5397   1.5258   3.8410   5.3687

          k =-0.8750-0.6250-0.1250 (   749 PWs)   bands (ev):

    -2.3343  -0.7782   2.1043   3.1980

          k = 0.3750-0.3750 0.6250 (   755 PWs)   bands (ev):

    -3.3796  -0.5848   3.8690   4.5851

          k =-0.1250-1.3750 0.6250 (   757 PWs)   bands (ev):

    -2.8776  -0.4839   2.1694   4.2629

          k = 0.1250-0.1250 0.3750 (   757 PWs)   bands (ev):

    -5.0456   2.9205   4.8290   4.9019

          k =-0.3750-1.1250 0.3750 (   757 PWs)   bands (ev):

    -2.8776  -0.4839   2.1694   4.2629

          k =-0.1250 0.6250 0.1250 (   757 PWs)   bands (ev):

    -4.0004   1.2053   3.4841   3.9436

          k =-0.6250-0.3750 0.1250 (   756 PWs)   bands (ev):

    -3.5774   0.3122   2.8362   4.2215

          k = 0.6250-0.1250 0.8750 (   749 PWs)   bands (ev):

    -2.3343  -0.7782   2.1043   3.1980

          k = 0.1250-1.1250 0.8750 (   757 PWs)   bands (ev):

    -2.5080  -0.6776   2.7247   3.4710

          k = 0.3750 0.1250 0.6250 (   756 PWs)   bands (ev):

    -3.5774   0.3122   2.8362   4.2215

          k =-0.1250-0.8750 0.6250 (   749 PWs)   bands (ev):

    -2.3343  -0.7782   2.1043   3.1980

          k =-0.1250-0.8750 0.1250 (   757 PWs)   bands (ev):

    -2.5080  -0.6776   2.7247   3.4710

          k =-0.6250-1.8750 0.1250 (   757 PWs)   bands (ev):

    -4.0004   1.2053   3.4841   3.9436

          k =-0.3750 0.3750 0.3750 (   763 PWs)   bands (ev):

    -4.0992   0.2127   5.0573   5.0573

          k =-0.8750-0.6250 0.3750 (   756 PWs)   bands (ev):

    -3.5774   0.3122   2.8362   4.2215

          k = 0.3750-0.3750 1.1250 (   757 PWs)   bands (ev):

    -2.8776  -0.4839   2.1694   4.2629

          k =-0.1250-1.3750 1.1250 (   749 PWs)   bands (ev):

    -2.3343  -0.7782   2.1043   3.1980

          k = 0.1250-0.3750 0.3750 (   757 PWs)   bands (ev):

    -4.5397   1.5258   3.8410   5.3687

          k =-0.3750-1.3750 0.3750 (   755 PWs)   bands (ev):

    -3.3796  -0.5848   3.8690   4.5851

          k = 0.3750-0.3750-0.1250 (   757 PWs)   bands (ev):

    -4.5397   1.5258   3.8410   5.3687

          k =-0.1250-1.3750-0.1250 (   757 PWs)   bands (ev):

    -4.0004   1.2053   3.4841   3.9436

          k =-0.6250 0.3750-0.3750 (   755 PWs)   bands (ev):

    -3.3796  -0.5848   3.8690   4.5851

          k =-1.1250-0.6250-0.3750 (   756 PWs)   bands (ev):

    -3.5774   0.3122   2.8362   4.2215

          k =-0.3750 0.3750 0.6250 (   755 PWs)   bands (ev):

    -3.3796  -0.5848   3.8690   4.5851

          k =-0.8750-0.6250 0.6250 (   757 PWs)   bands (ev):

    -4.5397   1.5258   3.8410   5.3687

          k =-0.3750 0.1250-0.1250 (   757 PWs)   bands (ev):

    -5.0456   2.9205   4.8290   4.9019

          k =-0.8750-0.8750-0.1250 (   757 PWs)   bands (ev):

    -2.5080  -0.6776   2.7247   3.4710

          k =-0.1250 0.1250 0.3750 (   757 PWs)   bands (ev):

    -5.0456   2.9205   4.8290   4.9019

          k =-0.6250-0.8750 0.3750 (   756 PWs)   bands (ev):

    -3.5774   0.3122   2.8362   4.2215

          k = 0.1250 0.6250-0.1250 (   757 PWs)   bands (ev):

    -4.0004   1.2053   3.4841   3.9436

          k =-0.3750-0.3750-0.1250 (   757 PWs)   bands (ev):

    -4.5397   1.5258   3.8410   5.3687

          k = 0.6250 0.1250-0.1250 (   757 PWs)   bands (ev):

    -4.0004   1.2053   3.4841   3.9436

          k = 0.1250-0.8750-0.1250 (   757 PWs)   bands (ev):

    -2.5080  -0.6776   2.7247   3.4710

          k =-0.8750 0.1250-0.6250 (   749 PWs)   bands (ev):

    -2.3343  -0.7782   2.1043   3.1980

          k =-1.3750-0.8750-0.6250 (   757 PWs)   bands (ev):

    -4.5397   1.5258   3.8410   5.3687

          k = 0.8750-0.1250 0.6250 (   749 PWs)   bands (ev):

    -2.3343  -0.7782   2.1043   3.1980

          k = 0.3750-1.1250 0.6250 (   756 PWs)   bands (ev):

    -3.5774   0.3122   2.8362   4.2215

          k =-0.6250 0.1250 0.8750 (   749 PWs)   bands (ev):

    -2.3343  -0.7782   2.1043   3.1980

          k =-1.1250-0.8750 0.8750 (   746 PWs)   bands (ev):

    -5.5805   4.5435   5.8526   5.8526

          k =-0.1250 0.8750 0.6250 (   749 PWs)   bands (ev):

    -2.3343  -0.7782   2.1043   3.1980

          k =-0.6250-0.1250 0.6250 (   757 PWs)   bands (ev):

    -2.8776  -0.4839   2.1694   4.2629

          k = 0.1250 0.8750-0.6250 (   749 PWs)   bands (ev):

    -2.3343  -0.7782   2.1043   3.1980

          k =-0.3750-0.1250-0.6250 (   756 PWs)   bands (ev):

    -3.5774   0.3122   2.8362   4.2215

          k =-0.6250-0.1250-0.3750 (   756 PWs)   bands (ev):

    -3.5774   0.3122   2.8362   4.2215

          k =-1.1250-1.1250-0.3750 (   757 PWs)   bands (ev):

    -4.0004   1.2053   3.4841   3.9436

          k = 0.6250 0.1250 0.3750 (   756 PWs)   bands (ev):

    -3.5774   0.3122   2.8362   4.2215

          k = 0.1250-0.8750 0.3750 (   749 PWs)   bands (ev):

    -2.3343  -0.7782   2.1043   3.1980

          k =-0.3750-0.1250 0.6250 (   756 PWs)   bands (ev):

    -3.5774   0.3122   2.8362   4.2215

          k =-0.8750-1.1250 0.6250 (   757 PWs)   bands (ev):

    -5.0456   2.9205   4.8290   4.9019

          k = 0.1250 0.6250 0.3750 (   756 PWs)   bands (ev):

    -3.5774   0.3122   2.8362   4.2215

          k =-0.3750-0.3750 0.3750 (   763 PWs)   bands (ev):

    -4.0992   0.2127   5.0573   5.0573

          k =-0.1250 0.6250-0.3750 (   756 PWs)   bands (ev):

    -3.5774   0.3122   2.8362   4.2215

          k =-0.6250-0.3750-0.3750 (   755 PWs)   bands (ev):

    -3.3796  -0.5848   3.8690   4.5851

          k = 0.1250-0.8750-0.1250 (   757 PWs)   bands (ev):

    -2.5080  -0.6776   2.7247   3.4710

          k =-0.3750-1.8750-0.1250 (   757 PWs)   bands (ev):

    -5.0456   2.9205   4.8290   4.9019

          k =-0.8750 0.1250-0.1250 (   757 PWs)   bands (ev):

    -2.5080  -0.6776   2.7247   3.4710

          k =-1.3750-0.8750-0.1250 (   749 PWs)   bands (ev):

    -2.3343  -0.7782   2.1043   3.1980

          k =-1.1250 0.3750-0.3750 (   757 PWs)   bands (ev):

    -2.8776  -0.4839   2.1694   4.2629

          k =-1.6250-0.6250-0.3750 (   755 PWs)   bands (ev):

    -3.3796  -0.5848   3.8690   4.5851

          k =-0.3750 0.3750 1.1250 (   757 PWs)   bands (ev):

    -2.8776  -0.4839   2.1694   4.2629

          k =-0.8750-0.6250 1.1250 (   757 PWs)   bands (ev):

    -5.0456   2.9205   4.8290   4.9019

     highest occupied level (ev):     5.8526

     Writing output data file silicon.10.280.save

                                                                                

     bravais-lattice index     =            2
     lattice parameter (alat)  =      10.2800  a.u.
     unit-cell volume          =     271.5935 (a.u.)^3
     number of atoms/cell      =            2
     number of atomic types    =            1
     kinetic-energy cut-off    =      30.0000  Ry
     charge density cut-off    =     240.0000  Ry
     convergence threshold     =      1.0E-12
     beta                      =       0.7000
     number of iterations used =            4
     Exchange-correlation      = SLA  PW   PBE  PBE ( 1  4  3  4 0 0)


     celldm(1)=   10.28000  celldm(2)=    0.00000  celldm(3)=    0.00000
     celldm(4)=    0.00000  celldm(5)=    0.00000  celldm(6)=    0.00000

     crystal axes: (cart. coord. in units of alat)
               a(1) = ( -0.5000  0.0000  0.5000 )  
               a(2) = (  0.0000  0.5000  0.5000 )  
               a(3) = ( -0.5000  0.5000  0.0000 )  

     reciprocal axes: (cart. coord. in units 2 pi/alat)
               b(1) = ( -1.0000 -1.0000  1.0000 )  
               b(2) = (  1.0000  1.0000  1.0000 )  
               b(3) = ( -1.0000  1.0000 -1.0000 )  


     Atoms inside the unit cell: 

     Cartesian axes

     site n.  atom      mass           positions (alat units)
        1     Si  28.0860   tau(    1) = (    0.00000    0.00000    0.00000  )
        2     Si  28.0860   tau(    2) = (    0.25000    0.25000    0.25000  )

     Computing dynamical matrix for 
                    q = (  -0.5000000  -1.0000000   0.0000000 )

      8 Sym.Ops. (no q -> -q+G )


     G cutoff =  642.4476  (   4224 G-vectors)     FFT grid: ( 36, 36, 36)
     G cutoff =  321.2238  (   1497 G-vectors)  smooth grid: ( 25, 25, 25)
     number of k points=    64

     PseudoPot. # 1 for Si read from file:
     /home/s1333534/quantum_espresso/qe-6.1/pseudo/si_pbe_v1.uspp.F.UPF.txt
     MD5 check sum: a056efeee980c13900f22a371efd63c1
     Pseudo is Ultrasoft + core correction, Zval =  4.0
     Generated by new atomic code, or converted to UPF format
     Using radial grid of  899 points,  6 beta functions with: 
                l(1) =   0
                l(2) =   0
                l(3) =   1
                l(4) =   1
                l(5) =   2
                l(6) =   2
     Q(r) pseudized with  8 coefficients,  rinner =    0.900   0.900   0.900
                                                       0.900   0.900


     Atomic displacements:
     There are   3 irreducible representations

     Representation     1      2 modes -  To be done

     Representation     2      2 modes -  To be done

     Representation     3      2 modes -  To be done



     Alpha used in Ewald sum =   2.5000
     PHONON       :  2m 2.09s CPU     2m28.58s WALL



     Representation #  1 modes #   1  2

     Self-consistent Calculation

      iter #   1 total cpu time :   149.3 secs   av.it.:   5.8
      thresh= 1.000E-02 alpha_mix =  0.700 |ddv_scf|^2 =  1.099E-06

      iter #   2 total cpu time :   150.1 secs   av.it.:  11.6
      thresh= 1.048E-04 alpha_mix =  0.700 |ddv_scf|^2 =  6.235E-07

      iter #   3 total cpu time :   150.9 secs   av.it.:  11.1
      thresh= 7.896E-05 alpha_mix =  0.700 |ddv_scf|^2 =  5.927E-10

      iter #   4 total cpu time :   151.7 secs   av.it.:  11.0
      thresh= 2.435E-06 alpha_mix =  0.700 |ddv_scf|^2 =  2.611E-12

      iter #   5 total cpu time :   152.5 secs   av.it.:  11.1
      thresh= 1.616E-07 alpha_mix =  0.700 |ddv_scf|^2 =  6.878E-14

     End of self-consistent calculation

     Convergence has been achieved 


     Representation #  2 modes #   3  4

     Self-consistent Calculation

      iter #   1 total cpu time :   153.2 secs   av.it.:   5.6
      thresh= 1.000E-02 alpha_mix =  0.700 |ddv_scf|^2 =  1.695E-06

      iter #   2 total cpu time :   154.0 secs   av.it.:  11.6
      thresh= 1.302E-04 alpha_mix =  0.700 |ddv_scf|^2 =  2.264E-06

      iter #   3 total cpu time :   154.7 secs   av.it.:  10.9
      thresh= 1.505E-04 alpha_mix =  0.700 |ddv_scf|^2 =  6.961E-10

      iter #   4 total cpu time :   155.5 secs   av.it.:  11.0
      thresh= 2.638E-06 alpha_mix =  0.700 |ddv_scf|^2 =  9.912E-12

      iter #   5 total cpu time :   156.3 secs   av.it.:  11.1
      thresh= 3.148E-07 alpha_mix =  0.700 |ddv_scf|^2 =  1.713E-13

     End of self-consistent calculation

     Convergence has been achieved 


     Representation #  3 modes #   5  6

     Self-consistent Calculation

      iter #   1 total cpu time :   156.9 secs   av.it.:   5.3
      thresh= 1.000E-02 alpha_mix =  0.700 |ddv_scf|^2 =  4.461E-07

      iter #   2 total cpu time :   157.7 secs   av.it.:  11.6
      thresh= 6.679E-05 alpha_mix =  0.700 |ddv_scf|^2 =  2.611E-07

      iter #   3 total cpu time :   158.5 secs   av.it.:  11.0
      thresh= 5.110E-05 alpha_mix =  0.700 |ddv_scf|^2 =  5.172E-10

      iter #   4 total cpu time :   159.3 secs   av.it.:  11.0
      thresh= 2.274E-06 alpha_mix =  0.700 |ddv_scf|^2 =  5.935E-12

      iter #   5 total cpu time :   160.0 secs   av.it.:  11.1
      thresh= 2.436E-07 alpha_mix =  0.700 |ddv_scf|^2 =  8.321E-14

     End of self-consistent calculation

     Convergence has been achieved 

     Number of q in the star =    6
     List of q in the star:
          1  -0.500000000  -1.000000000   0.000000000
          2   0.000000000   1.000000000   0.500000000
          3   0.000000000  -1.000000000  -0.500000000
          4   0.500000000   1.000000000   0.000000000
          5  -1.000000000  -0.500000000   0.000000000
          6   0.000000000  -0.500000000  -1.000000000

     Diagonalizing the dynamical matrix

     q = (   -0.500000000  -1.000000000   0.000000000 ) 

 **************************************************************************
     freq (    1) =       5.974349 [THz] =     199.282826 [cm-1]
     freq (    2) =       5.974349 [THz] =     199.282826 [cm-1]
     freq (    3) =      10.513941 [THz] =     350.707309 [cm-1]
     freq (    4) =      10.513941 [THz] =     350.707309 [cm-1]
     freq (    5) =      13.871977 [THz] =     462.719332 [cm-1]
     freq (    6) =      13.871977 [THz] =     462.719332 [cm-1]
 **************************************************************************

     init_run     :      1.25s CPU      1.32s WALL (       7 calls)
     electrons    :      7.19s CPU      7.71s WALL (       7 calls)

     Called by init_run:
     wfcinit      :      0.00s CPU      0.03s WALL (       7 calls)
     potinit      :      0.07s CPU      0.09s WALL (       7 calls)

     Called by electrons:
     c_bands      :      7.18s CPU      7.70s WALL (       7 calls)
     v_of_rho     :      0.07s CPU      0.07s WALL (       8 calls)
     newd         :      0.13s CPU      0.14s WALL (       8 calls)

     Called by c_bands:
     init_us_2    :      1.64s CPU      1.58s WALL (   16040 calls)
     cegterg      :      6.02s CPU      6.44s WALL (     796 calls)

     Called by sum_band:

     Called by *egterg:
     h_psi        :     68.71s CPU     73.50s WALL (  154434 calls)
     s_psi        :      5.53s CPU      6.89s WALL (  311270 calls)
     g_psi        :      0.05s CPU      0.07s WALL (    9666 calls)
     cdiaghg      :      0.57s CPU      0.56s WALL (   10462 calls)

     Called by h_psi:
     h_psi:pot    :     68.29s CPU     73.00s WALL (  154434 calls)
     h_psi:calbec :      3.40s CPU      3.98s WALL (  154434 calls)
     vloc_psi     :     60.23s CPU     64.90s WALL (  154434 calls)
     add_vuspsi   :      4.30s CPU      3.62s WALL (  154434 calls)

     General routines
     calbec       :      7.97s CPU      8.41s WALL (  345722 calls)
     fft          :      1.48s CPU      1.55s WALL (    5265 calls)
     ffts         :      0.21s CPU      0.22s WALL (    3320 calls)
     fftw         :     63.28s CPU     67.61s WALL ( 1383438 calls)
     interpolate  :      0.20s CPU      0.22s WALL (     572 calls)
     davcio       :      0.31s CPU      0.90s WALL (   69876 calls)

     Parallel routines
     fft_scatter  :     16.31s CPU     19.79s WALL ( 1392023 calls)

     PHONON       :  2m11.27s CPU     2m40.47s WALL

     INITIALIZATION: 
     phq_setup    :      0.22s CPU      0.40s WALL (       8 calls)
     phq_init     :      6.62s CPU      6.85s WALL (       8 calls)

     phq_init     :      6.62s CPU      6.85s WALL (       8 calls)
     set_drhoc    :      1.79s CPU      1.79s WALL (      24 calls)
     init_vloc    :      0.03s CPU      0.03s WALL (       8 calls)
     init_us_1    :      0.98s CPU      0.98s WALL (       8 calls)
     newd         :      0.13s CPU      0.14s WALL (       8 calls)
     dvanqq       :      1.14s CPU      1.15s WALL (       8 calls)
     drho         :      2.57s CPU      2.65s WALL (       8 calls)

     DYNAMICAL MATRIX:
     dynmat0      :      1.67s CPU      1.78s WALL (       8 calls)
     phqscf       :    111.37s CPU    135.00s WALL (       8 calls)
     dynmatrix    :      0.01s CPU      0.21s WALL (       8 calls)

     phqscf       :    111.37s CPU    135.00s WALL (       8 calls)
     solve_linter :    110.51s CPU    132.77s WALL (      32 calls)
     drhodv       :      0.57s CPU      0.59s WALL (      32 calls)

     dynmat0      :      1.67s CPU      1.78s WALL (       8 calls)
     dynmat_us    :      0.38s CPU      0.38s WALL (       8 calls)
     d2ionq       :      0.04s CPU      0.04s WALL (       8 calls)
     dynmatcc     :      1.25s CPU      1.25s WALL (       8 calls)

     dynmat_us    :      0.38s CPU      0.38s WALL (       8 calls)
     addusdynmat  :      0.00s CPU      0.00s WALL (       8 calls)

     phqscf       :    111.37s CPU    135.00s WALL (       8 calls)
     solve_linter :    110.51s CPU    132.77s WALL (      32 calls)

     solve_linter :    110.51s CPU    132.77s WALL (      32 calls)
     dvqpsi_us    :      2.12s CPU      2.27s WALL (    2508 calls)
     ortho        :      0.98s CPU      1.14s WALL (   13630 calls)
     cgsolve      :     76.07s CPU     82.66s WALL (   13630 calls)
     incdrhoscf   :      6.35s CPU      6.95s WALL (   13630 calls)
     addusddens   :      6.99s CPU      7.04s WALL (     202 calls)
     vpsifft      :      4.51s CPU      4.91s WALL (   11002 calls)
     dv_of_drho   :      1.24s CPU      1.29s WALL (     256 calls)
     mix_pot      :      0.30s CPU      7.41s WALL (     175 calls)
     psymdvscf    :      4.10s CPU      4.15s WALL (     170 calls)
     newdq        :      7.54s CPU      7.56s WALL (     175 calls)
     adddvscf     :      0.48s CPU      0.45s WALL (   11122 calls)
     drhodvus     :      0.02s CPU      0.02s WALL (      32 calls)

     dvqpsi_us    :      2.12s CPU      2.27s WALL (    2508 calls)
     dvqpsi_us_on :      0.91s CPU      0.95s WALL (    2508 calls)

     cgsolve      :     76.07s CPU     82.66s WALL (   13630 calls)
     ch_psi       :     74.96s CPU     80.94s WALL (  143176 calls)

     ch_psi       :     74.96s CPU     80.94s WALL (  143176 calls)
     h_psi        :     68.71s CPU     73.50s WALL (  154434 calls)
     last         :      8.89s CPU      9.03s WALL (  143176 calls)

     h_psi        :     68.71s CPU     73.50s WALL (  154434 calls)
     add_vuspsi   :      4.30s CPU      3.62s WALL (  154434 calls)

     incdrhoscf   :      6.35s CPU      6.95s WALL (   13630 calls)
     addusdbec    :      0.47s CPU      0.52s WALL (   16078 calls)

     drhodvus     :      0.02s CPU      0.02s WALL (      32 calls)

      General routines
     calbec       :      7.97s CPU      8.41s WALL (  345722 calls)
     fft          :      1.48s CPU      1.55s WALL (    5265 calls)
     ffts         :      0.21s CPU      0.22s WALL (    3320 calls)
     fftw         :     63.28s CPU     67.61s WALL ( 1383438 calls)
     davcio       :      0.31s CPU      0.90s WALL (   69876 calls)
     write_rec    :      0.23s CPU      8.48s WALL (     207 calls)


     PHONON       :  2m11.27s CPU     2m40.47s WALL


   This run was terminated on:  15:30:37  10Nov2017            

=------------------------------------------------------------------------------=
   JOB DONE.
=------------------------------------------------------------------------------=
