
     Program PWSCF v.6.1 (svn rev. 13369) starts on 10Nov2017 at 13:47:31 

     This program is part of the open-source Quantum ESPRESSO suite
     for quantum simulation of materials; please cite
         "P. Giannozzi et al., J. Phys.:Condens. Matter 21 395502 (2009);
          URL http://www.quantum-espresso.org", 
     in publications or presentations arising from this work. More details at
     http://www.quantum-espresso.org/quote

     Parallel version (MPI), running on     4 processors
     R & G space division:  proc/nbgrp/npool/nimage =       4
     Waiting for input...
     Reading input from standard input
     Message from routine read_cards :
     DEPRECATED: no units specified in ATOMIC_POSITIONS card
     Message from routine read_cards :
     ATOMIC_POSITIONS: units set to alat

     Current dimensions of program PWSCF are:
     Max number of different atomic species (ntypx) = 10
     Max number of k-points (npk) =  40000
     Max angular momentum in pseudopotentials (lmaxx) =  3

     Subspace diagonalization in iterative solution of the eigenvalue problem:
     a serial algorithm will be used


     Parallelization info
     --------------------
     sticks:   dense  smooth     PW     G-vecs:    dense   smooth      PW
     Min         175      90     30                 3084     1095     216
     Max         176      91     31                 3085     1096     218
     Sum         703     361    121                12339     4381     869



     bravais-lattice index     =            2
     lattice parameter (alat)  =      10.3330  a.u.
     unit-cell volume          =     275.8159 (a.u.)^3
     number of atoms/cell      =            2
     number of atomic types    =            1
     number of electrons       =         8.00
     number of Kohn-Sham states=            4
     kinetic-energy cutoff     =      24.0000  Ry
     charge density cutoff     =     192.0000  Ry
     convergence threshold     =      1.0E-08
     mixing beta               =       0.7000
     number of iterations used =            8  plain     mixing
     Exchange-correlation      = SLA  PW   PBE  PBE ( 1  4  3  4 0 0)

     celldm(1)=  10.333000  celldm(2)=   0.000000  celldm(3)=   0.000000
     celldm(4)=   0.000000  celldm(5)=   0.000000  celldm(6)=   0.000000

     crystal axes: (cart. coord. in units of alat)
               a(1) = (  -0.500000   0.000000   0.500000 )  
               a(2) = (   0.000000   0.500000   0.500000 )  
               a(3) = (  -0.500000   0.500000   0.000000 )  

     reciprocal axes: (cart. coord. in units 2 pi/alat)
               b(1) = ( -1.000000 -1.000000  1.000000 )  
               b(2) = (  1.000000  1.000000  1.000000 )  
               b(3) = ( -1.000000  1.000000 -1.000000 )  


     PseudoPot. # 1 for Si read from file:
     /home/s1333534/quantum_espresso/qe-6.1/pseudo/si_pbe_v1.uspp.F.UPF.txt
     MD5 check sum: a056efeee980c13900f22a371efd63c1
     Pseudo is Ultrasoft + core correction, Zval =  4.0
     Generated by new atomic code, or converted to UPF format
     Using radial grid of  899 points,  6 beta functions with: 
                l(1) =   0
                l(2) =   0
                l(3) =   1
                l(4) =   1
                l(5) =   2
                l(6) =   2
     Q(r) pseudized with  8 coefficients,  rinner =    0.900   0.900   0.900
                                                       0.900   0.900

     atomic species   valence    mass     pseudopotential
        Si             4.00    28.08600     Si( 1.00)

     48 Sym. Ops., with inversion, found (24 have fractional translation)



   Cartesian axes

     site n.     atom                  positions (alat units)
         1           Si  tau(   1) = (   0.0000000   0.0000000   0.0000000  )
         2           Si  tau(   2) = (   0.2500000   0.2500000   0.2500000  )

     number of k points=    10
                       cart. coord. in units 2pi/alat
        k(    1) = (  -0.1250000   0.1250000   0.1250000), wk =   0.0625000
        k(    2) = (  -0.3750000   0.3750000  -0.1250000), wk =   0.1875000
        k(    3) = (   0.3750000  -0.3750000   0.6250000), wk =   0.1875000
        k(    4) = (   0.1250000  -0.1250000   0.3750000), wk =   0.1875000
        k(    5) = (  -0.1250000   0.6250000   0.1250000), wk =   0.1875000
        k(    6) = (   0.6250000  -0.1250000   0.8750000), wk =   0.3750000
        k(    7) = (   0.3750000   0.1250000   0.6250000), wk =   0.3750000
        k(    8) = (  -0.1250000  -0.8750000   0.1250000), wk =   0.1875000
        k(    9) = (  -0.3750000   0.3750000   0.3750000), wk =   0.0625000
        k(   10) = (   0.3750000  -0.3750000   1.1250000), wk =   0.1875000

     Dense  grid:    12339 G-vectors     FFT dimensions: (  36,  36,  36)

     Smooth grid:     4381 G-vectors     FFT dimensions: (  24,  24,  24)

     Estimated max dynamical RAM per process >       2.27MB

     Estimated total allocated dynamical RAM >       9.06MB

     Initial potential from superposition of free atoms

     starting charge    7.99866, renormalised to    8.00000
     Starting wfc are    8 randomized atomic wfcs

     total cpu time spent up to now is        0.2 secs

     per-process dynamical memory:     8.9 Mb

     Self-consistent Calculation

     iteration #  1     ecut=    24.00 Ry     beta=0.70
     Davidson diagonalization with overlap
     ethr =  1.00E-02,  avg # of iterations =  2.0

     Threshold (ethr) on eigenvalues was too large:
     Diagonalizing with lowered threshold

     Davidson diagonalization with overlap
     ethr =  6.76E-04,  avg # of iterations =  1.1

     total cpu time spent up to now is        0.3 secs

     total energy              =     -19.19104962 Ry
     Harris-Foulkes estimate   =     -19.20351403 Ry
     estimated scf accuracy    <       0.05377105 Ry

     iteration #  2     ecut=    24.00 Ry     beta=0.70
     Davidson diagonalization with overlap
     ethr =  6.72E-04,  avg # of iterations =  1.0

     total cpu time spent up to now is        0.4 secs

     total energy              =     -19.19279035 Ry
     Harris-Foulkes estimate   =     -19.19295898 Ry
     estimated scf accuracy    <       0.00245130 Ry

     iteration #  3     ecut=    24.00 Ry     beta=0.70
     Davidson diagonalization with overlap
     ethr =  3.06E-05,  avg # of iterations =  2.1

     total cpu time spent up to now is        0.4 secs

     total energy              =     -19.19309750 Ry
     Harris-Foulkes estimate   =     -19.19311014 Ry
     estimated scf accuracy    <       0.00004224 Ry

     iteration #  4     ecut=    24.00 Ry     beta=0.70
     Davidson diagonalization with overlap
     ethr =  5.28E-07,  avg # of iterations =  3.1

     total cpu time spent up to now is        0.5 secs

     total energy              =     -19.19313138 Ry
     Harris-Foulkes estimate   =     -19.19313210 Ry
     estimated scf accuracy    <       0.00000265 Ry

     iteration #  5     ecut=    24.00 Ry     beta=0.70
     Davidson diagonalization with overlap
     ethr =  3.31E-08,  avg # of iterations =  2.1

     total cpu time spent up to now is        0.6 secs

     total energy              =     -19.19313175 Ry
     Harris-Foulkes estimate   =     -19.19313174 Ry
     estimated scf accuracy    <       0.00000001 Ry

     iteration #  6     ecut=    24.00 Ry     beta=0.70
     Davidson diagonalization with overlap
     ethr =  1.73E-10,  avg # of iterations =  3.8

     total cpu time spent up to now is        0.6 secs

     End of self-consistent calculation

          k =-0.1250 0.1250 0.1250 (   540 PWs)   bands (ev):

    -5.6372   4.3888   5.6980   5.6980

          k =-0.3750 0.3750-0.1250 (   551 PWs)   bands (ev):

    -4.6110   1.3969   3.7127   5.2180

          k = 0.3750-0.3750 0.6250 (   549 PWs)   bands (ev):

    -3.4719  -0.6804   3.7334   4.4469

          k = 0.1250-0.1250 0.3750 (   549 PWs)   bands (ev):

    -5.1095   2.7729   4.6905   4.7544

          k =-0.1250 0.6250 0.1250 (   547 PWs)   bands (ev):

    -4.0786   1.0627   3.3644   3.8169

          k = 0.6250-0.1250 0.8750 (   545 PWs)   bands (ev):

    -2.4395  -0.8985   2.0106   3.0868

          k = 0.3750 0.1250 0.6250 (   549 PWs)   bands (ev):

    -3.6632   0.1900   2.7227   4.0914

          k =-0.1250-0.8750 0.1250 (   546 PWs)   bands (ev):

    -2.6071  -0.8012   2.6203   3.3502

          k =-0.3750 0.3750 0.3750 (   550 PWs)   bands (ev):

    -4.1782   0.1073   4.9112   4.9112

          k = 0.3750-0.3750 1.1250 (   545 PWs)   bands (ev):

    -2.9764  -0.5959   2.0688   4.1301

     highest occupied level (ev):     5.6980

!    total energy              =     -19.19313177 Ry
     Harris-Foulkes estimate   =     -19.19313177 Ry
     estimated scf accuracy    <          1.4E-09 Ry

     The total energy is the sum of the following terms:

     one-electron contribution =       4.95186248 Ry
     hartree contribution      =       1.13438348 Ry
     xc contribution           =      -8.59714238 Ry
     ewald contribution        =     -16.68223534 Ry

     convergence has been achieved in   6 iterations


     Computing stress (Cartesian axis) and pressure

          total   stress  (Ry/bohr**3)                   (kbar)     P=   -0.31
  -0.00000207   0.00000000  -0.00000000         -0.31      0.00     -0.00
   0.00000000  -0.00000207  -0.00000000          0.00     -0.31     -0.00
  -0.00000000   0.00000000  -0.00000207         -0.00      0.00     -0.31


     Writing output data file silicon.24.save

     init_run     :      0.16s CPU      0.17s WALL (       1 calls)
     electrons    :      0.39s CPU      0.42s WALL (       1 calls)
     stress       :      0.13s CPU      0.13s WALL (       1 calls)

     Called by init_run:
     wfcinit      :      0.01s CPU      0.01s WALL (       1 calls)
     potinit      :      0.01s CPU      0.02s WALL (       1 calls)

     Called by electrons:
     c_bands      :      0.12s CPU      0.13s WALL (       7 calls)
     sum_band     :      0.15s CPU      0.15s WALL (       7 calls)
     v_of_rho     :      0.06s CPU      0.06s WALL (       7 calls)
     newd         :      0.07s CPU      0.08s WALL (       7 calls)
     mix_rho      :      0.00s CPU      0.00s WALL (       7 calls)

     Called by c_bands:
     init_us_2    :      0.01s CPU      0.01s WALL (     160 calls)
     cegterg      :      0.10s CPU      0.10s WALL (      70 calls)

     Called by sum_band:
     sum_band:bec :      0.00s CPU      0.00s WALL (      70 calls)
     addusdens    :      0.11s CPU      0.11s WALL (       7 calls)

     Called by *egterg:
     h_psi        :      0.09s CPU      0.09s WALL (     232 calls)
     s_psi        :      0.00s CPU      0.00s WALL (     232 calls)
     g_psi        :      0.00s CPU      0.00s WALL (     152 calls)
     cdiaghg      :      0.01s CPU      0.01s WALL (     212 calls)

     Called by h_psi:
     h_psi:pot    :      0.09s CPU      0.09s WALL (     232 calls)
     h_psi:calbec :      0.00s CPU      0.00s WALL (     232 calls)
     vloc_psi     :      0.08s CPU      0.08s WALL (     232 calls)
     add_vuspsi   :      0.00s CPU      0.00s WALL (     232 calls)

     General routines
     calbec       :      0.01s CPU      0.01s WALL (     312 calls)
     fft          :      0.03s CPU      0.03s WALL (     126 calls)
     ffts         :      0.00s CPU      0.00s WALL (      14 calls)
     fftw         :      0.08s CPU      0.08s WALL (    2014 calls)
     interpolate  :      0.01s CPU      0.01s WALL (      14 calls)
     davcio       :      0.00s CPU      0.00s WALL (      10 calls)

     Parallel routines
     fft_scatter  :      0.02s CPU      0.03s WALL (    2154 calls)

     PWSCF        :     0.77s CPU         0.98s WALL


   This run was terminated on:  13:47:32  10Nov2017            

=------------------------------------------------------------------------------=
   JOB DONE.
=------------------------------------------------------------------------------=
