
     Program PWSCF v.6.1 (svn rev. 13369) starts on 10Nov2017 at 13:43:54 

     This program is part of the open-source Quantum ESPRESSO suite
     for quantum simulation of materials; please cite
         "P. Giannozzi et al., J. Phys.:Condens. Matter 21 395502 (2009);
          URL http://www.quantum-espresso.org", 
     in publications or presentations arising from this work. More details at
     http://www.quantum-espresso.org/quote

     Parallel version (MPI), running on     4 processors
     R & G space division:  proc/nbgrp/npool/nimage =       4
     Waiting for input...
     Reading input from standard input
     Message from routine read_cards :
     DEPRECATED: no units specified in ATOMIC_POSITIONS card
     Message from routine read_cards :
     ATOMIC_POSITIONS: units set to alat

     Current dimensions of program PWSCF are:
     Max number of different atomic species (ntypx) = 10
     Max number of k-points (npk) =  40000
     Max angular momentum in pseudopotentials (lmaxx) =  3

     Subspace diagonalization in iterative solution of the eigenvalue problem:
     a serial algorithm will be used


     Parallelization info
     --------------------
     sticks:   dense  smooth     PW     G-vecs:    dense   smooth      PW
     Min         129      63     22                 1996      684     140
     Max         130      64     23                 1999      688     141
     Sum         517     253     91                 7991     2741     561



     bravais-lattice index     =            2
     lattice parameter (alat)  =      10.3330  a.u.
     unit-cell volume          =     275.8159 (a.u.)^3
     number of atoms/cell      =            2
     number of atomic types    =            1
     number of electrons       =         8.00
     number of Kohn-Sham states=            4
     kinetic-energy cutoff     =      18.0000  Ry
     charge density cutoff     =     144.0000  Ry
     convergence threshold     =      1.0E-08
     mixing beta               =       0.7000
     number of iterations used =            8  plain     mixing
     Exchange-correlation      = SLA  PW   PBE  PBE ( 1  4  3  4 0 0)

     celldm(1)=  10.333000  celldm(2)=   0.000000  celldm(3)=   0.000000
     celldm(4)=   0.000000  celldm(5)=   0.000000  celldm(6)=   0.000000

     crystal axes: (cart. coord. in units of alat)
               a(1) = (  -0.500000   0.000000   0.500000 )  
               a(2) = (   0.000000   0.500000   0.500000 )  
               a(3) = (  -0.500000   0.500000   0.000000 )  

     reciprocal axes: (cart. coord. in units 2 pi/alat)
               b(1) = ( -1.000000 -1.000000  1.000000 )  
               b(2) = (  1.000000  1.000000  1.000000 )  
               b(3) = ( -1.000000  1.000000 -1.000000 )  


     PseudoPot. # 1 for Si read from file:
     /home/s1333534/quantum_espresso/qe-6.1/pseudo/si_pbe_v1.uspp.F.UPF.txt
     MD5 check sum: a056efeee980c13900f22a371efd63c1
     Pseudo is Ultrasoft + core correction, Zval =  4.0
     Generated by new atomic code, or converted to UPF format
     Using radial grid of  899 points,  6 beta functions with: 
                l(1) =   0
                l(2) =   0
                l(3) =   1
                l(4) =   1
                l(5) =   2
                l(6) =   2
     Q(r) pseudized with  8 coefficients,  rinner =    0.900   0.900   0.900
                                                       0.900   0.900

     atomic species   valence    mass     pseudopotential
        Si             4.00    28.08600     Si( 1.00)

     24 Sym. Ops. (no inversion) found
          (note: 24 additional sym.ops. were found but ignored
           their fractional translations are incommensurate with FFT grid)


   Cartesian axes

     site n.     atom                  positions (alat units)
         1           Si  tau(   1) = (   0.0000000   0.0000000   0.0000000  )
         2           Si  tau(   2) = (   0.2500000   0.2500000   0.2500000  )

     number of k points=    10
                       cart. coord. in units 2pi/alat
        k(    1) = (  -0.1250000   0.1250000   0.1250000), wk =   0.0625000
        k(    2) = (  -0.3750000   0.3750000  -0.1250000), wk =   0.1875000
        k(    3) = (   0.3750000  -0.3750000   0.6250000), wk =   0.1875000
        k(    4) = (   0.1250000  -0.1250000   0.3750000), wk =   0.1875000
        k(    5) = (  -0.1250000   0.6250000   0.1250000), wk =   0.1875000
        k(    6) = (   0.6250000  -0.1250000   0.8750000), wk =   0.3750000
        k(    7) = (   0.3750000   0.1250000   0.6250000), wk =   0.3750000
        k(    8) = (  -0.1250000  -0.8750000   0.1250000), wk =   0.1875000
        k(    9) = (  -0.3750000   0.3750000   0.3750000), wk =   0.0625000
        k(   10) = (   0.3750000  -0.3750000   1.1250000), wk =   0.1875000

     Dense  grid:     7991 G-vectors     FFT dimensions: (  27,  27,  27)

     Smooth grid:     2741 G-vectors     FFT dimensions: (  20,  20,  20)

     Estimated max dynamical RAM per process >       1.30MB

     Estimated total allocated dynamical RAM >       5.21MB

     Initial potential from superposition of free atoms

     starting charge    7.99866, renormalised to    8.00000
     Starting wfc are    8 randomized atomic wfcs

     total cpu time spent up to now is        0.2 secs

     per-process dynamical memory:     7.9 Mb

     Self-consistent Calculation

     iteration #  1     ecut=    18.00 Ry     beta=0.70
     Davidson diagonalization with overlap
     ethr =  1.00E-02,  avg # of iterations =  2.0

     Threshold (ethr) on eigenvalues was too large:
     Diagonalizing with lowered threshold

     Davidson diagonalization with overlap
     ethr =  6.75E-04,  avg # of iterations =  1.1

     total cpu time spent up to now is        0.3 secs

     total energy              =     -19.18913892 Ry
     Harris-Foulkes estimate   =     -19.20157486 Ry
     estimated scf accuracy    <       0.05386217 Ry

     iteration #  2     ecut=    18.00 Ry     beta=0.70
     Davidson diagonalization with overlap
     ethr =  6.73E-04,  avg # of iterations =  1.0

     total cpu time spent up to now is        0.3 secs

     total energy              =     -19.19085755 Ry
     Harris-Foulkes estimate   =     -19.19102811 Ry
     estimated scf accuracy    <       0.00245558 Ry

     iteration #  3     ecut=    18.00 Ry     beta=0.70
     Davidson diagonalization with overlap
     ethr =  3.07E-05,  avg # of iterations =  2.0

     total cpu time spent up to now is        0.3 secs

     total energy              =     -19.19113234 Ry
     Harris-Foulkes estimate   =     -19.19114446 Ry
     estimated scf accuracy    <       0.00004049 Ry

     iteration #  4     ecut=    18.00 Ry     beta=0.70
     Davidson diagonalization with overlap
     ethr =  5.06E-07,  avg # of iterations =  2.7

     total cpu time spent up to now is        0.4 secs

     total energy              =     -19.19115383 Ry
     Harris-Foulkes estimate   =     -19.19115425 Ry
     estimated scf accuracy    <       0.00000199 Ry

     iteration #  5     ecut=    18.00 Ry     beta=0.70
     Davidson diagonalization with overlap
     ethr =  2.49E-08,  avg # of iterations =  2.1

     total cpu time spent up to now is        0.4 secs

     total energy              =     -19.19115426 Ry
     Harris-Foulkes estimate   =     -19.19115427 Ry
     estimated scf accuracy    <       0.00000005 Ry

     iteration #  6     ecut=    18.00 Ry     beta=0.70
     Davidson diagonalization with overlap
     ethr =  6.65E-10,  avg # of iterations =  2.8

     total cpu time spent up to now is        0.4 secs

     End of self-consistent calculation

          k =-0.1250 0.1250 0.1250 (   338 PWs)   bands (ev):

    -5.6345   4.3927   5.7001   5.7001

          k =-0.3750 0.3750-0.1250 (   352 PWs)   bands (ev):

    -4.6087   1.3991   3.7143   5.2190

          k = 0.3750-0.3750 0.6250 (   361 PWs)   bands (ev):

    -3.4695  -0.6791   3.7347   4.4476

          k = 0.1250-0.1250 0.3750 (   353 PWs)   bands (ev):

    -5.1073   2.7754   4.6915   4.7558

          k =-0.1250 0.6250 0.1250 (   351 PWs)   bands (ev):

    -4.0763   1.0660   3.3657   3.8174

          k = 0.6250-0.1250 0.8750 (   361 PWs)   bands (ev):

    -2.4364  -0.8964   2.0111   3.0872

          k = 0.3750 0.1250 0.6250 (   357 PWs)   bands (ev):

    -3.6609   0.1925   2.7242   4.0922

          k =-0.1250-0.8750 0.1250 (   358 PWs)   bands (ev):

    -2.6045  -0.7986   2.6207   3.3505

          k =-0.3750 0.3750 0.3750 (   353 PWs)   bands (ev):

    -4.1763   0.1091   4.9124   4.9124

          k = 0.3750-0.3750 1.1250 (   361 PWs)   bands (ev):

    -2.9736  -0.5939   2.0697   4.1310

     highest occupied level (ev):     5.7001

!    total energy              =     -19.19115428 Ry
     Harris-Foulkes estimate   =     -19.19115429 Ry
     estimated scf accuracy    <          7.8E-09 Ry

     The total energy is the sum of the following terms:

     one-electron contribution =       4.95324345 Ry
     hartree contribution      =       1.13377677 Ry
     xc contribution           =      -8.59593915 Ry
     ewald contribution        =     -16.68223535 Ry

     convergence has been achieved in   6 iterations


     Computing stress (Cartesian axis) and pressure

          total   stress  (Ry/bohr**3)                   (kbar)     P=   -6.36
  -0.00004320   0.00000000   0.00000000         -6.36      0.00      0.00
   0.00000000  -0.00004320   0.00000000          0.00     -6.36      0.00
   0.00000000   0.00000000  -0.00004320          0.00      0.00     -6.36


     Writing output data file silicon.18.save

     init_run     :      0.13s CPU      0.14s WALL (       1 calls)
     electrons    :      0.21s CPU      0.24s WALL (       1 calls)
     stress       :      0.08s CPU      0.08s WALL (       1 calls)

     Called by init_run:
     wfcinit      :      0.00s CPU      0.01s WALL (       1 calls)
     potinit      :      0.01s CPU      0.01s WALL (       1 calls)

     Called by electrons:
     c_bands      :      0.06s CPU      0.07s WALL (       7 calls)
     sum_band     :      0.08s CPU      0.09s WALL (       7 calls)
     v_of_rho     :      0.02s CPU      0.03s WALL (       7 calls)
     newd         :      0.05s CPU      0.05s WALL (       7 calls)
     mix_rho      :      0.00s CPU      0.00s WALL (       7 calls)

     Called by c_bands:
     init_us_2    :      0.01s CPU      0.01s WALL (     160 calls)
     cegterg      :      0.05s CPU      0.05s WALL (      70 calls)

     Called by sum_band:
     sum_band:bec :      0.00s CPU      0.00s WALL (      70 calls)
     addusdens    :      0.07s CPU      0.07s WALL (       7 calls)

     Called by *egterg:
     h_psi        :      0.03s CPU      0.04s WALL (     217 calls)
     s_psi        :      0.00s CPU      0.00s WALL (     217 calls)
     g_psi        :      0.00s CPU      0.00s WALL (     137 calls)
     cdiaghg      :      0.01s CPU      0.01s WALL (     197 calls)

     Called by h_psi:
     h_psi:pot    :      0.03s CPU      0.04s WALL (     217 calls)
     h_psi:calbec :      0.00s CPU      0.00s WALL (     217 calls)
     vloc_psi     :      0.03s CPU      0.03s WALL (     217 calls)
     add_vuspsi   :      0.00s CPU      0.00s WALL (     217 calls)

     General routines
     calbec       :      0.01s CPU      0.00s WALL (     297 calls)
     fft          :      0.02s CPU      0.02s WALL (     126 calls)
     ffts         :      0.00s CPU      0.00s WALL (      14 calls)
     fftw         :      0.03s CPU      0.03s WALL (    1940 calls)
     interpolate  :      0.00s CPU      0.00s WALL (      14 calls)
     davcio       :      0.00s CPU      0.00s WALL (      10 calls)

     Parallel routines
     fft_scatter  :      0.01s CPU      0.02s WALL (    2080 calls)

     PWSCF        :     0.50s CPU         0.72s WALL


   This run was terminated on:  13:43:54  10Nov2017            

=------------------------------------------------------------------------------=
   JOB DONE.
=------------------------------------------------------------------------------=
