
     Program PWSCF v.6.1 (svn rev. 13369) starts on 10Nov2017 at 14: 7:48 

     This program is part of the open-source Quantum ESPRESSO suite
     for quantum simulation of materials; please cite
         "P. Giannozzi et al., J. Phys.:Condens. Matter 21 395502 (2009);
          URL http://www.quantum-espresso.org", 
     in publications or presentations arising from this work. More details at
     http://www.quantum-espresso.org/quote

     Parallel version (MPI), running on     4 processors
     R & G space division:  proc/nbgrp/npool/nimage =       4
     Waiting for input...
     Reading input from standard input
     Message from routine read_cards :
     DEPRECATED: no units specified in ATOMIC_POSITIONS card
     Message from routine read_cards :
     ATOMIC_POSITIONS: units set to alat

     Current dimensions of program PWSCF are:
     Max number of different atomic species (ntypx) = 10
     Max number of k-points (npk) =  40000
     Max angular momentum in pseudopotentials (lmaxx) =  3

     Subspace diagonalization in iterative solution of the eigenvalue problem:
     a serial algorithm will be used


     Parallelization info
     --------------------
     sticks:   dense  smooth     PW     G-vecs:    dense   smooth      PW
     Min         222     109     37                 4369     1545     284
     Max         223     110     38                 4370     1546     285
     Sum         889     439    151                17477     6183    1139



     bravais-lattice index     =            2
     lattice parameter (alat)  =      10.3620  a.u.
     unit-cell volume          =     278.1447 (a.u.)^3
     number of atoms/cell      =            2
     number of atomic types    =            1
     number of electrons       =         8.00
     number of Kohn-Sham states=            4
     kinetic-energy cutoff     =      30.0000  Ry
     charge density cutoff     =     240.0000  Ry
     convergence threshold     =      1.0E-08
     mixing beta               =       0.7000
     number of iterations used =            8  plain     mixing
     Exchange-correlation      = SLA  PW   PBE  PBE ( 1  4  3  4 0 0)

     celldm(1)=  10.362000  celldm(2)=   0.000000  celldm(3)=   0.000000
     celldm(4)=   0.000000  celldm(5)=   0.000000  celldm(6)=   0.000000

     crystal axes: (cart. coord. in units of alat)
               a(1) = (  -0.500000   0.000000   0.500000 )  
               a(2) = (   0.000000   0.500000   0.500000 )  
               a(3) = (  -0.500000   0.500000   0.000000 )  

     reciprocal axes: (cart. coord. in units 2 pi/alat)
               b(1) = ( -1.000000 -1.000000  1.000000 )  
               b(2) = (  1.000000  1.000000  1.000000 )  
               b(3) = ( -1.000000  1.000000 -1.000000 )  


     PseudoPot. # 1 for Si read from file:
     /home/s1333534/quantum_espresso/qe-6.1/pseudo/si_pbe_v1.uspp.F.UPF.txt
     MD5 check sum: a056efeee980c13900f22a371efd63c1
     Pseudo is Ultrasoft + core correction, Zval =  4.0
     Generated by new atomic code, or converted to UPF format
     Using radial grid of  899 points,  6 beta functions with: 
                l(1) =   0
                l(2) =   0
                l(3) =   1
                l(4) =   1
                l(5) =   2
                l(6) =   2
     Q(r) pseudized with  8 coefficients,  rinner =    0.900   0.900   0.900
                                                       0.900   0.900

     atomic species   valence    mass     pseudopotential
        Si             4.00    28.08600     Si( 1.00)

     48 Sym. Ops., with inversion, found (24 have fractional translation)



   Cartesian axes

     site n.     atom                  positions (alat units)
         1           Si  tau(   1) = (   0.0000000   0.0000000   0.0000000  )
         2           Si  tau(   2) = (   0.2500000   0.2500000   0.2500000  )

     number of k points=    10
                       cart. coord. in units 2pi/alat
        k(    1) = (  -0.1250000   0.1250000   0.1250000), wk =   0.0625000
        k(    2) = (  -0.3750000   0.3750000  -0.1250000), wk =   0.1875000
        k(    3) = (   0.3750000  -0.3750000   0.6250000), wk =   0.1875000
        k(    4) = (   0.1250000  -0.1250000   0.3750000), wk =   0.1875000
        k(    5) = (  -0.1250000   0.6250000   0.1250000), wk =   0.1875000
        k(    6) = (   0.6250000  -0.1250000   0.8750000), wk =   0.3750000
        k(    7) = (   0.3750000   0.1250000   0.6250000), wk =   0.3750000
        k(    8) = (  -0.1250000  -0.8750000   0.1250000), wk =   0.1875000
        k(    9) = (  -0.3750000   0.3750000   0.3750000), wk =   0.0625000
        k(   10) = (   0.3750000  -0.3750000   1.1250000), wk =   0.1875000

     Dense  grid:    17477 G-vectors     FFT dimensions: (  40,  40,  40)

     Smooth grid:     6183 G-vectors     FFT dimensions: (  25,  25,  25)

     Estimated max dynamical RAM per process >       3.17MB

     Estimated total allocated dynamical RAM >      12.67MB

     Initial potential from superposition of free atoms

     starting charge    7.99866, renormalised to    8.00000
     Starting wfc are    8 randomized atomic wfcs

     total cpu time spent up to now is        0.3 secs

     per-process dynamical memory:    10.1 Mb

     Self-consistent Calculation

     iteration #  1     ecut=    30.00 Ry     beta=0.70
     Davidson diagonalization with overlap
     ethr =  1.00E-02,  avg # of iterations =  2.0

     Threshold (ethr) on eigenvalues was too large:
     Diagonalizing with lowered threshold

     Davidson diagonalization with overlap
     ethr =  6.70E-04,  avg # of iterations =  1.0

     total cpu time spent up to now is        0.4 secs

     total energy              =     -19.19108766 Ry
     Harris-Foulkes estimate   =     -19.20322024 Ry
     estimated scf accuracy    <       0.05304379 Ry

     iteration #  2     ecut=    30.00 Ry     beta=0.70
     Davidson diagonalization with overlap
     ethr =  6.63E-04,  avg # of iterations =  1.0

     total cpu time spent up to now is        0.5 secs

     total energy              =     -19.19277105 Ry
     Harris-Foulkes estimate   =     -19.19294190 Ry
     estimated scf accuracy    <       0.00245697 Ry

     iteration #  3     ecut=    30.00 Ry     beta=0.70
     Davidson diagonalization with overlap
     ethr =  3.07E-05,  avg # of iterations =  2.1

     total cpu time spent up to now is        0.6 secs

     total energy              =     -19.19308009 Ry
     Harris-Foulkes estimate   =     -19.19309226 Ry
     estimated scf accuracy    <       0.00004142 Ry

     iteration #  4     ecut=    30.00 Ry     beta=0.70
     Davidson diagonalization with overlap
     ethr =  5.18E-07,  avg # of iterations =  3.4

     total cpu time spent up to now is        0.6 secs

     total energy              =     -19.19311917 Ry
     Harris-Foulkes estimate   =     -19.19311993 Ry
     estimated scf accuracy    <       0.00000280 Ry

     iteration #  5     ecut=    30.00 Ry     beta=0.70
     Davidson diagonalization with overlap
     ethr =  3.50E-08,  avg # of iterations =  2.1

     total cpu time spent up to now is        0.7 secs

     total energy              =     -19.19311954 Ry
     Harris-Foulkes estimate   =     -19.19311953 Ry
     estimated scf accuracy    <       0.00000001 Ry

     iteration #  6     ecut=    30.00 Ry     beta=0.70
     Davidson diagonalization with overlap
     ethr =  1.27E-10,  avg # of iterations =  3.9

     total cpu time spent up to now is        0.8 secs

     End of self-consistent calculation

          k =-0.1250 0.1250 0.1250 (   779 PWs)   bands (ev):

    -5.6679   4.3048   5.6145   5.6145

          k =-0.3750 0.3750-0.1250 (   781 PWs)   bands (ev):

    -4.6496   1.3268   3.6434   5.1366

          k = 0.3750-0.3750 0.6250 (   773 PWs)   bands (ev):

    -3.5218  -0.7323   3.6602   4.3723

          k = 0.1250-0.1250 0.3750 (   781 PWs)   bands (ev):

    -5.1442   2.6927   4.6157   4.6748

          k =-0.1250 0.6250 0.1250 (   775 PWs)   bands (ev):

    -4.1210   0.9854   3.2997   3.7484

          k = 0.6250-0.1250 0.8750 (   762 PWs)   bands (ev):

    -2.4965  -0.9636   1.9600   3.0266

          k = 0.3750 0.1250 0.6250 (   775 PWs)   bands (ev):

    -3.7097   0.1237   2.6615   4.0211

          k =-0.1250-0.8750 0.1250 (   766 PWs)   bands (ev):

    -2.6608  -0.8681   2.5638   3.2849

          k =-0.3750 0.3750 0.3750 (   769 PWs)   bands (ev):

    -4.2210   0.0501   4.8322   4.8322

          k = 0.3750-0.3750 1.1250 (   773 PWs)   bands (ev):

    -3.0298  -0.6567   2.0146   4.0583

     highest occupied level (ev):     5.6145

!    total energy              =     -19.19311956 Ry
     Harris-Foulkes estimate   =     -19.19311956 Ry
     estimated scf accuracy    <          8.6E-10 Ry

     The total energy is the sum of the following terms:

     one-electron contribution =       4.88789310 Ry
     hartree contribution      =       1.14181137 Ry
     xc contribution           =      -8.58727708 Ry
     ewald contribution        =     -16.63554695 Ry

     convergence has been achieved in   6 iterations

     Writing output data file silicon.10.362.save

     init_run     :      0.20s CPU      0.20s WALL (       1 calls)
     electrons    :      0.52s CPU      0.56s WALL (       1 calls)

     Called by init_run:
     wfcinit      :      0.01s CPU      0.02s WALL (       1 calls)
     potinit      :      0.02s CPU      0.02s WALL (       1 calls)

     Called by electrons:
     c_bands      :      0.15s CPU      0.16s WALL (       7 calls)
     sum_band     :      0.20s CPU      0.22s WALL (       7 calls)
     v_of_rho     :      0.08s CPU      0.08s WALL (       7 calls)
     newd         :      0.10s CPU      0.11s WALL (       7 calls)
     mix_rho      :      0.00s CPU      0.00s WALL (       7 calls)

     Called by c_bands:
     init_us_2    :      0.01s CPU      0.01s WALL (     150 calls)
     cegterg      :      0.12s CPU      0.13s WALL (      70 calls)

     Called by sum_band:
     sum_band:bec :      0.00s CPU      0.00s WALL (      70 calls)
     addusdens    :      0.14s CPU      0.16s WALL (       7 calls)

     Called by *egterg:
     h_psi        :      0.11s CPU      0.12s WALL (     235 calls)
     s_psi        :      0.01s CPU      0.01s WALL (     235 calls)
     g_psi        :      0.00s CPU      0.00s WALL (     155 calls)
     cdiaghg      :      0.01s CPU      0.01s WALL (     215 calls)

     Called by h_psi:
     h_psi:pot    :      0.11s CPU      0.11s WALL (     235 calls)
     h_psi:calbec :      0.01s CPU      0.01s WALL (     235 calls)
     vloc_psi     :      0.10s CPU      0.10s WALL (     235 calls)
     add_vuspsi   :      0.00s CPU      0.01s WALL (     235 calls)

     General routines
     calbec       :      0.01s CPU      0.01s WALL (     305 calls)
     fft          :      0.04s CPU      0.04s WALL (     112 calls)
     ffts         :      0.00s CPU      0.00s WALL (      14 calls)
     fftw         :      0.10s CPU      0.10s WALL (    2044 calls)
     interpolate  :      0.01s CPU      0.01s WALL (      14 calls)
     davcio       :      0.00s CPU      0.00s WALL (      10 calls)

     Parallel routines
     fft_scatter  :      0.03s CPU      0.04s WALL (    2170 calls)

     PWSCF        :     0.80s CPU         1.08s WALL


   This run was terminated on:  14: 7:49  10Nov2017            

=------------------------------------------------------------------------------=
   JOB DONE.
=------------------------------------------------------------------------------=
