
     Program PWSCF v.6.1 (svn rev. 13369) starts on 10Nov2017 at 10:30:55 

     This program is part of the open-source Quantum ESPRESSO suite
     for quantum simulation of materials; please cite
         "P. Giannozzi et al., J. Phys.:Condens. Matter 21 395502 (2009);
          URL http://www.quantum-espresso.org", 
     in publications or presentations arising from this work. More details at
     http://www.quantum-espresso.org/quote

     Parallel version (MPI), running on     4 processors
     R & G space division:  proc/nbgrp/npool/nimage =       4
     Waiting for input...
     Reading input from standard input
     Message from routine read_cards :
     DEPRECATED: no units specified in ATOMIC_POSITIONS card
     Message from routine read_cards :
     ATOMIC_POSITIONS: units set to alat

     Current dimensions of program PWSCF are:
     Max number of different atomic species (ntypx) = 10
     Max number of k-points (npk) =  40000
     Max angular momentum in pseudopotentials (lmaxx) =  3

     Subspace diagonalization in iterative solution of the eigenvalue problem:
     a serial algorithm will be used


     Parallelization info
     --------------------
     sticks:   dense  smooth     PW     G-vecs:    dense   smooth      PW
     Min         217     109     37                 4288     1520     301
     Max         219     111     38                 4289     1521     304
     Sum         871     439    151                17153     6081    1211



     bravais-lattice index     =            2
     lattice parameter (alat)  =      10.3100  a.u.
     unit-cell volume          =     273.9782 (a.u.)^3
     number of atoms/cell      =            2
     number of atomic types    =            1
     number of electrons       =         8.00
     number of Kohn-Sham states=            4
     kinetic-energy cutoff     =      30.0000  Ry
     charge density cutoff     =     240.0000  Ry
     convergence threshold     =      1.0E-08
     mixing beta               =       0.7000
     number of iterations used =            8  plain     mixing
     Exchange-correlation      = SLA  PW   PBE  PBE ( 1  4  3  4 0 0)

     celldm(1)=  10.310000  celldm(2)=   0.000000  celldm(3)=   0.000000
     celldm(4)=   0.000000  celldm(5)=   0.000000  celldm(6)=   0.000000

     crystal axes: (cart. coord. in units of alat)
               a(1) = (  -0.500000   0.000000   0.500000 )  
               a(2) = (   0.000000   0.500000   0.500000 )  
               a(3) = (  -0.500000   0.500000   0.000000 )  

     reciprocal axes: (cart. coord. in units 2 pi/alat)
               b(1) = ( -1.000000 -1.000000  1.000000 )  
               b(2) = (  1.000000  1.000000  1.000000 )  
               b(3) = ( -1.000000  1.000000 -1.000000 )  


     PseudoPot. # 1 for Si read from file:
     /home/max/quantum_espresso/qe-6.1/pseudo/si_pbe_v1.uspp.F.UPF.txt
     MD5 check sum: a056efeee980c13900f22a371efd63c1
     Pseudo is Ultrasoft + core correction, Zval =  4.0
     Generated by new atomic code, or converted to UPF format
     Using radial grid of  899 points,  6 beta functions with: 
                l(1) =   0
                l(2) =   0
                l(3) =   1
                l(4) =   1
                l(5) =   2
                l(6) =   2
     Q(r) pseudized with  8 coefficients,  rinner =    0.900   0.900   0.900
                                                       0.900   0.900

     atomic species   valence    mass     pseudopotential
        Si             4.00    28.08600     Si( 1.00)

     48 Sym. Ops., with inversion, found (24 have fractional translation)



   Cartesian axes

     site n.     atom                  positions (alat units)
         1           Si  tau(   1) = (   0.0000000   0.0000000   0.0000000  )
         2           Si  tau(   2) = (   0.2500000   0.2500000   0.2500000  )

     number of k points=    28
                       cart. coord. in units 2pi/alat
        k(    1) = (  -0.0833333   0.0833333   0.0833333), wk =   0.0185185
        k(    2) = (  -0.2500000   0.2500000  -0.0833333), wk =   0.0555556
        k(    3) = (  -0.4166667   0.4166667  -0.2500000), wk =   0.0555556
        k(    4) = (   0.4166667  -0.4166667   0.5833333), wk =   0.0555556
        k(    5) = (   0.2500000  -0.2500000   0.4166667), wk =   0.0555556
        k(    6) = (   0.0833333  -0.0833333   0.2500000), wk =   0.0555556
        k(    7) = (  -0.0833333   0.4166667   0.0833333), wk =   0.0555556
        k(    8) = (  -0.2500000   0.5833333  -0.0833333), wk =   0.1111111
        k(    9) = (   0.5833333  -0.2500000   0.7500000), wk =   0.1111111
        k(   10) = (   0.4166667  -0.0833333   0.5833333), wk =   0.1111111
        k(   11) = (   0.2500000   0.0833333   0.4166667), wk =   0.1111111
        k(   12) = (  -0.0833333   0.7500000   0.0833333), wk =   0.0555556
        k(   13) = (   0.7500000  -0.0833333   0.9166667), wk =   0.1111111
        k(   14) = (   0.5833333   0.0833333   0.7500000), wk =   0.1111111
        k(   15) = (   0.4166667   0.2500000   0.5833333), wk =   0.1111111
        k(   16) = (  -0.0833333  -0.9166667   0.0833333), wk =   0.0555556
        k(   17) = (  -0.2500000  -0.7500000  -0.0833333), wk =   0.1111111
        k(   18) = (  -0.0833333  -0.5833333   0.0833333), wk =   0.0555556
        k(   19) = (  -0.2500000   0.2500000   0.2500000), wk =   0.0185185
        k(   20) = (  -0.4166667   0.4166667   0.0833333), wk =   0.0555556
        k(   21) = (   0.4166667  -0.4166667   0.9166667), wk =   0.0555556
        k(   22) = (   0.2500000  -0.2500000   0.7500000), wk =   0.0555556
        k(   23) = (  -0.2500000   0.5833333   0.2500000), wk =   0.0555556
        k(   24) = (   0.5833333  -0.2500000   1.0833333), wk =   0.1111111
        k(   25) = (   0.4166667  -0.0833333   0.9166667), wk =   0.1111111
        k(   26) = (  -0.2500000  -1.0833333   0.2500000), wk =   0.0555556
        k(   27) = (  -0.4166667   0.4166667   0.4166667), wk =   0.0185185
        k(   28) = (   0.4166667  -0.4166667   1.2500000), wk =   0.0555556

     Dense  grid:    17153 G-vectors     FFT dimensions: (  36,  36,  36)

     Smooth grid:     6081 G-vectors     FFT dimensions: (  25,  25,  25)

     Estimated max dynamical RAM per process >       3.04MB

     Estimated total allocated dynamical RAM >      12.16MB

     Initial potential from superposition of free atoms

     starting charge    7.99866, renormalised to    8.00000
     Starting wfc are    8 randomized atomic wfcs

     total cpu time spent up to now is        0.9 secs

     per-process dynamical memory:     9.9 Mb

     Self-consistent Calculation

     iteration #  1     ecut=    30.00 Ry     beta=0.70
     Davidson diagonalization with overlap
     ethr =  1.00E-02,  avg # of iterations =  2.0

     Threshold (ethr) on eigenvalues was too large:
     Diagonalizing with lowered threshold

     Davidson diagonalization with overlap
     ethr =  6.84E-04,  avg # of iterations =  1.0

     total cpu time spent up to now is        1.3 secs

     total energy              =     -19.19112686 Ry
     Harris-Foulkes estimate   =     -19.20386205 Ry
     estimated scf accuracy    <       0.05425324 Ry

     iteration #  2     ecut=    30.00 Ry     beta=0.70
     Davidson diagonalization with overlap
     ethr =  6.78E-04,  avg # of iterations =  1.0

     total cpu time spent up to now is        1.5 secs

     total energy              =     -19.19294731 Ry
     Harris-Foulkes estimate   =     -19.19311550 Ry
     estimated scf accuracy    <       0.00244662 Ry

     iteration #  3     ecut=    30.00 Ry     beta=0.70
     Davidson diagonalization with overlap
     ethr =  3.06E-05,  avg # of iterations =  2.1

     total cpu time spent up to now is        1.8 secs

     total energy              =     -19.19329444 Ry
     Harris-Foulkes estimate   =     -19.19330717 Ry
     estimated scf accuracy    <       0.00004213 Ry

     iteration #  4     ecut=    30.00 Ry     beta=0.70
     Davidson diagonalization with overlap
     ethr =  5.27E-07,  avg # of iterations =  3.4

     total cpu time spent up to now is        2.1 secs

     total energy              =     -19.19333243 Ry
     Harris-Foulkes estimate   =     -19.19333319 Ry
     estimated scf accuracy    <       0.00000295 Ry

     iteration #  5     ecut=    30.00 Ry     beta=0.70
     Davidson diagonalization with overlap
     ethr =  3.68E-08,  avg # of iterations =  2.0

     total cpu time spent up to now is        2.8 secs

     End of self-consistent calculation

          k =-0.0833 0.0833 0.0833 (   749 PWs)   bands (ev):

    -5.7252   5.1904   5.9072   5.9072

          k =-0.2500 0.2500-0.0833 (   763 PWs)   bands (ev):

    -5.2528   3.1185   4.6824   5.6977

          k =-0.4167 0.4167-0.2500 (   764 PWs)   bands (ev):

    -4.1714   0.3783   4.2193   5.0656

          k = 0.4167-0.4167 0.5833 (   764 PWs)   bands (ev):

    -3.4821  -0.7538   4.2838   4.6886

          k = 0.2500-0.2500 0.4167 (   769 PWs)   bands (ev):

    -4.5789   1.2176   4.7491   4.7790

          k = 0.0833-0.0833 0.2500 (   765 PWs)   bands (ev):

    -5.4867   4.1236   5.2675   5.4496

          k =-0.0833 0.4167 0.0833 (   768 PWs)   bands (ev):

    -5.0138   2.9262   4.5267   4.5437

          k =-0.2500 0.5833-0.0833 (   763 PWs)   bands (ev):

    -4.1119   1.0984   3.2212   4.1596

          k = 0.5833-0.2500 0.7500 (   757 PWs)   bands (ev):

    -3.0086  -0.6333   2.6221   3.9351

          k = 0.4167-0.0833 0.5833 (   764 PWs)   bands (ev):

    -3.7217   0.4125   2.5837   4.4164

          k = 0.2500 0.0833 0.4167 (   765 PWs)   bands (ev):

    -4.7905   2.0981   3.9120   5.0775

          k =-0.0833 0.7500 0.0833 (   763 PWs)   bands (ev):

    -3.4065   0.2729   3.1871   3.5229

          k = 0.7500-0.0833 0.9167 (   751 PWs)   bands (ev):

    -2.2223  -1.0568   2.3546   3.1212

          k = 0.5833 0.0833 0.7500 (   750 PWs)   bands (ev):

    -2.5922  -0.7199   1.8750   3.6616

          k = 0.4167 0.2500 0.5833 (   763 PWs)   bands (ev):

    -3.6118  -0.2602   3.5132   4.5129

          k =-0.0833-0.9167 0.0833 (   763 PWs)   bands (ev):

    -2.3122  -1.0642   2.9200   3.3092

          k =-0.2500-0.7500-0.0833 (   760 PWs)   bands (ev):

    -3.2400   0.0521   2.6717   3.4587

          k =-0.0833-0.5833 0.0833 (   760 PWs)   bands (ev):

    -4.3153   1.6299   3.7264   3.9420

          k =-0.2500 0.2500 0.2500 (   769 PWs)   bands (ev):

    -5.0255   2.1483   5.2981   5.2981

          k =-0.4167 0.4167 0.0833 (   761 PWs)   bands (ev):

    -4.3528   1.2163   3.1852   5.1295

          k = 0.4167-0.4167 0.9167 (   763 PWs)   bands (ev):

    -3.1861  -0.2167   2.0894   4.3506

          k = 0.2500-0.2500 0.7500 (   763 PWs)   bands (ev):

    -3.1339  -0.2956   2.5624   3.8731

          k =-0.2500 0.5833 0.2500 (   765 PWs)   bands (ev):

    -3.9330   0.4162   3.6421   4.2431

          k = 0.5833-0.2500 1.0833 (   757 PWs)   bands (ev):

    -2.9410  -0.3322   2.1891   3.4573

          k = 0.4167-0.0833 0.9167 (   753 PWs)   bands (ev):

    -2.1181  -1.0645   2.0288   2.7969

          k =-0.2500-1.0833 0.2500 (   752 PWs)   bands (ev):

    -2.3271  -0.9687   1.9036   3.6801

          k =-0.4167 0.4167 0.4167 (   769 PWs)   bands (ev):

    -3.8465  -0.3573   4.9118   4.9118

          k = 0.4167-0.4167 1.2500 (   761 PWs)   bands (ev):

    -3.2483  -0.6594   3.0917   4.4761

     highest occupied level (ev):     5.9072

!    total energy              =     -19.19333282 Ry
     Harris-Foulkes estimate   =     -19.19333281 Ry
     estimated scf accuracy    <          9.2E-09 Ry

     The total energy is the sum of the following terms:

     one-electron contribution =       5.00298179 Ry
     hartree contribution      =       1.12784587 Ry
     xc contribution           =      -8.60470970 Ry
     ewald contribution        =     -16.71945077 Ry

     convergence has been achieved in   5 iterations

     Writing output data file silicon.10.310.save

     init_run     :      0.40s CPU      0.82s WALL (       1 calls)
     electrons    :      1.22s CPU      1.89s WALL (       1 calls)

     Called by init_run:
     wfcinit      :      0.09s CPU      0.17s WALL (       1 calls)
     potinit      :      0.04s CPU      0.06s WALL (       1 calls)

     Called by electrons:
     c_bands      :      0.73s CPU      1.27s WALL (       6 calls)
     sum_band     :      0.30s CPU      0.37s WALL (       6 calls)
     v_of_rho     :      0.10s CPU      0.13s WALL (       6 calls)
     newd         :      0.14s CPU      0.21s WALL (       6 calls)
     mix_rho      :      0.01s CPU      0.01s WALL (       6 calls)

     Called by c_bands:
     init_us_2    :      0.05s CPU      0.05s WALL (     364 calls)
     cegterg      :      0.62s CPU      1.11s WALL (     168 calls)

     Called by sum_band:
     sum_band:bec :      0.00s CPU      0.00s WALL (     168 calls)
     addusdens    :      0.14s CPU      0.17s WALL (       6 calls)

     Called by *egterg:
     h_psi        :      0.54s CPU      1.00s WALL (     518 calls)
     s_psi        :      0.04s CPU      0.05s WALL (     518 calls)
     g_psi        :      0.00s CPU      0.00s WALL (     322 calls)
     cdiaghg      :      0.04s CPU      0.06s WALL (     462 calls)

     Called by h_psi:
     h_psi:pot    :      0.54s CPU      0.99s WALL (     518 calls)
     h_psi:calbec :      0.06s CPU      0.10s WALL (     518 calls)
     vloc_psi     :      0.44s CPU      0.84s WALL (     518 calls)
     add_vuspsi   :      0.04s CPU      0.05s WALL (     518 calls)

     General routines
     calbec       :      0.08s CPU      0.13s WALL (     686 calls)
     fft          :      0.09s CPU      0.14s WALL (      96 calls)
     ffts         :      0.01s CPU      0.01s WALL (      12 calls)
     fftw         :      0.46s CPU      0.87s WALL (    4610 calls)
     interpolate  :      0.01s CPU      0.02s WALL (      12 calls)
     davcio       :      0.00s CPU      0.00s WALL (      28 calls)

     Parallel routines
     fft_scatter  :      0.29s CPU      0.70s WALL (    4718 calls)

     PWSCF        :     1.83s CPU         2.96s WALL


   This run was terminated on:  10:30:58  10Nov2017            

=------------------------------------------------------------------------------=
   JOB DONE.
=------------------------------------------------------------------------------=
