
     Program PWSCF v.6.1 (svn rev. 13369) starts on 10Nov2017 at 13:47:37 

     This program is part of the open-source Quantum ESPRESSO suite
     for quantum simulation of materials; please cite
         "P. Giannozzi et al., J. Phys.:Condens. Matter 21 395502 (2009);
          URL http://www.quantum-espresso.org", 
     in publications or presentations arising from this work. More details at
     http://www.quantum-espresso.org/quote

     Parallel version (MPI), running on     4 processors
     R & G space division:  proc/nbgrp/npool/nimage =       4
     Waiting for input...
     Reading input from standard input
     Message from routine read_cards :
     DEPRECATED: no units specified in ATOMIC_POSITIONS card
     Message from routine read_cards :
     ATOMIC_POSITIONS: units set to alat

     Current dimensions of program PWSCF are:
     Max number of different atomic species (ntypx) = 10
     Max number of k-points (npk) =  40000
     Max angular momentum in pseudopotentials (lmaxx) =  3

     Subspace diagonalization in iterative solution of the eigenvalue problem:
     a serial algorithm will be used


     Parallelization info
     --------------------
     sticks:   dense  smooth     PW     G-vecs:    dense   smooth      PW
     Min         250     124     40                 5205     1845     340
     Max         251     125     41                 5208     1849     342
     Sum        1003     499    163                20827     7391    1363



     bravais-lattice index     =            2
     lattice parameter (alat)  =      10.3330  a.u.
     unit-cell volume          =     275.8159 (a.u.)^3
     number of atoms/cell      =            2
     number of atomic types    =            1
     number of electrons       =         8.00
     number of Kohn-Sham states=            4
     kinetic-energy cutoff     =      34.0000  Ry
     charge density cutoff     =     272.0000  Ry
     convergence threshold     =      1.0E-08
     mixing beta               =       0.7000
     number of iterations used =            8  plain     mixing
     Exchange-correlation      = SLA  PW   PBE  PBE ( 1  4  3  4 0 0)

     celldm(1)=  10.333000  celldm(2)=   0.000000  celldm(3)=   0.000000
     celldm(4)=   0.000000  celldm(5)=   0.000000  celldm(6)=   0.000000

     crystal axes: (cart. coord. in units of alat)
               a(1) = (  -0.500000   0.000000   0.500000 )  
               a(2) = (   0.000000   0.500000   0.500000 )  
               a(3) = (  -0.500000   0.500000   0.000000 )  

     reciprocal axes: (cart. coord. in units 2 pi/alat)
               b(1) = ( -1.000000 -1.000000  1.000000 )  
               b(2) = (  1.000000  1.000000  1.000000 )  
               b(3) = ( -1.000000  1.000000 -1.000000 )  


     PseudoPot. # 1 for Si read from file:
     /home/s1333534/quantum_espresso/qe-6.1/pseudo/si_pbe_v1.uspp.F.UPF.txt
     MD5 check sum: a056efeee980c13900f22a371efd63c1
     Pseudo is Ultrasoft + core correction, Zval =  4.0
     Generated by new atomic code, or converted to UPF format
     Using radial grid of  899 points,  6 beta functions with: 
                l(1) =   0
                l(2) =   0
                l(3) =   1
                l(4) =   1
                l(5) =   2
                l(6) =   2
     Q(r) pseudized with  8 coefficients,  rinner =    0.900   0.900   0.900
                                                       0.900   0.900

     atomic species   valence    mass     pseudopotential
        Si             4.00    28.08600     Si( 1.00)

     48 Sym. Ops., with inversion, found (24 have fractional translation)



   Cartesian axes

     site n.     atom                  positions (alat units)
         1           Si  tau(   1) = (   0.0000000   0.0000000   0.0000000  )
         2           Si  tau(   2) = (   0.2500000   0.2500000   0.2500000  )

     number of k points=    10
                       cart. coord. in units 2pi/alat
        k(    1) = (  -0.1250000   0.1250000   0.1250000), wk =   0.0625000
        k(    2) = (  -0.3750000   0.3750000  -0.1250000), wk =   0.1875000
        k(    3) = (   0.3750000  -0.3750000   0.6250000), wk =   0.1875000
        k(    4) = (   0.1250000  -0.1250000   0.3750000), wk =   0.1875000
        k(    5) = (  -0.1250000   0.6250000   0.1250000), wk =   0.1875000
        k(    6) = (   0.6250000  -0.1250000   0.8750000), wk =   0.3750000
        k(    7) = (   0.3750000   0.1250000   0.6250000), wk =   0.3750000
        k(    8) = (  -0.1250000  -0.8750000   0.1250000), wk =   0.1875000
        k(    9) = (  -0.3750000   0.3750000   0.3750000), wk =   0.0625000
        k(   10) = (   0.3750000  -0.3750000   1.1250000), wk =   0.1875000

     Dense  grid:    20827 G-vectors     FFT dimensions: (  40,  40,  40)

     Smooth grid:     7391 G-vectors     FFT dimensions: (  27,  27,  27)

     Estimated max dynamical RAM per process >       3.56MB

     Estimated total allocated dynamical RAM >      14.25MB

     Initial potential from superposition of free atoms

     starting charge    7.99866, renormalised to    8.00000
     Starting wfc are    8 randomized atomic wfcs

     total cpu time spent up to now is        0.3 secs

     per-process dynamical memory:    10.4 Mb

     Self-consistent Calculation

     iteration #  1     ecut=    34.00 Ry     beta=0.70
     Davidson diagonalization with overlap
     ethr =  1.00E-02,  avg # of iterations =  2.0

     Threshold (ethr) on eigenvalues was too large:
     Diagonalizing with lowered threshold

     Davidson diagonalization with overlap
     ethr =  6.77E-04,  avg # of iterations =  1.1

     total cpu time spent up to now is        0.5 secs

     total energy              =     -19.19109384 Ry
     Harris-Foulkes estimate   =     -19.20357349 Ry
     estimated scf accuracy    <       0.05375690 Ry

     iteration #  2     ecut=    34.00 Ry     beta=0.70
     Davidson diagonalization with overlap
     ethr =  6.72E-04,  avg # of iterations =  1.0

     total cpu time spent up to now is        0.5 secs

     total energy              =     -19.19285742 Ry
     Harris-Foulkes estimate   =     -19.19302784 Ry
     estimated scf accuracy    <       0.00245991 Ry

     iteration #  3     ecut=    34.00 Ry     beta=0.70
     Davidson diagonalization with overlap
     ethr =  3.07E-05,  avg # of iterations =  2.1

     total cpu time spent up to now is        0.6 secs

     total energy              =     -19.19319797 Ry
     Harris-Foulkes estimate   =     -19.19320934 Ry
     estimated scf accuracy    <       0.00004002 Ry

     iteration #  4     ecut=    34.00 Ry     beta=0.70
     Davidson diagonalization with overlap
     ethr =  5.00E-07,  avg # of iterations =  3.4

     total cpu time spent up to now is        0.7 secs

     total energy              =     -19.19323525 Ry
     Harris-Foulkes estimate   =     -19.19323582 Ry
     estimated scf accuracy    <       0.00000243 Ry

     iteration #  5     ecut=    34.00 Ry     beta=0.70
     Davidson diagonalization with overlap
     ethr =  3.03E-08,  avg # of iterations =  2.1

     total cpu time spent up to now is        0.9 secs

     End of self-consistent calculation

          k =-0.1250 0.1250 0.1250 (   914 PWs)   bands (ev):

    -5.6373   4.3886   5.6979   5.6979

          k =-0.3750 0.3750-0.1250 (   921 PWs)   bands (ev):

    -4.6111   1.3967   3.7126   5.2179

          k = 0.3750-0.3750 0.6250 (   925 PWs)   bands (ev):

    -3.4720  -0.6806   3.7333   4.4468

          k = 0.1250-0.1250 0.3750 (   925 PWs)   bands (ev):

    -5.1097   2.7728   4.6904   4.7543

          k =-0.1250 0.6250 0.1250 (   920 PWs)   bands (ev):

    -4.0787   1.0626   3.3642   3.8168

          k = 0.6250-0.1250 0.8750 (   922 PWs)   bands (ev):

    -2.4397  -0.8986   2.0105   3.0867

          k = 0.3750 0.1250 0.6250 (   921 PWs)   bands (ev):

    -3.6634   0.1899   2.7226   4.0913

          k =-0.1250-0.8750 0.1250 (   931 PWs)   bands (ev):

    -2.6073  -0.8013   2.6201   3.3501

          k =-0.3750 0.3750 0.3750 (   926 PWs)   bands (ev):

    -4.1783   0.1071   4.9111   4.9111

          k = 0.3750-0.3750 1.1250 (   927 PWs)   bands (ev):

    -2.9765  -0.5960   2.0687   4.1300

     highest occupied level (ev):     5.6979

!    total energy              =     -19.19323558 Ry
     Harris-Foulkes estimate   =     -19.19323558 Ry
     estimated scf accuracy    <          8.4E-09 Ry

     The total energy is the sum of the following terms:

     one-electron contribution =       4.95164088 Ry
     hartree contribution      =       1.13434586 Ry
     xc contribution           =      -8.59698702 Ry
     ewald contribution        =     -16.68223531 Ry

     convergence has been achieved in   5 iterations


     Computing stress (Cartesian axis) and pressure

          total   stress  (Ry/bohr**3)                   (kbar)     P=   -0.39
  -0.00000262   0.00000000   0.00000000         -0.39      0.00      0.00
   0.00000000  -0.00000262   0.00000000          0.00     -0.39      0.00
  -0.00000000  -0.00000000  -0.00000262         -0.00     -0.00     -0.39


     Writing output data file silicon.34.save

     init_run     :      0.22s CPU      0.23s WALL (       1 calls)
     electrons    :      0.54s CPU      0.58s WALL (       1 calls)
     stress       :      0.20s CPU      0.20s WALL (       1 calls)

     Called by init_run:
     wfcinit      :      0.02s CPU      0.02s WALL (       1 calls)
     potinit      :      0.02s CPU      0.02s WALL (       1 calls)

     Called by electrons:
     c_bands      :      0.17s CPU      0.18s WALL (       6 calls)
     sum_band     :      0.21s CPU      0.22s WALL (       6 calls)
     v_of_rho     :      0.07s CPU      0.07s WALL (       6 calls)
     newd         :      0.11s CPU      0.11s WALL (       6 calls)
     mix_rho      :      0.00s CPU      0.00s WALL (       6 calls)

     Called by c_bands:
     init_us_2    :      0.02s CPU      0.02s WALL (     140 calls)
     cegterg      :      0.14s CPU      0.15s WALL (      60 calls)

     Called by sum_band:
     sum_band:bec :      0.00s CPU      0.00s WALL (      60 calls)
     addusdens    :      0.15s CPU      0.16s WALL (       6 calls)

     Called by *egterg:
     h_psi        :      0.14s CPU      0.15s WALL (     187 calls)
     s_psi        :      0.01s CPU      0.00s WALL (     187 calls)
     g_psi        :      0.00s CPU      0.00s WALL (     117 calls)
     cdiaghg      :      0.01s CPU      0.01s WALL (     167 calls)

     Called by h_psi:
     h_psi:pot    :      0.14s CPU      0.15s WALL (     187 calls)
     h_psi:calbec :      0.01s CPU      0.01s WALL (     187 calls)
     vloc_psi     :      0.12s CPU      0.13s WALL (     187 calls)
     add_vuspsi   :      0.00s CPU      0.01s WALL (     187 calls)

     General routines
     calbec       :      0.01s CPU      0.01s WALL (     257 calls)
     fft          :      0.04s CPU      0.04s WALL (     110 calls)
     ffts         :      0.00s CPU      0.00s WALL (      12 calls)
     fftw         :      0.13s CPU      0.14s WALL (    1656 calls)
     interpolate  :      0.01s CPU      0.01s WALL (      12 calls)
     davcio       :      0.00s CPU      0.00s WALL (      10 calls)

     Parallel routines
     fft_scatter  :      0.03s CPU      0.04s WALL (    1778 calls)

     PWSCF        :     1.04s CPU         1.28s WALL


   This run was terminated on:  13:47:39  10Nov2017            

=------------------------------------------------------------------------------=
   JOB DONE.
=------------------------------------------------------------------------------=
