
     Program PWSCF v.6.1 (svn rev. 13369) starts on 10Nov2017 at 12: 8:25 

     This program is part of the open-source Quantum ESPRESSO suite
     for quantum simulation of materials; please cite
         "P. Giannozzi et al., J. Phys.:Condens. Matter 21 395502 (2009);
          URL http://www.quantum-espresso.org", 
     in publications or presentations arising from this work. More details at
     http://www.quantum-espresso.org/quote

     Parallel version (MPI), running on     4 processors
     R & G space division:  proc/nbgrp/npool/nimage =       4
     Waiting for input...
     Reading input from standard input
     Message from routine read_cards :
     DEPRECATED: no units specified in ATOMIC_POSITIONS card
     Message from routine read_cards :
     ATOMIC_POSITIONS: units set to alat

     Current dimensions of program PWSCF are:
     Max number of different atomic species (ntypx) = 10
     Max number of k-points (npk) =  40000
     Max angular momentum in pseudopotentials (lmaxx) =  3

     Subspace diagonalization in iterative solution of the eigenvalue problem:
     a serial algorithm will be used


     Parallelization info
     --------------------
     sticks:   dense  smooth     PW     G-vecs:    dense   smooth      PW
     Min         289     145     46                 6437     2295     409
     Max         291     146     47                 6438     2297     411
     Sum        1159     583    187                25749     9185    1639



     bravais-lattice index     =            2
     lattice parameter (alat)  =      10.3330  a.u.
     unit-cell volume          =     275.8159 (a.u.)^3
     number of atoms/cell      =            2
     number of atomic types    =            1
     number of electrons       =         8.00
     number of Kohn-Sham states=            4
     kinetic-energy cutoff     =      39.0000  Ry
     charge density cutoff     =     312.0000  Ry
     convergence threshold     =      1.0E-08
     mixing beta               =       0.7000
     number of iterations used =            8  plain     mixing
     Exchange-correlation      = SLA  PW   PBE  PBE ( 1  4  3  4 0 0)

     celldm(1)=  10.333000  celldm(2)=   0.000000  celldm(3)=   0.000000
     celldm(4)=   0.000000  celldm(5)=   0.000000  celldm(6)=   0.000000

     crystal axes: (cart. coord. in units of alat)
               a(1) = (  -0.500000   0.000000   0.500000 )  
               a(2) = (   0.000000   0.500000   0.500000 )  
               a(3) = (  -0.500000   0.500000   0.000000 )  

     reciprocal axes: (cart. coord. in units 2 pi/alat)
               b(1) = ( -1.000000 -1.000000  1.000000 )  
               b(2) = (  1.000000  1.000000  1.000000 )  
               b(3) = ( -1.000000  1.000000 -1.000000 )  


     PseudoPot. # 1 for Si read from file:
     /home/max/quantum_espresso/qe-6.1/pseudo/si_pbe_v1.uspp.F.UPF.txt
     MD5 check sum: a056efeee980c13900f22a371efd63c1
     Pseudo is Ultrasoft + core correction, Zval =  4.0
     Generated by new atomic code, or converted to UPF format
     Using radial grid of  899 points,  6 beta functions with: 
                l(1) =   0
                l(2) =   0
                l(3) =   1
                l(4) =   1
                l(5) =   2
                l(6) =   2
     Q(r) pseudized with  8 coefficients,  rinner =    0.900   0.900   0.900
                                                       0.900   0.900

     atomic species   valence    mass     pseudopotential
        Si             4.00    28.08600     Si( 1.00)

     24 Sym. Ops. (no inversion) found
          (note: 24 additional sym.ops. were found but ignored
           their fractional translations are incommensurate with FFT grid)


   Cartesian axes

     site n.     atom                  positions (alat units)
         1           Si  tau(   1) = (   0.0000000   0.0000000   0.0000000  )
         2           Si  tau(   2) = (   0.2500000   0.2500000   0.2500000  )

     number of k points=    28
                       cart. coord. in units 2pi/alat
        k(    1) = (  -0.0833333   0.0833333   0.0833333), wk =   0.0185185
        k(    2) = (  -0.2500000   0.2500000  -0.0833333), wk =   0.0555556
        k(    3) = (  -0.4166667   0.4166667  -0.2500000), wk =   0.0555556
        k(    4) = (   0.4166667  -0.4166667   0.5833333), wk =   0.0555556
        k(    5) = (   0.2500000  -0.2500000   0.4166667), wk =   0.0555556
        k(    6) = (   0.0833333  -0.0833333   0.2500000), wk =   0.0555556
        k(    7) = (  -0.0833333   0.4166667   0.0833333), wk =   0.0555556
        k(    8) = (  -0.2500000   0.5833333  -0.0833333), wk =   0.1111111
        k(    9) = (   0.5833333  -0.2500000   0.7500000), wk =   0.1111111
        k(   10) = (   0.4166667  -0.0833333   0.5833333), wk =   0.1111111
        k(   11) = (   0.2500000   0.0833333   0.4166667), wk =   0.1111111
        k(   12) = (  -0.0833333   0.7500000   0.0833333), wk =   0.0555556
        k(   13) = (   0.7500000  -0.0833333   0.9166667), wk =   0.1111111
        k(   14) = (   0.5833333   0.0833333   0.7500000), wk =   0.1111111
        k(   15) = (   0.4166667   0.2500000   0.5833333), wk =   0.1111111
        k(   16) = (  -0.0833333  -0.9166667   0.0833333), wk =   0.0555556
        k(   17) = (  -0.2500000  -0.7500000  -0.0833333), wk =   0.1111111
        k(   18) = (  -0.0833333  -0.5833333   0.0833333), wk =   0.0555556
        k(   19) = (  -0.2500000   0.2500000   0.2500000), wk =   0.0185185
        k(   20) = (  -0.4166667   0.4166667   0.0833333), wk =   0.0555556
        k(   21) = (   0.4166667  -0.4166667   0.9166667), wk =   0.0555556
        k(   22) = (   0.2500000  -0.2500000   0.7500000), wk =   0.0555556
        k(   23) = (  -0.2500000   0.5833333   0.2500000), wk =   0.0555556
        k(   24) = (   0.5833333  -0.2500000   1.0833333), wk =   0.1111111
        k(   25) = (   0.4166667  -0.0833333   0.9166667), wk =   0.1111111
        k(   26) = (  -0.2500000  -1.0833333   0.2500000), wk =   0.0555556
        k(   27) = (  -0.4166667   0.4166667   0.4166667), wk =   0.0185185
        k(   28) = (   0.4166667  -0.4166667   1.2500000), wk =   0.0555556

     Dense  grid:    25749 G-vectors     FFT dimensions: (  45,  45,  45)

     Smooth grid:     9185 G-vectors     FFT dimensions: (  30,  30,  30)

     Estimated max dynamical RAM per process >       5.02MB

     Estimated total allocated dynamical RAM >      20.08MB

     Initial potential from superposition of free atoms

     starting charge    7.99866, renormalised to    8.00000
     Starting wfc are    8 randomized atomic wfcs

     total cpu time spent up to now is        0.7 secs

     per-process dynamical memory:    12.8 Mb

     Self-consistent Calculation

     iteration #  1     ecut=    39.00 Ry     beta=0.70
     Davidson diagonalization with overlap
     ethr =  1.00E-02,  avg # of iterations =  2.0

     Threshold (ethr) on eigenvalues was too large:
     Diagonalizing with lowered threshold

     Davidson diagonalization with overlap
     ethr =  6.78E-04,  avg # of iterations =  1.0

     total cpu time spent up to now is        1.8 secs

     total energy              =     -19.19134580 Ry
     Harris-Foulkes estimate   =     -19.20380265 Ry
     estimated scf accuracy    <       0.05364471 Ry

     iteration #  2     ecut=    39.00 Ry     beta=0.70
     Davidson diagonalization with overlap
     ethr =  6.71E-04,  avg # of iterations =  1.0

     total cpu time spent up to now is        2.2 secs

     total energy              =     -19.19310011 Ry
     Harris-Foulkes estimate   =     -19.19327211 Ry
     estimated scf accuracy    <       0.00245352 Ry

     iteration #  3     ecut=    39.00 Ry     beta=0.70
     Davidson diagonalization with overlap
     ethr =  3.07E-05,  avg # of iterations =  2.1

     total cpu time spent up to now is        2.7 secs

     total energy              =     -19.19343839 Ry
     Harris-Foulkes estimate   =     -19.19345059 Ry
     estimated scf accuracy    <       0.00004091 Ry

     iteration #  4     ecut=    39.00 Ry     beta=0.70
     Davidson diagonalization with overlap
     ethr =  5.11E-07,  avg # of iterations =  3.4

     total cpu time spent up to now is        3.5 secs

     total energy              =     -19.19347794 Ry
     Harris-Foulkes estimate   =     -19.19347867 Ry
     estimated scf accuracy    <       0.00000285 Ry

     iteration #  5     ecut=    39.00 Ry     beta=0.70
     Davidson diagonalization with overlap
     ethr =  3.56E-08,  avg # of iterations =  2.0

     total cpu time spent up to now is        4.0 secs

     End of self-consistent calculation

          k =-0.0833 0.0833 0.0833 (  1140 PWs)   bands (ev):

    -5.7495   5.1210   5.8390   5.8390

          k =-0.2500 0.2500-0.0833 (  1142 PWs)   bands (ev):

    -5.2799   3.0546   4.6221   5.6297

          k =-0.4167 0.4167-0.2500 (  1137 PWs)   bands (ev):

    -4.2057   0.3299   4.1593   5.0013

          k = 0.4167-0.4167 0.5833 (  1136 PWs)   bands (ev):

    -3.5225  -0.7937   4.2221   4.6269

          k = 0.2500-0.2500 0.4167 (  1133 PWs)   bands (ev):

    -4.6102   1.1642   4.6880   4.7145

          k = 0.0833-0.0833 0.2500 (  1149 PWs)   bands (ev):

    -5.5123   4.0549   5.2041   5.3823

          k =-0.0833 0.4167 0.0833 (  1132 PWs)   bands (ev):

    -5.0422   2.8579   4.4659   4.4848

          k =-0.2500 0.5833-0.0833 (  1132 PWs)   bands (ev):

    -4.1460   1.0384   3.1700   4.1025

          k = 0.5833-0.2500 0.7500 (  1134 PWs)   bands (ev):

    -3.0516  -0.6795   2.5724   3.8801

          k = 0.4167-0.0833 0.5833 (  1133 PWs)   bands (ev):

    -3.7587   0.3576   2.5368   4.3575

          k = 0.2500 0.0833 0.4167 (  1132 PWs)   bands (ev):

    -4.8204   2.0367   3.8562   5.0131

          k =-0.0833 0.7500 0.0833 (  1132 PWs)   bands (ev):

    -3.4445   0.2134   3.1371   3.4697

          k = 0.7500-0.0833 0.9167 (  1137 PWs)   bands (ev):

    -2.2684  -1.1092   2.3119   3.0718

          k = 0.5833 0.0833 0.7500 (  1136 PWs)   bands (ev):

    -2.6376  -0.7711   1.8350   3.6085

          k = 0.4167 0.2500 0.5833 (  1136 PWs)   bands (ev):

    -3.6502  -0.3057   3.4565   4.4530

          k =-0.0833-0.9167 0.0833 (  1134 PWs)   bands (ev):

    -2.3569  -1.1163   2.8718   3.2571

          k =-0.2500-0.7500-0.0833 (  1131 PWs)   bands (ev):

    -3.2795  -0.0055   2.6255   3.4073

          k =-0.0833-0.5833 0.0833 (  1128 PWs)   bands (ev):

    -4.3478   1.5643   3.6724   3.8865

          k =-0.2500 0.2500 0.2500 (  1131 PWs)   bands (ev):

    -5.0540   2.0910   5.2332   5.2332

          k =-0.4167 0.4167 0.0833 (  1131 PWs)   bands (ev):

    -4.3855   1.1591   3.1341   5.0651

          k = 0.4167-0.4167 0.9167 (  1132 PWs)   bands (ev):

    -3.2271  -0.2686   2.0465   4.2916

          k = 0.2500-0.2500 0.7500 (  1128 PWs)   bands (ev):

    -3.1748  -0.3472   2.5152   3.8175

          k =-0.2500 0.5833 0.2500 (  1128 PWs)   bands (ev):

    -3.9686   0.3646   3.5846   4.1853

          k = 0.5833-0.2500 1.0833 (  1134 PWs)   bands (ev):

    -2.9833  -0.3862   2.1460   3.4067

          k = 0.4167-0.0833 0.9167 (  1138 PWs)   bands (ev):

    -2.1659  -1.1169   1.9888   2.7514

          k =-0.2500-1.0833 0.2500 (  1136 PWs)   bands (ev):

    -2.3738  -1.0198   1.8644   3.6257

          k =-0.4167 0.4167 0.4167 (  1149 PWs)   bands (ev):

    -3.8836  -0.3998   4.8484   4.8484

          k = 0.4167-0.4167 1.2500 (  1138 PWs)   bands (ev):

    -3.2900  -0.7024   3.0380   4.4162

     highest occupied level (ev):     5.8390

!    total energy              =     -19.19347831 Ry
     Harris-Foulkes estimate   =     -19.19347830 Ry
     estimated scf accuracy    <          7.4E-09 Ry

     The total energy is the sum of the following terms:

     one-electron contribution =       4.95160936 Ry
     hartree contribution      =       1.13381650 Ry
     xc contribution           =      -8.59666886 Ry
     ewald contribution        =     -16.68223531 Ry

     convergence has been achieved in   5 iterations


     Computing stress (Cartesian axis) and pressure

          total   stress  (Ry/bohr**3)                   (kbar)     P=   -0.19
  -0.00000132   0.00000000   0.00000000         -0.19      0.00      0.00
   0.00000000  -0.00000132   0.00000000          0.00     -0.19      0.00
   0.00000000  -0.00000000  -0.00000132          0.00     -0.00     -0.19


     Writing output data file silicon.39.save

     init_run     :      0.56s CPU      0.60s WALL (       1 calls)
     electrons    :      2.78s CPU      3.30s WALL (       1 calls)
     stress       :      0.47s CPU      0.47s WALL (       1 calls)

     Called by init_run:
     wfcinit      :      0.21s CPU      0.23s WALL (       1 calls)
     potinit      :      0.04s CPU      0.04s WALL (       1 calls)

     Called by electrons:
     c_bands      :      1.90s CPU      2.38s WALL (       6 calls)
     sum_band     :      0.55s CPU      0.58s WALL (       6 calls)
     v_of_rho     :      0.17s CPU      0.17s WALL (       6 calls)
     newd         :      0.20s CPU      0.21s WALL (       6 calls)
     mix_rho      :      0.01s CPU      0.01s WALL (       6 calls)

     Called by c_bands:
     init_us_2    :      0.08s CPU      0.09s WALL (     392 calls)
     cegterg      :      1.72s CPU      2.18s WALL (     168 calls)

     Called by sum_band:
     sum_band:bec :      0.00s CPU      0.00s WALL (     168 calls)
     addusdens    :      0.21s CPU      0.22s WALL (       6 calls)

     Called by *egterg:
     h_psi        :      1.70s CPU      2.11s WALL (     520 calls)
     s_psi        :      0.06s CPU      0.07s WALL (     520 calls)
     g_psi        :      0.00s CPU      0.01s WALL (     324 calls)
     cdiaghg      :      0.04s CPU      0.04s WALL (     464 calls)

     Called by h_psi:
     h_psi:pot    :      1.69s CPU      2.10s WALL (     520 calls)
     h_psi:calbec :      0.09s CPU      0.14s WALL (     520 calls)
     vloc_psi     :      1.53s CPU      1.89s WALL (     520 calls)
     add_vuspsi   :      0.07s CPU      0.07s WALL (     520 calls)

     General routines
     calbec       :      0.13s CPU      0.17s WALL (     716 calls)
     fft          :      0.11s CPU      0.12s WALL (     110 calls)
     ffts         :      0.01s CPU      0.01s WALL (      12 calls)
     fftw         :      1.61s CPU      1.97s WALL (    4614 calls)
     interpolate  :      0.02s CPU      0.02s WALL (      12 calls)
     davcio       :      0.00s CPU      0.00s WALL (      28 calls)

     Parallel routines
     fft_scatter  :      0.42s CPU      0.72s WALL (    4736 calls)

     PWSCF        :     4.01s CPU         4.58s WALL


   This run was terminated on:  12: 8:30  10Nov2017            

=------------------------------------------------------------------------------=
   JOB DONE.
=------------------------------------------------------------------------------=
