
     Program PHONON v.6.1 (svn rev. 13369) starts on 10Nov2017 at 15:42:46 

     This program is part of the open-source Quantum ESPRESSO suite
     for quantum simulation of materials; please cite
         "P. Giannozzi et al., J. Phys.:Condens. Matter 21 395502 (2009);
          URL http://www.quantum-espresso.org", 
     in publications or presentations arising from this work. More details at
     http://www.quantum-espresso.org/quote

     Parallel version (MPI), running on     4 processors
     R & G space division:  proc/nbgrp/npool/nimage =       4

     Reading data from directory:
     ./silicon.10.304.save

   Info: using nr1, nr2, nr3 values from input

   Info: using nr1, nr2, nr3 values from input

     IMPORTANT: XC functional enforced from input :
     Exchange-correlation      = SLA  PW   PBE  PBE ( 1  4  3  4 0 0)
     Any further DFT definition will be discarded
     Please, verify this is what you really want


     Parallelization info
     --------------------
     sticks:   dense  smooth     PW     G-vecs:    dense   smooth      PW
     Min         217     108     37                 4288     1495     284
     Max         219     109     38                 4289     1498     285
     Sum         871     433    151                17153     5985    1139



     Dynamical matrices for ( 4, 4, 4)  uniform grid of q-points
     (   8q-points):
       N         xq(1)         xq(2)         xq(3) 
       1   0.000000000   0.000000000   0.000000000
       2  -0.250000000   0.250000000  -0.250000000
       3   0.500000000  -0.500000000   0.500000000
       4   0.000000000   0.500000000   0.000000000
       5   0.750000000  -0.250000000   0.750000000
       6   0.500000000   0.000000000   0.500000000
       7   0.000000000  -1.000000000   0.000000000
       8  -0.500000000  -1.000000000   0.000000000

     Calculation of q =    0.0000000   0.0000000   0.0000000

                                                                                

     bravais-lattice index     =            2
     lattice parameter (alat)  =      10.3040  a.u.
     unit-cell volume          =     273.5001 (a.u.)^3
     number of atoms/cell      =            2
     number of atomic types    =            1
     kinetic-energy cut-off    =      30.0000  Ry
     charge density cut-off    =     240.0000  Ry
     convergence threshold     =      1.0E-12
     beta                      =       0.7000
     number of iterations used =            4
     Exchange-correlation      = SLA  PW   PBE  PBE ( 1  4  3  4 0 0)


     celldm(1)=   10.30400  celldm(2)=    0.00000  celldm(3)=    0.00000
     celldm(4)=    0.00000  celldm(5)=    0.00000  celldm(6)=    0.00000

     crystal axes: (cart. coord. in units of alat)
               a(1) = ( -0.5000  0.0000  0.5000 )  
               a(2) = (  0.0000  0.5000  0.5000 )  
               a(3) = ( -0.5000  0.5000  0.0000 )  

     reciprocal axes: (cart. coord. in units 2 pi/alat)
               b(1) = ( -1.0000 -1.0000  1.0000 )  
               b(2) = (  1.0000  1.0000  1.0000 )  
               b(3) = ( -1.0000  1.0000 -1.0000 )  


     Atoms inside the unit cell: 

     Cartesian axes

     site n.  atom      mass           positions (alat units)
        1     Si  28.0860   tau(    1) = (    0.00000    0.00000    0.00000  )
        2     Si  28.0860   tau(    2) = (    0.25000    0.25000    0.25000  )

     Computing dynamical matrix for 
                    q = (   0.0000000   0.0000000   0.0000000 )

     49 Sym.Ops. (with q -> -q+G )


     G cutoff =  645.4509  (   4288 G-vectors)     FFT grid: ( 36, 36, 36)
     G cutoff =  322.7254  (   1497 G-vectors)  smooth grid: ( 25, 25, 25)
     number of k points=    10

     PseudoPot. # 1 for Si read from file:
     /home/s1333534/quantum_espresso/qe-6.1/pseudo/si_pbe_v1.uspp.F.UPF.txt
     MD5 check sum: a056efeee980c13900f22a371efd63c1
     Pseudo is Ultrasoft + core correction, Zval =  4.0
     Generated by new atomic code, or converted to UPF format
     Using radial grid of  899 points,  6 beta functions with: 
                l(1) =   0
                l(2) =   0
                l(3) =   1
                l(4) =   1
                l(5) =   2
                l(6) =   2
     Q(r) pseudized with  8 coefficients,  rinner =    0.900   0.900   0.900
                                                       0.900   0.900

     Mode symmetry, O_h (m-3m)  point group:


     Electric field:
     Dielectric constant
     Born effective charges in two ways 


     Atomic displacements:
     There are   2 irreducible representations

     Representation     1      3 modes -T_2g G_25' G_5+  To be done

     Representation     2      3 modes -T_1u G_15  G_4-  To be done



     Alpha used in Ewald sum =   2.5000
     PHONON       :     0.94s CPU         1.46s WALL


     Electric Fields Calculation

      iter #   1 total cpu time :     2.5 secs   av.it.:   5.7
      thresh= 1.000E-02 alpha_mix =  0.700 |ddv_scf|^2 =  1.335E-07

      iter #   2 total cpu time :     3.3 secs   av.it.:  11.7
      thresh= 3.653E-05 alpha_mix =  0.700 |ddv_scf|^2 =  7.768E-09

      iter #   3 total cpu time :     4.0 secs   av.it.:  11.4
      thresh= 8.814E-06 alpha_mix =  0.700 |ddv_scf|^2 =  5.130E-10

      iter #   4 total cpu time :     4.6 secs   av.it.:  10.3
      thresh= 2.265E-06 alpha_mix =  0.700 |ddv_scf|^2 =  3.314E-12

      iter #   5 total cpu time :     5.1 secs   av.it.:  11.1
      thresh= 1.820E-07 alpha_mix =  0.700 |ddv_scf|^2 =  3.308E-15

     End of electric fields calculation

          Dielectric constant in cartesian axis 

          (      13.908521999      -0.000000000       0.000000000 )
          (      -0.000000000      13.908521999       0.000000000 )
          (      -0.000000000      -0.000000000      13.908521999 )

          Effective charges (d Force / dE) in cartesian axis

           atom      1   Si 
      Ex  (       -0.03903       -0.00000       -0.00000 )
      Ey  (        0.00000       -0.03903       -0.00000 )
      Ez  (       -0.00000       -0.00000       -0.03903 )
           atom      2   Si 
      Ex  (       -0.03903       -0.00000        0.00000 )
      Ey  (       -0.00000       -0.03903       -0.00000 )
      Ez  (        0.00000       -0.00000       -0.03903 )


     Representation #  1 modes #   1  2  3

     Self-consistent Calculation

      iter #   1 total cpu time :     6.4 secs   av.it.:   5.1
      thresh= 1.000E-02 alpha_mix =  0.700 |ddv_scf|^2 =  2.355E-08

      iter #   2 total cpu time :     7.1 secs   av.it.:  11.6
      thresh= 1.535E-05 alpha_mix =  0.700 |ddv_scf|^2 =  9.657E-10

      iter #   3 total cpu time :     7.8 secs   av.it.:  11.1
      thresh= 3.108E-06 alpha_mix =  0.700 |ddv_scf|^2 =  6.568E-11

      iter #   4 total cpu time :     8.3 secs   av.it.:  10.1
      thresh= 8.104E-07 alpha_mix =  0.700 |ddv_scf|^2 =  1.601E-13

     End of self-consistent calculation

     Convergence has been achieved 


     Representation #  2 modes #   4  5  6

     Self-consistent Calculation

      iter #   1 total cpu time :     9.1 secs   av.it.:   5.2
      thresh= 1.000E-02 alpha_mix =  0.700 |ddv_scf|^2 =  1.858E-08

      iter #   2 total cpu time :     9.8 secs   av.it.:  11.6
      thresh= 1.363E-05 alpha_mix =  0.700 |ddv_scf|^2 =  1.095E-09

      iter #   3 total cpu time :    10.5 secs   av.it.:  11.1
      thresh= 3.309E-06 alpha_mix =  0.700 |ddv_scf|^2 =  6.778E-11

      iter #   4 total cpu time :    11.1 secs   av.it.:  11.3
      thresh= 8.233E-07 alpha_mix =  0.700 |ddv_scf|^2 =  2.617E-13

     End of self-consistent calculation

     Convergence has been achieved 

     Number of q in the star =    1
     List of q in the star:
          1   0.000000000   0.000000000   0.000000000

          Dielectric constant in cartesian axis 

          (      13.908521999      -0.000000000       0.000000000 )
          (      -0.000000000      13.908521999       0.000000000 )
          (      -0.000000000      -0.000000000      13.908521999 )

          Effective charges (d Force / dE) in cartesian axis

           atom      1   Si 
      Ex  (       -0.03903       -0.00000       -0.00000 )
      Ey  (        0.00000       -0.03903       -0.00000 )
      Ez  (       -0.00000       -0.00000       -0.03903 )
           atom      2   Si 
      Ex  (       -0.03903       -0.00000        0.00000 )
      Ey  (       -0.00000       -0.03903       -0.00000 )
      Ez  (        0.00000       -0.00000       -0.03903 )

          Effective charges (d P / du) in cartesian axis 

           atom      1   Si 
      Px  (       -0.07210        0.00000       -0.00000 )
      Py  (        0.00000       -0.07210       -0.00000 )
      Pz  (       -0.00000       -0.00000       -0.07210 )
           atom      2   Si 
      Px  (       -0.07210        0.00000        0.00000 )
      Py  (        0.00000       -0.07210        0.00000 )
      Pz  (       -0.00000       -0.00000       -0.07210 )

     Diagonalizing the dynamical matrix

     q = (    0.000000000   0.000000000   0.000000000 ) 

 **************************************************************************
     freq (    1) =      -0.468365 [THz] =     -15.622991 [cm-1]
     freq (    2) =      -0.468365 [THz] =     -15.622991 [cm-1]
     freq (    3) =      -0.468365 [THz] =     -15.622991 [cm-1]
     freq (    4) =      15.195987 [THz] =     506.883571 [cm-1]
     freq (    5) =      15.195987 [THz] =     506.883571 [cm-1]
     freq (    6) =      15.195987 [THz] =     506.883571 [cm-1]
 **************************************************************************

     Mode symmetry, O_h (m-3m)  point group:

     freq (  1 -  3) =        -15.6  [cm-1]   --> T_1u G_15  G_4- I  
     freq (  4 -  6) =        506.9  [cm-1]   --> T_2g G_25' G_5+ R  

     Calculation of q =   -0.2500000   0.2500000  -0.2500000

   Info: using nr1, nr2, nr3 values from input

   Info: using nr1, nr2, nr3 values from input

     Parallelization info
     --------------------
     sticks:   dense  smooth     PW     G-vecs:    dense   smooth      PW
     Min         217     108     37                 4287     1495     309
     Max         218     109     38                 4289     1498     312
     Sum         871     433    151                17153     5985    1243



     bravais-lattice index     =            2
     lattice parameter (alat)  =      10.3040  a.u.
     unit-cell volume          =     273.5001 (a.u.)^3
     number of atoms/cell      =            2
     number of atomic types    =            1
     number of electrons       =         8.00
     number of Kohn-Sham states=            4
     kinetic-energy cutoff     =      30.0000  Ry
     charge density cutoff     =     240.0000  Ry
     Exchange-correlation      = SLA  PW   PBE  PBE ( 1  4  3  4 0 0)

     celldm(1)=  10.304000  celldm(2)=   0.000000  celldm(3)=   0.000000
     celldm(4)=   0.000000  celldm(5)=   0.000000  celldm(6)=   0.000000

     crystal axes: (cart. coord. in units of alat)
               a(1) = (  -0.500000   0.000000   0.500000 )  
               a(2) = (   0.000000   0.500000   0.500000 )  
               a(3) = (  -0.500000   0.500000   0.000000 )  

     reciprocal axes: (cart. coord. in units 2 pi/alat)
               b(1) = ( -1.000000 -1.000000  1.000000 )  
               b(2) = (  1.000000  1.000000  1.000000 )  
               b(3) = ( -1.000000  1.000000 -1.000000 )  


     PseudoPot. # 1 for Si read from file:
     /home/s1333534/quantum_espresso/qe-6.1/pseudo/si_pbe_v1.uspp.F.UPF.txt
     MD5 check sum: a056efeee980c13900f22a371efd63c1
     Pseudo is Ultrasoft + core correction, Zval =  4.0
     Generated by new atomic code, or converted to UPF format
     Using radial grid of  899 points,  6 beta functions with: 
                l(1) =   0
                l(2) =   0
                l(3) =   1
                l(4) =   1
                l(5) =   2
                l(6) =   2
     Q(r) pseudized with  8 coefficients,  rinner =    0.900   0.900   0.900
                                                       0.900   0.900

     atomic species   valence    mass     pseudopotential
        Si             4.00    28.08600     Si( 1.00)

     48 Sym. Ops., with inversion, found



   Cartesian axes

     site n.     atom                  positions (alat units)
         1           Si  tau(   1) = (   0.0000000   0.0000000   0.0000000  )
         2           Si  tau(   2) = (   0.2500000   0.2500000   0.2500000  )

     number of k points=   120

     Number of k-points >= 100: set verbosity='high' to print them.

     Dense  grid:    17153 G-vectors     FFT dimensions: (  36,  36,  36)

     Smooth grid:     5985 G-vectors     FFT dimensions: (  25,  25,  25)

     Estimated max dynamical RAM per process >       1.51MB

     Estimated total allocated dynamical RAM >       6.05MB

     The potential is recalculated from file :
     ./_ph0/silicon.10.304.save/charge-density.dat

     Starting wfc are    8 atomic wfcs

     Band Structure Calculation
     Davidson diagonalization with overlap

     ethr =  1.25E-10,  avg # of iterations = 12.2

     total cpu time spent up to now is        1.3 secs

     End of band structure calculation

     Number of k-points >= 100: set verbosity='high' to print the bands.

     highest occupied level (ev):     5.7822

     Writing output data file silicon.10.304.save

                                                                                

     bravais-lattice index     =            2
     lattice parameter (alat)  =      10.3040  a.u.
     unit-cell volume          =     273.5001 (a.u.)^3
     number of atoms/cell      =            2
     number of atomic types    =            1
     kinetic-energy cut-off    =      30.0000  Ry
     charge density cut-off    =     240.0000  Ry
     convergence threshold     =      1.0E-12
     beta                      =       0.7000
     number of iterations used =            4
     Exchange-correlation      = SLA  PW   PBE  PBE ( 1  4  3  4 0 0)


     celldm(1)=   10.30400  celldm(2)=    0.00000  celldm(3)=    0.00000
     celldm(4)=    0.00000  celldm(5)=    0.00000  celldm(6)=    0.00000

     crystal axes: (cart. coord. in units of alat)
               a(1) = ( -0.5000  0.0000  0.5000 )  
               a(2) = (  0.0000  0.5000  0.5000 )  
               a(3) = ( -0.5000  0.5000  0.0000 )  

     reciprocal axes: (cart. coord. in units 2 pi/alat)
               b(1) = ( -1.0000 -1.0000  1.0000 )  
               b(2) = (  1.0000  1.0000  1.0000 )  
               b(3) = ( -1.0000  1.0000 -1.0000 )  


     Atoms inside the unit cell: 

     Cartesian axes

     site n.  atom      mass           positions (alat units)
        1     Si  28.0860   tau(    1) = (    0.00000    0.00000    0.00000  )
        2     Si  28.0860   tau(    2) = (    0.25000    0.25000    0.25000  )

     Computing dynamical matrix for 
                    q = (  -0.2500000   0.2500000  -0.2500000 )

      6 Sym.Ops. (no q -> -q+G )


     G cutoff =  645.4509  (   4288 G-vectors)     FFT grid: ( 36, 36, 36)
     G cutoff =  322.7254  (   1496 G-vectors)  smooth grid: ( 25, 25, 25)
     number of k points=   120

     PseudoPot. # 1 for Si read from file:
     /home/s1333534/quantum_espresso/qe-6.1/pseudo/si_pbe_v1.uspp.F.UPF.txt
     MD5 check sum: a056efeee980c13900f22a371efd63c1
     Pseudo is Ultrasoft + core correction, Zval =  4.0
     Generated by new atomic code, or converted to UPF format
     Using radial grid of  899 points,  6 beta functions with: 
                l(1) =   0
                l(2) =   0
                l(3) =   1
                l(4) =   1
                l(5) =   2
                l(6) =   2
     Q(r) pseudized with  8 coefficients,  rinner =    0.900   0.900   0.900
                                                       0.900   0.900

     Mode symmetry, C_3v (3m)   point group:


     Atomic displacements:
     There are   4 irreducible representations

     Representation     1      1 modes -A_1  L_1  To be done

     Representation     2      1 modes -A_1  L_1  To be done

     Representation     3      2 modes -E    L_3  To be done

     Representation     4      2 modes -E    L_3  To be done



     Alpha used in Ewald sum =   2.5000
     PHONON       :    10.72s CPU        14.52s WALL



     Representation #  1 mode #   1

     Self-consistent Calculation

      iter #   1 total cpu time :    15.0 secs   av.it.:   5.9
      thresh= 1.000E-02 alpha_mix =  0.700 |ddv_scf|^2 =  4.299E-04

      iter #   2 total cpu time :    15.6 secs   av.it.:   9.0
      thresh= 2.073E-03 alpha_mix =  0.700 |ddv_scf|^2 =  6.531E-03

      iter #   3 total cpu time :    16.1 secs   av.it.:   7.0
      thresh= 8.081E-03 alpha_mix =  0.700 |ddv_scf|^2 =  2.719E-07

      iter #   4 total cpu time :    16.7 secs   av.it.:   9.6
      thresh= 5.214E-05 alpha_mix =  0.700 |ddv_scf|^2 =  1.780E-08

      iter #   5 total cpu time :    17.3 secs   av.it.:   9.6
      thresh= 1.334E-05 alpha_mix =  0.700 |ddv_scf|^2 =  3.361E-10

      iter #   6 total cpu time :    17.9 secs   av.it.:   9.7
      thresh= 1.833E-06 alpha_mix =  0.700 |ddv_scf|^2 =  1.099E-09

      iter #   7 total cpu time :    18.5 secs   av.it.:   7.6
      thresh= 3.315E-06 alpha_mix =  0.700 |ddv_scf|^2 =  3.792E-11

      iter #   8 total cpu time :    19.0 secs   av.it.:   9.3
      thresh= 6.158E-07 alpha_mix =  0.700 |ddv_scf|^2 =  4.788E-13

     End of self-consistent calculation

     Convergence has been achieved 


     Representation #  2 mode #   2

     Self-consistent Calculation

      iter #   1 total cpu time :    19.6 secs   av.it.:   5.9
      thresh= 1.000E-02 alpha_mix =  0.700 |ddv_scf|^2 =  4.299E-04

      iter #   2 total cpu time :    20.1 secs   av.it.:   9.0
      thresh= 2.073E-03 alpha_mix =  0.700 |ddv_scf|^2 =  6.531E-03

      iter #   3 total cpu time :    20.7 secs   av.it.:   7.0
      thresh= 8.081E-03 alpha_mix =  0.700 |ddv_scf|^2 =  2.719E-07

      iter #   4 total cpu time :    21.3 secs   av.it.:   9.6
      thresh= 5.214E-05 alpha_mix =  0.700 |ddv_scf|^2 =  1.780E-08

      iter #   5 total cpu time :    21.9 secs   av.it.:   9.6
      thresh= 1.334E-05 alpha_mix =  0.700 |ddv_scf|^2 =  3.361E-10

      iter #   6 total cpu time :    22.5 secs   av.it.:   9.7
      thresh= 1.833E-06 alpha_mix =  0.700 |ddv_scf|^2 =  1.099E-09

      iter #   7 total cpu time :    23.1 secs   av.it.:   7.6
      thresh= 3.315E-06 alpha_mix =  0.700 |ddv_scf|^2 =  3.792E-11

      iter #   8 total cpu time :    23.7 secs   av.it.:   9.3
      thresh= 6.158E-07 alpha_mix =  0.700 |ddv_scf|^2 =  4.788E-13

     End of self-consistent calculation

     Convergence has been achieved 


     Representation #  3 modes #   3  4

     Self-consistent Calculation

      iter #   1 total cpu time :    24.6 secs   av.it.:   5.2
      thresh= 1.000E-02 alpha_mix =  0.700 |ddv_scf|^2 =  6.632E-08

      iter #   2 total cpu time :    25.9 secs   av.it.:  11.4
      thresh= 2.575E-05 alpha_mix =  0.700 |ddv_scf|^2 =  4.263E-09

      iter #   3 total cpu time :    27.1 secs   av.it.:  11.1
      thresh= 6.529E-06 alpha_mix =  0.700 |ddv_scf|^2 =  2.258E-10

      iter #   4 total cpu time :    28.3 secs   av.it.:  11.0
      thresh= 1.503E-06 alpha_mix =  0.700 |ddv_scf|^2 =  8.542E-13

     End of self-consistent calculation

     Convergence has been achieved 


     Representation #  4 modes #   5  6

     Self-consistent Calculation

      iter #   1 total cpu time :    29.2 secs   av.it.:   5.2
      thresh= 1.000E-02 alpha_mix =  0.700 |ddv_scf|^2 =  6.633E-08

      iter #   2 total cpu time :    30.5 secs   av.it.:  11.4
      thresh= 2.575E-05 alpha_mix =  0.700 |ddv_scf|^2 =  4.261E-09

      iter #   3 total cpu time :    31.7 secs   av.it.:  11.2
      thresh= 6.528E-06 alpha_mix =  0.700 |ddv_scf|^2 =  2.257E-10

      iter #   4 total cpu time :    32.9 secs   av.it.:  11.0
      thresh= 1.502E-06 alpha_mix =  0.700 |ddv_scf|^2 =  8.591E-13

     End of self-consistent calculation

     Convergence has been achieved 

     Number of q in the star =    8
     List of q in the star:
          1  -0.250000000   0.250000000  -0.250000000
          2   0.250000000  -0.250000000  -0.250000000
          3   0.250000000  -0.250000000   0.250000000
          4   0.250000000   0.250000000   0.250000000
          5  -0.250000000  -0.250000000  -0.250000000
          6  -0.250000000  -0.250000000   0.250000000
          7  -0.250000000   0.250000000   0.250000000
          8   0.250000000   0.250000000  -0.250000000

     Diagonalizing the dynamical matrix

     q = (   -0.250000000   0.250000000  -0.250000000 ) 

 **************************************************************************
     freq (    1) =       2.769268 [THz] =      92.372825 [cm-1]
     freq (    2) =       2.769268 [THz] =      92.372825 [cm-1]
     freq (    3) =       6.790869 [THz] =     226.519008 [cm-1]
     freq (    4) =      14.344644 [THz] =     478.485811 [cm-1]
     freq (    5) =      14.632923 [THz] =     488.101780 [cm-1]
     freq (    6) =      14.632923 [THz] =     488.101780 [cm-1]
 **************************************************************************

     Mode symmetry, C_3v (3m)   point group:

     freq (  1 -  2) =         92.4  [cm-1]   --> E    L_3           
     freq (  3 -  3) =        226.5  [cm-1]   --> A_1  L_1           
     freq (  4 -  4) =        478.5  [cm-1]   --> A_1  L_1           
     freq (  5 -  6) =        488.1  [cm-1]   --> E    L_3           

     Calculation of q =    0.5000000  -0.5000000   0.5000000

   Info: using nr1, nr2, nr3 values from input

   Info: using nr1, nr2, nr3 values from input

     Parallelization info
     --------------------
     sticks:   dense  smooth     PW     G-vecs:    dense   smooth      PW
     Min         217     108     40                 4288     1495     351
     Max         219     109     41                 4289     1498     354
     Sum         871     433    163                17153     5985    1411



     bravais-lattice index     =            2
     lattice parameter (alat)  =      10.3040  a.u.
     unit-cell volume          =     273.5001 (a.u.)^3
     number of atoms/cell      =            2
     number of atomic types    =            1
     number of electrons       =         8.00
     number of Kohn-Sham states=            4
     kinetic-energy cutoff     =      30.0000  Ry
     charge density cutoff     =     240.0000  Ry
     Exchange-correlation      = SLA  PW   PBE  PBE ( 1  4  3  4 0 0)

     celldm(1)=  10.304000  celldm(2)=   0.000000  celldm(3)=   0.000000
     celldm(4)=   0.000000  celldm(5)=   0.000000  celldm(6)=   0.000000

     crystal axes: (cart. coord. in units of alat)
               a(1) = (  -0.500000   0.000000   0.500000 )  
               a(2) = (   0.000000   0.500000   0.500000 )  
               a(3) = (  -0.500000   0.500000   0.000000 )  

     reciprocal axes: (cart. coord. in units 2 pi/alat)
               b(1) = ( -1.000000 -1.000000  1.000000 )  
               b(2) = (  1.000000  1.000000  1.000000 )  
               b(3) = ( -1.000000  1.000000 -1.000000 )  


     PseudoPot. # 1 for Si read from file:
     /home/s1333534/quantum_espresso/qe-6.1/pseudo/si_pbe_v1.uspp.F.UPF.txt
     MD5 check sum: a056efeee980c13900f22a371efd63c1
     Pseudo is Ultrasoft + core correction, Zval =  4.0
     Generated by new atomic code, or converted to UPF format
     Using radial grid of  899 points,  6 beta functions with: 
                l(1) =   0
                l(2) =   0
                l(3) =   1
                l(4) =   1
                l(5) =   2
                l(6) =   2
     Q(r) pseudized with  8 coefficients,  rinner =    0.900   0.900   0.900
                                                       0.900   0.900

     atomic species   valence    mass     pseudopotential
        Si             4.00    28.08600     Si( 1.00)

     48 Sym. Ops., with inversion, found



   Cartesian axes

     site n.     atom                  positions (alat units)
         1           Si  tau(   1) = (   0.0000000   0.0000000   0.0000000  )
         2           Si  tau(   2) = (   0.2500000   0.2500000   0.2500000  )

     number of k points=    60
                       cart. coord. in units 2pi/alat
        k(    1) = (  -0.1250000   0.1250000   0.1250000), wk =   0.0468750
        k(    2) = (   0.3750000  -0.3750000   0.6250000), wk =   0.0000000
        k(    3) = (  -0.3750000   0.3750000  -0.1250000), wk =   0.0468750
        k(    4) = (   0.1250000  -0.1250000   0.3750000), wk =   0.0000000
        k(    5) = (   0.3750000  -0.3750000   0.6250000), wk =   0.0468750
        k(    6) = (   0.8750000  -0.8750000   1.1250000), wk =   0.0000000
        k(    7) = (   0.1250000  -0.1250000   0.3750000), wk =   0.0468750
        k(    8) = (   0.6250000  -0.6250000   0.8750000), wk =   0.0000000
        k(    9) = (  -0.1250000   0.6250000   0.1250000), wk =   0.0937500
        k(   10) = (   0.3750000   0.1250000   0.6250000), wk =   0.0000000
        k(   11) = (   0.6250000  -0.1250000   0.8750000), wk =   0.0937500
        k(   12) = (   1.1250000  -0.6250000   1.3750000), wk =   0.0000000
        k(   13) = (   0.3750000   0.1250000   0.6250000), wk =   0.0937500
        k(   14) = (   0.8750000  -0.3750000   1.1250000), wk =   0.0000000
        k(   15) = (  -0.1250000  -0.8750000   0.1250000), wk =   0.0937500
        k(   16) = (   0.3750000  -1.3750000   0.6250000), wk =   0.0000000
        k(   17) = (  -0.3750000   0.3750000   0.3750000), wk =   0.0468750
        k(   18) = (   0.1250000  -0.1250000   0.8750000), wk =   0.0000000
        k(   19) = (   0.3750000  -0.3750000   1.1250000), wk =   0.0468750
        k(   20) = (   0.8750000  -0.8750000   1.6250000), wk =   0.0000000
        k(   21) = (   0.1250000  -0.1250000   0.1250000), wk =   0.0156250
        k(   22) = (   0.6250000  -0.6250000   0.6250000), wk =   0.0000000
        k(   23) = (  -0.3750000  -0.3750000  -0.1250000), wk =   0.0937500
        k(   24) = (   0.1250000  -0.8750000   0.3750000), wk =   0.0000000
        k(   25) = (  -0.1250000  -0.3750000   0.3750000), wk =   0.0468750
        k(   26) = (   0.3750000  -0.8750000   0.8750000), wk =   0.0000000
        k(   27) = (   0.3750000   0.3750000   0.6250000), wk =   0.0937500
        k(   28) = (   0.8750000  -0.1250000   1.1250000), wk =   0.0000000
        k(   29) = (   0.6250000   0.3750000  -0.3750000), wk =   0.0468750
        k(   30) = (   1.1250000  -0.1250000   0.1250000), wk =   0.0000000
        k(   31) = (   0.1250000   0.1250000   0.3750000), wk =   0.0937500
        k(   32) = (   0.6250000  -0.3750000   0.8750000), wk =   0.0000000
        k(   33) = (   0.3750000   0.1250000  -0.1250000), wk =   0.0468750
        k(   34) = (   0.8750000  -0.3750000   0.3750000), wk =   0.0000000
        k(   35) = (  -0.1250000  -0.6250000  -0.1250000), wk =   0.0468750
        k(   36) = (   0.3750000  -1.1250000   0.3750000), wk =   0.0000000
        k(   37) = (   0.1250000  -0.6250000   0.1250000), wk =   0.0468750
        k(   38) = (   0.6250000  -1.1250000   0.6250000), wk =   0.0000000
        k(   39) = (   0.6250000   0.1250000   0.8750000), wk =   0.0937500
        k(   40) = (   1.1250000  -0.3750000   1.3750000), wk =   0.0000000
        k(   41) = (  -0.8750000   0.1250000   0.6250000), wk =   0.0937500
        k(   42) = (  -0.3750000  -0.3750000   1.1250000), wk =   0.0000000
        k(   43) = (   0.8750000   0.1250000  -0.6250000), wk =   0.0937500
        k(   44) = (   1.3750000  -0.3750000  -0.1250000), wk =   0.0000000
        k(   45) = (   0.3750000  -0.1250000   0.6250000), wk =   0.0937500
        k(   46) = (   0.8750000  -0.6250000   1.1250000), wk =   0.0000000
        k(   47) = (  -0.6250000  -0.1250000   0.3750000), wk =   0.0937500
        k(   48) = (  -0.1250000  -0.6250000   0.8750000), wk =   0.0000000
        k(   49) = (   0.6250000  -0.1250000  -0.3750000), wk =   0.0937500
        k(   50) = (   1.1250000  -0.6250000   0.1250000), wk =   0.0000000
        k(   51) = (  -0.1250000   0.8750000  -0.1250000), wk =   0.0468750
        k(   52) = (   0.3750000   0.3750000   0.3750000), wk =   0.0000000
        k(   53) = (   0.1250000   0.8750000   0.1250000), wk =   0.0468750
        k(   54) = (   0.6250000   0.3750000   0.6250000), wk =   0.0000000
        k(   55) = (   0.3750000  -0.3750000   0.3750000), wk =   0.0156250
        k(   56) = (   0.8750000  -0.8750000   0.8750000), wk =   0.0000000
        k(   57) = (   0.3750000   0.3750000   1.1250000), wk =   0.0937500
        k(   58) = (   0.8750000  -0.1250000   1.6250000), wk =   0.0000000
        k(   59) = (   1.1250000   0.3750000  -0.3750000), wk =   0.0468750
        k(   60) = (   1.6250000  -0.1250000   0.1250000), wk =   0.0000000

     Dense  grid:    17153 G-vectors     FFT dimensions: (  36,  36,  36)

     Smooth grid:     5985 G-vectors     FFT dimensions: (  25,  25,  25)

     Estimated max dynamical RAM per process >       1.51MB

     Estimated total allocated dynamical RAM >       6.05MB

     The potential is recalculated from file :
     ./_ph0/silicon.10.304.save/charge-density.dat

     Starting wfc are    8 atomic wfcs

     Band Structure Calculation
     Davidson diagonalization with overlap

     ethr =  1.25E-10,  avg # of iterations = 12.2

     total cpu time spent up to now is        2.4 secs

     End of band structure calculation

          k =-0.1250 0.1250 0.1250 (   752 PWs)   bands (ev):

    -5.6064   4.4731   5.7822   5.7822

          k = 0.3750-0.3750 0.6250 (   760 PWs)   bands (ev):

    -3.4216  -0.6283   3.8072   4.5221

          k =-0.3750 0.3750-0.1250 (   757 PWs)   bands (ev):

    -4.5722   1.4672   3.7825   5.3000

          k = 0.1250-0.1250 0.3750 (   766 PWs)   bands (ev):

    -5.0748   2.8534   4.7659   4.8347

          k = 0.3750-0.3750 0.6250 (   760 PWs)   bands (ev):

    -3.4216  -0.6283   3.8072   4.5221

          k = 0.8750-0.8750 1.1250 (   752 PWs)   bands (ev):

    -5.6064   4.4731   5.7822   5.7822

          k = 0.1250-0.1250 0.3750 (   766 PWs)   bands (ev):

    -5.0748   2.8534   4.7659   4.8347

          k = 0.6250-0.6250 0.8750 (   757 PWs)   bands (ev):

    -4.5722   1.4672   3.7825   5.3000

          k =-0.1250 0.6250 0.1250 (   762 PWs)   bands (ev):

    -4.0360   1.1404   3.4295   3.8858

          k = 0.3750 0.1250 0.6250 (   759 PWs)   bands (ev):

    -3.6165   0.2566   2.7845   4.1622

          k = 0.6250-0.1250 0.8750 (   754 PWs)   bands (ev):

    -2.3822  -0.8330   2.0616   3.1473

          k = 1.1250-0.6250 1.3750 (   757 PWs)   bands (ev):

    -4.5722   1.4672   3.7825   5.3000

          k = 0.3750 0.1250 0.6250 (   759 PWs)   bands (ev):

    -3.6165   0.2566   2.7845   4.1622

          k = 0.8750-0.3750 1.1250 (   762 PWs)   bands (ev):

    -4.0360   1.1404   3.4295   3.8858

          k =-0.1250-0.8750 0.1250 (   759 PWs)   bands (ev):

    -2.5532  -0.7339   2.6771   3.4159

          k = 0.3750-1.3750 0.6250 (   760 PWs)   bands (ev):

    -3.4216  -0.6283   3.8072   4.5221

          k =-0.3750 0.3750 0.3750 (   763 PWs)   bands (ev):

    -4.1352   0.1647   4.9907   4.9907

          k = 0.1250-0.1250 0.8750 (   759 PWs)   bands (ev):

    -2.5532  -0.7339   2.6771   3.4159

          k = 0.3750-0.3750 1.1250 (   759 PWs)   bands (ev):

    -2.9226  -0.5348   2.1235   4.2023

          k = 0.8750-0.8750 1.6250 (   762 PWs)   bands (ev):

    -4.0360   1.1404   3.4295   3.8858

          k = 0.1250-0.1250 0.1250 (   752 PWs)   bands (ev):

    -5.6064   4.4731   5.7822   5.7822

          k = 0.6250-0.6250 0.6250 (   763 PWs)   bands (ev):

    -4.1352   0.1647   4.9907   4.9907

          k =-0.3750-0.3750-0.1250 (   757 PWs)   bands (ev):

    -4.5722   1.4672   3.7825   5.3000

          k = 0.1250-0.8750 0.3750 (   754 PWs)   bands (ev):

    -2.3822  -0.8330   2.0616   3.1473

          k =-0.1250-0.3750 0.3750 (   757 PWs)   bands (ev):

    -4.5722   1.4672   3.7825   5.3000

          k = 0.3750-0.8750 0.8750 (   762 PWs)   bands (ev):

    -4.0360   1.1404   3.4295   3.8858

          k = 0.3750 0.3750 0.6250 (   760 PWs)   bands (ev):

    -3.4216  -0.6283   3.8072   4.5221

          k = 0.8750-0.1250 1.1250 (   759 PWs)   bands (ev):

    -2.5532  -0.7339   2.6771   3.4159

          k = 0.6250 0.3750-0.3750 (   760 PWs)   bands (ev):

    -3.4216  -0.6283   3.8072   4.5221

          k = 1.1250-0.1250 0.1250 (   759 PWs)   bands (ev):

    -2.5532  -0.7339   2.6771   3.4159

          k = 0.1250 0.1250 0.3750 (   766 PWs)   bands (ev):

    -5.0748   2.8534   4.7659   4.8347

          k = 0.6250-0.3750 0.8750 (   759 PWs)   bands (ev):

    -3.6165   0.2566   2.7845   4.1622

          k = 0.3750 0.1250-0.1250 (   766 PWs)   bands (ev):

    -5.0748   2.8534   4.7659   4.8347

          k = 0.8750-0.3750 0.3750 (   759 PWs)   bands (ev):

    -2.9226  -0.5348   2.1235   4.2023

          k =-0.1250-0.6250-0.1250 (   762 PWs)   bands (ev):

    -4.0360   1.1404   3.4295   3.8858

          k = 0.3750-1.1250 0.3750 (   759 PWs)   bands (ev):

    -2.9226  -0.5348   2.1235   4.2023

          k = 0.1250-0.6250 0.1250 (   762 PWs)   bands (ev):

    -4.0360   1.1404   3.4295   3.8858

          k = 0.6250-1.1250 0.6250 (   757 PWs)   bands (ev):

    -4.5722   1.4672   3.7825   5.3000

          k = 0.6250 0.1250 0.8750 (   754 PWs)   bands (ev):

    -2.3822  -0.8330   2.0616   3.1473

          k = 1.1250-0.3750 1.3750 (   759 PWs)   bands (ev):

    -3.6165   0.2566   2.7845   4.1622

          k =-0.8750 0.1250 0.6250 (   754 PWs)   bands (ev):

    -2.3822  -0.8330   2.0616   3.1473

          k =-0.3750-0.3750 1.1250 (   759 PWs)   bands (ev):

    -2.9226  -0.5348   2.1235   4.2023

          k = 0.8750 0.1250-0.6250 (   754 PWs)   bands (ev):

    -2.3822  -0.8330   2.0616   3.1473

          k = 1.3750-0.3750-0.1250 (   759 PWs)   bands (ev):

    -3.6165   0.2566   2.7845   4.1622

          k = 0.3750-0.1250 0.6250 (   759 PWs)   bands (ev):

    -3.6165   0.2566   2.7845   4.1622

          k = 0.8750-0.6250 1.1250 (   766 PWs)   bands (ev):

    -5.0748   2.8534   4.7659   4.8347

          k =-0.6250-0.1250 0.3750 (   759 PWs)   bands (ev):

    -3.6165   0.2566   2.7845   4.1622

          k =-0.1250-0.6250 0.8750 (   754 PWs)   bands (ev):

    -2.3822  -0.8330   2.0616   3.1473

          k = 0.6250-0.1250-0.3750 (   759 PWs)   bands (ev):

    -3.6165   0.2566   2.7845   4.1622

          k = 1.1250-0.6250 0.1250 (   754 PWs)   bands (ev):

    -2.3822  -0.8330   2.0616   3.1473

          k =-0.1250 0.8750-0.1250 (   759 PWs)   bands (ev):

    -2.5532  -0.7339   2.6771   3.4159

          k = 0.3750 0.3750 0.3750 (   763 PWs)   bands (ev):

    -4.1352   0.1647   4.9907   4.9907

          k = 0.1250 0.8750 0.1250 (   759 PWs)   bands (ev):

    -2.5532  -0.7339   2.6771   3.4159

          k = 0.6250 0.3750 0.6250 (   760 PWs)   bands (ev):

    -3.4216  -0.6283   3.8072   4.5221

          k = 0.3750-0.3750 0.3750 (   763 PWs)   bands (ev):

    -4.1352   0.1647   4.9907   4.9907

          k = 0.8750-0.8750 0.8750 (   752 PWs)   bands (ev):

    -5.6064   4.4731   5.7822   5.7822

          k = 0.3750 0.3750 1.1250 (   759 PWs)   bands (ev):

    -2.9226  -0.5348   2.1235   4.2023

          k = 0.8750-0.1250 1.6250 (   754 PWs)   bands (ev):

    -2.3822  -0.8330   2.0616   3.1473

          k = 1.1250 0.3750-0.3750 (   759 PWs)   bands (ev):

    -2.9226  -0.5348   2.1235   4.2023

          k = 1.6250-0.1250 0.1250 (   766 PWs)   bands (ev):

    -5.0748   2.8534   4.7659   4.8347

     highest occupied level (ev):     5.7822

     Writing output data file silicon.10.304.save

                                                                                

     bravais-lattice index     =            2
     lattice parameter (alat)  =      10.3040  a.u.
     unit-cell volume          =     273.5001 (a.u.)^3
     number of atoms/cell      =            2
     number of atomic types    =            1
     kinetic-energy cut-off    =      30.0000  Ry
     charge density cut-off    =     240.0000  Ry
     convergence threshold     =      1.0E-12
     beta                      =       0.7000
     number of iterations used =            4
     Exchange-correlation      = SLA  PW   PBE  PBE ( 1  4  3  4 0 0)


     celldm(1)=   10.30400  celldm(2)=    0.00000  celldm(3)=    0.00000
     celldm(4)=    0.00000  celldm(5)=    0.00000  celldm(6)=    0.00000

     crystal axes: (cart. coord. in units of alat)
               a(1) = ( -0.5000  0.0000  0.5000 )  
               a(2) = (  0.0000  0.5000  0.5000 )  
               a(3) = ( -0.5000  0.5000  0.0000 )  

     reciprocal axes: (cart. coord. in units 2 pi/alat)
               b(1) = ( -1.0000 -1.0000  1.0000 )  
               b(2) = (  1.0000  1.0000  1.0000 )  
               b(3) = ( -1.0000  1.0000 -1.0000 )  


     Atoms inside the unit cell: 

     Cartesian axes

     site n.  atom      mass           positions (alat units)
        1     Si  28.0860   tau(    1) = (    0.00000    0.00000    0.00000  )
        2     Si  28.0860   tau(    2) = (    0.25000    0.25000    0.25000  )

     Computing dynamical matrix for 
                    q = (   0.5000000  -0.5000000   0.5000000 )

     13 Sym.Ops. (with q -> -q+G )


     G cutoff =  645.4509  (   4288 G-vectors)     FFT grid: ( 36, 36, 36)
     G cutoff =  322.7254  (   1497 G-vectors)  smooth grid: ( 25, 25, 25)
     number of k points=    60

     PseudoPot. # 1 for Si read from file:
     /home/s1333534/quantum_espresso/qe-6.1/pseudo/si_pbe_v1.uspp.F.UPF.txt
     MD5 check sum: a056efeee980c13900f22a371efd63c1
     Pseudo is Ultrasoft + core correction, Zval =  4.0
     Generated by new atomic code, or converted to UPF format
     Using radial grid of  899 points,  6 beta functions with: 
                l(1) =   0
                l(2) =   0
                l(3) =   1
                l(4) =   1
                l(5) =   2
                l(6) =   2
     Q(r) pseudized with  8 coefficients,  rinner =    0.900   0.900   0.900
                                                       0.900   0.900


     Atomic displacements:
     There are   4 irreducible representations

     Representation     1      1 modes -  To be done

     Representation     2      1 modes -  To be done

     Representation     3      2 modes -  To be done

     Representation     4      2 modes -  To be done



     Alpha used in Ewald sum =   2.5000
     PHONON       :    27.50s CPU        35.22s WALL



     Representation #  1 mode #   1

     Self-consistent Calculation

      iter #   1 total cpu time :    35.5 secs   av.it.:   5.1
      thresh= 1.000E-02 alpha_mix =  0.700 |ddv_scf|^2 =  4.216E-06

      iter #   2 total cpu time :    35.9 secs   av.it.:   9.9
      thresh= 2.053E-04 alpha_mix =  0.700 |ddv_scf|^2 =  3.842E-06

      iter #   3 total cpu time :    36.4 secs   av.it.:   9.2
      thresh= 1.960E-04 alpha_mix =  0.700 |ddv_scf|^2 =  2.322E-09

      iter #   4 total cpu time :    36.8 secs   av.it.:   9.4
      thresh= 4.819E-06 alpha_mix =  0.700 |ddv_scf|^2 =  2.241E-11

      iter #   5 total cpu time :    37.2 secs   av.it.:   9.3
      thresh= 4.734E-07 alpha_mix =  0.700 |ddv_scf|^2 =  3.077E-13

     End of self-consistent calculation

     Convergence has been achieved 


     Representation #  2 mode #   2

     Self-consistent Calculation

      iter #   1 total cpu time :    37.7 secs   av.it.:   6.0
      thresh= 1.000E-02 alpha_mix =  0.700 |ddv_scf|^2 =  5.998E-05

      iter #   2 total cpu time :    38.1 secs   av.it.:   9.8
      thresh= 7.745E-04 alpha_mix =  0.700 |ddv_scf|^2 =  1.863E-04

      iter #   3 total cpu time :    38.5 secs   av.it.:   8.6
      thresh= 1.365E-03 alpha_mix =  0.700 |ddv_scf|^2 =  1.294E-08

      iter #   4 total cpu time :    38.9 secs   av.it.:   9.8
      thresh= 1.138E-05 alpha_mix =  0.700 |ddv_scf|^2 =  6.587E-10

      iter #   5 total cpu time :    39.3 secs   av.it.:  10.2
      thresh= 2.567E-06 alpha_mix =  0.700 |ddv_scf|^2 =  2.020E-11

      iter #   6 total cpu time :    39.7 secs   av.it.:   9.7
      thresh= 4.494E-07 alpha_mix =  0.700 |ddv_scf|^2 =  1.527E-13

     End of self-consistent calculation

     Convergence has been achieved 


     Representation #  3 modes #   3  4

     Self-consistent Calculation

      iter #   1 total cpu time :    40.4 secs   av.it.:   5.1
      thresh= 1.000E-02 alpha_mix =  0.700 |ddv_scf|^2 =  2.702E-08

      iter #   2 total cpu time :    41.1 secs   av.it.:  10.9
      thresh= 1.644E-05 alpha_mix =  0.700 |ddv_scf|^2 =  1.595E-09

      iter #   3 total cpu time :    41.9 secs   av.it.:  10.7
      thresh= 3.994E-06 alpha_mix =  0.700 |ddv_scf|^2 =  5.289E-11

      iter #   4 total cpu time :    42.6 secs   av.it.:  10.7
      thresh= 7.273E-07 alpha_mix =  0.700 |ddv_scf|^2 =  4.332E-13

     End of self-consistent calculation

     Convergence has been achieved 


     Representation #  4 modes #   5  6

     Self-consistent Calculation

      iter #   1 total cpu time :    43.5 secs   av.it.:   5.1
      thresh= 1.000E-02 alpha_mix =  0.700 |ddv_scf|^2 =  1.382E-07

      iter #   2 total cpu time :    44.3 secs   av.it.:  11.1
      thresh= 3.717E-05 alpha_mix =  0.700 |ddv_scf|^2 =  1.108E-08

      iter #   3 total cpu time :    45.1 secs   av.it.:  10.9
      thresh= 1.053E-05 alpha_mix =  0.700 |ddv_scf|^2 =  2.916E-10

      iter #   4 total cpu time :    45.8 secs   av.it.:   9.9
      thresh= 1.708E-06 alpha_mix =  0.700 |ddv_scf|^2 =  5.251E-13

     End of self-consistent calculation

     Convergence has been achieved 

     Number of q in the star =    4
     List of q in the star:
          1   0.500000000  -0.500000000   0.500000000
          2   0.500000000   0.500000000   0.500000000
          3  -0.500000000   0.500000000   0.500000000
          4   0.500000000   0.500000000  -0.500000000

     Diagonalizing the dynamical matrix

     q = (    0.500000000  -0.500000000   0.500000000 ) 

 **************************************************************************
     freq (    1) =       3.257608 [THz] =     108.662117 [cm-1]
     freq (    2) =       3.257608 [THz] =     108.662117 [cm-1]
     freq (    3) =      11.131786 [THz] =     371.316429 [cm-1]
     freq (    4) =      12.133704 [THz] =     404.736794 [cm-1]
     freq (    5) =      14.432856 [THz] =     481.428269 [cm-1]
     freq (    6) =      14.432856 [THz] =     481.428269 [cm-1]
 **************************************************************************

     Calculation of q =    0.0000000   0.5000000   0.0000000

   Info: using nr1, nr2, nr3 values from input

   Info: using nr1, nr2, nr3 values from input

     Parallelization info
     --------------------
     sticks:   dense  smooth     PW     G-vecs:    dense   smooth      PW
     Min         217     108     37                 4287     1495     309
     Max         218     109     38                 4289     1498     312
     Sum         871     433    151                17153     5985    1243



     bravais-lattice index     =            2
     lattice parameter (alat)  =      10.3040  a.u.
     unit-cell volume          =     273.5001 (a.u.)^3
     number of atoms/cell      =            2
     number of atomic types    =            1
     number of electrons       =         8.00
     number of Kohn-Sham states=            4
     kinetic-energy cutoff     =      30.0000  Ry
     charge density cutoff     =     240.0000  Ry
     Exchange-correlation      = SLA  PW   PBE  PBE ( 1  4  3  4 0 0)

     celldm(1)=  10.304000  celldm(2)=   0.000000  celldm(3)=   0.000000
     celldm(4)=   0.000000  celldm(5)=   0.000000  celldm(6)=   0.000000

     crystal axes: (cart. coord. in units of alat)
               a(1) = (  -0.500000   0.000000   0.500000 )  
               a(2) = (   0.000000   0.500000   0.500000 )  
               a(3) = (  -0.500000   0.500000   0.000000 )  

     reciprocal axes: (cart. coord. in units 2 pi/alat)
               b(1) = ( -1.000000 -1.000000  1.000000 )  
               b(2) = (  1.000000  1.000000  1.000000 )  
               b(3) = ( -1.000000  1.000000 -1.000000 )  


     PseudoPot. # 1 for Si read from file:
     /home/s1333534/quantum_espresso/qe-6.1/pseudo/si_pbe_v1.uspp.F.UPF.txt
     MD5 check sum: a056efeee980c13900f22a371efd63c1
     Pseudo is Ultrasoft + core correction, Zval =  4.0
     Generated by new atomic code, or converted to UPF format
     Using radial grid of  899 points,  6 beta functions with: 
                l(1) =   0
                l(2) =   0
                l(3) =   1
                l(4) =   1
                l(5) =   2
                l(6) =   2
     Q(r) pseudized with  8 coefficients,  rinner =    0.900   0.900   0.900
                                                       0.900   0.900

     atomic species   valence    mass     pseudopotential
        Si             4.00    28.08600     Si( 1.00)

     48 Sym. Ops., with inversion, found



   Cartesian axes

     site n.     atom                  positions (alat units)
         1           Si  tau(   1) = (   0.0000000   0.0000000   0.0000000  )
         2           Si  tau(   2) = (   0.2500000   0.2500000   0.2500000  )

     number of k points=    80
                       cart. coord. in units 2pi/alat
        k(    1) = (  -0.1250000   0.1250000   0.1250000), wk =   0.0312500
        k(    2) = (  -0.1250000   0.6250000   0.1250000), wk =   0.0000000
        k(    3) = (  -0.3750000   0.3750000  -0.1250000), wk =   0.0625000
        k(    4) = (  -0.3750000   0.8750000  -0.1250000), wk =   0.0000000
        k(    5) = (   0.3750000  -0.3750000   0.6250000), wk =   0.0625000
        k(    6) = (   0.3750000   0.1250000   0.6250000), wk =   0.0000000
        k(    7) = (   0.1250000  -0.1250000   0.3750000), wk =   0.0625000
        k(    8) = (   0.1250000   0.3750000   0.3750000), wk =   0.0000000
        k(    9) = (  -0.1250000   0.6250000   0.1250000), wk =   0.0312500
        k(   10) = (  -0.1250000   1.1250000   0.1250000), wk =   0.0000000
        k(   11) = (   0.6250000  -0.1250000   0.8750000), wk =   0.0625000
        k(   12) = (   0.6250000   0.3750000   0.8750000), wk =   0.0000000
        k(   13) = (   0.3750000   0.1250000   0.6250000), wk =   0.0625000
        k(   14) = (   0.3750000   0.6250000   0.6250000), wk =   0.0000000
        k(   15) = (  -0.1250000  -0.8750000   0.1250000), wk =   0.0312500
        k(   16) = (  -0.1250000  -0.3750000   0.1250000), wk =   0.0000000
        k(   17) = (  -0.3750000   0.3750000   0.3750000), wk =   0.0312500
        k(   18) = (  -0.3750000   0.8750000   0.3750000), wk =   0.0000000
        k(   19) = (   0.3750000  -0.3750000   1.1250000), wk =   0.0625000
        k(   20) = (   0.3750000   0.1250000   1.1250000), wk =   0.0000000
        k(   21) = (  -0.1250000  -0.1250000   0.1250000), wk =   0.0312500
        k(   22) = (  -0.1250000   0.3750000   0.1250000), wk =   0.0000000
        k(   23) = (   0.1250000  -0.3750000   0.3750000), wk =   0.0625000
        k(   24) = (   0.1250000   0.1250000   0.3750000), wk =   0.0000000
        k(   25) = (   0.3750000  -0.1250000   0.3750000), wk =   0.0312500
        k(   26) = (   0.3750000   0.3750000   0.3750000), wk =   0.0000000
        k(   27) = (   0.3750000   0.1250000   0.3750000), wk =   0.0312500
        k(   28) = (   0.3750000   0.6250000   0.3750000), wk =   0.0000000
        k(   29) = (  -0.6250000   0.3750000  -0.3750000), wk =   0.0625000
        k(   30) = (  -0.6250000   0.8750000  -0.3750000), wk =   0.0000000
        k(   31) = (  -0.3750000   0.6250000  -0.3750000), wk =   0.0312500
        k(   32) = (  -0.3750000   1.1250000  -0.3750000), wk =   0.0000000
        k(   33) = (  -0.3750000  -0.6250000  -0.3750000), wk =   0.0312500
        k(   34) = (  -0.3750000  -0.1250000  -0.3750000), wk =   0.0000000
        k(   35) = (  -0.3750000   0.1250000  -0.1250000), wk =   0.0625000
        k(   36) = (  -0.3750000   0.6250000  -0.1250000), wk =   0.0000000
        k(   37) = (  -0.1250000   0.3750000  -0.1250000), wk =   0.0312500
        k(   38) = (  -0.1250000   0.8750000  -0.1250000), wk =   0.0000000
        k(   39) = (  -0.1250000  -0.3750000  -0.1250000), wk =   0.0312500
        k(   40) = (  -0.1250000   0.1250000  -0.1250000), wk =   0.0000000
        k(   41) = (  -0.1250000  -0.6250000   0.1250000), wk =   0.0312500
        k(   42) = (  -0.1250000  -0.1250000   0.1250000), wk =   0.0000000
        k(   43) = (   0.6250000  -0.1250000  -0.1250000), wk =   0.0625000
        k(   44) = (   0.6250000   0.3750000  -0.1250000), wk =   0.0000000
        k(   45) = (   0.6250000   0.1250000   0.1250000), wk =   0.0625000
        k(   46) = (   0.6250000   0.6250000   0.1250000), wk =   0.0000000
        k(   47) = (  -0.8750000   0.1250000  -0.6250000), wk =   0.0625000
        k(   48) = (  -0.8750000   0.6250000  -0.6250000), wk =   0.0000000
        k(   49) = (  -0.1250000   0.6250000  -0.8750000), wk =   0.0625000
        k(   50) = (  -0.1250000   1.1250000  -0.8750000), wk =   0.0000000
        k(   51) = (  -0.1250000   0.8750000  -0.6250000), wk =   0.0625000
        k(   52) = (  -0.1250000   1.3750000  -0.6250000), wk =   0.0000000
        k(   53) = (  -0.1250000  -0.8750000  -0.6250000), wk =   0.0625000
        k(   54) = (  -0.1250000  -0.3750000  -0.6250000), wk =   0.0000000
        k(   55) = (   0.8750000  -0.6250000   0.1250000), wk =   0.0625000
        k(   56) = (   0.8750000  -0.1250000   0.1250000), wk =   0.0000000
        k(   57) = (  -0.6250000  -0.1250000  -0.3750000), wk =   0.0625000
        k(   58) = (  -0.6250000   0.3750000  -0.3750000), wk =   0.0000000
        k(   59) = (   0.1250000   0.3750000  -0.6250000), wk =   0.0625000
        k(   60) = (   0.1250000   0.8750000  -0.6250000), wk =   0.0000000
        k(   61) = (   0.1250000   0.6250000  -0.3750000), wk =   0.0625000
        k(   62) = (   0.1250000   1.1250000  -0.3750000), wk =   0.0000000
        k(   63) = (   0.1250000  -0.6250000  -0.3750000), wk =   0.0625000
        k(   64) = (   0.1250000  -0.1250000  -0.3750000), wk =   0.0000000
        k(   65) = (   0.6250000  -0.3750000  -0.1250000), wk =   0.0625000
        k(   66) = (   0.6250000   0.1250000  -0.1250000), wk =   0.0000000
        k(   67) = (  -0.1250000   0.8750000   0.1250000), wk =   0.0312500
        k(   68) = (  -0.1250000   1.3750000   0.1250000), wk =   0.0000000
        k(   69) = (  -0.8750000  -0.1250000  -0.1250000), wk =   0.0625000
        k(   70) = (  -0.8750000   0.3750000  -0.1250000), wk =   0.0000000
        k(   71) = (  -0.8750000   0.1250000   0.1250000), wk =   0.0625000
        k(   72) = (  -0.8750000   0.6250000   0.1250000), wk =   0.0000000
        k(   73) = (  -0.3750000  -0.3750000   0.3750000), wk =   0.0312500
        k(   74) = (  -0.3750000   0.1250000   0.3750000), wk =   0.0000000
        k(   75) = (  -1.1250000   0.3750000  -0.3750000), wk =   0.0625000
        k(   76) = (  -1.1250000   0.8750000  -0.3750000), wk =   0.0000000
        k(   77) = (  -0.3750000   1.1250000  -0.3750000), wk =   0.0312500
        k(   78) = (  -0.3750000   1.6250000  -0.3750000), wk =   0.0000000
        k(   79) = (  -0.3750000  -1.1250000  -0.3750000), wk =   0.0312500
        k(   80) = (  -0.3750000  -0.6250000  -0.3750000), wk =   0.0000000

     Dense  grid:    17153 G-vectors     FFT dimensions: (  36,  36,  36)

     Smooth grid:     5985 G-vectors     FFT dimensions: (  25,  25,  25)

     Estimated max dynamical RAM per process >       1.51MB

     Estimated total allocated dynamical RAM >       6.05MB

     The potential is recalculated from file :
     ./_ph0/silicon.10.304.save/charge-density.dat

     Starting wfc are    8 atomic wfcs

     Band Structure Calculation
     Davidson diagonalization with overlap

     ethr =  1.25E-10,  avg # of iterations = 12.2

     total cpu time spent up to now is        3.5 secs

     End of band structure calculation

          k =-0.1250 0.1250 0.1250 (   752 PWs)   bands (ev):

    -5.6064   4.4731   5.7822   5.7822

          k =-0.1250 0.6250 0.1250 (   762 PWs)   bands (ev):

    -4.0360   1.1404   3.4295   3.8858

          k =-0.3750 0.3750-0.1250 (   757 PWs)   bands (ev):

    -4.5722   1.4672   3.7825   5.3000

          k =-0.3750 0.8750-0.1250 (   754 PWs)   bands (ev):

    -2.3822  -0.8330   2.0616   3.1473

          k = 0.3750-0.3750 0.6250 (   760 PWs)   bands (ev):

    -3.4216  -0.6283   3.8072   4.5221

          k = 0.3750 0.1250 0.6250 (   759 PWs)   bands (ev):

    -3.6165   0.2566   2.7845   4.1622

          k = 0.1250-0.1250 0.3750 (   766 PWs)   bands (ev):

    -5.0748   2.8534   4.7659   4.8347

          k = 0.1250 0.3750 0.3750 (   757 PWs)   bands (ev):

    -4.5722   1.4672   3.7825   5.3000

          k =-0.1250 0.6250 0.1250 (   762 PWs)   bands (ev):

    -4.0360   1.1404   3.4295   3.8858

          k =-0.1250 1.1250 0.1250 (   759 PWs)   bands (ev):

    -2.5532  -0.7339   2.6771   3.4159

          k = 0.6250-0.1250 0.8750 (   754 PWs)   bands (ev):

    -2.3822  -0.8330   2.0616   3.1473

          k = 0.6250 0.3750 0.8750 (   759 PWs)   bands (ev):

    -3.6165   0.2566   2.7845   4.1622

          k = 0.3750 0.1250 0.6250 (   759 PWs)   bands (ev):

    -3.6165   0.2566   2.7845   4.1622

          k = 0.3750 0.6250 0.6250 (   760 PWs)   bands (ev):

    -3.4216  -0.6283   3.8072   4.5221

          k =-0.1250-0.8750 0.1250 (   759 PWs)   bands (ev):

    -2.5532  -0.7339   2.6771   3.4159

          k =-0.1250-0.3750 0.1250 (   766 PWs)   bands (ev):

    -5.0748   2.8534   4.7659   4.8347

          k =-0.3750 0.3750 0.3750 (   763 PWs)   bands (ev):

    -4.1352   0.1647   4.9907   4.9907

          k =-0.3750 0.8750 0.3750 (   759 PWs)   bands (ev):

    -2.9226  -0.5348   2.1235   4.2023

          k = 0.3750-0.3750 1.1250 (   759 PWs)   bands (ev):

    -2.9226  -0.5348   2.1235   4.2023

          k = 0.3750 0.1250 1.1250 (   754 PWs)   bands (ev):

    -2.3822  -0.8330   2.0616   3.1473

          k =-0.1250-0.1250 0.1250 (   752 PWs)   bands (ev):

    -5.6064   4.4731   5.7822   5.7822

          k =-0.1250 0.3750 0.1250 (   766 PWs)   bands (ev):

    -5.0748   2.8534   4.7659   4.8347

          k = 0.1250-0.3750 0.3750 (   757 PWs)   bands (ev):

    -4.5722   1.4672   3.7825   5.3000

          k = 0.1250 0.1250 0.3750 (   766 PWs)   bands (ev):

    -5.0748   2.8534   4.7659   4.8347

          k = 0.3750-0.1250 0.3750 (   757 PWs)   bands (ev):

    -4.5722   1.4672   3.7825   5.3000

          k = 0.3750 0.3750 0.3750 (   763 PWs)   bands (ev):

    -4.1352   0.1647   4.9907   4.9907

          k = 0.3750 0.1250 0.3750 (   757 PWs)   bands (ev):

    -4.5722   1.4672   3.7825   5.3000

          k = 0.3750 0.6250 0.3750 (   760 PWs)   bands (ev):

    -3.4216  -0.6283   3.8072   4.5221

          k =-0.6250 0.3750-0.3750 (   760 PWs)   bands (ev):

    -3.4216  -0.6283   3.8072   4.5221

          k =-0.6250 0.8750-0.3750 (   759 PWs)   bands (ev):

    -3.6165   0.2566   2.7845   4.1622

          k =-0.3750 0.6250-0.3750 (   760 PWs)   bands (ev):

    -3.4216  -0.6283   3.8072   4.5221

          k =-0.3750 1.1250-0.3750 (   759 PWs)   bands (ev):

    -2.9226  -0.5348   2.1235   4.2023

          k =-0.3750-0.6250-0.3750 (   760 PWs)   bands (ev):

    -3.4216  -0.6283   3.8072   4.5221

          k =-0.3750-0.1250-0.3750 (   757 PWs)   bands (ev):

    -4.5722   1.4672   3.7825   5.3000

          k =-0.3750 0.1250-0.1250 (   766 PWs)   bands (ev):

    -5.0748   2.8534   4.7659   4.8347

          k =-0.3750 0.6250-0.1250 (   759 PWs)   bands (ev):

    -3.6165   0.2566   2.7845   4.1622

          k =-0.1250 0.3750-0.1250 (   766 PWs)   bands (ev):

    -5.0748   2.8534   4.7659   4.8347

          k =-0.1250 0.8750-0.1250 (   759 PWs)   bands (ev):

    -2.5532  -0.7339   2.6771   3.4159

          k =-0.1250-0.3750-0.1250 (   766 PWs)   bands (ev):

    -5.0748   2.8534   4.7659   4.8347

          k =-0.1250 0.1250-0.1250 (   752 PWs)   bands (ev):

    -5.6064   4.4731   5.7822   5.7822

          k =-0.1250-0.6250 0.1250 (   762 PWs)   bands (ev):

    -4.0360   1.1404   3.4295   3.8858

          k =-0.1250-0.1250 0.1250 (   752 PWs)   bands (ev):

    -5.6064   4.4731   5.7822   5.7822

          k = 0.6250-0.1250-0.1250 (   762 PWs)   bands (ev):

    -4.0360   1.1404   3.4295   3.8858

          k = 0.6250 0.3750-0.1250 (   759 PWs)   bands (ev):

    -3.6165   0.2566   2.7845   4.1622

          k = 0.6250 0.1250 0.1250 (   762 PWs)   bands (ev):

    -4.0360   1.1404   3.4295   3.8858

          k = 0.6250 0.6250 0.1250 (   759 PWs)   bands (ev):

    -2.9226  -0.5348   2.1235   4.2023

          k =-0.8750 0.1250-0.6250 (   754 PWs)   bands (ev):

    -2.3822  -0.8330   2.0616   3.1473

          k =-0.8750 0.6250-0.6250 (   757 PWs)   bands (ev):

    -4.5722   1.4672   3.7825   5.3000

          k =-0.1250 0.6250-0.8750 (   754 PWs)   bands (ev):

    -2.3822  -0.8330   2.0616   3.1473

          k =-0.1250 1.1250-0.8750 (   759 PWs)   bands (ev):

    -2.5532  -0.7339   2.6771   3.4159

          k =-0.1250 0.8750-0.6250 (   754 PWs)   bands (ev):

    -2.3822  -0.8330   2.0616   3.1473

          k =-0.1250 1.3750-0.6250 (   759 PWs)   bands (ev):

    -2.9226  -0.5348   2.1235   4.2023

          k =-0.1250-0.8750-0.6250 (   754 PWs)   bands (ev):

    -2.3822  -0.8330   2.0616   3.1473

          k =-0.1250-0.3750-0.6250 (   759 PWs)   bands (ev):

    -3.6165   0.2566   2.7845   4.1622

          k = 0.8750-0.6250 0.1250 (   754 PWs)   bands (ev):

    -2.3822  -0.8330   2.0616   3.1473

          k = 0.8750-0.1250 0.1250 (   759 PWs)   bands (ev):

    -2.5532  -0.7339   2.6771   3.4159

          k =-0.6250-0.1250-0.3750 (   759 PWs)   bands (ev):

    -3.6165   0.2566   2.7845   4.1622

          k =-0.6250 0.3750-0.3750 (   760 PWs)   bands (ev):

    -3.4216  -0.6283   3.8072   4.5221

          k = 0.1250 0.3750-0.6250 (   759 PWs)   bands (ev):

    -3.6165   0.2566   2.7845   4.1622

          k = 0.1250 0.8750-0.6250 (   754 PWs)   bands (ev):

    -2.3822  -0.8330   2.0616   3.1473

          k = 0.1250 0.6250-0.3750 (   759 PWs)   bands (ev):

    -3.6165   0.2566   2.7845   4.1622

          k = 0.1250 1.1250-0.3750 (   754 PWs)   bands (ev):

    -2.3822  -0.8330   2.0616   3.1473

          k = 0.1250-0.6250-0.3750 (   759 PWs)   bands (ev):

    -3.6165   0.2566   2.7845   4.1622

          k = 0.1250-0.1250-0.3750 (   766 PWs)   bands (ev):

    -5.0748   2.8534   4.7659   4.8347

          k = 0.6250-0.3750-0.1250 (   759 PWs)   bands (ev):

    -3.6165   0.2566   2.7845   4.1622

          k = 0.6250 0.1250-0.1250 (   762 PWs)   bands (ev):

    -4.0360   1.1404   3.4295   3.8858

          k =-0.1250 0.8750 0.1250 (   759 PWs)   bands (ev):

    -2.5532  -0.7339   2.6771   3.4159

          k =-0.1250 1.3750 0.1250 (   762 PWs)   bands (ev):

    -4.0360   1.1404   3.4295   3.8858

          k =-0.8750-0.1250-0.1250 (   759 PWs)   bands (ev):

    -2.5532  -0.7339   2.6771   3.4159

          k =-0.8750 0.3750-0.1250 (   754 PWs)   bands (ev):

    -2.3822  -0.8330   2.0616   3.1473

          k =-0.8750 0.1250 0.1250 (   759 PWs)   bands (ev):

    -2.5532  -0.7339   2.6771   3.4159

          k =-0.8750 0.6250 0.1250 (   754 PWs)   bands (ev):

    -2.3822  -0.8330   2.0616   3.1473

          k =-0.3750-0.3750 0.3750 (   763 PWs)   bands (ev):

    -4.1352   0.1647   4.9907   4.9907

          k =-0.3750 0.1250 0.3750 (   757 PWs)   bands (ev):

    -4.5722   1.4672   3.7825   5.3000

          k =-1.1250 0.3750-0.3750 (   759 PWs)   bands (ev):

    -2.9226  -0.5348   2.1235   4.2023

          k =-1.1250 0.8750-0.3750 (   762 PWs)   bands (ev):

    -4.0360   1.1404   3.4295   3.8858

          k =-0.3750 1.1250-0.3750 (   759 PWs)   bands (ev):

    -2.9226  -0.5348   2.1235   4.2023

          k =-0.3750 1.6250-0.3750 (   763 PWs)   bands (ev):

    -4.1352   0.1647   4.9907   4.9907

          k =-0.3750-1.1250-0.3750 (   759 PWs)   bands (ev):

    -2.9226  -0.5348   2.1235   4.2023

          k =-0.3750-0.6250-0.3750 (   760 PWs)   bands (ev):

    -3.4216  -0.6283   3.8072   4.5221

     highest occupied level (ev):     5.7822

     Writing output data file silicon.10.304.save

                                                                                

     bravais-lattice index     =            2
     lattice parameter (alat)  =      10.3040  a.u.
     unit-cell volume          =     273.5001 (a.u.)^3
     number of atoms/cell      =            2
     number of atomic types    =            1
     kinetic-energy cut-off    =      30.0000  Ry
     charge density cut-off    =     240.0000  Ry
     convergence threshold     =      1.0E-12
     beta                      =       0.7000
     number of iterations used =            4
     Exchange-correlation      = SLA  PW   PBE  PBE ( 1  4  3  4 0 0)


     celldm(1)=   10.30400  celldm(2)=    0.00000  celldm(3)=    0.00000
     celldm(4)=    0.00000  celldm(5)=    0.00000  celldm(6)=    0.00000

     crystal axes: (cart. coord. in units of alat)
               a(1) = ( -0.5000  0.0000  0.5000 )  
               a(2) = (  0.0000  0.5000  0.5000 )  
               a(3) = ( -0.5000  0.5000  0.0000 )  

     reciprocal axes: (cart. coord. in units 2 pi/alat)
               b(1) = ( -1.0000 -1.0000  1.0000 )  
               b(2) = (  1.0000  1.0000  1.0000 )  
               b(3) = ( -1.0000  1.0000 -1.0000 )  


     Atoms inside the unit cell: 

     Cartesian axes

     site n.  atom      mass           positions (alat units)
        1     Si  28.0860   tau(    1) = (    0.00000    0.00000    0.00000  )
        2     Si  28.0860   tau(    2) = (    0.25000    0.25000    0.25000  )

     Computing dynamical matrix for 
                    q = (   0.0000000   0.5000000   0.0000000 )

      8 Sym.Ops. (no q -> -q+G )


     G cutoff =  645.4509  (   4288 G-vectors)     FFT grid: ( 36, 36, 36)
     G cutoff =  322.7254  (   1496 G-vectors)  smooth grid: ( 25, 25, 25)
     number of k points=    80

     PseudoPot. # 1 for Si read from file:
     /home/s1333534/quantum_espresso/qe-6.1/pseudo/si_pbe_v1.uspp.F.UPF.txt
     MD5 check sum: a056efeee980c13900f22a371efd63c1
     Pseudo is Ultrasoft + core correction, Zval =  4.0
     Generated by new atomic code, or converted to UPF format
     Using radial grid of  899 points,  6 beta functions with: 
                l(1) =   0
                l(2) =   0
                l(3) =   1
                l(4) =   1
                l(5) =   2
                l(6) =   2
     Q(r) pseudized with  8 coefficients,  rinner =    0.900   0.900   0.900
                                                       0.900   0.900

     Mode symmetry, C_4v (4mm)  point group:


     Atomic displacements:
     There are   4 irreducible representations

     Representation     1      1 modes -A_1  G_1 D_1  To be done

     Representation     2      1 modes -B_2  G_4 D_2'  To be done

     Representation     3      2 modes -E    G_5 D_5  To be done

     Representation     4      2 modes -E    G_5 D_5  To be done



     Alpha used in Ewald sum =   2.5000
     PHONON       :    37.23s CPU        48.21s WALL



     Representation #  1 mode #   1

     Self-consistent Calculation

      iter #   1 total cpu time :    48.6 secs   av.it.:   6.2
      thresh= 1.000E-02 alpha_mix =  0.700 |ddv_scf|^2 =  5.168E-04

      iter #   2 total cpu time :    49.0 secs   av.it.:   9.2
      thresh= 2.273E-03 alpha_mix =  0.700 |ddv_scf|^2 =  6.832E-03

      iter #   3 total cpu time :    49.4 secs   av.it.:   7.3
      thresh= 8.266E-03 alpha_mix =  0.700 |ddv_scf|^2 =  1.039E-08

      iter #   4 total cpu time :    49.8 secs   av.it.:  10.1
      thresh= 1.019E-05 alpha_mix =  0.700 |ddv_scf|^2 =  1.003E-09

      iter #   5 total cpu time :    50.3 secs   av.it.:   9.6
      thresh= 3.167E-06 alpha_mix =  0.700 |ddv_scf|^2 =  1.158E-10

      iter #   6 total cpu time :    50.7 secs   av.it.:   9.3
      thresh= 1.076E-06 alpha_mix =  0.700 |ddv_scf|^2 =  3.229E-13

     End of self-consistent calculation

     Convergence has been achieved 


     Representation #  2 mode #   2

     Self-consistent Calculation

      iter #   1 total cpu time :    51.2 secs   av.it.:   5.1
      thresh= 1.000E-02 alpha_mix =  0.700 |ddv_scf|^2 =  8.132E-07

      iter #   2 total cpu time :    51.7 secs   av.it.:  10.4
      thresh= 9.018E-05 alpha_mix =  0.700 |ddv_scf|^2 =  2.200E-07

      iter #   3 total cpu time :    52.2 secs   av.it.:   9.9
      thresh= 4.690E-05 alpha_mix =  0.700 |ddv_scf|^2 =  2.233E-09

      iter #   4 total cpu time :    52.6 secs   av.it.:  10.1
      thresh= 4.726E-06 alpha_mix =  0.700 |ddv_scf|^2 =  8.604E-11

      iter #   5 total cpu time :    53.1 secs   av.it.:  10.3
      thresh= 9.276E-07 alpha_mix =  0.700 |ddv_scf|^2 =  5.175E-13

     End of self-consistent calculation

     Convergence has been achieved 


     Representation #  3 modes #   3  4

     Self-consistent Calculation

      iter #   1 total cpu time :    53.8 secs   av.it.:   5.2
      thresh= 1.000E-02 alpha_mix =  0.700 |ddv_scf|^2 =  1.443E-07

      iter #   2 total cpu time :    54.7 secs   av.it.:  11.5
      thresh= 3.798E-05 alpha_mix =  0.700 |ddv_scf|^2 =  1.988E-08

      iter #   3 total cpu time :    55.6 secs   av.it.:  11.1
      thresh= 1.410E-05 alpha_mix =  0.700 |ddv_scf|^2 =  3.349E-10

      iter #   4 total cpu time :    56.4 secs   av.it.:  10.7
      thresh= 1.830E-06 alpha_mix =  0.700 |ddv_scf|^2 =  7.789E-13

     End of self-consistent calculation

     Convergence has been achieved 


     Representation #  4 modes #   5  6

     Self-consistent Calculation

      iter #   1 total cpu time :    57.2 secs   av.it.:   5.3
      thresh= 1.000E-02 alpha_mix =  0.700 |ddv_scf|^2 =  1.323E-07

      iter #   2 total cpu time :    58.1 secs   av.it.:  11.4
      thresh= 3.637E-05 alpha_mix =  0.700 |ddv_scf|^2 =  1.773E-08

      iter #   3 total cpu time :    59.0 secs   av.it.:  11.2
      thresh= 1.332E-05 alpha_mix =  0.700 |ddv_scf|^2 =  3.432E-10

      iter #   4 total cpu time :    59.8 secs   av.it.:  11.0
      thresh= 1.852E-06 alpha_mix =  0.700 |ddv_scf|^2 =  8.396E-13

     End of self-consistent calculation

     Convergence has been achieved 

     Number of q in the star =    6
     List of q in the star:
          1   0.000000000   0.500000000   0.000000000
          2   0.000000000  -0.500000000   0.000000000
          3   0.500000000   0.000000000   0.000000000
          4   0.000000000   0.000000000   0.500000000
          5   0.000000000   0.000000000  -0.500000000
          6  -0.500000000   0.000000000   0.000000000

     Diagonalizing the dynamical matrix

     q = (    0.000000000   0.500000000   0.000000000 ) 

 **************************************************************************
     freq (    1) =       3.750628 [THz] =     125.107492 [cm-1]
     freq (    2) =       3.750628 [THz] =     125.107492 [cm-1]
     freq (    3) =       7.123748 [THz] =     237.622664 [cm-1]
     freq (    4) =      13.972958 [THz] =     466.087699 [cm-1]
     freq (    5) =      13.972958 [THz] =     466.087699 [cm-1]
     freq (    6) =      14.578240 [THz] =     486.277741 [cm-1]
 **************************************************************************

     Mode symmetry, C_4v (4mm)  point group:

     freq (  1 -  2) =        125.1  [cm-1]   --> E    G_5 D_5       
     freq (  3 -  3) =        237.6  [cm-1]   --> A_1  G_1 D_1       
     freq (  4 -  5) =        466.1  [cm-1]   --> E    G_5 D_5       
     freq (  6 -  6) =        486.3  [cm-1]   --> B_2  G_4 D_2'      

     Calculation of q =    0.7500000  -0.2500000   0.7500000

   Info: using nr1, nr2, nr3 values from input

   Info: using nr1, nr2, nr3 values from input

     Parallelization info
     --------------------
     sticks:   dense  smooth     PW     G-vecs:    dense   smooth      PW
     Min         217     108     40                 4287     1495     362
     Max         218     109     41                 4289     1498     366
     Sum         871     433    163                17153     5985    1459



     bravais-lattice index     =            2
     lattice parameter (alat)  =      10.3040  a.u.
     unit-cell volume          =     273.5001 (a.u.)^3
     number of atoms/cell      =            2
     number of atomic types    =            1
     number of electrons       =         8.00
     number of Kohn-Sham states=            4
     kinetic-energy cutoff     =      30.0000  Ry
     charge density cutoff     =     240.0000  Ry
     Exchange-correlation      = SLA  PW   PBE  PBE ( 1  4  3  4 0 0)

     celldm(1)=  10.304000  celldm(2)=   0.000000  celldm(3)=   0.000000
     celldm(4)=   0.000000  celldm(5)=   0.000000  celldm(6)=   0.000000

     crystal axes: (cart. coord. in units of alat)
               a(1) = (  -0.500000   0.000000   0.500000 )  
               a(2) = (   0.000000   0.500000   0.500000 )  
               a(3) = (  -0.500000   0.500000   0.000000 )  

     reciprocal axes: (cart. coord. in units 2 pi/alat)
               b(1) = ( -1.000000 -1.000000  1.000000 )  
               b(2) = (  1.000000  1.000000  1.000000 )  
               b(3) = ( -1.000000  1.000000 -1.000000 )  


     PseudoPot. # 1 for Si read from file:
     /home/s1333534/quantum_espresso/qe-6.1/pseudo/si_pbe_v1.uspp.F.UPF.txt
     MD5 check sum: a056efeee980c13900f22a371efd63c1
     Pseudo is Ultrasoft + core correction, Zval =  4.0
     Generated by new atomic code, or converted to UPF format
     Using radial grid of  899 points,  6 beta functions with: 
                l(1) =   0
                l(2) =   0
                l(3) =   1
                l(4) =   1
                l(5) =   2
                l(6) =   2
     Q(r) pseudized with  8 coefficients,  rinner =    0.900   0.900   0.900
                                                       0.900   0.900

     atomic species   valence    mass     pseudopotential
        Si             4.00    28.08600     Si( 1.00)

     48 Sym. Ops., with inversion, found



   Cartesian axes

     site n.     atom                  positions (alat units)
         1           Si  tau(   1) = (   0.0000000   0.0000000   0.0000000  )
         2           Si  tau(   2) = (   0.2500000   0.2500000   0.2500000  )

     number of k points=   288

     Number of k-points >= 100: set verbosity='high' to print them.

     Dense  grid:    17153 G-vectors     FFT dimensions: (  36,  36,  36)

     Smooth grid:     5985 G-vectors     FFT dimensions: (  25,  25,  25)

     Estimated max dynamical RAM per process >       1.51MB

     Estimated total allocated dynamical RAM >       6.05MB

     The potential is recalculated from file :
     ./_ph0/silicon.10.304.save/charge-density.dat

     Starting wfc are    8 atomic wfcs

     Band Structure Calculation
     Davidson diagonalization with overlap

     ethr =  1.25E-10,  avg # of iterations = 12.1

     total cpu time spent up to now is        6.7 secs

     End of band structure calculation

     Number of k-points >= 100: set verbosity='high' to print the bands.

     highest occupied level (ev):     5.7822

     Writing output data file silicon.10.304.save

                                                                                

     bravais-lattice index     =            2
     lattice parameter (alat)  =      10.3040  a.u.
     unit-cell volume          =     273.5001 (a.u.)^3
     number of atoms/cell      =            2
     number of atomic types    =            1
     kinetic-energy cut-off    =      30.0000  Ry
     charge density cut-off    =     240.0000  Ry
     convergence threshold     =      1.0E-12
     beta                      =       0.7000
     number of iterations used =            4
     Exchange-correlation      = SLA  PW   PBE  PBE ( 1  4  3  4 0 0)


     celldm(1)=   10.30400  celldm(2)=    0.00000  celldm(3)=    0.00000
     celldm(4)=    0.00000  celldm(5)=    0.00000  celldm(6)=    0.00000

     crystal axes: (cart. coord. in units of alat)
               a(1) = ( -0.5000  0.0000  0.5000 )  
               a(2) = (  0.0000  0.5000  0.5000 )  
               a(3) = ( -0.5000  0.5000  0.0000 )  

     reciprocal axes: (cart. coord. in units 2 pi/alat)
               b(1) = ( -1.0000 -1.0000  1.0000 )  
               b(2) = (  1.0000  1.0000  1.0000 )  
               b(3) = ( -1.0000  1.0000 -1.0000 )  


     Atoms inside the unit cell: 

     Cartesian axes

     site n.  atom      mass           positions (alat units)
        1     Si  28.0860   tau(    1) = (    0.00000    0.00000    0.00000  )
        2     Si  28.0860   tau(    2) = (    0.25000    0.25000    0.25000  )

     Computing dynamical matrix for 
                    q = (   0.7500000  -0.2500000   0.7500000 )

      2 Sym.Ops. (no q -> -q+G )


     G cutoff =  645.4509  (   4288 G-vectors)     FFT grid: ( 36, 36, 36)
     G cutoff =  322.7254  (   1497 G-vectors)  smooth grid: ( 25, 25, 25)
     number of k points=   288

     PseudoPot. # 1 for Si read from file:
     /home/s1333534/quantum_espresso/qe-6.1/pseudo/si_pbe_v1.uspp.F.UPF.txt
     MD5 check sum: a056efeee980c13900f22a371efd63c1
     Pseudo is Ultrasoft + core correction, Zval =  4.0
     Generated by new atomic code, or converted to UPF format
     Using radial grid of  899 points,  6 beta functions with: 
                l(1) =   0
                l(2) =   0
                l(3) =   1
                l(4) =   1
                l(5) =   2
                l(6) =   2
     Q(r) pseudized with  8 coefficients,  rinner =    0.900   0.900   0.900
                                                       0.900   0.900

     Mode symmetry, C_s (m)     point group:


     Atomic displacements:
     There are   6 irreducible representations

     Representation     1      1 modes -A'  To be done

     Representation     2      1 modes -A'  To be done

     Representation     3      1 modes -A'  To be done

     Representation     4      1 modes -A'  To be done

     Representation     5      1 modes -A''  To be done

     Representation     6      1 modes -A''  To be done



     Alpha used in Ewald sum =   2.5000
     PHONON       :  0m51.04s CPU     1m 4.99s WALL



     Representation #  1 mode #   1

     Self-consistent Calculation

      iter #   1 total cpu time :    65.9 secs   av.it.:   5.7
      thresh= 1.000E-02 alpha_mix =  0.700 |ddv_scf|^2 =  1.053E-05

      iter #   2 total cpu time :    67.2 secs   av.it.:  10.6
      thresh= 3.245E-04 alpha_mix =  0.700 |ddv_scf|^2 =  2.801E-05

      iter #   3 total cpu time :    68.4 secs   av.it.:   9.2
      thresh= 5.292E-04 alpha_mix =  0.700 |ddv_scf|^2 =  1.882E-07

      iter #   4 total cpu time :    69.6 secs   av.it.:   9.9
      thresh= 4.338E-05 alpha_mix =  0.700 |ddv_scf|^2 =  3.695E-09

      iter #   5 total cpu time :    70.9 secs   av.it.:  10.4
      thresh= 6.079E-06 alpha_mix =  0.700 |ddv_scf|^2 =  6.397E-10

      iter #   6 total cpu time :    72.2 secs   av.it.:  10.4
      thresh= 2.529E-06 alpha_mix =  0.700 |ddv_scf|^2 =  9.460E-12

      iter #   7 total cpu time :    73.5 secs   av.it.:  10.6
      thresh= 3.076E-07 alpha_mix =  0.700 |ddv_scf|^2 =  3.523E-13

     End of self-consistent calculation

     Convergence has been achieved 


     Representation #  2 mode #   2

     Self-consistent Calculation

      iter #   1 total cpu time :    74.5 secs   av.it.:   5.8
      thresh= 1.000E-02 alpha_mix =  0.700 |ddv_scf|^2 =  1.888E-05

      iter #   2 total cpu time :    75.8 secs   av.it.:  10.4
      thresh= 4.345E-04 alpha_mix =  0.700 |ddv_scf|^2 =  5.458E-05

      iter #   3 total cpu time :    77.0 secs   av.it.:   9.0
      thresh= 7.388E-04 alpha_mix =  0.700 |ddv_scf|^2 =  1.259E-07

      iter #   4 total cpu time :    78.3 secs   av.it.:  10.2
      thresh= 3.548E-05 alpha_mix =  0.700 |ddv_scf|^2 =  4.173E-09

      iter #   5 total cpu time :    79.6 secs   av.it.:  10.4
      thresh= 6.460E-06 alpha_mix =  0.700 |ddv_scf|^2 =  8.517E-10

      iter #   6 total cpu time :    80.9 secs   av.it.:  10.3
      thresh= 2.918E-06 alpha_mix =  0.700 |ddv_scf|^2 =  8.747E-12

      iter #   7 total cpu time :    82.2 secs   av.it.:  10.6
      thresh= 2.958E-07 alpha_mix =  0.700 |ddv_scf|^2 =  3.059E-13

     End of self-consistent calculation

     Convergence has been achieved 


     Representation #  3 mode #   3

     Self-consistent Calculation

      iter #   1 total cpu time :    83.5 secs   av.it.:   5.7
      thresh= 1.000E-02 alpha_mix =  0.700 |ddv_scf|^2 =  1.480E-05

      iter #   2 total cpu time :    84.8 secs   av.it.:  10.4
      thresh= 3.847E-04 alpha_mix =  0.700 |ddv_scf|^2 =  4.020E-05

      iter #   3 total cpu time :    86.0 secs   av.it.:   9.0
      thresh= 6.341E-04 alpha_mix =  0.700 |ddv_scf|^2 =  2.199E-07

      iter #   4 total cpu time :    87.4 secs   av.it.:  10.0
      thresh= 4.690E-05 alpha_mix =  0.700 |ddv_scf|^2 =  4.254E-09

      iter #   5 total cpu time :    88.8 secs   av.it.:  10.4
      thresh= 6.522E-06 alpha_mix =  0.700 |ddv_scf|^2 =  8.296E-10

      iter #   6 total cpu time :    90.1 secs   av.it.:  10.3
      thresh= 2.880E-06 alpha_mix =  0.700 |ddv_scf|^2 =  6.123E-12

      iter #   7 total cpu time :    91.4 secs   av.it.:  10.5
      thresh= 2.474E-07 alpha_mix =  0.700 |ddv_scf|^2 =  1.782E-13

     End of self-consistent calculation

     Convergence has been achieved 


     Representation #  4 mode #   4

     Self-consistent Calculation

      iter #   1 total cpu time :    92.5 secs   av.it.:   5.5
      thresh= 1.000E-02 alpha_mix =  0.700 |ddv_scf|^2 =  6.444E-06

      iter #   2 total cpu time :    93.9 secs   av.it.:  10.7
      thresh= 2.539E-04 alpha_mix =  0.700 |ddv_scf|^2 =  1.361E-05

      iter #   3 total cpu time :    95.2 secs   av.it.:   9.4
      thresh= 3.689E-04 alpha_mix =  0.700 |ddv_scf|^2 =  2.948E-07

      iter #   4 total cpu time :    96.4 secs   av.it.:   9.8
      thresh= 5.429E-05 alpha_mix =  0.700 |ddv_scf|^2 =  3.644E-09

      iter #   5 total cpu time :    97.8 secs   av.it.:  10.5
      thresh= 6.037E-06 alpha_mix =  0.700 |ddv_scf|^2 =  6.825E-10

      iter #   6 total cpu time :    99.4 secs   av.it.:  10.4
      thresh= 2.612E-06 alpha_mix =  0.700 |ddv_scf|^2 =  3.994E-12

      iter #   7 total cpu time :   100.7 secs   av.it.:  10.7
      thresh= 1.998E-07 alpha_mix =  0.700 |ddv_scf|^2 =  1.800E-13

     End of self-consistent calculation

     Convergence has been achieved 


     Representation #  5 mode #   5

     Self-consistent Calculation

      iter #   1 total cpu time :   101.7 secs   av.it.:   5.2
      thresh= 1.000E-02 alpha_mix =  0.700 |ddv_scf|^2 =  6.671E-07

      iter #   2 total cpu time :   103.0 secs   av.it.:  10.4
      thresh= 8.168E-05 alpha_mix =  0.700 |ddv_scf|^2 =  1.087E-07

      iter #   3 total cpu time :   104.3 secs   av.it.:  10.0
      thresh= 3.298E-05 alpha_mix =  0.700 |ddv_scf|^2 =  1.451E-09

      iter #   4 total cpu time :   105.5 secs   av.it.:   9.6
      thresh= 3.810E-06 alpha_mix =  0.700 |ddv_scf|^2 =  3.370E-12

      iter #   5 total cpu time :   106.8 secs   av.it.:  10.0
      thresh= 1.836E-07 alpha_mix =  0.700 |ddv_scf|^2 =  9.415E-14

     End of self-consistent calculation

     Convergence has been achieved 


     Representation #  6 mode #   6

     Self-consistent Calculation

      iter #   1 total cpu time :   107.9 secs   av.it.:   5.2
      thresh= 1.000E-02 alpha_mix =  0.700 |ddv_scf|^2 =  6.671E-07

      iter #   2 total cpu time :   109.2 secs   av.it.:  10.4
[...]
        k(   59) = (  -0.8750000   0.1250000  -0.1250000), wk =   0.0625000
        k(   60) = (  -1.3750000  -0.8750000  -0.1250000), wk =   0.0000000
        k(   61) = (  -1.1250000   0.3750000  -0.3750000), wk =   0.0625000
        k(   62) = (  -1.6250000  -0.6250000  -0.3750000), wk =   0.0000000
        k(   63) = (  -0.3750000   0.3750000   1.1250000), wk =   0.0625000
        k(   64) = (  -0.8750000  -0.6250000   1.1250000), wk =   0.0000000

     Dense  grid:    17153 G-vectors     FFT dimensions: (  36,  36,  36)

     Smooth grid:     5985 G-vectors     FFT dimensions: (  25,  25,  25)

     Estimated max dynamical RAM per process >       1.51MB

     Estimated total allocated dynamical RAM >       6.05MB

     The potential is recalculated from file :
     ./_ph0/silicon.10.304.save/charge-density.dat

     Starting wfc are    8 atomic wfcs

     Band Structure Calculation
     Davidson diagonalization with overlap

     ethr =  1.25E-10,  avg # of iterations = 12.1

     total cpu time spent up to now is       10.6 secs

     End of band structure calculation

          k =-0.1250 0.1250 0.1250 (   752 PWs)   bands (ev):

    -5.6064   4.4731   5.7822   5.7822

          k =-0.6250-0.8750 0.1250 (   754 PWs)   bands (ev):

    -2.3822  -0.8330   2.0616   3.1473

          k =-0.3750 0.3750-0.1250 (   757 PWs)   bands (ev):

    -4.5722   1.4672   3.7825   5.3000

          k =-0.8750-0.6250-0.1250 (   754 PWs)   bands (ev):

    -2.3822  -0.8330   2.0616   3.1473

          k = 0.3750-0.3750 0.6250 (   760 PWs)   bands (ev):

    -3.4216  -0.6283   3.8072   4.5221

          k =-0.1250-1.3750 0.6250 (   759 PWs)   bands (ev):

    -2.9226  -0.5348   2.1235   4.2023

          k = 0.1250-0.1250 0.3750 (   766 PWs)   bands (ev):

    -5.0748   2.8534   4.7659   4.8347

          k =-0.3750-1.1250 0.3750 (   759 PWs)   bands (ev):

    -2.9226  -0.5348   2.1235   4.2023

          k =-0.1250 0.6250 0.1250 (   762 PWs)   bands (ev):

    -4.0360   1.1404   3.4295   3.8858

          k =-0.6250-0.3750 0.1250 (   759 PWs)   bands (ev):

    -3.6165   0.2566   2.7845   4.1622

          k = 0.6250-0.1250 0.8750 (   754 PWs)   bands (ev):

    -2.3822  -0.8330   2.0616   3.1473

          k = 0.1250-1.1250 0.8750 (   759 PWs)   bands (ev):

    -2.5532  -0.7339   2.6771   3.4159

          k = 0.3750 0.1250 0.6250 (   759 PWs)   bands (ev):

    -3.6165   0.2566   2.7845   4.1622

          k =-0.1250-0.8750 0.6250 (   754 PWs)   bands (ev):

    -2.3822  -0.8330   2.0616   3.1473

          k =-0.1250-0.8750 0.1250 (   759 PWs)   bands (ev):

    -2.5532  -0.7339   2.6771   3.4159

          k =-0.6250-1.8750 0.1250 (   762 PWs)   bands (ev):

    -4.0360   1.1404   3.4295   3.8858

          k =-0.3750 0.3750 0.3750 (   763 PWs)   bands (ev):

    -4.1352   0.1647   4.9907   4.9907

          k =-0.8750-0.6250 0.3750 (   759 PWs)   bands (ev):

    -3.6165   0.2566   2.7845   4.1622

          k = 0.3750-0.3750 1.1250 (   759 PWs)   bands (ev):

    -2.9226  -0.5348   2.1235   4.2023

          k =-0.1250-1.3750 1.1250 (   754 PWs)   bands (ev):

    -2.3822  -0.8330   2.0616   3.1473

          k = 0.1250-0.3750 0.3750 (   757 PWs)   bands (ev):

    -4.5722   1.4672   3.7825   5.3000

          k =-0.3750-1.3750 0.3750 (   760 PWs)   bands (ev):

    -3.4216  -0.6283   3.8072   4.5221

          k = 0.3750-0.3750-0.1250 (   757 PWs)   bands (ev):

    -4.5722   1.4672   3.7825   5.3000

          k =-0.1250-1.3750-0.1250 (   762 PWs)   bands (ev):

    -4.0360   1.1404   3.4295   3.8858

          k =-0.6250 0.3750-0.3750 (   760 PWs)   bands (ev):

    -3.4216  -0.6283   3.8072   4.5221

          k =-1.1250-0.6250-0.3750 (   759 PWs)   bands (ev):

    -3.6165   0.2566   2.7845   4.1622

          k =-0.3750 0.3750 0.6250 (   760 PWs)   bands (ev):

    -3.4216  -0.6283   3.8072   4.5221

          k =-0.8750-0.6250 0.6250 (   757 PWs)   bands (ev):

    -4.5722   1.4672   3.7825   5.3000

          k =-0.3750 0.1250-0.1250 (   766 PWs)   bands (ev):

    -5.0748   2.8534   4.7659   4.8347

          k =-0.8750-0.8750-0.1250 (   759 PWs)   bands (ev):

    -2.5532  -0.7339   2.6771   3.4159

          k =-0.1250 0.1250 0.3750 (   766 PWs)   bands (ev):

    -5.0748   2.8534   4.7659   4.8347

          k =-0.6250-0.8750 0.3750 (   759 PWs)   bands (ev):

    -3.6165   0.2566   2.7845   4.1622

          k = 0.1250 0.6250-0.1250 (   762 PWs)   bands (ev):

    -4.0360   1.1404   3.4295   3.8858

          k =-0.3750-0.3750-0.1250 (   757 PWs)   bands (ev):

    -4.5722   1.4672   3.7825   5.3000

          k = 0.6250 0.1250-0.1250 (   762 PWs)   bands (ev):

    -4.0360   1.1404   3.4295   3.8858

          k = 0.1250-0.8750-0.1250 (   759 PWs)   bands (ev):

    -2.5532  -0.7339   2.6771   3.4159

          k =-0.8750 0.1250-0.6250 (   754 PWs)   bands (ev):

    -2.3822  -0.8330   2.0616   3.1473

          k =-1.3750-0.8750-0.6250 (   757 PWs)   bands (ev):

    -4.5722   1.4672   3.7825   5.3000

          k = 0.8750-0.1250 0.6250 (   754 PWs)   bands (ev):

    -2.3822  -0.8330   2.0616   3.1473

          k = 0.3750-1.1250 0.6250 (   759 PWs)   bands (ev):

    -3.6165   0.2566   2.7845   4.1622

          k =-0.6250 0.1250 0.8750 (   754 PWs)   bands (ev):

    -2.3822  -0.8330   2.0616   3.1473

          k =-1.1250-0.8750 0.8750 (   752 PWs)   bands (ev):

    -5.6064   4.4731   5.7822   5.7822

          k =-0.1250 0.8750 0.6250 (   754 PWs)   bands (ev):

    -2.3822  -0.8330   2.0616   3.1473

          k =-0.6250-0.1250 0.6250 (   759 PWs)   bands (ev):

    -2.9226  -0.5348   2.1235   4.2023

          k = 0.1250 0.8750-0.6250 (   754 PWs)   bands (ev):

    -2.3822  -0.8330   2.0616   3.1473

          k =-0.3750-0.1250-0.6250 (   759 PWs)   bands (ev):

    -3.6165   0.2566   2.7845   4.1622

          k =-0.6250-0.1250-0.3750 (   759 PWs)   bands (ev):

    -3.6165   0.2566   2.7845   4.1622

          k =-1.1250-1.1250-0.3750 (   762 PWs)   bands (ev):

    -4.0360   1.1404   3.4295   3.8858

          k = 0.6250 0.1250 0.3750 (   759 PWs)   bands (ev):

    -3.6165   0.2566   2.7845   4.1622

          k = 0.1250-0.8750 0.3750 (   754 PWs)   bands (ev):

    -2.3822  -0.8330   2.0616   3.1473

          k =-0.3750-0.1250 0.6250 (   759 PWs)   bands (ev):

    -3.6165   0.2566   2.7845   4.1622

          k =-0.8750-1.1250 0.6250 (   766 PWs)   bands (ev):

    -5.0748   2.8534   4.7659   4.8347

          k = 0.1250 0.6250 0.3750 (   759 PWs)   bands (ev):

    -3.6165   0.2566   2.7845   4.1622

          k =-0.3750-0.3750 0.3750 (   763 PWs)   bands (ev):

    -4.1352   0.1647   4.9907   4.9907

          k =-0.1250 0.6250-0.3750 (   759 PWs)   bands (ev):

    -3.6165   0.2566   2.7845   4.1622

          k =-0.6250-0.3750-0.3750 (   760 PWs)   bands (ev):

    -3.4216  -0.6283   3.8072   4.5221

          k = 0.1250-0.8750-0.1250 (   759 PWs)   bands (ev):

    -2.5532  -0.7339   2.6771   3.4159

          k =-0.3750-1.8750-0.1250 (   766 PWs)   bands (ev):

    -5.0748   2.8534   4.7659   4.8347

          k =-0.8750 0.1250-0.1250 (   759 PWs)   bands (ev):

    -2.5532  -0.7339   2.6771   3.4159

          k =-1.3750-0.8750-0.1250 (   754 PWs)   bands (ev):

    -2.3822  -0.8330   2.0616   3.1473

          k =-1.1250 0.3750-0.3750 (   759 PWs)   bands (ev):

    -2.9226  -0.5348   2.1235   4.2023

          k =-1.6250-0.6250-0.3750 (   760 PWs)   bands (ev):

    -3.4216  -0.6283   3.8072   4.5221

          k =-0.3750 0.3750 1.1250 (   759 PWs)   bands (ev):

    -2.9226  -0.5348   2.1235   4.2023

          k =-0.8750-0.6250 1.1250 (   766 PWs)   bands (ev):

    -5.0748   2.8534   4.7659   4.8347

     highest occupied level (ev):     5.7822

     Writing output data file silicon.10.304.save

                                                                                

     bravais-lattice index     =            2
     lattice parameter (alat)  =      10.3040  a.u.
     unit-cell volume          =     273.5001 (a.u.)^3
     number of atoms/cell      =            2
     number of atomic types    =            1
     kinetic-energy cut-off    =      30.0000  Ry
     charge density cut-off    =     240.0000  Ry
     convergence threshold     =      1.0E-12
     beta                      =       0.7000
     number of iterations used =            4
     Exchange-correlation      = SLA  PW   PBE  PBE ( 1  4  3  4 0 0)


     celldm(1)=   10.30400  celldm(2)=    0.00000  celldm(3)=    0.00000
     celldm(4)=    0.00000  celldm(5)=    0.00000  celldm(6)=    0.00000

     crystal axes: (cart. coord. in units of alat)
               a(1) = ( -0.5000  0.0000  0.5000 )  
               a(2) = (  0.0000  0.5000  0.5000 )  
               a(3) = ( -0.5000  0.5000  0.0000 )  

     reciprocal axes: (cart. coord. in units 2 pi/alat)
               b(1) = ( -1.0000 -1.0000  1.0000 )  
               b(2) = (  1.0000  1.0000  1.0000 )  
               b(3) = ( -1.0000  1.0000 -1.0000 )  


     Atoms inside the unit cell: 

     Cartesian axes

     site n.  atom      mass           positions (alat units)
        1     Si  28.0860   tau(    1) = (    0.00000    0.00000    0.00000  )
        2     Si  28.0860   tau(    2) = (    0.25000    0.25000    0.25000  )

     Computing dynamical matrix for 
                    q = (  -0.5000000  -1.0000000   0.0000000 )

      8 Sym.Ops. (no q -> -q+G )


     G cutoff =  645.4509  (   4288 G-vectors)     FFT grid: ( 36, 36, 36)
     G cutoff =  322.7254  (   1497 G-vectors)  smooth grid: ( 25, 25, 25)
     number of k points=    64

     PseudoPot. # 1 for Si read from file:
     /home/s1333534/quantum_espresso/qe-6.1/pseudo/si_pbe_v1.uspp.F.UPF.txt
     MD5 check sum: a056efeee980c13900f22a371efd63c1
     Pseudo is Ultrasoft + core correction, Zval =  4.0
     Generated by new atomic code, or converted to UPF format
     Using radial grid of  899 points,  6 beta functions with: 
                l(1) =   0
                l(2) =   0
                l(3) =   1
                l(4) =   1
                l(5) =   2
                l(6) =   2
     Q(r) pseudized with  8 coefficients,  rinner =    0.900   0.900   0.900
                                                       0.900   0.900


     Atomic displacements:
     There are   3 irreducible representations

     Representation     1      2 modes -  To be done

     Representation     2      2 modes -  To be done

     Representation     3      2 modes -  To be done



     Alpha used in Ewald sum =   2.5000
     PHONON       :  2m 2.49s CPU     2m31.46s WALL



     Representation #  1 modes #   1  2

     Self-consistent Calculation

      iter #   1 total cpu time :   152.2 secs   av.it.:   5.7
      thresh= 1.000E-02 alpha_mix =  0.700 |ddv_scf|^2 =  1.091E-06

      iter #   2 total cpu time :   153.0 secs   av.it.:  11.6
      thresh= 1.044E-04 alpha_mix =  0.700 |ddv_scf|^2 =  6.183E-07

      iter #   3 total cpu time :   153.8 secs   av.it.:  11.0
      thresh= 7.863E-05 alpha_mix =  0.700 |ddv_scf|^2 =  5.910E-10

      iter #   4 total cpu time :   154.6 secs   av.it.:  11.0
      thresh= 2.431E-06 alpha_mix =  0.700 |ddv_scf|^2 =  2.625E-12

      iter #   5 total cpu time :   155.3 secs   av.it.:  11.1
      thresh= 1.620E-07 alpha_mix =  0.700 |ddv_scf|^2 =  6.924E-14

     End of self-consistent calculation

     Convergence has been achieved 


     Representation #  2 modes #   3  4

     Self-consistent Calculation

      iter #   1 total cpu time :   156.0 secs   av.it.:   5.6
      thresh= 1.000E-02 alpha_mix =  0.700 |ddv_scf|^2 =  1.687E-06

      iter #   2 total cpu time :   156.9 secs   av.it.:  11.6
      thresh= 1.299E-04 alpha_mix =  0.700 |ddv_scf|^2 =  2.270E-06

      iter #   3 total cpu time :   157.6 secs   av.it.:  10.9
      thresh= 1.507E-04 alpha_mix =  0.700 |ddv_scf|^2 =  6.968E-10

      iter #   4 total cpu time :   158.4 secs   av.it.:  11.0
      thresh= 2.640E-06 alpha_mix =  0.700 |ddv_scf|^2 =  1.030E-11

      iter #   5 total cpu time :   159.1 secs   av.it.:  11.1
      thresh= 3.210E-07 alpha_mix =  0.700 |ddv_scf|^2 =  1.757E-13

     End of self-consistent calculation

     Convergence has been achieved 


     Representation #  3 modes #   5  6

     Self-consistent Calculation

      iter #   1 total cpu time :   159.8 secs   av.it.:   5.3
      thresh= 1.000E-02 alpha_mix =  0.700 |ddv_scf|^2 =  4.430E-07

      iter #   2 total cpu time :   160.7 secs   av.it.:  11.6
      thresh= 6.656E-05 alpha_mix =  0.700 |ddv_scf|^2 =  2.590E-07

      iter #   3 total cpu time :   161.4 secs   av.it.:  11.1
      thresh= 5.089E-05 alpha_mix =  0.700 |ddv_scf|^2 =  5.143E-10

      iter #   4 total cpu time :   162.2 secs   av.it.:  11.1
      thresh= 2.268E-06 alpha_mix =  0.700 |ddv_scf|^2 =  5.953E-12

      iter #   5 total cpu time :   162.9 secs   av.it.:  11.1
      thresh= 2.440E-07 alpha_mix =  0.700 |ddv_scf|^2 =  8.321E-14

     End of self-consistent calculation

     Convergence has been achieved 

     Number of q in the star =    6
     List of q in the star:
          1  -0.500000000  -1.000000000   0.000000000
          2   0.000000000   1.000000000   0.500000000
          3   0.000000000  -1.000000000  -0.500000000
          4   0.500000000   1.000000000   0.000000000
          5  -1.000000000  -0.500000000   0.000000000
          6   0.000000000  -0.500000000  -1.000000000

     Diagonalizing the dynamical matrix

     q = (   -0.500000000  -1.000000000   0.000000000 ) 

 **************************************************************************
     freq (    1) =       5.995980 [THz] =     200.004373 [cm-1]
     freq (    2) =       5.995980 [THz] =     200.004373 [cm-1]
     freq (    3) =      10.428681 [THz] =     347.863370 [cm-1]
     freq (    4) =      10.428681 [THz] =     347.863370 [cm-1]
     freq (    5) =      13.729766 [THz] =     457.975696 [cm-1]
     freq (    6) =      13.729766 [THz] =     457.975696 [cm-1]
 **************************************************************************

     init_run     :      1.24s CPU      1.28s WALL (       7 calls)
     electrons    :      7.13s CPU      7.74s WALL (       7 calls)

     Called by init_run:
     wfcinit      :      0.00s CPU      0.02s WALL (       7 calls)
     potinit      :      0.08s CPU      0.09s WALL (       7 calls)

     Called by electrons:
     c_bands      :      7.13s CPU      7.73s WALL (       7 calls)
     v_of_rho     :      0.06s CPU      0.07s WALL (       8 calls)
     newd         :      0.11s CPU      0.12s WALL (       8 calls)

     Called by c_bands:
     init_us_2    :      1.63s CPU      1.55s WALL (   16040 calls)
     cegterg      :      5.96s CPU      6.45s WALL (     796 calls)

     Called by sum_band:

     Called by *egterg:
     h_psi        :     68.51s CPU     73.33s WALL (  154429 calls)
     s_psi        :      5.60s CPU      6.87s WALL (  311260 calls)
     g_psi        :      0.05s CPU      0.07s WALL (    9666 calls)
     cdiaghg      :      0.56s CPU      0.56s WALL (   10462 calls)

     Called by h_psi:
     h_psi:pot    :     68.08s CPU     72.82s WALL (  154429 calls)
     h_psi:calbec :      3.43s CPU      3.98s WALL (  154429 calls)
     vloc_psi     :     60.06s CPU     64.71s WALL (  154429 calls)
     add_vuspsi   :      4.26s CPU      3.64s WALL (  154429 calls)

     General routines
     calbec       :      7.99s CPU      8.37s WALL (  345712 calls)
     fft          :      1.33s CPU      1.40s WALL (    5265 calls)
     ffts         :      0.21s CPU      0.22s WALL (    3320 calls)
     fftw         :     63.47s CPU     67.60s WALL ( 1383418 calls)
     interpolate  :      0.19s CPU      0.22s WALL (     572 calls)
     davcio       :      0.31s CPU      0.97s WALL (   69876 calls)

     Parallel routines
     fft_scatter  :     16.04s CPU     19.48s WALL ( 1392003 calls)

     PHONON       :  2m11.75s CPU     2m43.32s WALL

     INITIALIZATION: 
     phq_setup    :      0.22s CPU      0.53s WALL (       8 calls)
     phq_init     :      6.70s CPU      6.94s WALL (       8 calls)

     phq_init     :      6.70s CPU      6.94s WALL (       8 calls)
     set_drhoc    :      1.82s CPU      1.82s WALL (      24 calls)
     init_vloc    :      0.03s CPU      0.03s WALL (       8 calls)
     init_us_1    :      0.97s CPU      0.98s WALL (       8 calls)
     newd         :      0.11s CPU      0.12s WALL (       8 calls)
     dvanqq       :      1.16s CPU      1.17s WALL (       8 calls)
     drho         :      2.57s CPU      2.65s WALL (       8 calls)

     DYNAMICAL MATRIX:
     dynmat0      :      1.70s CPU      1.80s WALL (       8 calls)
     phqscf       :    111.50s CPU    137.25s WALL (       8 calls)
     dynmatrix    :      0.01s CPU      0.18s WALL (       8 calls)

     phqscf       :    111.50s CPU    137.25s WALL (       8 calls)
     solve_linter :    110.65s CPU    134.35s WALL (      32 calls)
     drhodv       :      0.57s CPU      0.59s WALL (      32 calls)

     dynmat0      :      1.70s CPU      1.80s WALL (       8 calls)
     dynmat_us    :      0.38s CPU      0.38s WALL (       8 calls)
     d2ionq       :      0.03s CPU      0.04s WALL (       8 calls)
     dynmatcc     :      1.27s CPU      1.27s WALL (       8 calls)

     dynmat_us    :      0.38s CPU      0.38s WALL (       8 calls)
     addusdynmat  :      0.00s CPU      0.00s WALL (       8 calls)

     phqscf       :    111.50s CPU    137.25s WALL (       8 calls)
     solve_linter :    110.65s CPU    134.35s WALL (      32 calls)

     solve_linter :    110.65s CPU    134.35s WALL (      32 calls)
     dvqpsi_us    :      2.11s CPU      2.26s WALL (    2508 calls)
     ortho        :      0.91s CPU      1.02s WALL (   13630 calls)
     cgsolve      :     76.08s CPU     82.58s WALL (   13630 calls)
     incdrhoscf   :      6.45s CPU      7.04s WALL (   13630 calls)
     addusddens   :      7.04s CPU      7.08s WALL (     202 calls)
     vpsifft      :      4.52s CPU      4.90s WALL (   11002 calls)
     dv_of_drho   :      1.18s CPU      1.23s WALL (     256 calls)
     mix_pot      :      0.29s CPU      8.31s WALL (     175 calls)
     psymdvscf    :      4.06s CPU      4.11s WALL (     170 calls)
     newdq        :      7.68s CPU      7.70s WALL (     175 calls)
     adddvscf     :      0.45s CPU      0.42s WALL (   11122 calls)
     drhodvus     :      0.01s CPU      0.02s WALL (      32 calls)

     dvqpsi_us    :      2.11s CPU      2.26s WALL (    2508 calls)
     dvqpsi_us_on :      0.90s CPU      0.93s WALL (    2508 calls)

     cgsolve      :     76.08s CPU     82.58s WALL (   13630 calls)
     ch_psi       :     74.98s CPU     80.84s WALL (  143171 calls)

     ch_psi       :     74.98s CPU     80.84s WALL (  143171 calls)
     h_psi        :     68.51s CPU     73.33s WALL (  154429 calls)
     last         :      9.00s CPU      9.12s WALL (  143171 calls)

     h_psi        :     68.51s CPU     73.33s WALL (  154429 calls)
     add_vuspsi   :      4.26s CPU      3.64s WALL (  154429 calls)

     incdrhoscf   :      6.45s CPU      7.04s WALL (   13630 calls)
     addusdbec    :      0.46s CPU      0.50s WALL (   16078 calls)

     drhodvus     :      0.01s CPU      0.02s WALL (      32 calls)

      General routines
     calbec       :      7.99s CPU      8.37s WALL (  345712 calls)
     fft          :      1.33s CPU      1.40s WALL (    5265 calls)
     ffts         :      0.21s CPU      0.22s WALL (    3320 calls)
     fftw         :     63.47s CPU     67.60s WALL ( 1383418 calls)
     davcio       :      0.31s CPU      0.97s WALL (   69876 calls)
     write_rec    :      0.23s CPU     10.03s WALL (     207 calls)


     PHONON       :  2m11.75s CPU     2m43.33s WALL


   This run was terminated on:  15:45:29  10Nov2017            

=------------------------------------------------------------------------------=
   JOB DONE.
=------------------------------------------------------------------------------=
