
     Program PHONON v.6.1 (svn rev. 13369) starts on  9Nov2017 at  1:14:10 

     This program is part of the open-source Quantum ESPRESSO suite
     for quantum simulation of materials; please cite
         "P. Giannozzi et al., J. Phys.:Condens. Matter 21 395502 (2009);
          URL http://www.quantum-espresso.org", 
     in publications or presentations arising from this work. More details at
     http://www.quantum-espresso.org/quote

     Parallel version (MPI), running on     4 processors
     R & G space division:  proc/nbgrp/npool/nimage =       4

     Reading data from directory:
     ./silicon.10.27.save

   Info: using nr1, nr2, nr3 values from input

   Info: using nr1, nr2, nr3 values from input

     IMPORTANT: XC functional enforced from input :
     Exchange-correlation      = SLA  PW   PBE  PBE ( 1  4  3  4 0 0)
     Any further DFT definition will be discarded
     Please, verify this is what you really want


     Parallelization info
     --------------------
     sticks:   dense  smooth     PW     G-vecs:    dense   smooth      PW
     Min          63      63     21                  684      684     133
     Max          64      64     22                  688      688     136
     Sum         253     253     85                 2741     2741     537


     Check: negative/imaginary core charge=   -0.000005    0.000000


     Dynamical matrices for ( 4, 4, 4)  uniform grid of q-points
     (   8q-points):
       N         xq(1)         xq(2)         xq(3) 
       1   0.000000000   0.000000000   0.000000000
       2  -0.250000000   0.250000000  -0.250000000
       3   0.500000000  -0.500000000   0.500000000
       4   0.000000000   0.500000000   0.000000000
       5   0.750000000  -0.250000000   0.750000000
       6   0.500000000   0.000000000   0.500000000
       7   0.000000000  -1.000000000   0.000000000
       8  -0.500000000  -1.000000000   0.000000000

     Calculation of q =    0.0000000   0.0000000   0.0000000

                                                                                

     bravais-lattice index     =            2
     lattice parameter (alat)  =      10.2700  a.u.
     unit-cell volume          =     270.8017 (a.u.)^3
     number of atoms/cell      =            2
     number of atomic types    =            1
     kinetic-energy cut-off    =      18.0000  Ry
     charge density cut-off    =      72.0000  Ry
     convergence threshold     =      1.0E-12
     beta                      =       0.7000
     number of iterations used =            4
     Exchange-correlation      = SLA  PW   PBE  PBE ( 1  4  3  4 0 0)


     celldm(1)=   10.27000  celldm(2)=    0.00000  celldm(3)=    0.00000
     celldm(4)=    0.00000  celldm(5)=    0.00000  celldm(6)=    0.00000

     crystal axes: (cart. coord. in units of alat)
               a(1) = ( -0.5000  0.0000  0.5000 )  
               a(2) = (  0.0000  0.5000  0.5000 )  
               a(3) = ( -0.5000  0.5000  0.0000 )  

     reciprocal axes: (cart. coord. in units 2 pi/alat)
               b(1) = ( -1.0000 -1.0000  1.0000 )  
               b(2) = (  1.0000  1.0000  1.0000 )  
               b(3) = ( -1.0000  1.0000 -1.0000 )  


     Atoms inside the unit cell: 

     Cartesian axes

     site n.  atom      mass           positions (alat units)
        1     Si  28.0860   tau(    1) = (    0.00000    0.00000    0.00000  )
        2     Si  28.0860   tau(    2) = (    0.25000    0.25000    0.25000  )

     Computing dynamical matrix for 
                    q = (   0.0000000   0.0000000   0.0000000 )

     49 Sym.Ops. (with q -> -q+G )


     G cutoff =  192.3595  (    685 G-vectors)     FFT grid: ( 20, 20, 20)
     number of k points=    10

     PseudoPot. # 1 for Si read from file:
     /home/max/quantum_espresso/qe-6.1/pseudo/si_pbe_v1.uspp.F.UPF.txt
     MD5 check sum: a056efeee980c13900f22a371efd63c1
     Pseudo is Ultrasoft + core correction, Zval =  4.0
     Generated by new atomic code, or converted to UPF format
     Using radial grid of  899 points,  6 beta functions with: 
                l(1) =   0
                l(2) =   0
                l(3) =   1
                l(4) =   1
                l(5) =   2
                l(6) =   2
     Q(r) pseudized with  8 coefficients,  rinner =    0.900   0.900   0.900
                                                       0.900   0.900

     Mode symmetry, O_h (m-3m)  point group:


     Electric field:
     Dielectric constant
     Born effective charges in two ways 


     Atomic displacements:
     There are   2 irreducible representations

     Representation     1      3 modes -T_2g G_25' G_5+  To be done

     Representation     2      3 modes -T_1u G_15  G_4-  To be done



     Alpha used in Ewald sum =   0.7000
     PHONON       :     0.39s CPU         0.40s WALL


     Electric Fields Calculation

      iter #   1 total cpu time :     0.8 secs   av.it.:   5.6
      thresh= 1.000E-02 alpha_mix =  0.700 |ddv_scf|^2 =  9.044E-07

      iter #   2 total cpu time :     0.9 secs   av.it.:   9.9
      thresh= 9.510E-05 alpha_mix =  0.700 |ddv_scf|^2 =  5.453E-08

      iter #   3 total cpu time :     1.1 secs   av.it.:   9.8
      thresh= 2.335E-05 alpha_mix =  0.700 |ddv_scf|^2 =  4.144E-09

      iter #   4 total cpu time :     1.3 secs   av.it.:   9.0
      thresh= 6.437E-06 alpha_mix =  0.700 |ddv_scf|^2 =  2.347E-11

      iter #   5 total cpu time :     1.4 secs   av.it.:   9.1
      thresh= 4.844E-07 alpha_mix =  0.700 |ddv_scf|^2 =  1.281E-14

     End of electric fields calculation

          Dielectric constant in cartesian axis 

          (      13.755853641      -0.000000000      -0.000000000 )
          (      -0.000000000      13.755853641       0.000000000 )
          (      -0.000000000       0.000000000      13.755853641 )

          Effective charges (d Force / dE) in cartesian axis

           atom      1   Si 
      Ex  (       -0.03214       -0.00000       -0.00000 )
      Ey  (       -0.00000       -0.03214        0.00000 )
      Ez  (       -0.00000        0.00000       -0.03214 )
           atom      2   Si 
      Ex  (       -0.03214       -0.00000       -0.00000 )
      Ey  (       -0.00000       -0.03214        0.00000 )
      Ez  (       -0.00000        0.00000       -0.03214 )


     Representation #  1 modes #   1  2  3

     Self-consistent Calculation

      iter #   1 total cpu time :     1.8 secs   av.it.:   5.0
      thresh= 1.000E-02 alpha_mix =  0.700 |ddv_scf|^2 =  2.175E-07

      iter #   2 total cpu time :     2.0 secs   av.it.:   9.8
      thresh= 4.664E-05 alpha_mix =  0.700 |ddv_scf|^2 =  1.322E-08

      iter #   3 total cpu time :     2.2 secs   av.it.:   9.3
      thresh= 1.150E-05 alpha_mix =  0.700 |ddv_scf|^2 =  8.291E-10

      iter #   4 total cpu time :     2.3 secs   av.it.:   8.9
      thresh= 2.879E-06 alpha_mix =  0.700 |ddv_scf|^2 =  1.815E-12

      iter #   5 total cpu time :     2.5 secs   av.it.:   9.4
      thresh= 1.347E-07 alpha_mix =  0.700 |ddv_scf|^2 =  1.199E-14

     End of self-consistent calculation

     Convergence has been achieved 


     Representation #  2 modes #   4  5  6

     Self-consistent Calculation

      iter #   1 total cpu time :     2.7 secs   av.it.:   5.0
      thresh= 1.000E-02 alpha_mix =  0.700 |ddv_scf|^2 =  1.665E-07

      iter #   2 total cpu time :     2.9 secs   av.it.:   9.6
      thresh= 4.081E-05 alpha_mix =  0.700 |ddv_scf|^2 =  1.285E-08

      iter #   3 total cpu time :     3.1 secs   av.it.:   9.2
      thresh= 1.134E-05 alpha_mix =  0.700 |ddv_scf|^2 =  8.191E-10

      iter #   4 total cpu time :     3.3 secs   av.it.:   9.5
      thresh= 2.862E-06 alpha_mix =  0.700 |ddv_scf|^2 =  4.924E-12

      iter #   5 total cpu time :     3.4 secs   av.it.:   8.9
      thresh= 2.219E-07 alpha_mix =  0.700 |ddv_scf|^2 =  4.233E-15

     End of self-consistent calculation

     Convergence has been achieved 

     Number of q in the star =    1
     List of q in the star:
          1   0.000000000   0.000000000   0.000000000

          Dielectric constant in cartesian axis 

          (      13.755853641      -0.000000000      -0.000000000 )
          (      -0.000000000      13.755853641       0.000000000 )
          (      -0.000000000       0.000000000      13.755853641 )

          Effective charges (d Force / dE) in cartesian axis

           atom      1   Si 
      Ex  (       -0.03214       -0.00000       -0.00000 )
      Ey  (       -0.00000       -0.03214        0.00000 )
      Ez  (       -0.00000        0.00000       -0.03214 )
           atom      2   Si 
      Ex  (       -0.03214       -0.00000       -0.00000 )
      Ey  (       -0.00000       -0.03214        0.00000 )
      Ez  (       -0.00000        0.00000       -0.03214 )

          Effective charges (d P / du) in cartesian axis 

           atom      1   Si 
      Px  (       -0.07067        0.00000        0.00000 )
      Py  (        0.00000       -0.07067       -0.00000 )
      Pz  (        0.00000       -0.00000       -0.07067 )
           atom      2   Si 
      Px  (       -0.07067        0.00000        0.00000 )
      Py  (        0.00000       -0.07067       -0.00000 )
      Pz  (        0.00000       -0.00000       -0.07067 )

     Diagonalizing the dynamical matrix

     q = (    0.000000000   0.000000000   0.000000000 ) 

 **************************************************************************
     freq (    1) =       1.915753 [THz] =      63.902642 [cm-1]
     freq (    2) =       1.915753 [THz] =      63.902642 [cm-1]
     freq (    3) =       1.915753 [THz] =      63.902642 [cm-1]
     freq (    4) =      15.304518 [THz] =     510.503774 [cm-1]
     freq (    5) =      15.304518 [THz] =     510.503774 [cm-1]
     freq (    6) =      15.304518 [THz] =     510.503774 [cm-1]
 **************************************************************************

     Mode symmetry, O_h (m-3m)  point group:

     freq (  1 -  3) =         63.9  [cm-1]   --> T_1u G_15  G_4- I  
     freq (  4 -  6) =        510.5  [cm-1]   --> T_2g G_25' G_5+ R  

     Calculation of q =   -0.2500000   0.2500000  -0.2500000

   Info: using nr1, nr2, nr3 values from input

   Info: using nr1, nr2, nr3 values from input

     Parallelization info
     --------------------
     sticks:   dense  smooth     PW     G-vecs:    dense   smooth      PW
     Min          63      63     24                  684      684     161
     Max          64      64     25                  688      688     162
     Sum         253     253     97                 2741     2741     645



     bravais-lattice index     =            2
     lattice parameter (alat)  =      10.2700  a.u.
     unit-cell volume          =     270.8017 (a.u.)^3
     number of atoms/cell      =            2
     number of atomic types    =            1
     number of electrons       =         8.00
     number of Kohn-Sham states=            4
     kinetic-energy cutoff     =      18.0000  Ry
     charge density cutoff     =      72.0000  Ry
     Exchange-correlation      = SLA  PW   PBE  PBE ( 1  4  3  4 0 0)

     celldm(1)=  10.270000  celldm(2)=   0.000000  celldm(3)=   0.000000
     celldm(4)=   0.000000  celldm(5)=   0.000000  celldm(6)=   0.000000

     crystal axes: (cart. coord. in units of alat)
               a(1) = (  -0.500000   0.000000   0.500000 )  
               a(2) = (   0.000000   0.500000   0.500000 )  
               a(3) = (  -0.500000   0.500000   0.000000 )  

     reciprocal axes: (cart. coord. in units 2 pi/alat)
               b(1) = ( -1.000000 -1.000000  1.000000 )  
               b(2) = (  1.000000  1.000000  1.000000 )  
               b(3) = ( -1.000000  1.000000 -1.000000 )  


     PseudoPot. # 1 for Si read from file:
     /home/max/quantum_espresso/qe-6.1/pseudo/si_pbe_v1.uspp.F.UPF.txt
     MD5 check sum: a056efeee980c13900f22a371efd63c1
     Pseudo is Ultrasoft + core correction, Zval =  4.0
     Generated by new atomic code, or converted to UPF format
     Using radial grid of  899 points,  6 beta functions with: 
                l(1) =   0
                l(2) =   0
                l(3) =   1
                l(4) =   1
                l(5) =   2
                l(6) =   2
     Q(r) pseudized with  8 coefficients,  rinner =    0.900   0.900   0.900
                                                       0.900   0.900

     atomic species   valence    mass     pseudopotential
        Si             4.00    28.08600     Si( 1.00)

     48 Sym. Ops., with inversion, found



   Cartesian axes

     site n.     atom                  positions (alat units)
         1           Si  tau(   1) = (   0.0000000   0.0000000   0.0000000  )
         2           Si  tau(   2) = (   0.2500000   0.2500000   0.2500000  )

     number of k points=   120

     Number of k-points >= 100: set verbosity='high' to print them.

     Dense  grid:     2741 G-vectors     FFT dimensions: (  20,  20,  20)

     Estimated max dynamical RAM per process >       0.32MB

     Estimated total allocated dynamical RAM >       1.30MB

     Check: negative/imaginary core charge=   -0.000005    0.000000

     The potential is recalculated from file :
     ./_ph0/silicon.10.27.save/charge-density.dat

     Starting wfc are    8 atomic wfcs

     Band Structure Calculation
     Davidson diagonalization with overlap

     ethr =  1.25E-10,  avg # of iterations = 11.6

     total cpu time spent up to now is        0.8 secs

     End of band structure calculation

     Number of k-points >= 100: set verbosity='high' to print the bands.

     highest occupied level (ev):     5.8858

     Writing output data file silicon.10.27.save

                                                                                

     bravais-lattice index     =            2
     lattice parameter (alat)  =      10.2700  a.u.
     unit-cell volume          =     270.8017 (a.u.)^3
     number of atoms/cell      =            2
     number of atomic types    =            1
     kinetic-energy cut-off    =      18.0000  Ry
     charge density cut-off    =      72.0000  Ry
     convergence threshold     =      1.0E-12
     beta                      =       0.7000
     number of iterations used =            4
     Exchange-correlation      = SLA  PW   PBE  PBE ( 1  4  3  4 0 0)


     celldm(1)=   10.27000  celldm(2)=    0.00000  celldm(3)=    0.00000
     celldm(4)=    0.00000  celldm(5)=    0.00000  celldm(6)=    0.00000

     crystal axes: (cart. coord. in units of alat)
               a(1) = ( -0.5000  0.0000  0.5000 )  
               a(2) = (  0.0000  0.5000  0.5000 )  
               a(3) = ( -0.5000  0.5000  0.0000 )  

     reciprocal axes: (cart. coord. in units 2 pi/alat)
               b(1) = ( -1.0000 -1.0000  1.0000 )  
               b(2) = (  1.0000  1.0000  1.0000 )  
               b(3) = ( -1.0000  1.0000 -1.0000 )  


     Atoms inside the unit cell: 

     Cartesian axes

     site n.  atom      mass           positions (alat units)
        1     Si  28.0860   tau(    1) = (    0.00000    0.00000    0.00000  )
        2     Si  28.0860   tau(    2) = (    0.25000    0.25000    0.25000  )

     Computing dynamical matrix for 
                    q = (  -0.2500000   0.2500000  -0.2500000 )

      6 Sym.Ops. (no q -> -q+G )


     G cutoff =  192.3595  (    685 G-vectors)     FFT grid: ( 20, 20, 20)
     number of k points=   120

     PseudoPot. # 1 for Si read from file:
     /home/max/quantum_espresso/qe-6.1/pseudo/si_pbe_v1.uspp.F.UPF.txt
     MD5 check sum: a056efeee980c13900f22a371efd63c1
     Pseudo is Ultrasoft + core correction, Zval =  4.0
     Generated by new atomic code, or converted to UPF format
     Using radial grid of  899 points,  6 beta functions with: 
                l(1) =   0
                l(2) =   0
                l(3) =   1
                l(4) =   1
                l(5) =   2
                l(6) =   2
     Q(r) pseudized with  8 coefficients,  rinner =    0.900   0.900   0.900
                                                       0.900   0.900

     Mode symmetry, C_3v (3m)   point group:


     Atomic displacements:
     There are   4 irreducible representations

     Representation     1      1 modes -A_1  L_1  To be done

     Representation     2      1 modes -A_1  L_1  To be done

     Representation     3      2 modes -E    L_3  To be done

     Representation     4      2 modes -E    L_3  To be done



     Alpha used in Ewald sum =   0.7000
     PHONON       :     4.54s CPU         4.67s WALL



     Representation #  1 mode #   1

     Self-consistent Calculation

      iter #   1 total cpu time :     4.9 secs   av.it.:   5.5
      thresh= 1.000E-02 alpha_mix =  0.700 |ddv_scf|^2 =  2.516E-03

      iter #   2 total cpu time :     5.1 secs   av.it.:   7.4
      thresh= 5.016E-03 alpha_mix =  0.700 |ddv_scf|^2 =  3.773E-02

      iter #   3 total cpu time :     5.3 secs   av.it.:   6.3
      thresh= 1.000E-02 alpha_mix =  0.700 |ddv_scf|^2 =  1.706E-06

      iter #   4 total cpu time :     5.6 secs   av.it.:   8.2
      thresh= 1.306E-04 alpha_mix =  0.700 |ddv_scf|^2 =  1.099E-07

      iter #   5 total cpu time :     5.9 secs   av.it.:   8.1
      thresh= 3.315E-05 alpha_mix =  0.700 |ddv_scf|^2 =  4.703E-09

      iter #   6 total cpu time :     6.1 secs   av.it.:   7.9
      thresh= 6.858E-06 alpha_mix =  0.700 |ddv_scf|^2 =  1.170E-08

      iter #   7 total cpu time :     6.3 secs   av.it.:   5.8
      thresh= 1.081E-05 alpha_mix =  0.700 |ddv_scf|^2 =  1.726E-10

      iter #   8 total cpu time :     6.6 secs   av.it.:   7.7
      thresh= 1.314E-06 alpha_mix =  0.700 |ddv_scf|^2 =  4.130E-12

      iter #   9 total cpu time :     6.8 secs   av.it.:   7.1
      thresh= 2.032E-07 alpha_mix =  0.700 |ddv_scf|^2 =  1.621E-13

     End of self-consistent calculation

     Convergence has been achieved 


     Representation #  2 mode #   2

     Self-consistent Calculation

      iter #   1 total cpu time :     7.0 secs   av.it.:   5.5
      thresh= 1.000E-02 alpha_mix =  0.700 |ddv_scf|^2 =  2.516E-03

      iter #   2 total cpu time :     7.3 secs   av.it.:   7.4
      thresh= 5.016E-03 alpha_mix =  0.700 |ddv_scf|^2 =  3.773E-02

      iter #   3 total cpu time :     7.5 secs   av.it.:   6.3
      thresh= 1.000E-02 alpha_mix =  0.700 |ddv_scf|^2 =  1.706E-06

      iter #   4 total cpu time :     7.7 secs   av.it.:   8.2
      thresh= 1.306E-04 alpha_mix =  0.700 |ddv_scf|^2 =  1.099E-07

      iter #   5 total cpu time :     8.0 secs   av.it.:   8.1
      thresh= 3.315E-05 alpha_mix =  0.700 |ddv_scf|^2 =  4.703E-09

      iter #   6 total cpu time :     8.3 secs   av.it.:   7.9
      thresh= 6.858E-06 alpha_mix =  0.700 |ddv_scf|^2 =  1.170E-08

      iter #   7 total cpu time :     8.5 secs   av.it.:   5.8
      thresh= 1.081E-05 alpha_mix =  0.700 |ddv_scf|^2 =  1.726E-10

      iter #   8 total cpu time :     8.7 secs   av.it.:   7.7
      thresh= 1.314E-06 alpha_mix =  0.700 |ddv_scf|^2 =  4.130E-12

      iter #   9 total cpu time :     8.9 secs   av.it.:   7.1
      thresh= 2.032E-07 alpha_mix =  0.700 |ddv_scf|^2 =  1.621E-13

     End of self-consistent calculation

     Convergence has been achieved 


     Representation #  3 modes #   3  4

     Self-consistent Calculation

      iter #   1 total cpu time :     9.3 secs   av.it.:   5.0
      thresh= 1.000E-02 alpha_mix =  0.700 |ddv_scf|^2 =  5.440E-07

      iter #   2 total cpu time :     9.9 secs   av.it.:   9.5
      thresh= 7.376E-05 alpha_mix =  0.700 |ddv_scf|^2 =  3.982E-08

      iter #   3 total cpu time :    10.5 secs   av.it.:   9.2
      thresh= 1.996E-05 alpha_mix =  0.700 |ddv_scf|^2 =  3.374E-09

      iter #   4 total cpu time :    11.0 secs   av.it.:   9.0
      thresh= 5.809E-06 alpha_mix =  0.700 |ddv_scf|^2 =  1.051E-11

      iter #   5 total cpu time :    11.6 secs   av.it.:   9.1
      thresh= 3.241E-07 alpha_mix =  0.700 |ddv_scf|^2 =  4.887E-13

     End of self-consistent calculation

     Convergence has been achieved 


     Representation #  4 modes #   5  6

     Self-consistent Calculation

      iter #   1 total cpu time :    12.0 secs   av.it.:   5.0
      thresh= 1.000E-02 alpha_mix =  0.700 |ddv_scf|^2 =  5.439E-07

      iter #   2 total cpu time :    12.6 secs   av.it.:   9.6
      thresh= 7.375E-05 alpha_mix =  0.700 |ddv_scf|^2 =  3.978E-08

      iter #   3 total cpu time :    13.1 secs   av.it.:   9.4
      thresh= 1.994E-05 alpha_mix =  0.700 |ddv_scf|^2 =  3.371E-09

      iter #   4 total cpu time :    13.7 secs   av.it.:   9.1
      thresh= 5.806E-06 alpha_mix =  0.700 |ddv_scf|^2 =  1.051E-11

      iter #   5 total cpu time :    14.2 secs   av.it.:   9.2
      thresh= 3.242E-07 alpha_mix =  0.700 |ddv_scf|^2 =  4.892E-13

     End of self-consistent calculation

     Convergence has been achieved 

     Number of q in the star =    8
     List of q in the star:
          1  -0.250000000   0.250000000  -0.250000000
          2   0.250000000  -0.250000000  -0.250000000
          3   0.250000000  -0.250000000   0.250000000
          4   0.250000000   0.250000000   0.250000000
          5  -0.250000000  -0.250000000  -0.250000000
          6  -0.250000000  -0.250000000   0.250000000
          7  -0.250000000   0.250000000   0.250000000
          8   0.250000000   0.250000000  -0.250000000

     Diagonalizing the dynamical matrix

     q = (   -0.250000000   0.250000000  -0.250000000 ) 

 **************************************************************************
     freq (    1) =       3.338978 [THz] =     111.376307 [cm-1]
     freq (    2) =       3.338978 [THz] =     111.376307 [cm-1]
     freq (    3) =       7.045502 [THz] =     235.012636 [cm-1]
     freq (    4) =      14.372453 [THz] =     479.413424 [cm-1]
     freq (    5) =      14.718892 [THz] =     490.969381 [cm-1]
     freq (    6) =      14.718892 [THz] =     490.969381 [cm-1]
 **************************************************************************

     Mode symmetry, C_3v (3m)   point group:

     freq (  1 -  2) =        111.4  [cm-1]   --> E    L_3           
     freq (  3 -  3) =        235.0  [cm-1]   --> A_1  L_1           
     freq (  4 -  4) =        479.4  [cm-1]   --> A_1  L_1           
     freq (  5 -  6) =        491.0  [cm-1]   --> E    L_3           

     Calculation of q =    0.5000000  -0.5000000   0.5000000

   Info: using nr1, nr2, nr3 values from input

   Info: using nr1, nr2, nr3 values from input

     Parallelization info
     --------------------
     sticks:   dense  smooth     PW     G-vecs:    dense   smooth      PW
     Min          63      63     27                  684      684     186
     Max          64      64     28                  688      688     189
     Sum         253     253    109                 2741     2741     749



     bravais-lattice index     =            2
     lattice parameter (alat)  =      10.2700  a.u.
     unit-cell volume          =     270.8017 (a.u.)^3
     number of atoms/cell      =            2
     number of atomic types    =            1
     number of electrons       =         8.00
     number of Kohn-Sham states=            4
     kinetic-energy cutoff     =      18.0000  Ry
     charge density cutoff     =      72.0000  Ry
     Exchange-correlation      = SLA  PW   PBE  PBE ( 1  4  3  4 0 0)

     celldm(1)=  10.270000  celldm(2)=   0.000000  celldm(3)=   0.000000
     celldm(4)=   0.000000  celldm(5)=   0.000000  celldm(6)=   0.000000

     crystal axes: (cart. coord. in units of alat)
               a(1) = (  -0.500000   0.000000   0.500000 )  
               a(2) = (   0.000000   0.500000   0.500000 )  
               a(3) = (  -0.500000   0.500000   0.000000 )  

     reciprocal axes: (cart. coord. in units 2 pi/alat)
               b(1) = ( -1.000000 -1.000000  1.000000 )  
               b(2) = (  1.000000  1.000000  1.000000 )  
               b(3) = ( -1.000000  1.000000 -1.000000 )  


     PseudoPot. # 1 for Si read from file:
     /home/max/quantum_espresso/qe-6.1/pseudo/si_pbe_v1.uspp.F.UPF.txt
     MD5 check sum: a056efeee980c13900f22a371efd63c1
     Pseudo is Ultrasoft + core correction, Zval =  4.0
     Generated by new atomic code, or converted to UPF format
     Using radial grid of  899 points,  6 beta functions with: 
                l(1) =   0
                l(2) =   0
                l(3) =   1
                l(4) =   1
                l(5) =   2
                l(6) =   2
     Q(r) pseudized with  8 coefficients,  rinner =    0.900   0.900   0.900
                                                       0.900   0.900

     atomic species   valence    mass     pseudopotential
        Si             4.00    28.08600     Si( 1.00)

     48 Sym. Ops., with inversion, found



   Cartesian axes

     site n.     atom                  positions (alat units)
         1           Si  tau(   1) = (   0.0000000   0.0000000   0.0000000  )
         2           Si  tau(   2) = (   0.2500000   0.2500000   0.2500000  )

     number of k points=    60
                       cart. coord. in units 2pi/alat
        k(    1) = (  -0.1250000   0.1250000   0.1250000), wk =   0.0468750
        k(    2) = (   0.3750000  -0.3750000   0.6250000), wk =   0.0000000
        k(    3) = (  -0.3750000   0.3750000  -0.1250000), wk =   0.0468750
        k(    4) = (   0.1250000  -0.1250000   0.3750000), wk =   0.0000000
        k(    5) = (   0.3750000  -0.3750000   0.6250000), wk =   0.0468750
        k(    6) = (   0.8750000  -0.8750000   1.1250000), wk =   0.0000000
        k(    7) = (   0.1250000  -0.1250000   0.3750000), wk =   0.0468750
        k(    8) = (   0.6250000  -0.6250000   0.8750000), wk =   0.0000000
        k(    9) = (  -0.1250000   0.6250000   0.1250000), wk =   0.0937500
        k(   10) = (   0.3750000   0.1250000   0.6250000), wk =   0.0000000
        k(   11) = (   0.6250000  -0.1250000   0.8750000), wk =   0.0937500
        k(   12) = (   1.1250000  -0.6250000   1.3750000), wk =   0.0000000
        k(   13) = (   0.3750000   0.1250000   0.6250000), wk =   0.0937500
        k(   14) = (   0.8750000  -0.3750000   1.1250000), wk =   0.0000000
        k(   15) = (  -0.1250000  -0.8750000   0.1250000), wk =   0.0937500
        k(   16) = (   0.3750000  -1.3750000   0.6250000), wk =   0.0000000
        k(   17) = (  -0.3750000   0.3750000   0.3750000), wk =   0.0468750
        k(   18) = (   0.1250000  -0.1250000   0.8750000), wk =   0.0000000
        k(   19) = (   0.3750000  -0.3750000   1.1250000), wk =   0.0468750
        k(   20) = (   0.8750000  -0.8750000   1.6250000), wk =   0.0000000
        k(   21) = (   0.1250000  -0.1250000   0.1250000), wk =   0.0156250
        k(   22) = (   0.6250000  -0.6250000   0.6250000), wk =   0.0000000
        k(   23) = (  -0.3750000  -0.3750000  -0.1250000), wk =   0.0937500
        k(   24) = (   0.1250000  -0.8750000   0.3750000), wk =   0.0000000
        k(   25) = (  -0.1250000  -0.3750000   0.3750000), wk =   0.0468750
        k(   26) = (   0.3750000  -0.8750000   0.8750000), wk =   0.0000000
        k(   27) = (   0.3750000   0.3750000   0.6250000), wk =   0.0937500
        k(   28) = (   0.8750000  -0.1250000   1.1250000), wk =   0.0000000
        k(   29) = (   0.6250000   0.3750000  -0.3750000), wk =   0.0468750
        k(   30) = (   1.1250000  -0.1250000   0.1250000), wk =   0.0000000
        k(   31) = (   0.1250000   0.1250000   0.3750000), wk =   0.0937500
        k(   32) = (   0.6250000  -0.3750000   0.8750000), wk =   0.0000000
        k(   33) = (   0.3750000   0.1250000  -0.1250000), wk =   0.0468750
        k(   34) = (   0.8750000  -0.3750000   0.3750000), wk =   0.0000000
        k(   35) = (  -0.1250000  -0.6250000  -0.1250000), wk =   0.0468750
        k(   36) = (   0.3750000  -1.1250000   0.3750000), wk =   0.0000000
        k(   37) = (   0.1250000  -0.6250000   0.1250000), wk =   0.0468750
        k(   38) = (   0.6250000  -1.1250000   0.6250000), wk =   0.0000000
        k(   39) = (   0.6250000   0.1250000   0.8750000), wk =   0.0937500
        k(   40) = (   1.1250000  -0.3750000   1.3750000), wk =   0.0000000
        k(   41) = (  -0.8750000   0.1250000   0.6250000), wk =   0.0937500
        k(   42) = (  -0.3750000  -0.3750000   1.1250000), wk =   0.0000000
        k(   43) = (   0.8750000   0.1250000  -0.6250000), wk =   0.0937500
        k(   44) = (   1.3750000  -0.3750000  -0.1250000), wk =   0.0000000
        k(   45) = (   0.3750000  -0.1250000   0.6250000), wk =   0.0937500
        k(   46) = (   0.8750000  -0.6250000   1.1250000), wk =   0.0000000
        k(   47) = (  -0.6250000  -0.1250000   0.3750000), wk =   0.0937500
        k(   48) = (  -0.1250000  -0.6250000   0.8750000), wk =   0.0000000
        k(   49) = (   0.6250000  -0.1250000  -0.3750000), wk =   0.0937500
        k(   50) = (   1.1250000  -0.6250000   0.1250000), wk =   0.0000000
        k(   51) = (  -0.1250000   0.8750000  -0.1250000), wk =   0.0468750
        k(   52) = (   0.3750000   0.3750000   0.3750000), wk =   0.0000000
        k(   53) = (   0.1250000   0.8750000   0.1250000), wk =   0.0468750
        k(   54) = (   0.6250000   0.3750000   0.6250000), wk =   0.0000000
        k(   55) = (   0.3750000  -0.3750000   0.3750000), wk =   0.0156250
        k(   56) = (   0.8750000  -0.8750000   0.8750000), wk =   0.0000000
        k(   57) = (   0.3750000   0.3750000   1.1250000), wk =   0.0937500
        k(   58) = (   0.8750000  -0.1250000   1.6250000), wk =   0.0000000
        k(   59) = (   1.1250000   0.3750000  -0.3750000), wk =   0.0468750
        k(   60) = (   1.6250000  -0.1250000   0.1250000), wk =   0.0000000

     Dense  grid:     2741 G-vectors     FFT dimensions: (  20,  20,  20)

     Estimated max dynamical RAM per process >       0.32MB

     Estimated total allocated dynamical RAM >       1.30MB

     Check: negative/imaginary core charge=   -0.000005    0.000000

     The potential is recalculated from file :
     ./_ph0/silicon.10.27.save/charge-density.dat

     Starting wfc are    8 atomic wfcs

     Band Structure Calculation
     Davidson diagonalization with overlap

     ethr =  1.25E-10,  avg # of iterations = 11.6

     total cpu time spent up to now is        1.3 secs

     End of band structure calculation

          k =-0.1250 0.1250 0.1250 (   335 PWs)   bands (ev):

    -5.5625   4.5774   5.8858   5.8858

          k = 0.3750-0.3750 0.6250 (   350 PWs)   bands (ev):

    -3.3602  -0.5582   3.9015   4.6148

          k =-0.3750 0.3750-0.1250 (   348 PWs)   bands (ev):

    -4.5209   1.5541   3.8731   5.3993

          k = 0.1250-0.1250 0.3750 (   344 PWs)   bands (ev):

    -5.0273   2.9509   4.8596   4.9347

          k = 0.3750-0.3750 0.6250 (   350 PWs)   bands (ev):

    -3.3602  -0.5582   3.9015   4.6148

          k = 0.8750-0.8750 1.1250 (   335 PWs)   bands (ev):

    -5.5625   4.5774   5.8858   5.8858

          k = 0.1250-0.1250 0.3750 (   344 PWs)   bands (ev):

    -5.0273   2.9509   4.8596   4.9347

          k = 0.6250-0.6250 0.8750 (   348 PWs)   bands (ev):

    -4.5209   1.5541   3.8731   5.3993

          k =-0.1250 0.6250 0.1250 (   342 PWs)   bands (ev):

    -3.9803   1.2327   3.5155   3.9723

          k = 0.3750 0.1250 0.6250 (   350 PWs)   bands (ev):

    -3.5574   0.3386   2.8682   4.2519

          k = 0.6250-0.1250 0.8750 (   353 PWs)   bands (ev):

    -2.3128  -0.7549   2.1362   3.2286

          k = 1.1250-0.6250 1.3750 (   348 PWs)   bands (ev):

    -4.5209   1.5541   3.8731   5.3993

          k = 0.3750 0.1250 0.6250 (   350 PWs)   bands (ev):

    -3.5574   0.3386   2.8682   4.2519

          k = 0.8750-0.3750 1.1250 (   342 PWs)   bands (ev):

    -3.9803   1.2327   3.5155   3.9723

          k =-0.1250-0.8750 0.1250 (   352 PWs)   bands (ev):

    -2.4865  -0.6539   2.7552   3.4986

          k = 0.3750-1.3750 0.6250 (   350 PWs)   bands (ev):

    -3.3602  -0.5582   3.9015   4.6148

          k =-0.3750 0.3750 0.3750 (   353 PWs)   bands (ev):

    -4.0809   0.2402   5.0876   5.0876

          k = 0.1250-0.1250 0.8750 (   352 PWs)   bands (ev):

    -2.4865  -0.6539   2.7552   3.4986

          k = 0.3750-0.3750 1.1250 (   358 PWs)   bands (ev):

    -2.8576  -0.4589   2.2012   4.2920

          k = 0.8750-0.8750 1.6250 (   342 PWs)   bands (ev):

    -3.9803   1.2327   3.5155   3.9723

          k = 0.1250-0.1250 0.1250 (   335 PWs)   bands (ev):

    -5.5625   4.5774   5.8858   5.8858

          k = 0.6250-0.6250 0.6250 (   353 PWs)   bands (ev):

    -4.0809   0.2402   5.0876   5.0876

          k =-0.3750-0.3750-0.1250 (   348 PWs)   bands (ev):

    -4.5209   1.5541   3.8731   5.3993

          k = 0.1250-0.8750 0.3750 (   353 PWs)   bands (ev):

    -2.3128  -0.7549   2.1362   3.2286

          k =-0.1250-0.3750 0.3750 (   348 PWs)   bands (ev):

    -4.5209   1.5541   3.8731   5.3993

          k = 0.3750-0.8750 0.8750 (   342 PWs)   bands (ev):

    -3.9803   1.2327   3.5155   3.9723

          k = 0.3750 0.3750 0.6250 (   350 PWs)   bands (ev):

    -3.3602  -0.5582   3.9015   4.6148

          k = 0.8750-0.1250 1.1250 (   352 PWs)   bands (ev):

    -2.4865  -0.6539   2.7552   3.4986

          k = 0.6250 0.3750-0.3750 (   350 PWs)   bands (ev):

    -3.3602  -0.5582   3.9015   4.6148

          k = 1.1250-0.1250 0.1250 (   352 PWs)   bands (ev):

    -2.4865  -0.6539   2.7552   3.4986

          k = 0.1250 0.1250 0.3750 (   344 PWs)   bands (ev):

    -5.0273   2.9509   4.8596   4.9347

          k = 0.6250-0.3750 0.8750 (   350 PWs)   bands (ev):

    -3.5574   0.3386   2.8682   4.2519

          k = 0.3750 0.1250-0.1250 (   344 PWs)   bands (ev):

    -5.0273   2.9509   4.8596   4.9347

          k = 0.8750-0.3750 0.3750 (   358 PWs)   bands (ev):

    -2.8576  -0.4589   2.2012   4.2920

          k =-0.1250-0.6250-0.1250 (   342 PWs)   bands (ev):

    -3.9803   1.2327   3.5155   3.9723

          k = 0.3750-1.1250 0.3750 (   358 PWs)   bands (ev):

    -2.8576  -0.4589   2.2012   4.2920

          k = 0.1250-0.6250 0.1250 (   342 PWs)   bands (ev):

    -3.9803   1.2327   3.5155   3.9723

          k = 0.6250-1.1250 0.6250 (   348 PWs)   bands (ev):

    -4.5209   1.5541   3.8731   5.3993

          k = 0.6250 0.1250 0.8750 (   353 PWs)   bands (ev):

    -2.3128  -0.7549   2.1362   3.2286

          k = 1.1250-0.3750 1.3750 (   350 PWs)   bands (ev):

    -3.5574   0.3386   2.8682   4.2519

          k =-0.8750 0.1250 0.6250 (   353 PWs)   bands (ev):

    -2.3128  -0.7549   2.1362   3.2286

          k =-0.3750-0.3750 1.1250 (   358 PWs)   bands (ev):

    -2.8576  -0.4589   2.2012   4.2920

          k = 0.8750 0.1250-0.6250 (   353 PWs)   bands (ev):

    -2.3128  -0.7549   2.1362   3.2286

          k = 1.3750-0.3750-0.1250 (   350 PWs)   bands (ev):

    -3.5574   0.3386   2.8682   4.2519

          k = 0.3750-0.1250 0.6250 (   350 PWs)   bands (ev):

    -3.5574   0.3386   2.8682   4.2519

          k = 0.8750-0.6250 1.1250 (   344 PWs)   bands (ev):

    -5.0273   2.9509   4.8596   4.9347

          k =-0.6250-0.1250 0.3750 (   350 PWs)   bands (ev):

    -3.5574   0.3386   2.8682   4.2519

          k =-0.1250-0.6250 0.8750 (   353 PWs)   bands (ev):

    -2.3128  -0.7549   2.1362   3.2286

          k = 0.6250-0.1250-0.3750 (   350 PWs)   bands (ev):

    -3.5574   0.3386   2.8682   4.2519

          k = 1.1250-0.6250 0.1250 (   353 PWs)   bands (ev):

    -2.3128  -0.7549   2.1362   3.2286

          k =-0.1250 0.8750-0.1250 (   352 PWs)   bands (ev):

    -2.4865  -0.6539   2.7552   3.4986

          k = 0.3750 0.3750 0.3750 (   353 PWs)   bands (ev):

    -4.0809   0.2402   5.0876   5.0876

          k = 0.1250 0.8750 0.1250 (   352 PWs)   bands (ev):

    -2.4865  -0.6539   2.7552   3.4986

          k = 0.6250 0.3750 0.6250 (   350 PWs)   bands (ev):

    -3.3602  -0.5582   3.9015   4.6148

          k = 0.3750-0.3750 0.3750 (   353 PWs)   bands (ev):

    -4.0809   0.2402   5.0876   5.0876

          k = 0.8750-0.8750 0.8750 (   335 PWs)   bands (ev):

    -5.5625   4.5774   5.8858   5.8858

          k = 0.3750 0.3750 1.1250 (   358 PWs)   bands (ev):

    -2.8576  -0.4589   2.2012   4.2920

          k = 0.8750-0.1250 1.6250 (   353 PWs)   bands (ev):

    -2.3128  -0.7549   2.1362   3.2286

          k = 1.1250 0.3750-0.3750 (   358 PWs)   bands (ev):

    -2.8576  -0.4589   2.2012   4.2920

          k = 1.6250-0.1250 0.1250 (   344 PWs)   bands (ev):

    -5.0273   2.9509   4.8596   4.9347

     highest occupied level (ev):     5.8858

     Writing output data file silicon.10.27.save

                                                                                

     bravais-lattice index     =            2
     lattice parameter (alat)  =      10.2700  a.u.
     unit-cell volume          =     270.8017 (a.u.)^3
     number of atoms/cell      =            2
     number of atomic types    =            1
     kinetic-energy cut-off    =      18.0000  Ry
     charge density cut-off    =      72.0000  Ry
     convergence threshold     =      1.0E-12
     beta                      =       0.7000
     number of iterations used =            4
     Exchange-correlation      = SLA  PW   PBE  PBE ( 1  4  3  4 0 0)


     celldm(1)=   10.27000  celldm(2)=    0.00000  celldm(3)=    0.00000
     celldm(4)=    0.00000  celldm(5)=    0.00000  celldm(6)=    0.00000

     crystal axes: (cart. coord. in units of alat)
               a(1) = ( -0.5000  0.0000  0.5000 )  
               a(2) = (  0.0000  0.5000  0.5000 )  
               a(3) = ( -0.5000  0.5000  0.0000 )  

     reciprocal axes: (cart. coord. in units 2 pi/alat)
               b(1) = ( -1.0000 -1.0000  1.0000 )  
               b(2) = (  1.0000  1.0000  1.0000 )  
               b(3) = ( -1.0000  1.0000 -1.0000 )  


     Atoms inside the unit cell: 

     Cartesian axes

     site n.  atom      mass           positions (alat units)
        1     Si  28.0860   tau(    1) = (    0.00000    0.00000    0.00000  )
        2     Si  28.0860   tau(    2) = (    0.25000    0.25000    0.25000  )

     Computing dynamical matrix for 
                    q = (   0.5000000  -0.5000000   0.5000000 )

     13 Sym.Ops. (with q -> -q+G )


     G cutoff =  192.3595  (    685 G-vectors)     FFT grid: ( 20, 20, 20)
     number of k points=    60

     PseudoPot. # 1 for Si read from file:
     /home/max/quantum_espresso/qe-6.1/pseudo/si_pbe_v1.uspp.F.UPF.txt
     MD5 check sum: a056efeee980c13900f22a371efd63c1
     Pseudo is Ultrasoft + core correction, Zval =  4.0
     Generated by new atomic code, or converted to UPF format
     Using radial grid of  899 points,  6 beta functions with: 
                l(1) =   0
                l(2) =   0
                l(3) =   1
                l(4) =   1
                l(5) =   2
                l(6) =   2
     Q(r) pseudized with  8 coefficients,  rinner =    0.900   0.900   0.900
                                                       0.900   0.900


     Atomic displacements:
     There are   4 irreducible representations

     Representation     1      1 modes -  To be done

     Representation     2      1 modes -  To be done

     Representation     3      2 modes -  To be done

     Representation     4      2 modes -  To be done



     Alpha used in Ewald sum =   0.7000
     PHONON       :    14.33s CPU        14.99s WALL



     Representation #  1 mode #   1

     Self-consistent Calculation

      iter #   1 total cpu time :    15.1 secs   av.it.:   4.8
      thresh= 1.000E-02 alpha_mix =  0.700 |ddv_scf|^2 =  2.519E-05

      iter #   2 total cpu time :    15.2 secs   av.it.:   8.3
      thresh= 5.019E-04 alpha_mix =  0.700 |ddv_scf|^2 =  2.212E-05

      iter #   3 total cpu time :    15.4 secs   av.it.:   7.5
      thresh= 4.703E-04 alpha_mix =  0.700 |ddv_scf|^2 =  4.000E-08

      iter #   4 total cpu time :    15.5 secs   av.it.:   7.6
      thresh= 2.000E-05 alpha_mix =  0.700 |ddv_scf|^2 =  1.419E-10

      iter #   5 total cpu time :    15.6 secs   av.it.:   7.9
      thresh= 1.191E-06 alpha_mix =  0.700 |ddv_scf|^2 =  3.502E-12

      iter #   6 total cpu time :    15.8 secs   av.it.:   7.9
      thresh= 1.871E-07 alpha_mix =  0.700 |ddv_scf|^2 =  5.496E-14

     End of self-consistent calculation

     Convergence has been achieved 


     Representation #  2 mode #   2

     Self-consistent Calculation

      iter #   1 total cpu time :    15.9 secs   av.it.:   5.6
      thresh= 1.000E-02 alpha_mix =  0.700 |ddv_scf|^2 =  3.513E-04

      iter #   2 total cpu time :    16.1 secs   av.it.:   8.3
      thresh= 1.874E-03 alpha_mix =  0.700 |ddv_scf|^2 =  1.079E-03

      iter #   3 total cpu time :    16.2 secs   av.it.:   7.1
      thresh= 3.284E-03 alpha_mix =  0.700 |ddv_scf|^2 =  1.054E-07

      iter #   4 total cpu time :    16.3 secs   av.it.:   8.1
      thresh= 3.247E-05 alpha_mix =  0.700 |ddv_scf|^2 =  6.525E-09

      iter #   5 total cpu time :    16.5 secs   av.it.:   8.5
      thresh= 8.078E-06 alpha_mix =  0.700 |ddv_scf|^2 =  1.245E-10

      iter #   6 total cpu time :    16.6 secs   av.it.:   8.2
      thresh= 1.116E-06 alpha_mix =  0.700 |ddv_scf|^2 =  1.962E-12

      iter #   7 total cpu time :    16.7 secs   av.it.:   7.8
      thresh= 1.401E-07 alpha_mix =  0.700 |ddv_scf|^2 =  3.144E-15

     End of self-consistent calculation

     Convergence has been achieved 


     Representation #  3 modes #   3  4

     Self-consistent Calculation

      iter #   1 total cpu time :    17.0 secs   av.it.:   4.7
      thresh= 1.000E-02 alpha_mix =  0.700 |ddv_scf|^2 =  2.943E-07

      iter #   2 total cpu time :    17.3 secs   av.it.:   9.0
      thresh= 5.425E-05 alpha_mix =  0.700 |ddv_scf|^2 =  2.403E-08

      iter #   3 total cpu time :    17.5 secs   av.it.:   8.4
      thresh= 1.550E-05 alpha_mix =  0.700 |ddv_scf|^2 =  4.836E-10

      iter #   4 total cpu time :    17.8 secs   av.it.:   8.9
      thresh= 2.199E-06 alpha_mix =  0.700 |ddv_scf|^2 =  6.139E-12

      iter #   5 total cpu time :    18.1 secs   av.it.:   8.7
      thresh= 2.478E-07 alpha_mix =  0.700 |ddv_scf|^2 =  3.130E-14

     End of self-consistent calculation

     Convergence has been achieved 


     Representation #  4 modes #   5  6

     Self-consistent Calculation

      iter #   1 total cpu time :    18.3 secs   av.it.:   5.0
      thresh= 1.000E-02 alpha_mix =  0.700 |ddv_scf|^2 =  9.694E-07

      iter #   2 total cpu time :    18.6 secs   av.it.:   9.5
      thresh= 9.846E-05 alpha_mix =  0.700 |ddv_scf|^2 =  7.580E-08

      iter #   3 total cpu time :    18.9 secs   av.it.:   9.3
      thresh= 2.753E-05 alpha_mix =  0.700 |ddv_scf|^2 =  4.670E-09

      iter #   4 total cpu time :    19.2 secs   av.it.:   8.5
      thresh= 6.834E-06 alpha_mix =  0.700 |ddv_scf|^2 =  6.344E-12

      iter #   5 total cpu time :    19.5 secs   av.it.:   8.8
      thresh= 2.519E-07 alpha_mix =  0.700 |ddv_scf|^2 =  2.207E-14

     End of self-consistent calculation

     Convergence has been achieved 

     Number of q in the star =    4
     List of q in the star:
          1   0.500000000  -0.500000000   0.500000000
          2   0.500000000   0.500000000   0.500000000
          3  -0.500000000   0.500000000   0.500000000
          4   0.500000000   0.500000000  -0.500000000

     Diagonalizing the dynamical matrix

     q = (    0.500000000  -0.500000000   0.500000000 ) 

 **************************************************************************
     freq (    1) =       4.394753 [THz] =     146.593184 [cm-1]
     freq (    2) =       4.394753 [THz] =     146.593184 [cm-1]
     freq (    3) =      11.570419 [THz] =     385.947622 [cm-1]
     freq (    4) =      12.444825 [THz] =     415.114670 [cm-1]
     freq (    5) =      14.726935 [THz] =     491.237658 [cm-1]
     freq (    6) =      14.726935 [THz] =     491.237658 [cm-1]
 **************************************************************************

     Calculation of q =    0.0000000   0.5000000   0.0000000

   Info: using nr1, nr2, nr3 values from input

   Info: using nr1, nr2, nr3 values from input

     Parallelization info
     --------------------
     sticks:   dense  smooth     PW     G-vecs:    dense   smooth      PW
     Min          63      63     24                  684      684     161
     Max          64      64     25                  688      688     162
     Sum         253     253     97                 2741     2741     645



     bravais-lattice index     =            2
     lattice parameter (alat)  =      10.2700  a.u.
     unit-cell volume          =     270.8017 (a.u.)^3
     number of atoms/cell      =            2
     number of atomic types    =            1
     number of electrons       =         8.00
     number of Kohn-Sham states=            4
     kinetic-energy cutoff     =      18.0000  Ry
     charge density cutoff     =      72.0000  Ry
     Exchange-correlation      = SLA  PW   PBE  PBE ( 1  4  3  4 0 0)

     celldm(1)=  10.270000  celldm(2)=   0.000000  celldm(3)=   0.000000
     celldm(4)=   0.000000  celldm(5)=   0.000000  celldm(6)=   0.000000

     crystal axes: (cart. coord. in units of alat)
               a(1) = (  -0.500000   0.000000   0.500000 )  
               a(2) = (   0.000000   0.500000   0.500000 )  
               a(3) = (  -0.500000   0.500000   0.000000 )  

     reciprocal axes: (cart. coord. in units 2 pi/alat)
               b(1) = ( -1.000000 -1.000000  1.000000 )  
               b(2) = (  1.000000  1.000000  1.000000 )  
               b(3) = ( -1.000000  1.000000 -1.000000 )  


     PseudoPot. # 1 for Si read from file:
     /home/max/quantum_espresso/qe-6.1/pseudo/si_pbe_v1.uspp.F.UPF.txt
     MD5 check sum: a056efeee980c13900f22a371efd63c1
     Pseudo is Ultrasoft + core correction, Zval =  4.0
     Generated by new atomic code, or converted to UPF format
     Using radial grid of  899 points,  6 beta functions with: 
                l(1) =   0
                l(2) =   0
                l(3) =   1
                l(4) =   1
                l(5) =   2
                l(6) =   2
     Q(r) pseudized with  8 coefficients,  rinner =    0.900   0.900   0.900
                                                       0.900   0.900

     atomic species   valence    mass     pseudopotential
        Si             4.00    28.08600     Si( 1.00)

     48 Sym. Ops., with inversion, found



   Cartesian axes

     site n.     atom                  positions (alat units)
         1           Si  tau(   1) = (   0.0000000   0.0000000   0.0000000  )
         2           Si  tau(   2) = (   0.2500000   0.2500000   0.2500000  )

     number of k points=    80
                       cart. coord. in units 2pi/alat
        k(    1) = (  -0.1250000   0.1250000   0.1250000), wk =   0.0312500
        k(    2) = (  -0.1250000   0.6250000   0.1250000), wk =   0.0000000
        k(    3) = (  -0.3750000   0.3750000  -0.1250000), wk =   0.0625000
        k(    4) = (  -0.3750000   0.8750000  -0.1250000), wk =   0.0000000
        k(    5) = (   0.3750000  -0.3750000   0.6250000), wk =   0.0625000
        k(    6) = (   0.3750000   0.1250000   0.6250000), wk =   0.0000000
        k(    7) = (   0.1250000  -0.1250000   0.3750000), wk =   0.0625000
        k(    8) = (   0.1250000   0.3750000   0.3750000), wk =   0.0000000
        k(    9) = (  -0.1250000   0.6250000   0.1250000), wk =   0.0312500
        k(   10) = (  -0.1250000   1.1250000   0.1250000), wk =   0.0000000
        k(   11) = (   0.6250000  -0.1250000   0.8750000), wk =   0.0625000
        k(   12) = (   0.6250000   0.3750000   0.8750000), wk =   0.0000000
        k(   13) = (   0.3750000   0.1250000   0.6250000), wk =   0.0625000
        k(   14) = (   0.3750000   0.6250000   0.6250000), wk =   0.0000000
        k(   15) = (  -0.1250000  -0.8750000   0.1250000), wk =   0.0312500
        k(   16) = (  -0.1250000  -0.3750000   0.1250000), wk =   0.0000000
        k(   17) = (  -0.3750000   0.3750000   0.3750000), wk =   0.0312500
        k(   18) = (  -0.3750000   0.8750000   0.3750000), wk =   0.0000000
        k(   19) = (   0.3750000  -0.3750000   1.1250000), wk =   0.0625000
        k(   20) = (   0.3750000   0.1250000   1.1250000), wk =   0.0000000
        k(   21) = (  -0.1250000  -0.1250000   0.1250000), wk =   0.0312500
        k(   22) = (  -0.1250000   0.3750000   0.1250000), wk =   0.0000000
        k(   23) = (   0.1250000  -0.3750000   0.3750000), wk =   0.0625000
        k(   24) = (   0.1250000   0.1250000   0.3750000), wk =   0.0000000
        k(   25) = (   0.3750000  -0.1250000   0.3750000), wk =   0.0312500
        k(   26) = (   0.3750000   0.3750000   0.3750000), wk =   0.0000000
        k(   27) = (   0.3750000   0.1250000   0.3750000), wk =   0.0312500
        k(   28) = (   0.3750000   0.6250000   0.3750000), wk =   0.0000000
        k(   29) = (  -0.6250000   0.3750000  -0.3750000), wk =   0.0625000
        k(   30) = (  -0.6250000   0.8750000  -0.3750000), wk =   0.0000000
        k(   31) = (  -0.3750000   0.6250000  -0.3750000), wk =   0.0312500
        k(   32) = (  -0.3750000   1.1250000  -0.3750000), wk =   0.0000000
        k(   33) = (  -0.3750000  -0.6250000  -0.3750000), wk =   0.0312500
        k(   34) = (  -0.3750000  -0.1250000  -0.3750000), wk =   0.0000000
        k(   35) = (  -0.3750000   0.1250000  -0.1250000), wk =   0.0625000
        k(   36) = (  -0.3750000   0.6250000  -0.1250000), wk =   0.0000000
        k(   37) = (  -0.1250000   0.3750000  -0.1250000), wk =   0.0312500
        k(   38) = (  -0.1250000   0.8750000  -0.1250000), wk =   0.0000000
        k(   39) = (  -0.1250000  -0.3750000  -0.1250000), wk =   0.0312500
        k(   40) = (  -0.1250000   0.1250000  -0.1250000), wk =   0.0000000
        k(   41) = (  -0.1250000  -0.6250000   0.1250000), wk =   0.0312500
        k(   42) = (  -0.1250000  -0.1250000   0.1250000), wk =   0.0000000
        k(   43) = (   0.6250000  -0.1250000  -0.1250000), wk =   0.0625000
        k(   44) = (   0.6250000   0.3750000  -0.1250000), wk =   0.0000000
        k(   45) = (   0.6250000   0.1250000   0.1250000), wk =   0.0625000
        k(   46) = (   0.6250000   0.6250000   0.1250000), wk =   0.0000000
        k(   47) = (  -0.8750000   0.1250000  -0.6250000), wk =   0.0625000
        k(   48) = (  -0.8750000   0.6250000  -0.6250000), wk =   0.0000000
        k(   49) = (  -0.1250000   0.6250000  -0.8750000), wk =   0.0625000
        k(   50) = (  -0.1250000   1.1250000  -0.8750000), wk =   0.0000000
        k(   51) = (  -0.1250000   0.8750000  -0.6250000), wk =   0.0625000
        k(   52) = (  -0.1250000   1.3750000  -0.6250000), wk =   0.0000000
        k(   53) = (  -0.1250000  -0.8750000  -0.6250000), wk =   0.0625000
        k(   54) = (  -0.1250000  -0.3750000  -0.6250000), wk =   0.0000000
        k(   55) = (   0.8750000  -0.6250000   0.1250000), wk =   0.0625000
        k(   56) = (   0.8750000  -0.1250000   0.1250000), wk =   0.0000000
        k(   57) = (  -0.6250000  -0.1250000  -0.3750000), wk =   0.0625000
        k(   58) = (  -0.6250000   0.3750000  -0.3750000), wk =   0.0000000
        k(   59) = (   0.1250000   0.3750000  -0.6250000), wk =   0.0625000
        k(   60) = (   0.1250000   0.8750000  -0.6250000), wk =   0.0000000
        k(   61) = (   0.1250000   0.6250000  -0.3750000), wk =   0.0625000
        k(   62) = (   0.1250000   1.1250000  -0.3750000), wk =   0.0000000
        k(   63) = (   0.1250000  -0.6250000  -0.3750000), wk =   0.0625000
        k(   64) = (   0.1250000  -0.1250000  -0.3750000), wk =   0.0000000
        k(   65) = (   0.6250000  -0.3750000  -0.1250000), wk =   0.0625000
        k(   66) = (   0.6250000   0.1250000  -0.1250000), wk =   0.0000000
        k(   67) = (  -0.1250000   0.8750000   0.1250000), wk =   0.0312500
        k(   68) = (  -0.1250000   1.3750000   0.1250000), wk =   0.0000000
        k(   69) = (  -0.8750000  -0.1250000  -0.1250000), wk =   0.0625000
        k(   70) = (  -0.8750000   0.3750000  -0.1250000), wk =   0.0000000
        k(   71) = (  -0.8750000   0.1250000   0.1250000), wk =   0.0625000
        k(   72) = (  -0.8750000   0.6250000   0.1250000), wk =   0.0000000
        k(   73) = (  -0.3750000  -0.3750000   0.3750000), wk =   0.0312500
        k(   74) = (  -0.3750000   0.1250000   0.3750000), wk =   0.0000000
        k(   75) = (  -1.1250000   0.3750000  -0.3750000), wk =   0.0625000
        k(   76) = (  -1.1250000   0.8750000  -0.3750000), wk =   0.0000000
        k(   77) = (  -0.3750000   1.1250000  -0.3750000), wk =   0.0312500
        k(   78) = (  -0.3750000   1.6250000  -0.3750000), wk =   0.0000000
        k(   79) = (  -0.3750000  -1.1250000  -0.3750000), wk =   0.0312500
        k(   80) = (  -0.3750000  -0.6250000  -0.3750000), wk =   0.0000000

     Dense  grid:     2741 G-vectors     FFT dimensions: (  20,  20,  20)

     Estimated max dynamical RAM per process >       0.32MB

     Estimated total allocated dynamical RAM >       1.30MB

     Check: negative/imaginary core charge=   -0.000005    0.000000

     The potential is recalculated from file :
     ./_ph0/silicon.10.27.save/charge-density.dat

     Starting wfc are    8 atomic wfcs

     Band Structure Calculation
     Davidson diagonalization with overlap

     ethr =  1.25E-10,  avg # of iterations = 11.6

     total cpu time spent up to now is        1.9 secs

     End of band structure calculation

          k =-0.1250 0.1250 0.1250 (   335 PWs)   bands (ev):

    -5.5625   4.5774   5.8858   5.8858

          k =-0.1250 0.6250 0.1250 (   342 PWs)   bands (ev):

    -3.9803   1.2327   3.5155   3.9723

          k =-0.3750 0.3750-0.1250 (   348 PWs)   bands (ev):

    -4.5209   1.5541   3.8731   5.3993

          k =-0.3750 0.8750-0.1250 (   353 PWs)   bands (ev):

    -2.3128  -0.7549   2.1362   3.2286

          k = 0.3750-0.3750 0.6250 (   350 PWs)   bands (ev):

    -3.3602  -0.5582   3.9015   4.6148

          k = 0.3750 0.1250 0.6250 (   350 PWs)   bands (ev):

    -3.5574   0.3386   2.8682   4.2519

          k = 0.1250-0.1250 0.3750 (   344 PWs)   bands (ev):

    -5.0273   2.9509   4.8596   4.9347

          k = 0.1250 0.3750 0.3750 (   348 PWs)   bands (ev):

    -4.5209   1.5541   3.8731   5.3993

          k =-0.1250 0.6250 0.1250 (   342 PWs)   bands (ev):

    -3.9803   1.2327   3.5155   3.9723

          k =-0.1250 1.1250 0.1250 (   352 PWs)   bands (ev):

    -2.4865  -0.6539   2.7552   3.4986

          k = 0.6250-0.1250 0.8750 (   353 PWs)   bands (ev):

    -2.3128  -0.7549   2.1362   3.2286

          k = 0.6250 0.3750 0.8750 (   350 PWs)   bands (ev):

    -3.5574   0.3386   2.8682   4.2519

          k = 0.3750 0.1250 0.6250 (   350 PWs)   bands (ev):

    -3.5574   0.3386   2.8682   4.2519

          k = 0.3750 0.6250 0.6250 (   350 PWs)   bands (ev):

    -3.3602  -0.5582   3.9015   4.6148

          k =-0.1250-0.8750 0.1250 (   352 PWs)   bands (ev):

    -2.4865  -0.6539   2.7552   3.4986

          k =-0.1250-0.3750 0.1250 (   344 PWs)   bands (ev):

    -5.0273   2.9509   4.8596   4.9347

          k =-0.3750 0.3750 0.3750 (   353 PWs)   bands (ev):

    -4.0809   0.2402   5.0876   5.0876

          k =-0.3750 0.8750 0.3750 (   358 PWs)   bands (ev):

    -2.8576  -0.4589   2.2012   4.2920

          k = 0.3750-0.3750 1.1250 (   358 PWs)   bands (ev):

    -2.8576  -0.4589   2.2012   4.2920

          k = 0.3750 0.1250 1.1250 (   353 PWs)   bands (ev):

    -2.3128  -0.7549   2.1362   3.2286

          k =-0.1250-0.1250 0.1250 (   335 PWs)   bands (ev):

    -5.5625   4.5774   5.8858   5.8858

          k =-0.1250 0.3750 0.1250 (   344 PWs)   bands (ev):

    -5.0273   2.9509   4.8596   4.9347

          k = 0.1250-0.3750 0.3750 (   348 PWs)   bands (ev):

    -4.5209   1.5541   3.8731   5.3993

          k = 0.1250 0.1250 0.3750 (   344 PWs)   bands (ev):

    -5.0273   2.9509   4.8596   4.9347

          k = 0.3750-0.1250 0.3750 (   348 PWs)   bands (ev):

    -4.5209   1.5541   3.8731   5.3993

          k = 0.3750 0.3750 0.3750 (   353 PWs)   bands (ev):

    -4.0809   0.2402   5.0876   5.0876

          k = 0.3750 0.1250 0.3750 (   348 PWs)   bands (ev):

    -4.5209   1.5541   3.8731   5.3993

          k = 0.3750 0.6250 0.3750 (   350 PWs)   bands (ev):

    -3.3602  -0.5582   3.9015   4.6148

          k =-0.6250 0.3750-0.3750 (   350 PWs)   bands (ev):

    -3.3602  -0.5582   3.9015   4.6148

          k =-0.6250 0.8750-0.3750 (   350 PWs)   bands (ev):

    -3.5574   0.3386   2.8682   4.2519

          k =-0.3750 0.6250-0.3750 (   350 PWs)   bands (ev):

    -3.3602  -0.5582   3.9015   4.6148

          k =-0.3750 1.1250-0.3750 (   358 PWs)   bands (ev):

    -2.8576  -0.4589   2.2012   4.2920

          k =-0.3750-0.6250-0.3750 (   350 PWs)   bands (ev):

    -3.3602  -0.5582   3.9015   4.6148

          k =-0.3750-0.1250-0.3750 (   348 PWs)   bands (ev):

    -4.5209   1.5541   3.8731   5.3993

          k =-0.3750 0.1250-0.1250 (   344 PWs)   bands (ev):

    -5.0273   2.9509   4.8596   4.9347

          k =-0.3750 0.6250-0.1250 (   350 PWs)   bands (ev):

    -3.5574   0.3386   2.8682   4.2519

          k =-0.1250 0.3750-0.1250 (   344 PWs)   bands (ev):

    -5.0273   2.9509   4.8596   4.9347

          k =-0.1250 0.8750-0.1250 (   352 PWs)   bands (ev):

    -2.4865  -0.6539   2.7552   3.4986

          k =-0.1250-0.3750-0.1250 (   344 PWs)   bands (ev):

    -5.0273   2.9509   4.8596   4.9347

          k =-0.1250 0.1250-0.1250 (   335 PWs)   bands (ev):

    -5.5625   4.5774   5.8858   5.8858

          k =-0.1250-0.6250 0.1250 (   342 PWs)   bands (ev):

    -3.9803   1.2327   3.5155   3.9723

          k =-0.1250-0.1250 0.1250 (   335 PWs)   bands (ev):

    -5.5625   4.5774   5.8858   5.8858

          k = 0.6250-0.1250-0.1250 (   342 PWs)   bands (ev):

    -3.9803   1.2327   3.5155   3.9723

          k = 0.6250 0.3750-0.1250 (   350 PWs)   bands (ev):

    -3.5574   0.3386   2.8682   4.2519

          k = 0.6250 0.1250 0.1250 (   342 PWs)   bands (ev):

    -3.9803   1.2327   3.5155   3.9723

          k = 0.6250 0.6250 0.1250 (   358 PWs)   bands (ev):

    -2.8576  -0.4589   2.2012   4.2920

          k =-0.8750 0.1250-0.6250 (   353 PWs)   bands (ev):

    -2.3128  -0.7549   2.1362   3.2286

          k =-0.8750 0.6250-0.6250 (   348 PWs)   bands (ev):

    -4.5209   1.5541   3.8731   5.3993

          k =-0.1250 0.6250-0.8750 (   353 PWs)   bands (ev):

    -2.3128  -0.7549   2.1362   3.2286

          k =-0.1250 1.1250-0.8750 (   352 PWs)   bands (ev):

    -2.4865  -0.6539   2.7552   3.4986

          k =-0.1250 0.8750-0.6250 (   353 PWs)   bands (ev):

    -2.3128  -0.7549   2.1362   3.2286

          k =-0.1250 1.3750-0.6250 (   358 PWs)   bands (ev):

    -2.8576  -0.4589   2.2012   4.2920

          k =-0.1250-0.8750-0.6250 (   353 PWs)   bands (ev):

    -2.3128  -0.7549   2.1362   3.2286

          k =-0.1250-0.3750-0.6250 (   350 PWs)   bands (ev):

    -3.5574   0.3386   2.8682   4.2519

          k = 0.8750-0.6250 0.1250 (   353 PWs)   bands (ev):

    -2.3128  -0.7549   2.1362   3.2286

          k = 0.8750-0.1250 0.1250 (   352 PWs)   bands (ev):

    -2.4865  -0.6539   2.7552   3.4986

          k =-0.6250-0.1250-0.3750 (   350 PWs)   bands (ev):

    -3.5574   0.3386   2.8682   4.2519

          k =-0.6250 0.3750-0.3750 (   350 PWs)   bands (ev):

    -3.3602  -0.5582   3.9015   4.6148

          k = 0.1250 0.3750-0.6250 (   350 PWs)   bands (ev):

    -3.5574   0.3386   2.8682   4.2519

          k = 0.1250 0.8750-0.6250 (   353 PWs)   bands (ev):

    -2.3128  -0.7549   2.1362   3.2286

          k = 0.1250 0.6250-0.3750 (   350 PWs)   bands (ev):

    -3.5574   0.3386   2.8682   4.2519

          k = 0.1250 1.1250-0.3750 (   353 PWs)   bands (ev):

    -2.3128  -0.7549   2.1362   3.2286

          k = 0.1250-0.6250-0.3750 (   350 PWs)   bands (ev):

    -3.5574   0.3386   2.8682   4.2519

          k = 0.1250-0.1250-0.3750 (   344 PWs)   bands (ev):

    -5.0273   2.9509   4.8596   4.9347

          k = 0.6250-0.3750-0.1250 (   350 PWs)   bands (ev):

    -3.5574   0.3386   2.8682   4.2519

          k = 0.6250 0.1250-0.1250 (   342 PWs)   bands (ev):

    -3.9803   1.2327   3.5155   3.9723

          k =-0.1250 0.8750 0.1250 (   352 PWs)   bands (ev):

    -2.4865  -0.6539   2.7552   3.4986

          k =-0.1250 1.3750 0.1250 (   342 PWs)   bands (ev):

    -3.9803   1.2327   3.5155   3.9723

          k =-0.8750-0.1250-0.1250 (   352 PWs)   bands (ev):

    -2.4865  -0.6539   2.7552   3.4986

          k =-0.8750 0.3750-0.1250 (   353 PWs)   bands (ev):

    -2.3128  -0.7549   2.1362   3.2286

          k =-0.8750 0.1250 0.1250 (   352 PWs)   bands (ev):

    -2.4865  -0.6539   2.7552   3.4986

          k =-0.8750 0.6250 0.1250 (   353 PWs)   bands (ev):

    -2.3128  -0.7549   2.1362   3.2286

          k =-0.3750-0.3750 0.3750 (   353 PWs)   bands (ev):

    -4.0809   0.2402   5.0876   5.0876

          k =-0.3750 0.1250 0.3750 (   348 PWs)   bands (ev):

    -4.5209   1.5541   3.8731   5.3993

          k =-1.1250 0.3750-0.3750 (   358 PWs)   bands (ev):

    -2.8576  -0.4589   2.2012   4.2920

          k =-1.1250 0.8750-0.3750 (   342 PWs)   bands (ev):

    -3.9803   1.2327   3.5155   3.9723

          k =-0.3750 1.1250-0.3750 (   358 PWs)   bands (ev):

    -2.8576  -0.4589   2.2012   4.2920

          k =-0.3750 1.6250-0.3750 (   353 PWs)   bands (ev):

    -4.0809   0.2402   5.0876   5.0876

          k =-0.3750-1.1250-0.3750 (   358 PWs)   bands (ev):

    -2.8576  -0.4589   2.2012   4.2920

          k =-0.3750-0.6250-0.3750 (   350 PWs)   bands (ev):

    -3.3602  -0.5582   3.9015   4.6148

     highest occupied level (ev):     5.8858

     Writing output data file silicon.10.27.save

                                                                                

     bravais-lattice index     =            2
     lattice parameter (alat)  =      10.2700  a.u.
     unit-cell volume          =     270.8017 (a.u.)^3
     number of atoms/cell      =            2
     number of atomic types    =            1
     kinetic-energy cut-off    =      18.0000  Ry
     charge density cut-off    =      72.0000  Ry
     convergence threshold     =      1.0E-12
     beta                      =       0.7000
     number of iterations used =            4
     Exchange-correlation      = SLA  PW   PBE  PBE ( 1  4  3  4 0 0)


     celldm(1)=   10.27000  celldm(2)=    0.00000  celldm(3)=    0.00000
     celldm(4)=    0.00000  celldm(5)=    0.00000  celldm(6)=    0.00000

     crystal axes: (cart. coord. in units of alat)
               a(1) = ( -0.5000  0.0000  0.5000 )  
               a(2) = (  0.0000  0.5000  0.5000 )  
               a(3) = ( -0.5000  0.5000  0.0000 )  

     reciprocal axes: (cart. coord. in units 2 pi/alat)
               b(1) = ( -1.0000 -1.0000  1.0000 )  
               b(2) = (  1.0000  1.0000  1.0000 )  
               b(3) = ( -1.0000  1.0000 -1.0000 )  


     Atoms inside the unit cell: 

     Cartesian axes

     site n.  atom      mass           positions (alat units)
        1     Si  28.0860   tau(    1) = (    0.00000    0.00000    0.00000  )
        2     Si  28.0860   tau(    2) = (    0.25000    0.25000    0.25000  )

     Computing dynamical matrix for 
                    q = (   0.0000000   0.5000000   0.0000000 )

      8 Sym.Ops. (no q -> -q+G )


     G cutoff =  192.3595  (    685 G-vectors)     FFT grid: ( 20, 20, 20)
     number of k points=    80

     PseudoPot. # 1 for Si read from file:
     /home/max/quantum_espresso/qe-6.1/pseudo/si_pbe_v1.uspp.F.UPF.txt
     MD5 check sum: a056efeee980c13900f22a371efd63c1
     Pseudo is Ultrasoft + core correction, Zval =  4.0
     Generated by new atomic code, or converted to UPF format
     Using radial grid of  899 points,  6 beta functions with: 
                l(1) =   0
                l(2) =   0
                l(3) =   1
                l(4) =   1
                l(5) =   2
                l(6) =   2
     Q(r) pseudized with  8 coefficients,  rinner =    0.900   0.900   0.900
                                                       0.900   0.900

     Mode symmetry, C_4v (4mm)  point group:


     Atomic displacements:
     There are   4 irreducible representations

     Representation     1      1 modes -A_1  G_1 D_1  To be done

     Representation     2      1 modes -B_2  G_4 D_2'  To be done

     Representation     3      2 modes -E    G_5 D_5  To be done

     Representation     4      2 modes -E    G_5 D_5  To be done



     Alpha used in Ewald sum =   0.7000
     PHONON       :    19.46s CPU        20.37s WALL



     Representation #  1 mode #   1

     Self-consistent Calculation

      iter #   1 total cpu time :    20.5 secs   av.it.:   5.8
      thresh= 1.000E-02 alpha_mix =  0.700 |ddv_scf|^2 =  3.022E-03

      iter #   2 total cpu time :    20.7 secs   av.it.:   7.6
      thresh= 5.497E-03 alpha_mix =  0.700 |ddv_scf|^2 =  3.942E-02

      iter #   3 total cpu time :    20.8 secs   av.it.:   6.7
      thresh= 1.000E-02 alpha_mix =  0.700 |ddv_scf|^2 =  1.352E-07

      iter #   4 total cpu time :    21.0 secs   av.it.:   8.2
      thresh= 3.678E-05 alpha_mix =  0.700 |ddv_scf|^2 =  1.178E-08

      iter #   5 total cpu time :    21.2 secs   av.it.:   7.7
      thresh= 1.085E-05 alpha_mix =  0.700 |ddv_scf|^2 =  7.580E-10

      iter #   6 total cpu time :    21.4 secs   av.it.:   7.8
      thresh= 2.753E-06 alpha_mix =  0.700 |ddv_scf|^2 =  2.555E-12

      iter #   7 total cpu time :    21.5 secs   av.it.:   7.9
      thresh= 1.598E-07 alpha_mix =  0.700 |ddv_scf|^2 =  5.068E-13

     End of self-consistent calculation

     Convergence has been achieved 


     Representation #  2 mode #   2

     Self-consistent Calculation

      iter #   1 total cpu time :    21.7 secs   av.it.:   4.9
      thresh= 1.000E-02 alpha_mix =  0.700 |ddv_scf|^2 =  5.474E-06

      iter #   2 total cpu time :    21.9 secs   av.it.:   8.6
      thresh= 2.340E-04 alpha_mix =  0.700 |ddv_scf|^2 =  1.298E-06

      iter #   3 total cpu time :    22.1 secs   av.it.:   8.5
      thresh= 1.140E-04 alpha_mix =  0.700 |ddv_scf|^2 =  3.892E-08

      iter #   4 total cpu time :    22.2 secs   av.it.:   8.1
      thresh= 1.973E-05 alpha_mix =  0.700 |ddv_scf|^2 =  6.218E-10

      iter #   5 total cpu time :    22.4 secs   av.it.:   8.5
      thresh= 2.494E-06 alpha_mix =  0.700 |ddv_scf|^2 =  6.523E-12

      iter #   6 total cpu time :    22.6 secs   av.it.:   7.9
      thresh= 2.554E-07 alpha_mix =  0.700 |ddv_scf|^2 =  6.569E-14

     End of self-consistent calculation

     Convergence has been achieved 


     Representation #  3 modes #   3  4

     Self-consistent Calculation

      iter #   1 total cpu time :    22.9 secs   av.it.:   5.0
      thresh= 1.000E-02 alpha_mix =  0.700 |ddv_scf|^2 =  1.016E-06

      iter #   2 total cpu time :    23.3 secs   av.it.:   9.7
      thresh= 1.008E-04 alpha_mix =  0.700 |ddv_scf|^2 =  1.264E-07

      iter #   3 total cpu time :    23.7 secs   av.it.:   9.5
      thresh= 3.555E-05 alpha_mix =  0.700 |ddv_scf|^2 =  6.284E-09

      iter #   4 total cpu time :    24.0 secs   av.it.:   8.8
      thresh= 7.927E-06 alpha_mix =  0.700 |ddv_scf|^2 =  9.021E-12

      iter #   5 total cpu time :    24.4 secs   av.it.:   9.1
      thresh= 3.004E-07 alpha_mix =  0.700 |ddv_scf|^2 =  2.753E-13

     End of self-consistent calculation

     Convergence has been achieved 


     Representation #  4 modes #   5  6

     Self-consistent Calculation

      iter #   1 total cpu time :    24.7 secs   av.it.:   5.0
      thresh= 1.000E-02 alpha_mix =  0.700 |ddv_scf|^2 =  9.051E-07

      iter #   2 total cpu time :    25.1 secs   av.it.:   9.7
      thresh= 9.514E-05 alpha_mix =  0.700 |ddv_scf|^2 =  1.147E-07

      iter #   3 total cpu time :    25.5 secs   av.it.:   9.4
      thresh= 3.387E-05 alpha_mix =  0.700 |ddv_scf|^2 =  5.859E-09

      iter #   4 total cpu time :    25.8 secs   av.it.:   8.9
      thresh= 7.654E-06 alpha_mix =  0.700 |ddv_scf|^2 =  1.370E-11

      iter #   5 total cpu time :    26.2 secs   av.it.:   9.1
      thresh= 3.701E-07 alpha_mix =  0.700 |ddv_scf|^2 =  4.215E-14

     End of self-consistent calculation

     Convergence has been achieved 

     Number of q in the star =    6
     List of q in the star:
          1   0.000000000   0.500000000   0.000000000
          2   0.000000000  -0.500000000   0.000000000
          3   0.500000000   0.000000000   0.000000000
          4   0.000000000   0.000000000   0.500000000
          5   0.000000000   0.000000000  -0.500000000
          6  -0.500000000   0.000000000   0.000000000

     Diagonalizing the dynamical matrix

     q = (    0.000000000   0.500000000   0.000000000 ) 

 **************************************************************************
     freq (    1) =       4.161083 [THz] =     138.798777 [cm-1]
     freq (    2) =       4.161083 [THz] =     138.798777 [cm-1]
     freq (    3) =       7.306539 [THz] =     243.719894 [cm-1]
     freq (    4) =      14.054542 [THz] =     468.809066 [cm-1]
     freq (    5) =      14.054542 [THz] =     468.809066 [cm-1]
     freq (    6) =      14.600616 [THz] =     487.024110 [cm-1]
 **************************************************************************

     Mode symmetry, C_4v (4mm)  point group:

     freq (  1 -  2) =        138.8  [cm-1]   --> E    G_5 D_5       
     freq (  3 -  3) =        243.7  [cm-1]   --> A_1  G_1 D_1       
     freq (  4 -  5) =        468.8  [cm-1]   --> E    G_5 D_5       
     freq (  6 -  6) =        487.0  [cm-1]   --> B_2  G_4 D_2'      

     Calculation of q =    0.7500000  -0.2500000   0.7500000

   Info: using nr1, nr2, nr3 values from input

   Info: using nr1, nr2, nr3 values from input

     Parallelization info
     --------------------
     sticks:   dense  smooth     PW     G-vecs:    dense   smooth      PW
     Min          63      63     30                  684      684     216
     Max          64      64     31                  688      688     218
     Sum         253     253    121                 2741     2741     869



     bravais-lattice index     =            2
     lattice parameter (alat)  =      10.2700  a.u.
     unit-cell volume          =     270.8017 (a.u.)^3
     number of atoms/cell      =            2
     number of atomic types    =            1
     number of electrons       =         8.00
     number of Kohn-Sham states=            4
     kinetic-energy cutoff     =      18.0000  Ry
     charge density cutoff     =      72.0000  Ry
     Exchange-correlation      = SLA  PW   PBE  PBE ( 1  4  3  4 0 0)

     celldm(1)=  10.270000  celldm(2)=   0.000000  celldm(3)=   0.000000
     celldm(4)=   0.000000  celldm(5)=   0.000000  celldm(6)=   0.000000

     crystal axes: (cart. coord. in units of alat)
               a(1) = (  -0.500000   0.000000   0.500000 )  
               a(2) = (   0.000000   0.500000   0.500000 )  
               a(3) = (  -0.500000   0.500000   0.000000 )  

     reciprocal axes: (cart. coord. in units 2 pi/alat)
               b(1) = ( -1.000000 -1.000000  1.000000 )  
               b(2) = (  1.000000  1.000000  1.000000 )  
               b(3) = ( -1.000000  1.000000 -1.000000 )  


     PseudoPot. # 1 for Si read from file:
     /home/max/quantum_espresso/qe-6.1/pseudo/si_pbe_v1.uspp.F.UPF.txt
     MD5 check sum: a056efeee980c13900f22a371efd63c1
     Pseudo is Ultrasoft + core correction, Zval =  4.0
     Generated by new atomic code, or converted to UPF format
     Using radial grid of  899 points,  6 beta functions with: 
                l(1) =   0
                l(2) =   0
                l(3) =   1
                l(4) =   1
                l(5) =   2
                l(6) =   2
     Q(r) pseudized with  8 coefficients,  rinner =    0.900   0.900   0.900
                                                       0.900   0.900

     atomic species   valence    mass     pseudopotential
        Si             4.00    28.08600     Si( 1.00)

     48 Sym. Ops., with inversion, found



   Cartesian axes

     site n.     atom                  positions (alat units)
         1           Si  tau(   1) = (   0.0000000   0.0000000   0.0000000  )
         2           Si  tau(   2) = (   0.2500000   0.2500000   0.2500000  )

     number of k points=   288

     Number of k-points >= 100: set verbosity='high' to print them.

     Dense  grid:     2741 G-vectors     FFT dimensions: (  20,  20,  20)

     Estimated max dynamical RAM per process >       0.32MB

     Estimated total allocated dynamical RAM >       1.30MB

     Check: negative/imaginary core charge=   -0.000005    0.000000

     The potential is recalculated from file :
     ./_ph0/silicon.10.27.save/charge-density.dat

     Starting wfc are    8 atomic wfcs

     Band Structure Calculation
     Davidson diagonalization with overlap

     ethr =  1.25E-10,  avg # of iterations = 11.5

     total cpu time spent up to now is        3.8 secs

     End of band structure calculation

     Number of k-points >= 100: set verbosity='high' to print the bands.

     highest occupied level (ev):     5.8858

     Writing output data file silicon.10.27.save

                                                                                

     bravais-lattice index     =            2
     lattice parameter (alat)  =      10.2700  a.u.
     unit-cell volume          =     270.8017 (a.u.)^3
     number of atoms/cell      =            2
     number of atomic types    =            1
     kinetic-energy cut-off    =      18.0000  Ry
     charge density cut-off    =      72.0000  Ry
     convergence threshold     =      1.0E-12
     beta                      =       0.7000
     number of iterations used =            4
     Exchange-correlation      = SLA  PW   PBE  PBE ( 1  4  3  4 0 0)


     celldm(1)=   10.27000  celldm(2)=    0.00000  celldm(3)=    0.00000
     celldm(4)=    0.00000  celldm(5)=    0.00000  celldm(6)=    0.00000

     crystal axes: (cart. coord. in units of alat)
               a(1) = ( -0.5000  0.0000  0.5000 )  
               a(2) = (  0.0000  0.5000  0.5000 )  
               a(3) = ( -0.5000  0.5000  0.0000 )  

     reciprocal axes: (cart. coord. in units 2 pi/alat)
               b(1) = ( -1.0000 -1.0000  1.0000 )  
               b(2) = (  1.0000  1.0000  1.0000 )  
               b(3) = ( -1.0000  1.0000 -1.0000 )  


     Atoms inside the unit cell: 

     Cartesian axes

     site n.  atom      mass           positions (alat units)
        1     Si  28.0860   tau(    1) = (    0.00000    0.00000    0.00000  )
        2     Si  28.0860   tau(    2) = (    0.25000    0.25000    0.25000  )

     Computing dynamical matrix for 
                    q = (   0.7500000  -0.2500000   0.7500000 )

      2 Sym.Ops. (no q -> -q+G )


     G cutoff =  192.3595  (    685 G-vectors)     FFT grid: ( 20, 20, 20)
     number of k points=   288

     PseudoPot. # 1 for Si read from file:
     /home/max/quantum_espresso/qe-6.1/pseudo/si_pbe_v1.uspp.F.UPF.txt
     MD5 check sum: a056efeee980c13900f22a371efd63c1
     Pseudo is Ultrasoft + core correction, Zval =  4.0
     Generated by new atomic code, or converted to UPF format
     Using radial grid of  899 points,  6 beta functions with: 
                l(1) =   0
                l(2) =   0
                l(3) =   1
                l(4) =   1
                l(5) =   2
                l(6) =   2
     Q(r) pseudized with  8 coefficients,  rinner =    0.900   0.900   0.900
                                                       0.900   0.900

     Mode symmetry, C_s (m)     point group:


     Atomic displacements:
     There are   6 irreducible representations

     Representation     1      1 modes -A'  To be done

     Representation     2      1 modes -A'  To be done

     Representation     3      1 modes -A'  To be done

     Representation     4      1 modes -A'  To be done

     Representation     5      1 modes -A''  To be done

     Representation     6      1 modes -A''  To be done



     Alpha used in Ewald sum =   0.7000
     PHONON       :    27.50s CPU        28.71s WALL



     Representation #  1 mode #   1

     Self-consistent Calculation

      iter #   1 total cpu time :    29.2 secs   av.it.:   5.3
      thresh= 1.000E-02 alpha_mix =  0.700 |ddv_scf|^2 =  6.203E-05

      iter #   2 total cpu time :    29.9 secs   av.it.:   8.9
      thresh= 7.876E-04 alpha_mix =  0.700 |ddv_scf|^2 =  1.608E-04

      iter #   3 total cpu time :    30.4 secs   av.it.:   7.6
      thresh= 1.268E-03 alpha_mix =  0.700 |ddv_scf|^2 =  1.144E-06

      iter #   4 total cpu time :    31.1 secs   av.it.:   8.4
      thresh= 1.070E-04 alpha_mix =  0.700 |ddv_scf|^2 =  5.226E-08

      iter #   5 total cpu time :    31.7 secs   av.it.:   8.4
      thresh= 2.286E-05 alpha_mix =  0.700 |ddv_scf|^2 =  7.043E-09

      iter #   6 total cpu time :    32.3 secs   av.it.:   8.5
      thresh= 8.392E-06 alpha_mix =  0.700 |ddv_scf|^2 =  7.254E-11

      iter #   7 total cpu time :    33.0 secs   av.it.:   8.7
      thresh= 8.517E-07 alpha_mix =  0.700 |ddv_scf|^2 =  2.592E-12

      iter #   8 total cpu time :    33.6 secs   av.it.:   8.6
      thresh= 1.610E-07 alpha_mix =  0.700 |ddv_scf|^2 =  1.857E-13

     End of self-consistent calculation

     Convergence has been achieved 


     Representation #  2 mode #   2

     Self-consistent Calculation

      iter #   1 total cpu time :    34.1 secs   av.it.:   5.4
      thresh= 1.000E-02 alpha_mix =  0.700 |ddv_scf|^2 =  1.108E-04

      iter #   2 total cpu time :    34.8 secs   av.it.:   8.7
      thresh= 1.053E-03 alpha_mix =  0.700 |ddv_scf|^2 =  3.139E-04

      iter #   3 total cpu time :    35.4 secs   av.it.:   7.4
      thresh= 1.772E-03 alpha_mix =  0.700 |ddv_scf|^2 =  7.681E-07

      iter #   4 total cpu time :    36.0 secs   av.it.:   8.6
      thresh= 8.764E-05 alpha_mix =  0.700 |ddv_scf|^2 =  5.230E-08

      iter #   5 total cpu time :    36.6 secs   av.it.:   8.2
      thresh= 2.287E-05 alpha_mix =  0.700 |ddv_scf|^2 =  9.660E-09

      iter #   6 total cpu time :    37.2 secs   av.it.:   8.5
      thresh= 9.829E-06 alpha_mix =  0.700 |ddv_scf|^2 =  7.479E-11

      iter #   7 total cpu time :    37.9 secs   av.it.:   8.8
      thresh= 8.648E-07 alpha_mix =  0.700 |ddv_scf|^2 =  2.427E-12

      iter #   8 total cpu time :    38.5 secs   av.it.:   8.7
      thresh= 1.558E-07 alpha_mix =  0.700 |ddv_scf|^2 =  7.022E-13

     End of self-consistent calculation

     Convergence has been achieved 


     Representation #  3 mode #   3

     Self-consistent Calculation

      iter #   1 total cpu time :    39.1 secs   av.it.:   5.3
      thresh= 1.000E-02 alpha_mix =  0.700 |ddv_scf|^2 =  8.698E-05

      iter #   2 total cpu time :    39.7 secs   av.it.:   8.7
      thresh= 9.326E-04 alpha_mix =  0.700 |ddv_scf|^2 =  2.310E-04

      iter #   3 total cpu time :    40.3 secs   av.it.:   7.4
      thresh= 1.520E-03 alpha_mix =  0.700 |ddv_scf|^2 =  1.317E-06

      iter #   4 total cpu time :    40.9 secs   av.it.:   8.2
      thresh= 1.148E-04 alpha_mix =  0.700 |ddv_scf|^2 =  5.346E-08

      iter #   5 total cpu time :    41.5 secs   av.it.:   8.4
      thresh= 2.312E-05 alpha_mix =  0.700 |ddv_scf|^2 =  9.778E-09

      iter #   6 total cpu time :    42.2 secs   av.it.:   8.5
      thresh= 9.888E-06 alpha_mix =  0.700 |ddv_scf|^2 =  4.492E-11

      iter #   7 total cpu time :    42.8 secs   av.it.:   8.7
      thresh= 6.702E-07 alpha_mix =  0.700 |ddv_scf|^2 =  1.546E-12

      iter #   8 total cpu time :    43.5 secs   av.it.:   8.8
      thresh= 1.243E-07 alpha_mix =  0.700 |ddv_scf|^2 =  2.987E-13

     End of self-consistent calculation

     Convergence has been achieved 


     Representation #  4 mode #   4

     Self-consistent Calculation

      iter #   1 total cpu time :    44.0 secs   av.it.:   5.2
      thresh= 1.000E-02 alpha_mix =  0.700 |ddv_scf|^2 =  3.819E-05

      iter #   2 total cpu time :    44.6 secs   av.it.:   8.9
[...]
        k(   59) = (  -0.8750000   0.1250000  -0.1250000), wk =   0.0625000
        k(   60) = (  -1.3750000  -0.8750000  -0.1250000), wk =   0.0000000
        k(   61) = (  -1.1250000   0.3750000  -0.3750000), wk =   0.0625000
        k(   62) = (  -1.6250000  -0.6250000  -0.3750000), wk =   0.0000000
        k(   63) = (  -0.3750000   0.3750000   1.1250000), wk =   0.0625000
        k(   64) = (  -0.8750000  -0.6250000   1.1250000), wk =   0.0000000

     Dense  grid:     2741 G-vectors     FFT dimensions: (  20,  20,  20)

     Estimated max dynamical RAM per process >       0.32MB

     Estimated total allocated dynamical RAM >       1.30MB

     Check: negative/imaginary core charge=   -0.000005    0.000000

     The potential is recalculated from file :
     ./_ph0/silicon.10.27.save/charge-density.dat

     Starting wfc are    8 atomic wfcs

     Band Structure Calculation
     Davidson diagonalization with overlap

     ethr =  1.25E-10,  avg # of iterations = 11.5

     total cpu time spent up to now is        5.9 secs

     End of band structure calculation

          k =-0.1250 0.1250 0.1250 (   335 PWs)   bands (ev):

    -5.5625   4.5774   5.8858   5.8858

          k =-0.6250-0.8750 0.1250 (   353 PWs)   bands (ev):

    -2.3128  -0.7549   2.1362   3.2286

          k =-0.3750 0.3750-0.1250 (   348 PWs)   bands (ev):

    -4.5209   1.5541   3.8731   5.3993

          k =-0.8750-0.6250-0.1250 (   353 PWs)   bands (ev):

    -2.3128  -0.7549   2.1362   3.2286

          k = 0.3750-0.3750 0.6250 (   350 PWs)   bands (ev):

    -3.3602  -0.5582   3.9015   4.6148

          k =-0.1250-1.3750 0.6250 (   358 PWs)   bands (ev):

    -2.8576  -0.4589   2.2012   4.2920

          k = 0.1250-0.1250 0.3750 (   344 PWs)   bands (ev):

    -5.0273   2.9509   4.8596   4.9347

          k =-0.3750-1.1250 0.3750 (   358 PWs)   bands (ev):

    -2.8576  -0.4589   2.2012   4.2920

          k =-0.1250 0.6250 0.1250 (   342 PWs)   bands (ev):

    -3.9803   1.2327   3.5155   3.9723

          k =-0.6250-0.3750 0.1250 (   350 PWs)   bands (ev):

    -3.5574   0.3386   2.8682   4.2519

          k = 0.6250-0.1250 0.8750 (   353 PWs)   bands (ev):

    -2.3128  -0.7549   2.1362   3.2286

          k = 0.1250-1.1250 0.8750 (   352 PWs)   bands (ev):

    -2.4865  -0.6539   2.7552   3.4986

          k = 0.3750 0.1250 0.6250 (   350 PWs)   bands (ev):

    -3.5574   0.3386   2.8682   4.2519

          k =-0.1250-0.8750 0.6250 (   353 PWs)   bands (ev):

    -2.3128  -0.7549   2.1362   3.2286

          k =-0.1250-0.8750 0.1250 (   352 PWs)   bands (ev):

    -2.4865  -0.6539   2.7552   3.4986

          k =-0.6250-1.8750 0.1250 (   342 PWs)   bands (ev):

    -3.9803   1.2327   3.5155   3.9723

          k =-0.3750 0.3750 0.3750 (   353 PWs)   bands (ev):

    -4.0809   0.2402   5.0876   5.0876

          k =-0.8750-0.6250 0.3750 (   350 PWs)   bands (ev):

    -3.5574   0.3386   2.8682   4.2519

          k = 0.3750-0.3750 1.1250 (   358 PWs)   bands (ev):

    -2.8576  -0.4589   2.2012   4.2920

          k =-0.1250-1.3750 1.1250 (   353 PWs)   bands (ev):

    -2.3128  -0.7549   2.1362   3.2286

          k = 0.1250-0.3750 0.3750 (   348 PWs)   bands (ev):

    -4.5209   1.5541   3.8731   5.3993

          k =-0.3750-1.3750 0.3750 (   350 PWs)   bands (ev):

    -3.3602  -0.5582   3.9015   4.6148

          k = 0.3750-0.3750-0.1250 (   348 PWs)   bands (ev):

    -4.5209   1.5541   3.8731   5.3993

          k =-0.1250-1.3750-0.1250 (   342 PWs)   bands (ev):

    -3.9803   1.2327   3.5155   3.9723

          k =-0.6250 0.3750-0.3750 (   350 PWs)   bands (ev):

    -3.3602  -0.5582   3.9015   4.6148

          k =-1.1250-0.6250-0.3750 (   350 PWs)   bands (ev):

    -3.5574   0.3386   2.8682   4.2519

          k =-0.3750 0.3750 0.6250 (   350 PWs)   bands (ev):

    -3.3602  -0.5582   3.9015   4.6148

          k =-0.8750-0.6250 0.6250 (   348 PWs)   bands (ev):

    -4.5209   1.5541   3.8731   5.3993

          k =-0.3750 0.1250-0.1250 (   344 PWs)   bands (ev):

    -5.0273   2.9509   4.8596   4.9347

          k =-0.8750-0.8750-0.1250 (   352 PWs)   bands (ev):

    -2.4865  -0.6539   2.7552   3.4986

          k =-0.1250 0.1250 0.3750 (   344 PWs)   bands (ev):

    -5.0273   2.9509   4.8596   4.9347

          k =-0.6250-0.8750 0.3750 (   350 PWs)   bands (ev):

    -3.5574   0.3386   2.8682   4.2519

          k = 0.1250 0.6250-0.1250 (   342 PWs)   bands (ev):

    -3.9803   1.2327   3.5155   3.9723

          k =-0.3750-0.3750-0.1250 (   348 PWs)   bands (ev):

    -4.5209   1.5541   3.8731   5.3993

          k = 0.6250 0.1250-0.1250 (   342 PWs)   bands (ev):

    -3.9803   1.2327   3.5155   3.9723

          k = 0.1250-0.8750-0.1250 (   352 PWs)   bands (ev):

    -2.4865  -0.6539   2.7552   3.4986

          k =-0.8750 0.1250-0.6250 (   353 PWs)   bands (ev):

    -2.3128  -0.7549   2.1362   3.2286

          k =-1.3750-0.8750-0.6250 (   348 PWs)   bands (ev):

    -4.5209   1.5541   3.8731   5.3993

          k = 0.8750-0.1250 0.6250 (   353 PWs)   bands (ev):

    -2.3128  -0.7549   2.1362   3.2286

          k = 0.3750-1.1250 0.6250 (   350 PWs)   bands (ev):

    -3.5574   0.3386   2.8682   4.2519

          k =-0.6250 0.1250 0.8750 (   353 PWs)   bands (ev):

    -2.3128  -0.7549   2.1362   3.2286

          k =-1.1250-0.8750 0.8750 (   335 PWs)   bands (ev):

    -5.5625   4.5774   5.8858   5.8858

          k =-0.1250 0.8750 0.6250 (   353 PWs)   bands (ev):

    -2.3128  -0.7549   2.1362   3.2286

          k =-0.6250-0.1250 0.6250 (   358 PWs)   bands (ev):

    -2.8576  -0.4589   2.2012   4.2920

          k = 0.1250 0.8750-0.6250 (   353 PWs)   bands (ev):

    -2.3128  -0.7549   2.1362   3.2286

          k =-0.3750-0.1250-0.6250 (   350 PWs)   bands (ev):

    -3.5574   0.3386   2.8682   4.2519

          k =-0.6250-0.1250-0.3750 (   350 PWs)   bands (ev):

    -3.5574   0.3386   2.8682   4.2519

          k =-1.1250-1.1250-0.3750 (   342 PWs)   bands (ev):

    -3.9803   1.2327   3.5155   3.9723

          k = 0.6250 0.1250 0.3750 (   350 PWs)   bands (ev):

    -3.5574   0.3386   2.8682   4.2519

          k = 0.1250-0.8750 0.3750 (   353 PWs)   bands (ev):

    -2.3128  -0.7549   2.1362   3.2286

          k =-0.3750-0.1250 0.6250 (   350 PWs)   bands (ev):

    -3.5574   0.3386   2.8682   4.2519

          k =-0.8750-1.1250 0.6250 (   344 PWs)   bands (ev):

    -5.0273   2.9509   4.8596   4.9347

          k = 0.1250 0.6250 0.3750 (   350 PWs)   bands (ev):

    -3.5574   0.3386   2.8682   4.2519

          k =-0.3750-0.3750 0.3750 (   353 PWs)   bands (ev):

    -4.0809   0.2402   5.0876   5.0876

          k =-0.1250 0.6250-0.3750 (   350 PWs)   bands (ev):

    -3.5574   0.3386   2.8682   4.2519

          k =-0.6250-0.3750-0.3750 (   350 PWs)   bands (ev):

    -3.3602  -0.5582   3.9015   4.6148

          k = 0.1250-0.8750-0.1250 (   352 PWs)   bands (ev):

    -2.4865  -0.6539   2.7552   3.4986

          k =-0.3750-1.8750-0.1250 (   344 PWs)   bands (ev):

    -5.0273   2.9509   4.8596   4.9347

          k =-0.8750 0.1250-0.1250 (   352 PWs)   bands (ev):

    -2.4865  -0.6539   2.7552   3.4986

          k =-1.3750-0.8750-0.1250 (   353 PWs)   bands (ev):

    -2.3128  -0.7549   2.1362   3.2286

          k =-1.1250 0.3750-0.3750 (   358 PWs)   bands (ev):

    -2.8576  -0.4589   2.2012   4.2920

          k =-1.6250-0.6250-0.3750 (   350 PWs)   bands (ev):

    -3.3602  -0.5582   3.9015   4.6148

          k =-0.3750 0.3750 1.1250 (   358 PWs)   bands (ev):

    -2.8576  -0.4589   2.2012   4.2920

          k =-0.8750-0.6250 1.1250 (   344 PWs)   bands (ev):

    -5.0273   2.9509   4.8596   4.9347

     highest occupied level (ev):     5.8858

     Writing output data file silicon.10.27.save

                                                                                

     bravais-lattice index     =            2
     lattice parameter (alat)  =      10.2700  a.u.
     unit-cell volume          =     270.8017 (a.u.)^3
     number of atoms/cell      =            2
     number of atomic types    =            1
     kinetic-energy cut-off    =      18.0000  Ry
     charge density cut-off    =      72.0000  Ry
     convergence threshold     =      1.0E-12
     beta                      =       0.7000
     number of iterations used =            4
     Exchange-correlation      = SLA  PW   PBE  PBE ( 1  4  3  4 0 0)


     celldm(1)=   10.27000  celldm(2)=    0.00000  celldm(3)=    0.00000
     celldm(4)=    0.00000  celldm(5)=    0.00000  celldm(6)=    0.00000

     crystal axes: (cart. coord. in units of alat)
               a(1) = ( -0.5000  0.0000  0.5000 )  
               a(2) = (  0.0000  0.5000  0.5000 )  
               a(3) = ( -0.5000  0.5000  0.0000 )  

     reciprocal axes: (cart. coord. in units 2 pi/alat)
               b(1) = ( -1.0000 -1.0000  1.0000 )  
               b(2) = (  1.0000  1.0000  1.0000 )  
               b(3) = ( -1.0000  1.0000 -1.0000 )  


     Atoms inside the unit cell: 

     Cartesian axes

     site n.  atom      mass           positions (alat units)
        1     Si  28.0860   tau(    1) = (    0.00000    0.00000    0.00000  )
        2     Si  28.0860   tau(    2) = (    0.25000    0.25000    0.25000  )

     Computing dynamical matrix for 
                    q = (  -0.5000000  -1.0000000   0.0000000 )

      8 Sym.Ops. (no q -> -q+G )


     G cutoff =  192.3595  (    685 G-vectors)     FFT grid: ( 20, 20, 20)
     number of k points=    64

     PseudoPot. # 1 for Si read from file:
     /home/max/quantum_espresso/qe-6.1/pseudo/si_pbe_v1.uspp.F.UPF.txt
     MD5 check sum: a056efeee980c13900f22a371efd63c1
     Pseudo is Ultrasoft + core correction, Zval =  4.0
     Generated by new atomic code, or converted to UPF format
     Using radial grid of  899 points,  6 beta functions with: 
                l(1) =   0
                l(2) =   0
                l(3) =   1
                l(4) =   1
                l(5) =   2
                l(6) =   2
     Q(r) pseudized with  8 coefficients,  rinner =    0.900   0.900   0.900
                                                       0.900   0.900


     Atomic displacements:
     There are   3 irreducible representations

     Representation     1      2 modes -  To be done

     Representation     2      2 modes -  To be done

     Representation     3      2 modes -  To be done



     Alpha used in Ewald sum =   0.7000
     PHONON       :  1m 8.63s CPU     1m11.69s WALL



     Representation #  1 modes #   1  2

     Self-consistent Calculation

      iter #   1 total cpu time :    71.9 secs   av.it.:   5.3
      thresh= 1.000E-02 alpha_mix =  0.700 |ddv_scf|^2 =  6.443E-06

      iter #   2 total cpu time :    72.3 secs   av.it.:   9.8
      thresh= 2.538E-04 alpha_mix =  0.700 |ddv_scf|^2 =  3.510E-06

      iter #   3 total cpu time :    72.6 secs   av.it.:   9.2
      thresh= 1.874E-04 alpha_mix =  0.700 |ddv_scf|^2 =  8.126E-09

      iter #   4 total cpu time :    72.9 secs   av.it.:   9.1
      thresh= 9.014E-06 alpha_mix =  0.700 |ddv_scf|^2 =  1.888E-11

      iter #   5 total cpu time :    73.2 secs   av.it.:   9.1
      thresh= 4.345E-07 alpha_mix =  0.700 |ddv_scf|^2 =  5.261E-13

     End of self-consistent calculation

     Convergence has been achieved 


     Representation #  2 modes #   3  4

     Self-consistent Calculation

      iter #   1 total cpu time :    73.4 secs   av.it.:   5.2
      thresh= 1.000E-02 alpha_mix =  0.700 |ddv_scf|^2 =  9.923E-06

      iter #   2 total cpu time :    73.8 secs   av.it.:   9.9
      thresh= 3.150E-04 alpha_mix =  0.700 |ddv_scf|^2 =  1.297E-05

      iter #   3 total cpu time :    74.1 secs   av.it.:   9.1
      thresh= 3.602E-04 alpha_mix =  0.700 |ddv_scf|^2 =  9.466E-09

      iter #   4 total cpu time :    74.4 secs   av.it.:   8.9
      thresh= 9.729E-06 alpha_mix =  0.700 |ddv_scf|^2 =  7.129E-11

      iter #   5 total cpu time :    74.7 secs   av.it.:   9.4
      thresh= 8.443E-07 alpha_mix =  0.700 |ddv_scf|^2 =  1.616E-12

      iter #   6 total cpu time :    75.0 secs   av.it.:   9.1
      thresh= 1.271E-07 alpha_mix =  0.700 |ddv_scf|^2 =  1.369E-14

     End of self-consistent calculation

     Convergence has been achieved 


     Representation #  3 modes #   5  6

     Self-consistent Calculation

      iter #   1 total cpu time :    75.3 secs   av.it.:   5.1
      thresh= 1.000E-02 alpha_mix =  0.700 |ddv_scf|^2 =  2.689E-06

      iter #   2 total cpu time :    75.6 secs   av.it.:   9.7
      thresh= 1.640E-04 alpha_mix =  0.700 |ddv_scf|^2 =  1.479E-06

      iter #   3 total cpu time :    75.9 secs   av.it.:   9.1
      thresh= 1.216E-04 alpha_mix =  0.700 |ddv_scf|^2 =  7.975E-09

      iter #   4 total cpu time :    76.2 secs   av.it.:   8.8
      thresh= 8.930E-06 alpha_mix =  0.700 |ddv_scf|^2 =  4.220E-11

      iter #   5 total cpu time :    76.5 secs   av.it.:   9.1
      thresh= 6.496E-07 alpha_mix =  0.700 |ddv_scf|^2 =  7.030E-13

     End of self-consistent calculation

     Convergence has been achieved 

     Number of q in the star =    6
     List of q in the star:
          1  -0.500000000  -1.000000000   0.000000000
          2   0.000000000   1.000000000   0.500000000
          3   0.000000000  -1.000000000  -0.500000000
          4   0.500000000   1.000000000   0.000000000
          5  -1.000000000  -0.500000000   0.000000000
          6   0.000000000  -0.500000000  -1.000000000

     Diagonalizing the dynamical matrix

     q = (   -0.500000000  -1.000000000   0.000000000 ) 

 **************************************************************************
     freq (    1) =       6.856950 [THz] =     228.723233 [cm-1]
     freq (    2) =       6.856950 [THz] =     228.723233 [cm-1]
     freq (    3) =      10.943834 [THz] =     365.047010 [cm-1]
     freq (    4) =      10.943834 [THz] =     365.047010 [cm-1]
     freq (    5) =      14.115281 [THz] =     470.835078 [cm-1]
     freq (    6) =      14.115281 [THz] =     470.835078 [cm-1]
 **************************************************************************

     init_run     :      0.51s CPU      0.53s WALL (       7 calls)
     electrons    :      4.37s CPU      4.57s WALL (       7 calls)

     Called by init_run:
     wfcinit      :      0.00s CPU      0.00s WALL (       7 calls)
     potinit      :      0.02s CPU      0.02s WALL (       7 calls)

     Called by electrons:
     c_bands      :      4.37s CPU      4.55s WALL (       7 calls)
     v_of_rho     :      0.01s CPU      0.01s WALL (       8 calls)
     newd         :      0.02s CPU      0.03s WALL (       8 calls)

     Called by c_bands:
     init_us_2    :      0.65s CPU      0.68s WALL (   17588 calls)
     cegterg      :      3.68s CPU      3.83s WALL (     796 calls)

     Called by sum_band:

     Called by *egterg:
     h_psi        :     40.72s CPU     42.64s WALL (  152085 calls)
     s_psi        :      5.60s CPU      5.87s WALL (  308968 calls)
     g_psi        :      0.03s CPU      0.03s WALL (    9190 calls)
     cdiaghg      :      0.42s CPU      0.44s WALL (    9986 calls)

     Called by h_psi:
     h_psi:pot    :     40.53s CPU     42.44s WALL (  152085 calls)
     h_psi:calbec :      3.95s CPU      4.14s WALL (  152085 calls)
     vloc_psi     :     33.56s CPU     35.15s WALL (  152085 calls)
     add_vuspsi   :      2.80s CPU      2.94s WALL (  152085 calls)

     General routines
     calbec       :      8.71s CPU      9.11s WALL (  345340 calls)
     fft          :      0.28s CPU      0.29s WALL (    5239 calls)
     ffts         :      0.13s CPU      0.13s WALL (    2748 calls)
     fftw         :     38.82s CPU     40.62s WALL ( 1377366 calls)
     davcio       :      0.30s CPU      0.32s WALL (   79045 calls)

     Parallel routines
     fft_scatter  :      7.06s CPU      7.42s WALL ( 1385353 calls)

     PHONON       :  1m13.27s CPU     1m16.51s WALL

     INITIALIZATION: 
     phq_setup    :      0.05s CPU      0.05s WALL (       8 calls)
     phq_init     :      1.89s CPU      1.91s WALL (       8 calls)

     phq_init     :      1.89s CPU      1.91s WALL (       8 calls)
     set_drhoc    :      0.28s CPU      0.28s WALL (      24 calls)
     init_vloc    :      0.01s CPU      0.01s WALL (       8 calls)
     init_us_1    :      0.48s CPU      0.48s WALL (       8 calls)
     newd         :      0.02s CPU      0.03s WALL (       8 calls)
     dvanqq       :      0.22s CPU      0.22s WALL (       8 calls)
     drho         :      0.98s CPU      0.99s WALL (       8 calls)

     DYNAMICAL MATRIX:
     dynmat0      :      0.46s CPU      0.47s WALL (       8 calls)
     phqscf       :     64.07s CPU     67.00s WALL (       8 calls)
     dynmatrix    :      0.01s CPU      0.02s WALL (       8 calls)

     phqscf       :     64.07s CPU     67.00s WALL (       8 calls)
     solve_linter :     63.39s CPU     66.30s WALL (      32 calls)
     drhodv       :      0.47s CPU      0.49s WALL (      32 calls)

     dynmat0      :      0.46s CPU      0.47s WALL (       8 calls)
     dynmat_us    :      0.26s CPU      0.26s WALL (       8 calls)
     d2ionq       :      0.00s CPU      0.01s WALL (       8 calls)
     dynmatcc     :      0.20s CPU      0.20s WALL (       8 calls)

     dynmat_us    :      0.26s CPU      0.26s WALL (       8 calls)
     addusdynmat  :      0.00s CPU      0.00s WALL (       8 calls)

     phqscf       :     64.07s CPU     67.00s WALL (       8 calls)
     solve_linter :     63.39s CPU     66.30s WALL (      32 calls)

     solve_linter :     63.39s CPU     66.30s WALL (      32 calls)
     dvqpsi_us    :      1.59s CPU      1.64s WALL (    2508 calls)
     ortho        :      0.90s CPU      0.94s WALL (   15550 calls)
     cgsolve      :     49.55s CPU     51.90s WALL (   15550 calls)
     incdrhoscf   :      4.37s CPU      4.57s WALL (   15550 calls)
     addusddens   :      1.06s CPU      1.07s WALL (     228 calls)
     vpsifft      :      3.19s CPU      3.35s WALL (   12922 calls)
     dv_of_drho   :      0.20s CPU      0.20s WALL (     295 calls)
     mix_pot      :      0.05s CPU      0.06s WALL (     201 calls)
     psymdvscf    :      0.79s CPU      0.80s WALL (     196 calls)
     newdq        :      1.15s CPU      1.17s WALL (     201 calls)
     adddvscf     :      0.45s CPU      0.48s WALL (   13042 calls)
     drhodvus     :      0.00s CPU      0.00s WALL (      32 calls)

     dvqpsi_us    :      1.59s CPU      1.64s WALL (    2508 calls)
     dvqpsi_us_on :      0.82s CPU      0.85s WALL (    2508 calls)

     cgsolve      :     49.55s CPU     51.90s WALL (   15550 calls)
     ch_psi       :     48.12s CPU     50.40s WALL (  141303 calls)

     ch_psi       :     48.12s CPU     50.40s WALL (  141303 calls)
     h_psi        :     40.72s CPU     42.64s WALL (  152085 calls)
     last         :      7.52s CPU      7.87s WALL (  141303 calls)

     h_psi        :     40.72s CPU     42.64s WALL (  152085 calls)
     add_vuspsi   :      2.80s CPU      2.94s WALL (  152085 calls)

     incdrhoscf   :      4.37s CPU      4.57s WALL (   15550 calls)
     addusdbec    :      0.58s CPU      0.60s WALL (   17998 calls)

     drhodvus     :      0.00s CPU      0.00s WALL (      32 calls)

      General routines
     calbec       :      8.71s CPU      9.11s WALL (  345340 calls)
     fft          :      0.28s CPU      0.29s WALL (    5239 calls)
     ffts         :      0.13s CPU      0.13s WALL (    2748 calls)
     fftw         :     38.82s CPU     40.62s WALL ( 1377366 calls)
     davcio       :      0.30s CPU      0.32s WALL (   79045 calls)
     write_rec    :      0.20s CPU      0.21s WALL (     233 calls)


     PHONON       :  1m13.27s CPU     1m16.51s WALL


   This run was terminated on:   1:15:27   9Nov2017            

=------------------------------------------------------------------------------=
   JOB DONE.
=------------------------------------------------------------------------------=
