
     Program PHONON v.6.1 (svn rev. 13369) starts on  9Nov2017 at  1:29:50 

     This program is part of the open-source Quantum ESPRESSO suite
     for quantum simulation of materials; please cite
         "P. Giannozzi et al., J. Phys.:Condens. Matter 21 395502 (2009);
          URL http://www.quantum-espresso.org", 
     in publications or presentations arising from this work. More details at
     http://www.quantum-espresso.org/quote

     Parallel version (MPI), running on     4 processors
     R & G space division:  proc/nbgrp/npool/nimage =       4

     Reading data from directory:
     ./silicon.10.38.save

   Info: using nr1, nr2, nr3 values from input

   Info: using nr1, nr2, nr3 values from input

     IMPORTANT: XC functional enforced from input :
     Exchange-correlation      = SLA  PW   PBE  PBE ( 1  4  3  4 0 0)
     Any further DFT definition will be discarded
     Please, verify this is what you really want


     Parallelization info
     --------------------
     sticks:   dense  smooth     PW     G-vecs:    dense   smooth      PW
     Min          66      66     22                  722      722     152
     Max          67      67     23                  724      724     153
     Sum         265     265     91                 2891     2891     609


     Check: negative/imaginary core charge=   -0.000006    0.000000


     Dynamical matrices for ( 4, 4, 4)  uniform grid of q-points
     (   8q-points):
       N         xq(1)         xq(2)         xq(3) 
       1   0.000000000   0.000000000   0.000000000
       2  -0.250000000   0.250000000  -0.250000000
       3   0.500000000  -0.500000000   0.500000000
       4   0.000000000   0.500000000   0.000000000
       5   0.750000000  -0.250000000   0.750000000
       6   0.500000000   0.000000000   0.500000000
       7   0.000000000  -1.000000000   0.000000000
       8  -0.500000000  -1.000000000   0.000000000

     Calculation of q =    0.0000000   0.0000000   0.0000000

                                                                                

     bravais-lattice index     =            2
     lattice parameter (alat)  =      10.3800  a.u.
     unit-cell volume          =     279.5967 (a.u.)^3
     number of atoms/cell      =            2
     number of atomic types    =            1
     kinetic-energy cut-off    =      18.0000  Ry
     charge density cut-off    =      72.0000  Ry
     convergence threshold     =      1.0E-12
     beta                      =       0.7000
     number of iterations used =            4
     Exchange-correlation      = SLA  PW   PBE  PBE ( 1  4  3  4 0 0)


     celldm(1)=   10.38000  celldm(2)=    0.00000  celldm(3)=    0.00000
     celldm(4)=    0.00000  celldm(5)=    0.00000  celldm(6)=    0.00000

     crystal axes: (cart. coord. in units of alat)
               a(1) = ( -0.5000  0.0000  0.5000 )  
               a(2) = (  0.0000  0.5000  0.5000 )  
               a(3) = ( -0.5000  0.5000  0.0000 )  

     reciprocal axes: (cart. coord. in units 2 pi/alat)
               b(1) = ( -1.0000 -1.0000  1.0000 )  
               b(2) = (  1.0000  1.0000  1.0000 )  
               b(3) = ( -1.0000  1.0000 -1.0000 )  


     Atoms inside the unit cell: 

     Cartesian axes

     site n.  atom      mass           positions (alat units)
        1     Si  28.0860   tau(    1) = (    0.00000    0.00000    0.00000  )
        2     Si  28.0860   tau(    2) = (    0.25000    0.25000    0.25000  )

     Computing dynamical matrix for 
                    q = (   0.0000000   0.0000000   0.0000000 )

     49 Sym.Ops. (with q -> -q+G )


     G cutoff =  196.5022  (    722 G-vectors)     FFT grid: ( 20, 20, 20)
     number of k points=    10

     PseudoPot. # 1 for Si read from file:
     /home/max/quantum_espresso/qe-6.1/pseudo/si_pbe_v1.uspp.F.UPF.txt
     MD5 check sum: a056efeee980c13900f22a371efd63c1
     Pseudo is Ultrasoft + core correction, Zval =  4.0
     Generated by new atomic code, or converted to UPF format
     Using radial grid of  899 points,  6 beta functions with: 
                l(1) =   0
                l(2) =   0
                l(3) =   1
                l(4) =   1
                l(5) =   2
                l(6) =   2
     Q(r) pseudized with  8 coefficients,  rinner =    0.900   0.900   0.900
                                                       0.900   0.900

     Mode symmetry, O_h (m-3m)  point group:


     Electric field:
     Dielectric constant
     Born effective charges in two ways 


     Atomic displacements:
     There are   2 irreducible representations

     Representation     1      3 modes -T_2g G_25' G_5+  To be done

     Representation     2      3 modes -T_1u G_15  G_4-  To be done



     Alpha used in Ewald sum =   0.7000
     PHONON       :     0.39s CPU         0.41s WALL


     Electric Fields Calculation

      iter #   1 total cpu time :     0.8 secs   av.it.:   5.7
      thresh= 1.000E-02 alpha_mix =  0.700 |ddv_scf|^2 =  9.490E-07

      iter #   2 total cpu time :     1.0 secs   av.it.:   9.9
      thresh= 9.742E-05 alpha_mix =  0.700 |ddv_scf|^2 =  6.148E-08

      iter #   3 total cpu time :     1.1 secs   av.it.:   9.8
      thresh= 2.479E-05 alpha_mix =  0.700 |ddv_scf|^2 =  4.873E-09

      iter #   4 total cpu time :     1.3 secs   av.it.:   9.0
      thresh= 6.981E-06 alpha_mix =  0.700 |ddv_scf|^2 =  2.949E-11

      iter #   5 total cpu time :     1.5 secs   av.it.:   9.1
      thresh= 5.431E-07 alpha_mix =  0.700 |ddv_scf|^2 =  1.533E-14

     End of electric fields calculation

          Dielectric constant in cartesian axis 

          (      13.973056936      -0.000000000      -0.000000000 )
          (      -0.000000000      13.973056936       0.000000000 )
          (      -0.000000000       0.000000000      13.973056936 )

          Effective charges (d Force / dE) in cartesian axis

           atom      1   Si 
      Ex  (       -0.03407       -0.00000       -0.00000 )
      Ey  (       -0.00000       -0.03407        0.00000 )
      Ez  (       -0.00000        0.00000       -0.03407 )
           atom      2   Si 
      Ex  (       -0.03407        0.00000        0.00000 )
      Ey  (        0.00000       -0.03407        0.00000 )
      Ez  (       -0.00000        0.00000       -0.03407 )


     Representation #  1 modes #   1  2  3

     Self-consistent Calculation

      iter #   1 total cpu time :     1.9 secs   av.it.:   5.0
      thresh= 1.000E-02 alpha_mix =  0.700 |ddv_scf|^2 =  1.842E-07

      iter #   2 total cpu time :     2.1 secs   av.it.:  10.0
      thresh= 4.292E-05 alpha_mix =  0.700 |ddv_scf|^2 =  1.013E-08

      iter #   3 total cpu time :     2.2 secs   av.it.:   9.5
      thresh= 1.006E-05 alpha_mix =  0.700 |ddv_scf|^2 =  7.009E-10

      iter #   4 total cpu time :     2.4 secs   av.it.:   9.1
      thresh= 2.647E-06 alpha_mix =  0.700 |ddv_scf|^2 =  1.799E-12

      iter #   5 total cpu time :     2.6 secs   av.it.:   9.5
      thresh= 1.341E-07 alpha_mix =  0.700 |ddv_scf|^2 =  1.515E-14

     End of self-consistent calculation

     Convergence has been achieved 


     Representation #  2 modes #   4  5  6

     Self-consistent Calculation

      iter #   1 total cpu time :     2.8 secs   av.it.:   5.0
      thresh= 1.000E-02 alpha_mix =  0.700 |ddv_scf|^2 =  1.905E-07

      iter #   2 total cpu time :     3.0 secs   av.it.:   9.6
      thresh= 4.365E-05 alpha_mix =  0.700 |ddv_scf|^2 =  1.565E-08

      iter #   3 total cpu time :     3.2 secs   av.it.:   9.2
      thresh= 1.251E-05 alpha_mix =  0.700 |ddv_scf|^2 =  9.427E-10

      iter #   4 total cpu time :     3.3 secs   av.it.:   9.5
      thresh= 3.070E-06 alpha_mix =  0.700 |ddv_scf|^2 =  5.482E-12

      iter #   5 total cpu time :     3.5 secs   av.it.:   9.0
      thresh= 2.341E-07 alpha_mix =  0.700 |ddv_scf|^2 =  4.995E-15

     End of self-consistent calculation

     Convergence has been achieved 

     Number of q in the star =    1
     List of q in the star:
          1   0.000000000   0.000000000   0.000000000

          Dielectric constant in cartesian axis 

          (      13.973056936      -0.000000000      -0.000000000 )
          (      -0.000000000      13.973056936       0.000000000 )
          (      -0.000000000       0.000000000      13.973056936 )

          Effective charges (d Force / dE) in cartesian axis

           atom      1   Si 
      Ex  (       -0.03407       -0.00000       -0.00000 )
      Ey  (       -0.00000       -0.03407        0.00000 )
      Ez  (       -0.00000        0.00000       -0.03407 )
           atom      2   Si 
      Ex  (       -0.03407        0.00000        0.00000 )
      Ey  (        0.00000       -0.03407        0.00000 )
      Ez  (       -0.00000        0.00000       -0.03407 )

          Effective charges (d P / du) in cartesian axis 

           atom      1   Si 
      Px  (       -0.07547        0.00000       -0.00000 )
      Py  (        0.00000       -0.07547       -0.00000 )
      Pz  (       -0.00000        0.00000       -0.07547 )
           atom      2   Si 
      Px  (       -0.07547        0.00000        0.00000 )
      Py  (        0.00000       -0.07547       -0.00000 )
      Pz  (        0.00000       -0.00000       -0.07547 )

     Diagonalizing the dynamical matrix

     q = (    0.000000000   0.000000000   0.000000000 ) 

 **************************************************************************
     freq (    1) =       1.797428 [THz] =      59.955743 [cm-1]
     freq (    2) =       1.797428 [THz] =      59.955743 [cm-1]
     freq (    3) =       1.797428 [THz] =      59.955743 [cm-1]
     freq (    4) =      15.639656 [THz] =     521.682757 [cm-1]
     freq (    5) =      15.639656 [THz] =     521.682757 [cm-1]
     freq (    6) =      15.639656 [THz] =     521.682757 [cm-1]
 **************************************************************************

     Mode symmetry, O_h (m-3m)  point group:

     freq (  1 -  3) =         60.0  [cm-1]   --> T_1u G_15  G_4- I  
     freq (  4 -  6) =        521.7  [cm-1]   --> T_2g G_25' G_5+ R  

     Calculation of q =   -0.2500000   0.2500000  -0.2500000

   Info: using nr1, nr2, nr3 values from input

   Info: using nr1, nr2, nr3 values from input

     Parallelization info
     --------------------
     sticks:   dense  smooth     PW     G-vecs:    dense   smooth      PW
     Min          66      66     24                  722      722     161
     Max          67      67     25                  724      724     162
     Sum         265     265     97                 2891     2891     645



     bravais-lattice index     =            2
     lattice parameter (alat)  =      10.3800  a.u.
     unit-cell volume          =     279.5967 (a.u.)^3
     number of atoms/cell      =            2
     number of atomic types    =            1
     number of electrons       =         8.00
     number of Kohn-Sham states=            4
     kinetic-energy cutoff     =      18.0000  Ry
     charge density cutoff     =      72.0000  Ry
     Exchange-correlation      = SLA  PW   PBE  PBE ( 1  4  3  4 0 0)

     celldm(1)=  10.380000  celldm(2)=   0.000000  celldm(3)=   0.000000
     celldm(4)=   0.000000  celldm(5)=   0.000000  celldm(6)=   0.000000

     crystal axes: (cart. coord. in units of alat)
               a(1) = (  -0.500000   0.000000   0.500000 )  
               a(2) = (   0.000000   0.500000   0.500000 )  
               a(3) = (  -0.500000   0.500000   0.000000 )  

     reciprocal axes: (cart. coord. in units 2 pi/alat)
               b(1) = ( -1.000000 -1.000000  1.000000 )  
               b(2) = (  1.000000  1.000000  1.000000 )  
               b(3) = ( -1.000000  1.000000 -1.000000 )  


     PseudoPot. # 1 for Si read from file:
     /home/max/quantum_espresso/qe-6.1/pseudo/si_pbe_v1.uspp.F.UPF.txt
     MD5 check sum: a056efeee980c13900f22a371efd63c1
     Pseudo is Ultrasoft + core correction, Zval =  4.0
     Generated by new atomic code, or converted to UPF format
     Using radial grid of  899 points,  6 beta functions with: 
                l(1) =   0
                l(2) =   0
                l(3) =   1
                l(4) =   1
                l(5) =   2
                l(6) =   2
     Q(r) pseudized with  8 coefficients,  rinner =    0.900   0.900   0.900
                                                       0.900   0.900

     atomic species   valence    mass     pseudopotential
        Si             4.00    28.08600     Si( 1.00)

     48 Sym. Ops., with inversion, found



   Cartesian axes

     site n.     atom                  positions (alat units)
         1           Si  tau(   1) = (   0.0000000   0.0000000   0.0000000  )
         2           Si  tau(   2) = (   0.2500000   0.2500000   0.2500000  )

     number of k points=   120

     Number of k-points >= 100: set verbosity='high' to print them.

     Dense  grid:     2891 G-vectors     FFT dimensions: (  20,  20,  20)

     Estimated max dynamical RAM per process >       0.33MB

     Estimated total allocated dynamical RAM >       1.33MB

     Check: negative/imaginary core charge=   -0.000006    0.000000

     The potential is recalculated from file :
     ./_ph0/silicon.10.38.save/charge-density.dat

     Starting wfc are    8 atomic wfcs

     Band Structure Calculation
     Davidson diagonalization with overlap

     ethr =  1.25E-10,  avg # of iterations = 11.7

     total cpu time spent up to now is        0.8 secs

     End of band structure calculation

     Number of k-points >= 100: set verbosity='high' to print the bands.

     highest occupied level (ev):     5.5667

     Writing output data file silicon.10.38.save

                                                                                

     bravais-lattice index     =            2
     lattice parameter (alat)  =      10.3800  a.u.
     unit-cell volume          =     279.5967 (a.u.)^3
     number of atoms/cell      =            2
     number of atomic types    =            1
     kinetic-energy cut-off    =      18.0000  Ry
     charge density cut-off    =      72.0000  Ry
     convergence threshold     =      1.0E-12
     beta                      =       0.7000
     number of iterations used =            4
     Exchange-correlation      = SLA  PW   PBE  PBE ( 1  4  3  4 0 0)


     celldm(1)=   10.38000  celldm(2)=    0.00000  celldm(3)=    0.00000
     celldm(4)=    0.00000  celldm(5)=    0.00000  celldm(6)=    0.00000

     crystal axes: (cart. coord. in units of alat)
               a(1) = ( -0.5000  0.0000  0.5000 )  
               a(2) = (  0.0000  0.5000  0.5000 )  
               a(3) = ( -0.5000  0.5000  0.0000 )  

     reciprocal axes: (cart. coord. in units 2 pi/alat)
               b(1) = ( -1.0000 -1.0000  1.0000 )  
               b(2) = (  1.0000  1.0000  1.0000 )  
               b(3) = ( -1.0000  1.0000 -1.0000 )  


     Atoms inside the unit cell: 

     Cartesian axes

     site n.  atom      mass           positions (alat units)
        1     Si  28.0860   tau(    1) = (    0.00000    0.00000    0.00000  )
        2     Si  28.0860   tau(    2) = (    0.25000    0.25000    0.25000  )

     Computing dynamical matrix for 
                    q = (  -0.2500000   0.2500000  -0.2500000 )

      6 Sym.Ops. (no q -> -q+G )


     G cutoff =  196.5022  (    722 G-vectors)     FFT grid: ( 20, 20, 20)
     number of k points=   120

     PseudoPot. # 1 for Si read from file:
     /home/max/quantum_espresso/qe-6.1/pseudo/si_pbe_v1.uspp.F.UPF.txt
     MD5 check sum: a056efeee980c13900f22a371efd63c1
     Pseudo is Ultrasoft + core correction, Zval =  4.0
     Generated by new atomic code, or converted to UPF format
     Using radial grid of  899 points,  6 beta functions with: 
                l(1) =   0
                l(2) =   0
                l(3) =   1
                l(4) =   1
                l(5) =   2
                l(6) =   2
     Q(r) pseudized with  8 coefficients,  rinner =    0.900   0.900   0.900
                                                       0.900   0.900

     Mode symmetry, C_3v (3m)   point group:


     Atomic displacements:
     There are   4 irreducible representations

     Representation     1      1 modes -A_1  L_1  To be done

     Representation     2      1 modes -A_1  L_1  To be done

     Representation     3      2 modes -E    L_3  To be done

     Representation     4      2 modes -E    L_3  To be done



     Alpha used in Ewald sum =   0.7000
     PHONON       :     4.57s CPU         4.77s WALL



     Representation #  1 mode #   1

     Self-consistent Calculation

      iter #   1 total cpu time :     5.0 secs   av.it.:   5.5
      thresh= 1.000E-02 alpha_mix =  0.700 |ddv_scf|^2 =  2.440E-03

      iter #   2 total cpu time :     5.2 secs   av.it.:   7.5
      thresh= 4.940E-03 alpha_mix =  0.700 |ddv_scf|^2 =  3.702E-02

      iter #   3 total cpu time :     5.4 secs   av.it.:   6.3
      thresh= 1.000E-02 alpha_mix =  0.700 |ddv_scf|^2 =  1.708E-06

      iter #   4 total cpu time :     5.7 secs   av.it.:   8.2
      thresh= 1.307E-04 alpha_mix =  0.700 |ddv_scf|^2 =  1.127E-07

      iter #   5 total cpu time :     6.0 secs   av.it.:   8.1
      thresh= 3.357E-05 alpha_mix =  0.700 |ddv_scf|^2 =  4.404E-09

      iter #   6 total cpu time :     6.2 secs   av.it.:   8.0
      thresh= 6.636E-06 alpha_mix =  0.700 |ddv_scf|^2 =  3.853E-09

      iter #   7 total cpu time :     6.4 secs   av.it.:   6.2
      thresh= 6.207E-06 alpha_mix =  0.700 |ddv_scf|^2 =  5.917E-10

      iter #   8 total cpu time :     6.7 secs   av.it.:   7.2
      thresh= 2.433E-06 alpha_mix =  0.700 |ddv_scf|^2 =  3.920E-12

      iter #   9 total cpu time :     6.9 secs   av.it.:   7.2
      thresh= 1.980E-07 alpha_mix =  0.700 |ddv_scf|^2 =  1.678E-13

     End of self-consistent calculation

     Convergence has been achieved 


     Representation #  2 mode #   2

     Self-consistent Calculation

      iter #   1 total cpu time :     7.1 secs   av.it.:   5.5
      thresh= 1.000E-02 alpha_mix =  0.700 |ddv_scf|^2 =  2.440E-03

      iter #   2 total cpu time :     7.4 secs   av.it.:   7.5
      thresh= 4.940E-03 alpha_mix =  0.700 |ddv_scf|^2 =  3.702E-02

      iter #   3 total cpu time :     7.6 secs   av.it.:   6.3
      thresh= 1.000E-02 alpha_mix =  0.700 |ddv_scf|^2 =  1.708E-06

      iter #   4 total cpu time :     7.9 secs   av.it.:   8.2
      thresh= 1.307E-04 alpha_mix =  0.700 |ddv_scf|^2 =  1.127E-07

      iter #   5 total cpu time :     8.1 secs   av.it.:   8.1
      thresh= 3.357E-05 alpha_mix =  0.700 |ddv_scf|^2 =  4.404E-09

      iter #   6 total cpu time :     8.4 secs   av.it.:   8.0
      thresh= 6.636E-06 alpha_mix =  0.700 |ddv_scf|^2 =  3.853E-09

      iter #   7 total cpu time :     8.6 secs   av.it.:   6.2
      thresh= 6.207E-06 alpha_mix =  0.700 |ddv_scf|^2 =  5.917E-10

      iter #   8 total cpu time :     8.8 secs   av.it.:   7.2
      thresh= 2.433E-06 alpha_mix =  0.700 |ddv_scf|^2 =  3.920E-12

      iter #   9 total cpu time :     9.1 secs   av.it.:   7.2
      thresh= 1.980E-07 alpha_mix =  0.700 |ddv_scf|^2 =  1.678E-13

     End of self-consistent calculation

     Convergence has been achieved 


     Representation #  3 modes #   3  4

     Self-consistent Calculation

      iter #   1 total cpu time :     9.5 secs   av.it.:   5.0
      thresh= 1.000E-02 alpha_mix =  0.700 |ddv_scf|^2 =  5.324E-07

      iter #   2 total cpu time :    10.1 secs   av.it.:   9.6
      thresh= 7.297E-05 alpha_mix =  0.700 |ddv_scf|^2 =  3.977E-08

      iter #   3 total cpu time :    10.6 secs   av.it.:   9.2
      thresh= 1.994E-05 alpha_mix =  0.700 |ddv_scf|^2 =  3.407E-09

      iter #   4 total cpu time :    11.2 secs   av.it.:   9.0
      thresh= 5.837E-06 alpha_mix =  0.700 |ddv_scf|^2 =  1.128E-11

      iter #   5 total cpu time :    11.7 secs   av.it.:   9.2
      thresh= 3.358E-07 alpha_mix =  0.700 |ddv_scf|^2 =  5.072E-13

     End of self-consistent calculation

     Convergence has been achieved 


     Representation #  4 modes #   5  6

     Self-consistent Calculation

      iter #   1 total cpu time :    12.2 secs   av.it.:   5.0
      thresh= 1.000E-02 alpha_mix =  0.700 |ddv_scf|^2 =  5.323E-07

      iter #   2 total cpu time :    12.7 secs   av.it.:   9.7
      thresh= 7.296E-05 alpha_mix =  0.700 |ddv_scf|^2 =  3.972E-08

      iter #   3 total cpu time :    13.3 secs   av.it.:   9.4
      thresh= 1.993E-05 alpha_mix =  0.700 |ddv_scf|^2 =  3.404E-09

      iter #   4 total cpu time :    13.9 secs   av.it.:   9.1
      thresh= 5.834E-06 alpha_mix =  0.700 |ddv_scf|^2 =  1.128E-11

      iter #   5 total cpu time :    14.4 secs   av.it.:   9.2
      thresh= 3.358E-07 alpha_mix =  0.700 |ddv_scf|^2 =  5.074E-13

     End of self-consistent calculation

     Convergence has been achieved 

     Number of q in the star =    8
     List of q in the star:
          1  -0.250000000   0.250000000  -0.250000000
          2   0.250000000  -0.250000000  -0.250000000
          3   0.250000000  -0.250000000   0.250000000
          4   0.250000000   0.250000000   0.250000000
          5  -0.250000000  -0.250000000  -0.250000000
          6  -0.250000000  -0.250000000   0.250000000
          7  -0.250000000   0.250000000   0.250000000
          8   0.250000000   0.250000000  -0.250000000

     Diagonalizing the dynamical matrix

     q = (   -0.250000000   0.250000000  -0.250000000 ) 

 **************************************************************************
     freq (    1) =       3.407442 [THz] =     113.660021 [cm-1]
     freq (    2) =       3.407442 [THz] =     113.660021 [cm-1]
     freq (    3) =       6.860151 [THz] =     228.829993 [cm-1]
     freq (    4) =      14.733146 [THz] =     491.444836 [cm-1]
     freq (    5) =      15.023542 [THz] =     501.131415 [cm-1]
     freq (    6) =      15.023542 [THz] =     501.131415 [cm-1]
 **************************************************************************

     Mode symmetry, C_3v (3m)   point group:

     freq (  1 -  2) =        113.7  [cm-1]   --> E    L_3           
     freq (  3 -  3) =        228.8  [cm-1]   --> A_1  L_1           
     freq (  4 -  4) =        491.4  [cm-1]   --> A_1  L_1           
     freq (  5 -  6) =        501.1  [cm-1]   --> E    L_3           

     Calculation of q =    0.5000000  -0.5000000   0.5000000

   Info: using nr1, nr2, nr3 values from input

   Info: using nr1, nr2, nr3 values from input

     Parallelization info
     --------------------
     sticks:   dense  smooth     PW     G-vecs:    dense   smooth      PW
     Min          66      66     27                  722      722     186
     Max          67      67     28                  724      724     189
     Sum         265     265    109                 2891     2891     749



     bravais-lattice index     =            2
     lattice parameter (alat)  =      10.3800  a.u.
     unit-cell volume          =     279.5967 (a.u.)^3
     number of atoms/cell      =            2
     number of atomic types    =            1
     number of electrons       =         8.00
     number of Kohn-Sham states=            4
     kinetic-energy cutoff     =      18.0000  Ry
     charge density cutoff     =      72.0000  Ry
     Exchange-correlation      = SLA  PW   PBE  PBE ( 1  4  3  4 0 0)

     celldm(1)=  10.380000  celldm(2)=   0.000000  celldm(3)=   0.000000
     celldm(4)=   0.000000  celldm(5)=   0.000000  celldm(6)=   0.000000

     crystal axes: (cart. coord. in units of alat)
               a(1) = (  -0.500000   0.000000   0.500000 )  
               a(2) = (   0.000000   0.500000   0.500000 )  
               a(3) = (  -0.500000   0.500000   0.000000 )  

     reciprocal axes: (cart. coord. in units 2 pi/alat)
               b(1) = ( -1.000000 -1.000000  1.000000 )  
               b(2) = (  1.000000  1.000000  1.000000 )  
               b(3) = ( -1.000000  1.000000 -1.000000 )  


     PseudoPot. # 1 for Si read from file:
     /home/max/quantum_espresso/qe-6.1/pseudo/si_pbe_v1.uspp.F.UPF.txt
     MD5 check sum: a056efeee980c13900f22a371efd63c1
     Pseudo is Ultrasoft + core correction, Zval =  4.0
     Generated by new atomic code, or converted to UPF format
     Using radial grid of  899 points,  6 beta functions with: 
                l(1) =   0
                l(2) =   0
                l(3) =   1
                l(4) =   1
                l(5) =   2
                l(6) =   2
     Q(r) pseudized with  8 coefficients,  rinner =    0.900   0.900   0.900
                                                       0.900   0.900

     atomic species   valence    mass     pseudopotential
        Si             4.00    28.08600     Si( 1.00)

     48 Sym. Ops., with inversion, found



   Cartesian axes

     site n.     atom                  positions (alat units)
         1           Si  tau(   1) = (   0.0000000   0.0000000   0.0000000  )
         2           Si  tau(   2) = (   0.2500000   0.2500000   0.2500000  )

     number of k points=    60
                       cart. coord. in units 2pi/alat
        k(    1) = (  -0.1250000   0.1250000   0.1250000), wk =   0.0468750
        k(    2) = (   0.3750000  -0.3750000   0.6250000), wk =   0.0000000
        k(    3) = (  -0.3750000   0.3750000  -0.1250000), wk =   0.0468750
        k(    4) = (   0.1250000  -0.1250000   0.3750000), wk =   0.0000000
        k(    5) = (   0.3750000  -0.3750000   0.6250000), wk =   0.0468750
        k(    6) = (   0.8750000  -0.8750000   1.1250000), wk =   0.0000000
        k(    7) = (   0.1250000  -0.1250000   0.3750000), wk =   0.0468750
        k(    8) = (   0.6250000  -0.6250000   0.8750000), wk =   0.0000000
        k(    9) = (  -0.1250000   0.6250000   0.1250000), wk =   0.0937500
        k(   10) = (   0.3750000   0.1250000   0.6250000), wk =   0.0000000
        k(   11) = (   0.6250000  -0.1250000   0.8750000), wk =   0.0937500
        k(   12) = (   1.1250000  -0.6250000   1.3750000), wk =   0.0000000
        k(   13) = (   0.3750000   0.1250000   0.6250000), wk =   0.0937500
        k(   14) = (   0.8750000  -0.3750000   1.1250000), wk =   0.0000000
        k(   15) = (  -0.1250000  -0.8750000   0.1250000), wk =   0.0937500
        k(   16) = (   0.3750000  -1.3750000   0.6250000), wk =   0.0000000
        k(   17) = (  -0.3750000   0.3750000   0.3750000), wk =   0.0468750
        k(   18) = (   0.1250000  -0.1250000   0.8750000), wk =   0.0000000
        k(   19) = (   0.3750000  -0.3750000   1.1250000), wk =   0.0468750
        k(   20) = (   0.8750000  -0.8750000   1.6250000), wk =   0.0000000
        k(   21) = (   0.1250000  -0.1250000   0.1250000), wk =   0.0156250
        k(   22) = (   0.6250000  -0.6250000   0.6250000), wk =   0.0000000
        k(   23) = (  -0.3750000  -0.3750000  -0.1250000), wk =   0.0937500
        k(   24) = (   0.1250000  -0.8750000   0.3750000), wk =   0.0000000
        k(   25) = (  -0.1250000  -0.3750000   0.3750000), wk =   0.0468750
        k(   26) = (   0.3750000  -0.8750000   0.8750000), wk =   0.0000000
        k(   27) = (   0.3750000   0.3750000   0.6250000), wk =   0.0937500
        k(   28) = (   0.8750000  -0.1250000   1.1250000), wk =   0.0000000
        k(   29) = (   0.6250000   0.3750000  -0.3750000), wk =   0.0468750
        k(   30) = (   1.1250000  -0.1250000   0.1250000), wk =   0.0000000
        k(   31) = (   0.1250000   0.1250000   0.3750000), wk =   0.0937500
        k(   32) = (   0.6250000  -0.3750000   0.8750000), wk =   0.0000000
        k(   33) = (   0.3750000   0.1250000  -0.1250000), wk =   0.0468750
        k(   34) = (   0.8750000  -0.3750000   0.3750000), wk =   0.0000000
        k(   35) = (  -0.1250000  -0.6250000  -0.1250000), wk =   0.0468750
        k(   36) = (   0.3750000  -1.1250000   0.3750000), wk =   0.0000000
        k(   37) = (   0.1250000  -0.6250000   0.1250000), wk =   0.0468750
        k(   38) = (   0.6250000  -1.1250000   0.6250000), wk =   0.0000000
        k(   39) = (   0.6250000   0.1250000   0.8750000), wk =   0.0937500
        k(   40) = (   1.1250000  -0.3750000   1.3750000), wk =   0.0000000
        k(   41) = (  -0.8750000   0.1250000   0.6250000), wk =   0.0937500
        k(   42) = (  -0.3750000  -0.3750000   1.1250000), wk =   0.0000000
        k(   43) = (   0.8750000   0.1250000  -0.6250000), wk =   0.0937500
        k(   44) = (   1.3750000  -0.3750000  -0.1250000), wk =   0.0000000
        k(   45) = (   0.3750000  -0.1250000   0.6250000), wk =   0.0937500
        k(   46) = (   0.8750000  -0.6250000   1.1250000), wk =   0.0000000
        k(   47) = (  -0.6250000  -0.1250000   0.3750000), wk =   0.0937500
        k(   48) = (  -0.1250000  -0.6250000   0.8750000), wk =   0.0000000
        k(   49) = (   0.6250000  -0.1250000  -0.3750000), wk =   0.0937500
        k(   50) = (   1.1250000  -0.6250000   0.1250000), wk =   0.0000000
        k(   51) = (  -0.1250000   0.8750000  -0.1250000), wk =   0.0468750
        k(   52) = (   0.3750000   0.3750000   0.3750000), wk =   0.0000000
        k(   53) = (   0.1250000   0.8750000   0.1250000), wk =   0.0468750
        k(   54) = (   0.6250000   0.3750000   0.6250000), wk =   0.0000000
        k(   55) = (   0.3750000  -0.3750000   0.3750000), wk =   0.0156250
        k(   56) = (   0.8750000  -0.8750000   0.8750000), wk =   0.0000000
        k(   57) = (   0.3750000   0.3750000   1.1250000), wk =   0.0937500
        k(   58) = (   0.8750000  -0.1250000   1.6250000), wk =   0.0000000
        k(   59) = (   1.1250000   0.3750000  -0.3750000), wk =   0.0468750
        k(   60) = (   1.6250000  -0.1250000   0.1250000), wk =   0.0000000

     Dense  grid:     2891 G-vectors     FFT dimensions: (  20,  20,  20)

     Estimated max dynamical RAM per process >       0.33MB

     Estimated total allocated dynamical RAM >       1.33MB

     Check: negative/imaginary core charge=   -0.000006    0.000000

     The potential is recalculated from file :
     ./_ph0/silicon.10.38.save/charge-density.dat

     Starting wfc are    8 atomic wfcs

     Band Structure Calculation
     Davidson diagonalization with overlap

     ethr =  1.25E-10,  avg # of iterations = 11.7

     total cpu time spent up to now is        1.3 secs

     End of band structure calculation

          k =-0.1250 0.1250 0.1250 (   347 PWs)   bands (ev):

    -5.6796   4.2570   5.5667   5.5667

          k = 0.3750-0.3750 0.6250 (   363 PWs)   bands (ev):

    -3.5510  -0.7560   3.6212   4.3296

          k =-0.3750 0.3750-0.1250 (   356 PWs)   bands (ev):

    -4.6679   1.2871   3.6089   5.0885

          k = 0.1250-0.1250 0.3750 (   357 PWs)   bands (ev):

    -5.1592   2.6444   4.5742   4.6302

          k = 0.3750-0.3750 0.6250 (   363 PWs)   bands (ev):

    -3.5510  -0.7560   3.6212   4.3296

          k = 0.8750-0.8750 1.1250 (   347 PWs)   bands (ev):

    -5.6796   4.2570   5.5667   5.5667

          k = 0.1250-0.1250 0.3750 (   357 PWs)   bands (ev):

    -5.1592   2.6444   4.5742   4.6302

          k = 0.6250-0.6250 0.8750 (   356 PWs)   bands (ev):

    -4.6679   1.2871   3.6089   5.0885

          k =-0.1250 0.6250 0.1250 (   355 PWs)   bands (ev):

    -4.1422   0.9370   3.2688   3.7114

          k = 0.3750 0.1250 0.6250 (   362 PWs)   bands (ev):

    -3.7350   0.0852   2.6346   3.9838

          k = 0.6250-0.1250 0.8750 (   365 PWs)   bands (ev):

    -2.5307  -1.0038   1.9437   2.9997

          k = 1.1250-0.6250 1.3750 (   356 PWs)   bands (ev):

    -4.6679   1.2871   3.6089   5.0885

          k = 0.3750 0.1250 0.6250 (   362 PWs)   bands (ev):

    -3.7350   0.0852   2.6346   3.9838

          k = 0.8750-0.3750 1.1250 (   355 PWs)   bands (ev):

    -4.1422   0.9370   3.2688   3.7114

          k =-0.1250-0.8750 0.1250 (   362 PWs)   bands (ev):

    -2.6915  -0.9099   2.5404   3.2501

          k = 0.3750-1.3750 0.6250 (   363 PWs)   bands (ev):

    -3.5510  -0.7560   3.6212   4.3296

          k =-0.3750 0.3750 0.3750 (   359 PWs)   bands (ev):

    -4.2435   0.0224   4.7858   4.7858

          k = 0.1250-0.1250 0.8750 (   362 PWs)   bands (ev):

    -2.6915  -0.9099   2.5404   3.2501

          k = 0.3750-0.3750 1.1250 (   365 PWs)   bands (ev):

    -3.0617  -0.6911   1.9949   4.0185

          k = 0.8750-0.8750 1.6250 (   355 PWs)   bands (ev):

    -4.1422   0.9370   3.2688   3.7114

          k = 0.1250-0.1250 0.1250 (   347 PWs)   bands (ev):

    -5.6796   4.2570   5.5667   5.5667

          k = 0.6250-0.6250 0.6250 (   359 PWs)   bands (ev):

    -4.2435   0.0224   4.7858   4.7858

          k =-0.3750-0.3750-0.1250 (   356 PWs)   bands (ev):

    -4.6679   1.2871   3.6089   5.0885

          k = 0.1250-0.8750 0.3750 (   365 PWs)   bands (ev):

    -2.5307  -1.0038   1.9437   2.9997

          k =-0.1250-0.3750 0.3750 (   356 PWs)   bands (ev):

    -4.6679   1.2871   3.6089   5.0885

          k = 0.3750-0.8750 0.8750 (   355 PWs)   bands (ev):

    -4.1422   0.9370   3.2688   3.7114

          k = 0.3750 0.3750 0.6250 (   363 PWs)   bands (ev):

    -3.5510  -0.7560   3.6212   4.3296

          k = 0.8750-0.1250 1.1250 (   362 PWs)   bands (ev):

    -2.6915  -0.9099   2.5404   3.2501

          k = 0.6250 0.3750-0.3750 (   363 PWs)   bands (ev):

    -3.5510  -0.7560   3.6212   4.3296

          k = 1.1250-0.1250 0.1250 (   362 PWs)   bands (ev):

    -2.6915  -0.9099   2.5404   3.2501

          k = 0.1250 0.1250 0.3750 (   357 PWs)   bands (ev):

    -5.1592   2.6444   4.5742   4.6302

          k = 0.6250-0.3750 0.8750 (   362 PWs)   bands (ev):

    -3.7350   0.0852   2.6346   3.9838

          k = 0.3750 0.1250-0.1250 (   357 PWs)   bands (ev):

    -5.1592   2.6444   4.5742   4.6302

          k = 0.8750-0.3750 0.3750 (   365 PWs)   bands (ev):

    -3.0617  -0.6911   1.9949   4.0185

          k =-0.1250-0.6250-0.1250 (   355 PWs)   bands (ev):

    -4.1422   0.9370   3.2688   3.7114

          k = 0.3750-1.1250 0.3750 (   365 PWs)   bands (ev):

    -3.0617  -0.6911   1.9949   4.0185

          k = 0.1250-0.6250 0.1250 (   355 PWs)   bands (ev):

    -4.1422   0.9370   3.2688   3.7114

          k = 0.6250-1.1250 0.6250 (   356 PWs)   bands (ev):

    -4.6679   1.2871   3.6089   5.0885

          k = 0.6250 0.1250 0.8750 (   365 PWs)   bands (ev):

    -2.5307  -1.0038   1.9437   2.9997

          k = 1.1250-0.3750 1.3750 (   362 PWs)   bands (ev):

    -3.7350   0.0852   2.6346   3.9838

          k =-0.8750 0.1250 0.6250 (   365 PWs)   bands (ev):

    -2.5307  -1.0038   1.9437   2.9997

          k =-0.3750-0.3750 1.1250 (   365 PWs)   bands (ev):

    -3.0617  -0.6911   1.9949   4.0185

          k = 0.8750 0.1250-0.6250 (   365 PWs)   bands (ev):

    -2.5307  -1.0038   1.9437   2.9997

          k = 1.3750-0.3750-0.1250 (   362 PWs)   bands (ev):

    -3.7350   0.0852   2.6346   3.9838

          k = 0.3750-0.1250 0.6250 (   362 PWs)   bands (ev):

    -3.7350   0.0852   2.6346   3.9838

          k = 0.8750-0.6250 1.1250 (   357 PWs)   bands (ev):

    -5.1592   2.6444   4.5742   4.6302

          k =-0.6250-0.1250 0.3750 (   362 PWs)   bands (ev):

    -3.7350   0.0852   2.6346   3.9838

          k =-0.1250-0.6250 0.8750 (   365 PWs)   bands (ev):

    -2.5307  -1.0038   1.9437   2.9997

          k = 0.6250-0.1250-0.3750 (   362 PWs)   bands (ev):

    -3.7350   0.0852   2.6346   3.9838

          k = 1.1250-0.6250 0.1250 (   365 PWs)   bands (ev):

    -2.5307  -1.0038   1.9437   2.9997

          k =-0.1250 0.8750-0.1250 (   362 PWs)   bands (ev):

    -2.6915  -0.9099   2.5404   3.2501

          k = 0.3750 0.3750 0.3750 (   359 PWs)   bands (ev):

    -4.2435   0.0224   4.7858   4.7858

          k = 0.1250 0.8750 0.1250 (   362 PWs)   bands (ev):

    -2.6915  -0.9099   2.5404   3.2501

          k = 0.6250 0.3750 0.6250 (   363 PWs)   bands (ev):

    -3.5510  -0.7560   3.6212   4.3296

          k = 0.3750-0.3750 0.3750 (   359 PWs)   bands (ev):

    -4.2435   0.0224   4.7858   4.7858

          k = 0.8750-0.8750 0.8750 (   347 PWs)   bands (ev):

    -5.6796   4.2570   5.5667   5.5667

          k = 0.3750 0.3750 1.1250 (   365 PWs)   bands (ev):

    -3.0617  -0.6911   1.9949   4.0185

          k = 0.8750-0.1250 1.6250 (   365 PWs)   bands (ev):

    -2.5307  -1.0038   1.9437   2.9997

          k = 1.1250 0.3750-0.3750 (   365 PWs)   bands (ev):

    -3.0617  -0.6911   1.9949   4.0185

          k = 1.6250-0.1250 0.1250 (   357 PWs)   bands (ev):

    -5.1592   2.6444   4.5742   4.6302

     highest occupied level (ev):     5.5667

     Writing output data file silicon.10.38.save

                                                                                

     bravais-lattice index     =            2
     lattice parameter (alat)  =      10.3800  a.u.
     unit-cell volume          =     279.5967 (a.u.)^3
     number of atoms/cell      =            2
     number of atomic types    =            1
     kinetic-energy cut-off    =      18.0000  Ry
     charge density cut-off    =      72.0000  Ry
     convergence threshold     =      1.0E-12
     beta                      =       0.7000
     number of iterations used =            4
     Exchange-correlation      = SLA  PW   PBE  PBE ( 1  4  3  4 0 0)


     celldm(1)=   10.38000  celldm(2)=    0.00000  celldm(3)=    0.00000
     celldm(4)=    0.00000  celldm(5)=    0.00000  celldm(6)=    0.00000

     crystal axes: (cart. coord. in units of alat)
               a(1) = ( -0.5000  0.0000  0.5000 )  
               a(2) = (  0.0000  0.5000  0.5000 )  
               a(3) = ( -0.5000  0.5000  0.0000 )  

     reciprocal axes: (cart. coord. in units 2 pi/alat)
               b(1) = ( -1.0000 -1.0000  1.0000 )  
               b(2) = (  1.0000  1.0000  1.0000 )  
               b(3) = ( -1.0000  1.0000 -1.0000 )  


     Atoms inside the unit cell: 

     Cartesian axes

     site n.  atom      mass           positions (alat units)
        1     Si  28.0860   tau(    1) = (    0.00000    0.00000    0.00000  )
        2     Si  28.0860   tau(    2) = (    0.25000    0.25000    0.25000  )

     Computing dynamical matrix for 
                    q = (   0.5000000  -0.5000000   0.5000000 )

     13 Sym.Ops. (with q -> -q+G )


     G cutoff =  196.5022  (    722 G-vectors)     FFT grid: ( 20, 20, 20)
     number of k points=    60

     PseudoPot. # 1 for Si read from file:
     /home/max/quantum_espresso/qe-6.1/pseudo/si_pbe_v1.uspp.F.UPF.txt
     MD5 check sum: a056efeee980c13900f22a371efd63c1
     Pseudo is Ultrasoft + core correction, Zval =  4.0
     Generated by new atomic code, or converted to UPF format
     Using radial grid of  899 points,  6 beta functions with: 
                l(1) =   0
                l(2) =   0
                l(3) =   1
                l(4) =   1
                l(5) =   2
                l(6) =   2
     Q(r) pseudized with  8 coefficients,  rinner =    0.900   0.900   0.900
                                                       0.900   0.900


     Atomic displacements:
     There are   4 irreducible representations

     Representation     1      1 modes -  To be done

     Representation     2      1 modes -  To be done

     Representation     3      2 modes -  To be done

     Representation     4      2 modes -  To be done



     Alpha used in Ewald sum =   0.7000
     PHONON       :    14.49s CPU        15.17s WALL



     Representation #  1 mode #   1

     Self-consistent Calculation

      iter #   1 total cpu time :    15.3 secs   av.it.:   4.8
      thresh= 1.000E-02 alpha_mix =  0.700 |ddv_scf|^2 =  2.440E-05

      iter #   2 total cpu time :    15.4 secs   av.it.:   8.3
      thresh= 4.939E-04 alpha_mix =  0.700 |ddv_scf|^2 =  2.217E-05

      iter #   3 total cpu time :    15.6 secs   av.it.:   7.5
      thresh= 4.709E-04 alpha_mix =  0.700 |ddv_scf|^2 =  3.745E-08

      iter #   4 total cpu time :    15.7 secs   av.it.:   7.6
      thresh= 1.935E-05 alpha_mix =  0.700 |ddv_scf|^2 =  1.294E-10

      iter #   5 total cpu time :    15.8 secs   av.it.:   7.9
      thresh= 1.138E-06 alpha_mix =  0.700 |ddv_scf|^2 =  3.645E-12

      iter #   6 total cpu time :    16.0 secs   av.it.:   7.8
      thresh= 1.909E-07 alpha_mix =  0.700 |ddv_scf|^2 =  6.957E-14

     End of self-consistent calculation

     Convergence has been achieved 


     Representation #  2 mode #   2

     Self-consistent Calculation

      iter #   1 total cpu time :    16.1 secs   av.it.:   5.7
      thresh= 1.000E-02 alpha_mix =  0.700 |ddv_scf|^2 =  3.411E-04

      iter #   2 total cpu time :    16.3 secs   av.it.:   8.3
      thresh= 1.847E-03 alpha_mix =  0.700 |ddv_scf|^2 =  1.054E-03

      iter #   3 total cpu time :    16.4 secs   av.it.:   7.1
      thresh= 3.247E-03 alpha_mix =  0.700 |ddv_scf|^2 =  1.343E-07

      iter #   4 total cpu time :    16.5 secs   av.it.:   8.1
      thresh= 3.665E-05 alpha_mix =  0.700 |ddv_scf|^2 =  9.241E-09

      iter #   5 total cpu time :    16.7 secs   av.it.:   8.4
      thresh= 9.613E-06 alpha_mix =  0.700 |ddv_scf|^2 =  1.314E-10

      iter #   6 total cpu time :    16.8 secs   av.it.:   8.2
      thresh= 1.146E-06 alpha_mix =  0.700 |ddv_scf|^2 =  2.727E-12

      iter #   7 total cpu time :    16.9 secs   av.it.:   7.9
      thresh= 1.651E-07 alpha_mix =  0.700 |ddv_scf|^2 =  6.445E-15

     End of self-consistent calculation

     Convergence has been achieved 


     Representation #  3 modes #   3  4

     Self-consistent Calculation

      iter #   1 total cpu time :    17.2 secs   av.it.:   4.7
      thresh= 1.000E-02 alpha_mix =  0.700 |ddv_scf|^2 =  3.378E-07

      iter #   2 total cpu time :    17.5 secs   av.it.:   9.0
      thresh= 5.812E-05 alpha_mix =  0.700 |ddv_scf|^2 =  2.901E-08

      iter #   3 total cpu time :    17.7 secs   av.it.:   8.3
      thresh= 1.703E-05 alpha_mix =  0.700 |ddv_scf|^2 =  5.082E-10

      iter #   4 total cpu time :    18.0 secs   av.it.:   8.9
      thresh= 2.254E-06 alpha_mix =  0.700 |ddv_scf|^2 =  6.391E-12

      iter #   5 total cpu time :    18.3 secs   av.it.:   8.7
      thresh= 2.528E-07 alpha_mix =  0.700 |ddv_scf|^2 =  3.529E-14

     End of self-consistent calculation

     Convergence has been achieved 


     Representation #  4 modes #   5  6

     Self-consistent Calculation

      iter #   1 total cpu time :    18.5 secs   av.it.:   4.9
      thresh= 1.000E-02 alpha_mix =  0.700 |ddv_scf|^2 =  9.396E-07

      iter #   2 total cpu time :    18.9 secs   av.it.:   9.4
      thresh= 9.694E-05 alpha_mix =  0.700 |ddv_scf|^2 =  7.463E-08

      iter #   3 total cpu time :    19.2 secs   av.it.:   9.3
      thresh= 2.732E-05 alpha_mix =  0.700 |ddv_scf|^2 =  4.407E-09

      iter #   4 total cpu time :    19.4 secs   av.it.:   8.5
      thresh= 6.639E-06 alpha_mix =  0.700 |ddv_scf|^2 =  6.414E-12

      iter #   5 total cpu time :    19.7 secs   av.it.:   8.8
      thresh= 2.533E-07 alpha_mix =  0.700 |ddv_scf|^2 =  2.511E-14

     End of self-consistent calculation

     Convergence has been achieved 

     Number of q in the star =    4
     List of q in the star:
          1   0.500000000  -0.500000000   0.500000000
          2   0.500000000   0.500000000   0.500000000
          3  -0.500000000   0.500000000   0.500000000
          4   0.500000000   0.500000000  -0.500000000

     Diagonalizing the dynamical matrix

     q = (    0.500000000  -0.500000000   0.500000000 ) 

 **************************************************************************
     freq (    1) =       5.050999 [THz] =     168.483207 [cm-1]
     freq (    2) =       5.050999 [THz] =     168.483207 [cm-1]
     freq (    3) =      11.989970 [THz] =     399.942349 [cm-1]
     freq (    4) =      12.174631 [THz] =     406.101977 [cm-1]
     freq (    5) =      14.795385 [THz] =     493.520929 [cm-1]
     freq (    6) =      14.795385 [THz] =     493.520929 [cm-1]
 **************************************************************************

     Calculation of q =    0.0000000   0.5000000   0.0000000

   Info: using nr1, nr2, nr3 values from input

   Info: using nr1, nr2, nr3 values from input

     Parallelization info
     --------------------
     sticks:   dense  smooth     PW     G-vecs:    dense   smooth      PW
     Min          66      66     27                  722      722     181
     Max          67      67     28                  724      724     182
     Sum         265     265    109                 2891     2891     725



     bravais-lattice index     =            2
     lattice parameter (alat)  =      10.3800  a.u.
     unit-cell volume          =     279.5967 (a.u.)^3
     number of atoms/cell      =            2
     number of atomic types    =            1
     number of electrons       =         8.00
     number of Kohn-Sham states=            4
     kinetic-energy cutoff     =      18.0000  Ry
     charge density cutoff     =      72.0000  Ry
     Exchange-correlation      = SLA  PW   PBE  PBE ( 1  4  3  4 0 0)

     celldm(1)=  10.380000  celldm(2)=   0.000000  celldm(3)=   0.000000
     celldm(4)=   0.000000  celldm(5)=   0.000000  celldm(6)=   0.000000

     crystal axes: (cart. coord. in units of alat)
               a(1) = (  -0.500000   0.000000   0.500000 )  
               a(2) = (   0.000000   0.500000   0.500000 )  
               a(3) = (  -0.500000   0.500000   0.000000 )  

     reciprocal axes: (cart. coord. in units 2 pi/alat)
               b(1) = ( -1.000000 -1.000000  1.000000 )  
               b(2) = (  1.000000  1.000000  1.000000 )  
               b(3) = ( -1.000000  1.000000 -1.000000 )  


     PseudoPot. # 1 for Si read from file:
     /home/max/quantum_espresso/qe-6.1/pseudo/si_pbe_v1.uspp.F.UPF.txt
     MD5 check sum: a056efeee980c13900f22a371efd63c1
     Pseudo is Ultrasoft + core correction, Zval =  4.0
     Generated by new atomic code, or converted to UPF format
     Using radial grid of  899 points,  6 beta functions with: 
                l(1) =   0
                l(2) =   0
                l(3) =   1
                l(4) =   1
                l(5) =   2
                l(6) =   2
     Q(r) pseudized with  8 coefficients,  rinner =    0.900   0.900   0.900
                                                       0.900   0.900

     atomic species   valence    mass     pseudopotential
        Si             4.00    28.08600     Si( 1.00)

     48 Sym. Ops., with inversion, found



   Cartesian axes

     site n.     atom                  positions (alat units)
         1           Si  tau(   1) = (   0.0000000   0.0000000   0.0000000  )
         2           Si  tau(   2) = (   0.2500000   0.2500000   0.2500000  )

     number of k points=    80
                       cart. coord. in units 2pi/alat
        k(    1) = (  -0.1250000   0.1250000   0.1250000), wk =   0.0312500
        k(    2) = (  -0.1250000   0.6250000   0.1250000), wk =   0.0000000
        k(    3) = (  -0.3750000   0.3750000  -0.1250000), wk =   0.0625000
        k(    4) = (  -0.3750000   0.8750000  -0.1250000), wk =   0.0000000
        k(    5) = (   0.3750000  -0.3750000   0.6250000), wk =   0.0625000
        k(    6) = (   0.3750000   0.1250000   0.6250000), wk =   0.0000000
        k(    7) = (   0.1250000  -0.1250000   0.3750000), wk =   0.0625000
        k(    8) = (   0.1250000   0.3750000   0.3750000), wk =   0.0000000
        k(    9) = (  -0.1250000   0.6250000   0.1250000), wk =   0.0312500
        k(   10) = (  -0.1250000   1.1250000   0.1250000), wk =   0.0000000
        k(   11) = (   0.6250000  -0.1250000   0.8750000), wk =   0.0625000
        k(   12) = (   0.6250000   0.3750000   0.8750000), wk =   0.0000000
        k(   13) = (   0.3750000   0.1250000   0.6250000), wk =   0.0625000
        k(   14) = (   0.3750000   0.6250000   0.6250000), wk =   0.0000000
        k(   15) = (  -0.1250000  -0.8750000   0.1250000), wk =   0.0312500
        k(   16) = (  -0.1250000  -0.3750000   0.1250000), wk =   0.0000000
        k(   17) = (  -0.3750000   0.3750000   0.3750000), wk =   0.0312500
        k(   18) = (  -0.3750000   0.8750000   0.3750000), wk =   0.0000000
        k(   19) = (   0.3750000  -0.3750000   1.1250000), wk =   0.0625000
        k(   20) = (   0.3750000   0.1250000   1.1250000), wk =   0.0000000
        k(   21) = (  -0.1250000  -0.1250000   0.1250000), wk =   0.0312500
        k(   22) = (  -0.1250000   0.3750000   0.1250000), wk =   0.0000000
        k(   23) = (   0.1250000  -0.3750000   0.3750000), wk =   0.0625000
        k(   24) = (   0.1250000   0.1250000   0.3750000), wk =   0.0000000
        k(   25) = (   0.3750000  -0.1250000   0.3750000), wk =   0.0312500
        k(   26) = (   0.3750000   0.3750000   0.3750000), wk =   0.0000000
        k(   27) = (   0.3750000   0.1250000   0.3750000), wk =   0.0312500
        k(   28) = (   0.3750000   0.6250000   0.3750000), wk =   0.0000000
        k(   29) = (  -0.6250000   0.3750000  -0.3750000), wk =   0.0625000
        k(   30) = (  -0.6250000   0.8750000  -0.3750000), wk =   0.0000000
        k(   31) = (  -0.3750000   0.6250000  -0.3750000), wk =   0.0312500
        k(   32) = (  -0.3750000   1.1250000  -0.3750000), wk =   0.0000000
        k(   33) = (  -0.3750000  -0.6250000  -0.3750000), wk =   0.0312500
        k(   34) = (  -0.3750000  -0.1250000  -0.3750000), wk =   0.0000000
        k(   35) = (  -0.3750000   0.1250000  -0.1250000), wk =   0.0625000
        k(   36) = (  -0.3750000   0.6250000  -0.1250000), wk =   0.0000000
        k(   37) = (  -0.1250000   0.3750000  -0.1250000), wk =   0.0312500
        k(   38) = (  -0.1250000   0.8750000  -0.1250000), wk =   0.0000000
        k(   39) = (  -0.1250000  -0.3750000  -0.1250000), wk =   0.0312500
        k(   40) = (  -0.1250000   0.1250000  -0.1250000), wk =   0.0000000
        k(   41) = (  -0.1250000  -0.6250000   0.1250000), wk =   0.0312500
        k(   42) = (  -0.1250000  -0.1250000   0.1250000), wk =   0.0000000
        k(   43) = (   0.6250000  -0.1250000  -0.1250000), wk =   0.0625000
        k(   44) = (   0.6250000   0.3750000  -0.1250000), wk =   0.0000000
        k(   45) = (   0.6250000   0.1250000   0.1250000), wk =   0.0625000
        k(   46) = (   0.6250000   0.6250000   0.1250000), wk =   0.0000000
        k(   47) = (  -0.8750000   0.1250000  -0.6250000), wk =   0.0625000
        k(   48) = (  -0.8750000   0.6250000  -0.6250000), wk =   0.0000000
        k(   49) = (  -0.1250000   0.6250000  -0.8750000), wk =   0.0625000
        k(   50) = (  -0.1250000   1.1250000  -0.8750000), wk =   0.0000000
        k(   51) = (  -0.1250000   0.8750000  -0.6250000), wk =   0.0625000
        k(   52) = (  -0.1250000   1.3750000  -0.6250000), wk =   0.0000000
        k(   53) = (  -0.1250000  -0.8750000  -0.6250000), wk =   0.0625000
        k(   54) = (  -0.1250000  -0.3750000  -0.6250000), wk =   0.0000000
        k(   55) = (   0.8750000  -0.6250000   0.1250000), wk =   0.0625000
        k(   56) = (   0.8750000  -0.1250000   0.1250000), wk =   0.0000000
        k(   57) = (  -0.6250000  -0.1250000  -0.3750000), wk =   0.0625000
        k(   58) = (  -0.6250000   0.3750000  -0.3750000), wk =   0.0000000
        k(   59) = (   0.1250000   0.3750000  -0.6250000), wk =   0.0625000
        k(   60) = (   0.1250000   0.8750000  -0.6250000), wk =   0.0000000
        k(   61) = (   0.1250000   0.6250000  -0.3750000), wk =   0.0625000
        k(   62) = (   0.1250000   1.1250000  -0.3750000), wk =   0.0000000
        k(   63) = (   0.1250000  -0.6250000  -0.3750000), wk =   0.0625000
        k(   64) = (   0.1250000  -0.1250000  -0.3750000), wk =   0.0000000
        k(   65) = (   0.6250000  -0.3750000  -0.1250000), wk =   0.0625000
        k(   66) = (   0.6250000   0.1250000  -0.1250000), wk =   0.0000000
        k(   67) = (  -0.1250000   0.8750000   0.1250000), wk =   0.0312500
        k(   68) = (  -0.1250000   1.3750000   0.1250000), wk =   0.0000000
        k(   69) = (  -0.8750000  -0.1250000  -0.1250000), wk =   0.0625000
        k(   70) = (  -0.8750000   0.3750000  -0.1250000), wk =   0.0000000
        k(   71) = (  -0.8750000   0.1250000   0.1250000), wk =   0.0625000
        k(   72) = (  -0.8750000   0.6250000   0.1250000), wk =   0.0000000
        k(   73) = (  -0.3750000  -0.3750000   0.3750000), wk =   0.0312500
        k(   74) = (  -0.3750000   0.1250000   0.3750000), wk =   0.0000000
        k(   75) = (  -1.1250000   0.3750000  -0.3750000), wk =   0.0625000
        k(   76) = (  -1.1250000   0.8750000  -0.3750000), wk =   0.0000000
        k(   77) = (  -0.3750000   1.1250000  -0.3750000), wk =   0.0312500
        k(   78) = (  -0.3750000   1.6250000  -0.3750000), wk =   0.0000000
        k(   79) = (  -0.3750000  -1.1250000  -0.3750000), wk =   0.0312500
        k(   80) = (  -0.3750000  -0.6250000  -0.3750000), wk =   0.0000000

     Dense  grid:     2891 G-vectors     FFT dimensions: (  20,  20,  20)

     Estimated max dynamical RAM per process >       0.33MB

     Estimated total allocated dynamical RAM >       1.33MB

     Check: negative/imaginary core charge=   -0.000006    0.000000

     The potential is recalculated from file :
     ./_ph0/silicon.10.38.save/charge-density.dat

     Starting wfc are    8 atomic wfcs

     Band Structure Calculation
     Davidson diagonalization with overlap

     ethr =  1.25E-10,  avg # of iterations = 11.7

     total cpu time spent up to now is        1.9 secs

     End of band structure calculation

          k =-0.1250 0.1250 0.1250 (   347 PWs)   bands (ev):

    -5.6796   4.2570   5.5667   5.5667

          k =-0.1250 0.6250 0.1250 (   355 PWs)   bands (ev):

    -4.1422   0.9370   3.2688   3.7114

          k =-0.3750 0.3750-0.1250 (   356 PWs)   bands (ev):

    -4.6679   1.2871   3.6089   5.0885

          k =-0.3750 0.8750-0.1250 (   365 PWs)   bands (ev):

    -2.5307  -1.0038   1.9437   2.9997

          k = 0.3750-0.3750 0.6250 (   363 PWs)   bands (ev):

    -3.5510  -0.7560   3.6212   4.3296

          k = 0.3750 0.1250 0.6250 (   362 PWs)   bands (ev):

    -3.7350   0.0852   2.6346   3.9838

          k = 0.1250-0.1250 0.3750 (   357 PWs)   bands (ev):

    -5.1592   2.6444   4.5742   4.6302

          k = 0.1250 0.3750 0.3750 (   356 PWs)   bands (ev):

    -4.6679   1.2871   3.6089   5.0885

          k =-0.1250 0.6250 0.1250 (   355 PWs)   bands (ev):

    -4.1422   0.9370   3.2688   3.7114

          k =-0.1250 1.1250 0.1250 (   362 PWs)   bands (ev):

    -2.6915  -0.9099   2.5404   3.2501

          k = 0.6250-0.1250 0.8750 (   365 PWs)   bands (ev):

    -2.5307  -1.0038   1.9437   2.9997

          k = 0.6250 0.3750 0.8750 (   362 PWs)   bands (ev):

    -3.7350   0.0852   2.6346   3.9838

          k = 0.3750 0.1250 0.6250 (   362 PWs)   bands (ev):

    -3.7350   0.0852   2.6346   3.9838

          k = 0.3750 0.6250 0.6250 (   363 PWs)   bands (ev):

    -3.5510  -0.7560   3.6212   4.3296

          k =-0.1250-0.8750 0.1250 (   362 PWs)   bands (ev):

    -2.6915  -0.9099   2.5404   3.2501

          k =-0.1250-0.3750 0.1250 (   357 PWs)   bands (ev):

    -5.1592   2.6444   4.5742   4.6302

          k =-0.3750 0.3750 0.3750 (   359 PWs)   bands (ev):

    -4.2435   0.0224   4.7858   4.7858

          k =-0.3750 0.8750 0.3750 (   365 PWs)   bands (ev):

    -3.0617  -0.6911   1.9949   4.0185

          k = 0.3750-0.3750 1.1250 (   365 PWs)   bands (ev):

    -3.0617  -0.6911   1.9949   4.0185

          k = 0.3750 0.1250 1.1250 (   365 PWs)   bands (ev):

    -2.5307  -1.0038   1.9437   2.9997

          k =-0.1250-0.1250 0.1250 (   347 PWs)   bands (ev):

    -5.6796   4.2570   5.5667   5.5667

          k =-0.1250 0.3750 0.1250 (   357 PWs)   bands (ev):

    -5.1592   2.6444   4.5742   4.6302

          k = 0.1250-0.3750 0.3750 (   356 PWs)   bands (ev):

    -4.6679   1.2871   3.6089   5.0885

          k = 0.1250 0.1250 0.3750 (   357 PWs)   bands (ev):

    -5.1592   2.6444   4.5742   4.6302

          k = 0.3750-0.1250 0.3750 (   356 PWs)   bands (ev):

    -4.6679   1.2871   3.6089   5.0885

          k = 0.3750 0.3750 0.3750 (   359 PWs)   bands (ev):

    -4.2435   0.0224   4.7858   4.7858

          k = 0.3750 0.1250 0.3750 (   356 PWs)   bands (ev):

    -4.6679   1.2871   3.6089   5.0885

          k = 0.3750 0.6250 0.3750 (   363 PWs)   bands (ev):

    -3.5510  -0.7560   3.6212   4.3296

          k =-0.6250 0.3750-0.3750 (   363 PWs)   bands (ev):

    -3.5510  -0.7560   3.6212   4.3296

          k =-0.6250 0.8750-0.3750 (   362 PWs)   bands (ev):

    -3.7350   0.0852   2.6346   3.9838

          k =-0.3750 0.6250-0.3750 (   363 PWs)   bands (ev):

    -3.5510  -0.7560   3.6212   4.3296

          k =-0.3750 1.1250-0.3750 (   365 PWs)   bands (ev):

    -3.0617  -0.6911   1.9949   4.0185

          k =-0.3750-0.6250-0.3750 (   363 PWs)   bands (ev):

    -3.5510  -0.7560   3.6212   4.3296

          k =-0.3750-0.1250-0.3750 (   356 PWs)   bands (ev):

    -4.6679   1.2871   3.6089   5.0885

          k =-0.3750 0.1250-0.1250 (   357 PWs)   bands (ev):

    -5.1592   2.6444   4.5742   4.6302

          k =-0.3750 0.6250-0.1250 (   362 PWs)   bands (ev):

    -3.7350   0.0852   2.6346   3.9838

          k =-0.1250 0.3750-0.1250 (   357 PWs)   bands (ev):

    -5.1592   2.6444   4.5742   4.6302

          k =-0.1250 0.8750-0.1250 (   362 PWs)   bands (ev):

    -2.6915  -0.9099   2.5404   3.2501

          k =-0.1250-0.3750-0.1250 (   357 PWs)   bands (ev):

    -5.1592   2.6444   4.5742   4.6302

          k =-0.1250 0.1250-0.1250 (   347 PWs)   bands (ev):

    -5.6796   4.2570   5.5667   5.5667

          k =-0.1250-0.6250 0.1250 (   355 PWs)   bands (ev):

    -4.1422   0.9370   3.2688   3.7114

          k =-0.1250-0.1250 0.1250 (   347 PWs)   bands (ev):

    -5.6796   4.2570   5.5667   5.5667

          k = 0.6250-0.1250-0.1250 (   355 PWs)   bands (ev):

    -4.1422   0.9370   3.2688   3.7114

          k = 0.6250 0.3750-0.1250 (   362 PWs)   bands (ev):

    -3.7350   0.0852   2.6346   3.9838

          k = 0.6250 0.1250 0.1250 (   355 PWs)   bands (ev):

    -4.1422   0.9370   3.2688   3.7114

          k = 0.6250 0.6250 0.1250 (   365 PWs)   bands (ev):

    -3.0617  -0.6911   1.9949   4.0185

          k =-0.8750 0.1250-0.6250 (   365 PWs)   bands (ev):

    -2.5307  -1.0038   1.9437   2.9997

          k =-0.8750 0.6250-0.6250 (   356 PWs)   bands (ev):

    -4.6679   1.2871   3.6089   5.0885

          k =-0.1250 0.6250-0.8750 (   365 PWs)   bands (ev):

    -2.5307  -1.0038   1.9437   2.9997

          k =-0.1250 1.1250-0.8750 (   362 PWs)   bands (ev):

    -2.6915  -0.9099   2.5404   3.2501

          k =-0.1250 0.8750-0.6250 (   365 PWs)   bands (ev):

    -2.5307  -1.0038   1.9437   2.9997

          k =-0.1250 1.3750-0.6250 (   365 PWs)   bands (ev):

    -3.0617  -0.6911   1.9949   4.0185

          k =-0.1250-0.8750-0.6250 (   365 PWs)   bands (ev):

    -2.5307  -1.0038   1.9437   2.9997

          k =-0.1250-0.3750-0.6250 (   362 PWs)   bands (ev):

    -3.7350   0.0852   2.6346   3.9838

          k = 0.8750-0.6250 0.1250 (   365 PWs)   bands (ev):

    -2.5307  -1.0038   1.9437   2.9997

          k = 0.8750-0.1250 0.1250 (   362 PWs)   bands (ev):

    -2.6915  -0.9099   2.5404   3.2501

          k =-0.6250-0.1250-0.3750 (   362 PWs)   bands (ev):

    -3.7350   0.0852   2.6346   3.9838

          k =-0.6250 0.3750-0.3750 (   363 PWs)   bands (ev):

    -3.5510  -0.7560   3.6212   4.3296

          k = 0.1250 0.3750-0.6250 (   362 PWs)   bands (ev):

    -3.7350   0.0852   2.6346   3.9838

          k = 0.1250 0.8750-0.6250 (   365 PWs)   bands (ev):

    -2.5307  -1.0038   1.9437   2.9997

          k = 0.1250 0.6250-0.3750 (   362 PWs)   bands (ev):

    -3.7350   0.0852   2.6346   3.9838

          k = 0.1250 1.1250-0.3750 (   365 PWs)   bands (ev):

    -2.5307  -1.0038   1.9437   2.9997

          k = 0.1250-0.6250-0.3750 (   362 PWs)   bands (ev):

    -3.7350   0.0852   2.6346   3.9838

          k = 0.1250-0.1250-0.3750 (   357 PWs)   bands (ev):

    -5.1592   2.6444   4.5742   4.6302

          k = 0.6250-0.3750-0.1250 (   362 PWs)   bands (ev):

    -3.7350   0.0852   2.6346   3.9838

          k = 0.6250 0.1250-0.1250 (   355 PWs)   bands (ev):

    -4.1422   0.9370   3.2688   3.7114

          k =-0.1250 0.8750 0.1250 (   362 PWs)   bands (ev):

    -2.6915  -0.9099   2.5404   3.2501

          k =-0.1250 1.3750 0.1250 (   355 PWs)   bands (ev):

    -4.1422   0.9370   3.2688   3.7114

          k =-0.8750-0.1250-0.1250 (   362 PWs)   bands (ev):

    -2.6915  -0.9099   2.5404   3.2501

          k =-0.8750 0.3750-0.1250 (   365 PWs)   bands (ev):

    -2.5307  -1.0038   1.9437   2.9997

          k =-0.8750 0.1250 0.1250 (   362 PWs)   bands (ev):

    -2.6915  -0.9099   2.5404   3.2501

          k =-0.8750 0.6250 0.1250 (   365 PWs)   bands (ev):

    -2.5307  -1.0038   1.9437   2.9997

          k =-0.3750-0.3750 0.3750 (   359 PWs)   bands (ev):

    -4.2435   0.0224   4.7858   4.7858

          k =-0.3750 0.1250 0.3750 (   356 PWs)   bands (ev):

    -4.6679   1.2871   3.6089   5.0885

          k =-1.1250 0.3750-0.3750 (   365 PWs)   bands (ev):

    -3.0617  -0.6911   1.9949   4.0185

          k =-1.1250 0.8750-0.3750 (   355 PWs)   bands (ev):

    -4.1422   0.9370   3.2688   3.7114

          k =-0.3750 1.1250-0.3750 (   365 PWs)   bands (ev):

    -3.0617  -0.6911   1.9949   4.0185

          k =-0.3750 1.6250-0.3750 (   359 PWs)   bands (ev):

    -4.2435   0.0224   4.7858   4.7858

          k =-0.3750-1.1250-0.3750 (   365 PWs)   bands (ev):

    -3.0617  -0.6911   1.9949   4.0185

          k =-0.3750-0.6250-0.3750 (   363 PWs)   bands (ev):

    -3.5510  -0.7560   3.6212   4.3296

     highest occupied level (ev):     5.5667

     Writing output data file silicon.10.38.save

                                                                                

     bravais-lattice index     =            2
     lattice parameter (alat)  =      10.3800  a.u.
     unit-cell volume          =     279.5967 (a.u.)^3
     number of atoms/cell      =            2
     number of atomic types    =            1
     kinetic-energy cut-off    =      18.0000  Ry
     charge density cut-off    =      72.0000  Ry
     convergence threshold     =      1.0E-12
     beta                      =       0.7000
     number of iterations used =            4
     Exchange-correlation      = SLA  PW   PBE  PBE ( 1  4  3  4 0 0)


     celldm(1)=   10.38000  celldm(2)=    0.00000  celldm(3)=    0.00000
     celldm(4)=    0.00000  celldm(5)=    0.00000  celldm(6)=    0.00000

     crystal axes: (cart. coord. in units of alat)
               a(1) = ( -0.5000  0.0000  0.5000 )  
               a(2) = (  0.0000  0.5000  0.5000 )  
               a(3) = ( -0.5000  0.5000  0.0000 )  

     reciprocal axes: (cart. coord. in units 2 pi/alat)
               b(1) = ( -1.0000 -1.0000  1.0000 )  
               b(2) = (  1.0000  1.0000  1.0000 )  
               b(3) = ( -1.0000  1.0000 -1.0000 )  


     Atoms inside the unit cell: 

     Cartesian axes

     site n.  atom      mass           positions (alat units)
        1     Si  28.0860   tau(    1) = (    0.00000    0.00000    0.00000  )
        2     Si  28.0860   tau(    2) = (    0.25000    0.25000    0.25000  )

     Computing dynamical matrix for 
                    q = (   0.0000000   0.5000000   0.0000000 )

      8 Sym.Ops. (no q -> -q+G )


     G cutoff =  196.5022  (    722 G-vectors)     FFT grid: ( 20, 20, 20)
     number of k points=    80

     PseudoPot. # 1 for Si read from file:
     /home/max/quantum_espresso/qe-6.1/pseudo/si_pbe_v1.uspp.F.UPF.txt
     MD5 check sum: a056efeee980c13900f22a371efd63c1
     Pseudo is Ultrasoft + core correction, Zval =  4.0
     Generated by new atomic code, or converted to UPF format
     Using radial grid of  899 points,  6 beta functions with: 
                l(1) =   0
                l(2) =   0
                l(3) =   1
                l(4) =   1
                l(5) =   2
                l(6) =   2
     Q(r) pseudized with  8 coefficients,  rinner =    0.900   0.900   0.900
                                                       0.900   0.900

     Mode symmetry, C_4v (4mm)  point group:


     Atomic displacements:
     There are   4 irreducible representations

     Representation     1      1 modes -A_1  G_1 D_1  To be done

     Representation     2      1 modes -B_2  G_4 D_2'  To be done

     Representation     3      2 modes -E    G_5 D_5  To be done

     Representation     4      2 modes -E    G_5 D_5  To be done



     Alpha used in Ewald sum =   0.7000
     PHONON       :    19.70s CPU        20.61s WALL



     Representation #  1 mode #   1

     Self-consistent Calculation

      iter #   1 total cpu time :    20.8 secs   av.it.:   5.8
      thresh= 1.000E-02 alpha_mix =  0.700 |ddv_scf|^2 =  2.937E-03

      iter #   2 total cpu time :    20.9 secs   av.it.:   7.7
      thresh= 5.420E-03 alpha_mix =  0.700 |ddv_scf|^2 =  3.890E-02

      iter #   3 total cpu time :    21.1 secs   av.it.:   6.8
      thresh= 1.000E-02 alpha_mix =  0.700 |ddv_scf|^2 =  1.527E-07

      iter #   4 total cpu time :    21.3 secs   av.it.:   8.2
      thresh= 3.908E-05 alpha_mix =  0.700 |ddv_scf|^2 =  1.497E-08

      iter #   5 total cpu time :    21.5 secs   av.it.:   7.8
      thresh= 1.224E-05 alpha_mix =  0.700 |ddv_scf|^2 =  7.107E-10

      iter #   6 total cpu time :    21.6 secs   av.it.:   7.9
      thresh= 2.666E-06 alpha_mix =  0.700 |ddv_scf|^2 =  2.900E-12

      iter #   7 total cpu time :    21.8 secs   av.it.:   7.9
      thresh= 1.703E-07 alpha_mix =  0.700 |ddv_scf|^2 =  5.552E-13

     End of self-consistent calculation

     Convergence has been achieved 


     Representation #  2 mode #   2

     Self-consistent Calculation

      iter #   1 total cpu time :    22.0 secs   av.it.:   4.9
      thresh= 1.000E-02 alpha_mix =  0.700 |ddv_scf|^2 =  5.122E-06

      iter #   2 total cpu time :    22.2 secs   av.it.:   8.7
      thresh= 2.263E-04 alpha_mix =  0.700 |ddv_scf|^2 =  1.331E-06

      iter #   3 total cpu time :    22.3 secs   av.it.:   8.6
      thresh= 1.154E-04 alpha_mix =  0.700 |ddv_scf|^2 =  3.071E-08

      iter #   4 total cpu time :    22.5 secs   av.it.:   8.2
      thresh= 1.752E-05 alpha_mix =  0.700 |ddv_scf|^2 =  7.288E-10

      iter #   5 total cpu time :    22.7 secs   av.it.:   8.6
      thresh= 2.700E-06 alpha_mix =  0.700 |ddv_scf|^2 =  7.258E-12

      iter #   6 total cpu time :    22.9 secs   av.it.:   7.9
      thresh= 2.694E-07 alpha_mix =  0.700 |ddv_scf|^2 =  9.233E-14

     End of self-consistent calculation

     Convergence has been achieved 


     Representation #  3 modes #   3  4

     Self-consistent Calculation

      iter #   1 total cpu time :    23.2 secs   av.it.:   5.0
      thresh= 1.000E-02 alpha_mix =  0.700 |ddv_scf|^2 =  9.389E-07

      iter #   2 total cpu time :    23.6 secs   av.it.:   9.8
      thresh= 9.690E-05 alpha_mix =  0.700 |ddv_scf|^2 =  1.193E-07

      iter #   3 total cpu time :    24.0 secs   av.it.:   9.5
      thresh= 3.454E-05 alpha_mix =  0.700 |ddv_scf|^2 =  4.860E-09

      iter #   4 total cpu time :    24.4 secs   av.it.:   8.9
      thresh= 6.971E-06 alpha_mix =  0.700 |ddv_scf|^2 =  8.710E-12

      iter #   5 total cpu time :    24.7 secs   av.it.:   9.1
      thresh= 2.951E-07 alpha_mix =  0.700 |ddv_scf|^2 =  2.975E-13

     End of self-consistent calculation

     Convergence has been achieved 


     Representation #  4 modes #   5  6

     Self-consistent Calculation

      iter #   1 total cpu time :    25.0 secs   av.it.:   5.0
      thresh= 1.000E-02 alpha_mix =  0.700 |ddv_scf|^2 =  9.402E-07

      iter #   2 total cpu time :    25.4 secs   av.it.:   9.8
      thresh= 9.697E-05 alpha_mix =  0.700 |ddv_scf|^2 =  1.193E-07

      iter #   3 total cpu time :    25.8 secs   av.it.:   9.5
      thresh= 3.454E-05 alpha_mix =  0.700 |ddv_scf|^2 =  7.218E-09

      iter #   4 total cpu time :    26.2 secs   av.it.:   8.9
      thresh= 8.496E-06 alpha_mix =  0.700 |ddv_scf|^2 =  1.530E-11

      iter #   5 total cpu time :    26.6 secs   av.it.:   9.2
      thresh= 3.912E-07 alpha_mix =  0.700 |ddv_scf|^2 =  4.543E-14

     End of self-consistent calculation

     Convergence has been achieved 

     Number of q in the star =    6
     List of q in the star:
          1   0.000000000   0.500000000   0.000000000
          2   0.000000000  -0.500000000   0.000000000
          3   0.500000000   0.000000000   0.000000000
          4   0.000000000   0.000000000   0.500000000
          5   0.000000000   0.000000000  -0.500000000
          6  -0.500000000   0.000000000   0.000000000

     Diagonalizing the dynamical matrix

     q = (    0.000000000   0.500000000   0.000000000 ) 

 **************************************************************************
     freq (    1) =       4.405249 [THz] =     146.943287 [cm-1]
     freq (    2) =       4.405249 [THz] =     146.943287 [cm-1]
     freq (    3) =       7.042196 [THz] =     234.902379 [cm-1]
     freq (    4) =      14.304669 [THz] =     477.152407 [cm-1]
     freq (    5) =      14.304669 [THz] =     477.152407 [cm-1]
     freq (    6) =      14.990774 [THz] =     500.038385 [cm-1]
 **************************************************************************

     Mode symmetry, C_4v (4mm)  point group:

     freq (  1 -  2) =        146.9  [cm-1]   --> E    G_5 D_5       
     freq (  3 -  3) =        234.9  [cm-1]   --> A_1  G_1 D_1       
     freq (  4 -  5) =        477.2  [cm-1]   --> E    G_5 D_5       
     freq (  6 -  6) =        500.0  [cm-1]   --> B_2  G_4 D_2'      

     Calculation of q =    0.7500000  -0.2500000   0.7500000

   Info: using nr1, nr2, nr3 values from input

   Info: using nr1, nr2, nr3 values from input

     Parallelization info
     --------------------
     sticks:   dense  smooth     PW     G-vecs:    dense   smooth      PW
     Min          65      65     30                  722      722     216
     Max          67      67     31                  723      723     218
     Sum         265     265    121                 2891     2891     869



     bravais-lattice index     =            2
     lattice parameter (alat)  =      10.3800  a.u.
     unit-cell volume          =     279.5967 (a.u.)^3
     number of atoms/cell      =            2
     number of atomic types    =            1
     number of electrons       =         8.00
     number of Kohn-Sham states=            4
     kinetic-energy cutoff     =      18.0000  Ry
     charge density cutoff     =      72.0000  Ry
     Exchange-correlation      = SLA  PW   PBE  PBE ( 1  4  3  4 0 0)

     celldm(1)=  10.380000  celldm(2)=   0.000000  celldm(3)=   0.000000
     celldm(4)=   0.000000  celldm(5)=   0.000000  celldm(6)=   0.000000

     crystal axes: (cart. coord. in units of alat)
               a(1) = (  -0.500000   0.000000   0.500000 )  
               a(2) = (   0.000000   0.500000   0.500000 )  
               a(3) = (  -0.500000   0.500000   0.000000 )  

     reciprocal axes: (cart. coord. in units 2 pi/alat)
               b(1) = ( -1.000000 -1.000000  1.000000 )  
               b(2) = (  1.000000  1.000000  1.000000 )  
               b(3) = ( -1.000000  1.000000 -1.000000 )  


     PseudoPot. # 1 for Si read from file:
     /home/max/quantum_espresso/qe-6.1/pseudo/si_pbe_v1.uspp.F.UPF.txt
     MD5 check sum: a056efeee980c13900f22a371efd63c1
     Pseudo is Ultrasoft + core correction, Zval =  4.0
     Generated by new atomic code, or converted to UPF format
     Using radial grid of  899 points,  6 beta functions with: 
                l(1) =   0
                l(2) =   0
                l(3) =   1
                l(4) =   1
                l(5) =   2
                l(6) =   2
     Q(r) pseudized with  8 coefficients,  rinner =    0.900   0.900   0.900
                                                       0.900   0.900

     atomic species   valence    mass     pseudopotential
        Si             4.00    28.08600     Si( 1.00)

     48 Sym. Ops., with inversion, found



   Cartesian axes

     site n.     atom                  positions (alat units)
         1           Si  tau(   1) = (   0.0000000   0.0000000   0.0000000  )
         2           Si  tau(   2) = (   0.2500000   0.2500000   0.2500000  )

     number of k points=   288

     Number of k-points >= 100: set verbosity='high' to print them.

     Dense  grid:     2891 G-vectors     FFT dimensions: (  20,  20,  20)

     Estimated max dynamical RAM per process >       0.33MB

     Estimated total allocated dynamical RAM >       1.33MB

     Check: negative/imaginary core charge=   -0.000006    0.000000

     The potential is recalculated from file :
     ./_ph0/silicon.10.38.save/charge-density.dat

     Starting wfc are    8 atomic wfcs

     Band Structure Calculation
     Davidson diagonalization with overlap

     ethr =  1.25E-10,  avg # of iterations = 11.6

     total cpu time spent up to now is        3.7 secs

     End of band structure calculation

     Number of k-points >= 100: set verbosity='high' to print the bands.

     highest occupied level (ev):     5.5667

     Writing output data file silicon.10.38.save

                                                                                

     bravais-lattice index     =            2
     lattice parameter (alat)  =      10.3800  a.u.
     unit-cell volume          =     279.5967 (a.u.)^3
     number of atoms/cell      =            2
     number of atomic types    =            1
     kinetic-energy cut-off    =      18.0000  Ry
     charge density cut-off    =      72.0000  Ry
     convergence threshold     =      1.0E-12
     beta                      =       0.7000
     number of iterations used =            4
     Exchange-correlation      = SLA  PW   PBE  PBE ( 1  4  3  4 0 0)


     celldm(1)=   10.38000  celldm(2)=    0.00000  celldm(3)=    0.00000
     celldm(4)=    0.00000  celldm(5)=    0.00000  celldm(6)=    0.00000

     crystal axes: (cart. coord. in units of alat)
               a(1) = ( -0.5000  0.0000  0.5000 )  
               a(2) = (  0.0000  0.5000  0.5000 )  
               a(3) = ( -0.5000  0.5000  0.0000 )  

     reciprocal axes: (cart. coord. in units 2 pi/alat)
               b(1) = ( -1.0000 -1.0000  1.0000 )  
               b(2) = (  1.0000  1.0000  1.0000 )  
               b(3) = ( -1.0000  1.0000 -1.0000 )  


     Atoms inside the unit cell: 

     Cartesian axes

     site n.  atom      mass           positions (alat units)
        1     Si  28.0860   tau(    1) = (    0.00000    0.00000    0.00000  )
        2     Si  28.0860   tau(    2) = (    0.25000    0.25000    0.25000  )

     Computing dynamical matrix for 
                    q = (   0.7500000  -0.2500000   0.7500000 )

      2 Sym.Ops. (no q -> -q+G )


     G cutoff =  196.5022  (    723 G-vectors)     FFT grid: ( 20, 20, 20)
     number of k points=   288

     PseudoPot. # 1 for Si read from file:
     /home/max/quantum_espresso/qe-6.1/pseudo/si_pbe_v1.uspp.F.UPF.txt
     MD5 check sum: a056efeee980c13900f22a371efd63c1
     Pseudo is Ultrasoft + core correction, Zval =  4.0
     Generated by new atomic code, or converted to UPF format
     Using radial grid of  899 points,  6 beta functions with: 
                l(1) =   0
                l(2) =   0
                l(3) =   1
                l(4) =   1
                l(5) =   2
                l(6) =   2
     Q(r) pseudized with  8 coefficients,  rinner =    0.900   0.900   0.900
                                                       0.900   0.900

     Mode symmetry, C_s (m)     point group:


     Atomic displacements:
     There are   6 irreducible representations

     Representation     1      1 modes -A'  To be done

     Representation     2      1 modes -A'  To be done

     Representation     3      1 modes -A'  To be done

     Representation     4      1 modes -A'  To be done

     Representation     5      1 modes -A''  To be done

     Representation     6      1 modes -A''  To be done



     Alpha used in Ewald sum =   0.7000
     PHONON       :    27.87s CPU        29.12s WALL



     Representation #  1 mode #   1

     Self-consistent Calculation

      iter #   1 total cpu time :    29.6 secs   av.it.:   5.3
      thresh= 1.000E-02 alpha_mix =  0.700 |ddv_scf|^2 =  6.055E-05

      iter #   2 total cpu time :    30.3 secs   av.it.:   8.9
      thresh= 7.781E-04 alpha_mix =  0.700 |ddv_scf|^2 =  1.600E-04

      iter #   3 total cpu time :    30.9 secs   av.it.:   7.6
      thresh= 1.265E-03 alpha_mix =  0.700 |ddv_scf|^2 =  1.128E-06

      iter #   4 total cpu time :    31.5 secs   av.it.:   8.4
      thresh= 1.062E-04 alpha_mix =  0.700 |ddv_scf|^2 =  5.563E-08

      iter #   5 total cpu time :    32.1 secs   av.it.:   8.3
      thresh= 2.359E-05 alpha_mix =  0.700 |ddv_scf|^2 =  7.164E-09

      iter #   6 total cpu time :    32.8 secs   av.it.:   8.5
      thresh= 8.464E-06 alpha_mix =  0.700 |ddv_scf|^2 =  8.875E-11

      iter #   7 total cpu time :    33.4 secs   av.it.:   8.7
      thresh= 9.421E-07 alpha_mix =  0.700 |ddv_scf|^2 =  3.083E-12

      iter #   8 total cpu time :    34.1 secs   av.it.:   8.6
      thresh= 1.756E-07 alpha_mix =  0.700 |ddv_scf|^2 =  2.029E-13

     End of self-consistent calculation

     Convergence has been achieved 


     Representation #  2 mode #   2

     Self-consistent Calculation

      iter #   1 total cpu time :    34.6 secs   av.it.:   5.4
      thresh= 1.000E-02 alpha_mix =  0.700 |ddv_scf|^2 =  1.077E-04

      iter #   2 total cpu time :    35.3 secs   av.it.:   8.7
      thresh= 1.038E-03 alpha_mix =  0.700 |ddv_scf|^2 =  3.087E-04

      iter #   3 total cpu time :    35.8 secs   av.it.:   7.4
      thresh= 1.757E-03 alpha_mix =  0.700 |ddv_scf|^2 =  7.911E-07

      iter #   4 total cpu time :    36.5 secs   av.it.:   8.5
      thresh= 8.894E-05 alpha_mix =  0.700 |ddv_scf|^2 =  5.457E-08

      iter #   5 total cpu time :    37.1 secs   av.it.:   8.3
      thresh= 2.336E-05 alpha_mix =  0.700 |ddv_scf|^2 =  1.033E-08

      iter #   6 total cpu time :    37.7 secs   av.it.:   8.5
      thresh= 1.016E-05 alpha_mix =  0.700 |ddv_scf|^2 =  8.567E-11

      iter #   7 total cpu time :    38.4 secs   av.it.:   8.8
      thresh= 9.256E-07 alpha_mix =  0.700 |ddv_scf|^2 =  2.752E-12

      iter #   8 total cpu time :    39.0 secs   av.it.:   8.7
      thresh= 1.659E-07 alpha_mix =  0.700 |ddv_scf|^2 =  6.482E-13

     End of self-consistent calculation

     Convergence has been achieved 


     Representation #  3 mode #   3

     Self-consistent Calculation

      iter #   1 total cpu time :    39.6 secs   av.it.:   5.3
      thresh= 1.000E-02 alpha_mix =  0.700 |ddv_scf|^2 =  8.441E-05

      iter #   2 total cpu time :    40.2 secs   av.it.:   8.8
      thresh= 9.187E-04 alpha_mix =  0.700 |ddv_scf|^2 =  2.262E-04

      iter #   3 total cpu time :    40.8 secs   av.it.:   7.4
      thresh= 1.504E-03 alpha_mix =  0.700 |ddv_scf|^2 =  1.350E-06

      iter #   4 total cpu time :    41.5 secs   av.it.:   8.2
      thresh= 1.162E-04 alpha_mix =  0.700 |ddv_scf|^2 =  5.573E-08

      iter #   5 total cpu time :    42.1 secs   av.it.:   8.4
      thresh= 2.361E-05 alpha_mix =  0.700 |ddv_scf|^2 =  1.065E-08

      iter #   6 total cpu time :    42.7 secs   av.it.:   8.5
      thresh= 1.032E-05 alpha_mix =  0.700 |ddv_scf|^2 =  4.896E-11

      iter #   7 total cpu time :    43.4 secs   av.it.:   8.7
      thresh= 6.997E-07 alpha_mix =  0.700 |ddv_scf|^2 =  1.878E-12

      iter #   8 total cpu time :    44.0 secs   av.it.:   8.8
      thresh= 1.370E-07 alpha_mix =  0.700 |ddv_scf|^2 =  3.846E-13

     End of self-consistent calculation

     Convergence has been achieved 


     Representation #  4 mode #   4

     Self-consistent Calculation

      iter #   1 total cpu time :    44.6 secs   av.it.:   5.2
      thresh= 1.000E-02 alpha_mix =  0.700 |ddv_scf|^2 =  3.729E-05

      iter #   2 total cpu time :    45.2 secs   av.it.:   8.9
[...]
        k(   59) = (  -0.8750000   0.1250000  -0.1250000), wk =   0.0625000
        k(   60) = (  -1.3750000  -0.8750000  -0.1250000), wk =   0.0000000
        k(   61) = (  -1.1250000   0.3750000  -0.3750000), wk =   0.0625000
        k(   62) = (  -1.6250000  -0.6250000  -0.3750000), wk =   0.0000000
        k(   63) = (  -0.3750000   0.3750000   1.1250000), wk =   0.0625000
        k(   64) = (  -0.8750000  -0.6250000   1.1250000), wk =   0.0000000

     Dense  grid:     2891 G-vectors     FFT dimensions: (  20,  20,  20)

     Estimated max dynamical RAM per process >       0.33MB

     Estimated total allocated dynamical RAM >       1.33MB

     Check: negative/imaginary core charge=   -0.000006    0.000000

     The potential is recalculated from file :
     ./_ph0/silicon.10.38.save/charge-density.dat

     Starting wfc are    8 atomic wfcs

     Band Structure Calculation
     Davidson diagonalization with overlap

     ethr =  1.25E-10,  avg # of iterations = 11.6

     total cpu time spent up to now is        5.9 secs

     End of band structure calculation

          k =-0.1250 0.1250 0.1250 (   347 PWs)   bands (ev):

    -5.6796   4.2570   5.5667   5.5667

          k =-0.6250-0.8750 0.1250 (   365 PWs)   bands (ev):

    -2.5307  -1.0038   1.9437   2.9997

          k =-0.3750 0.3750-0.1250 (   356 PWs)   bands (ev):

    -4.6679   1.2871   3.6089   5.0885

          k =-0.8750-0.6250-0.1250 (   365 PWs)   bands (ev):

    -2.5307  -1.0038   1.9437   2.9997

          k = 0.3750-0.3750 0.6250 (   363 PWs)   bands (ev):

    -3.5510  -0.7560   3.6212   4.3296

          k =-0.1250-1.3750 0.6250 (   365 PWs)   bands (ev):

    -3.0617  -0.6911   1.9949   4.0185

          k = 0.1250-0.1250 0.3750 (   357 PWs)   bands (ev):

    -5.1592   2.6444   4.5742   4.6302

          k =-0.3750-1.1250 0.3750 (   365 PWs)   bands (ev):

    -3.0617  -0.6911   1.9949   4.0185

          k =-0.1250 0.6250 0.1250 (   355 PWs)   bands (ev):

    -4.1422   0.9370   3.2688   3.7114

          k =-0.6250-0.3750 0.1250 (   362 PWs)   bands (ev):

    -3.7350   0.0852   2.6346   3.9838

          k = 0.6250-0.1250 0.8750 (   365 PWs)   bands (ev):

    -2.5307  -1.0038   1.9437   2.9997

          k = 0.1250-1.1250 0.8750 (   362 PWs)   bands (ev):

    -2.6915  -0.9099   2.5404   3.2501

          k = 0.3750 0.1250 0.6250 (   362 PWs)   bands (ev):

    -3.7350   0.0852   2.6346   3.9838

          k =-0.1250-0.8750 0.6250 (   365 PWs)   bands (ev):

    -2.5307  -1.0038   1.9437   2.9997

          k =-0.1250-0.8750 0.1250 (   362 PWs)   bands (ev):

    -2.6915  -0.9099   2.5404   3.2501

          k =-0.6250-1.8750 0.1250 (   355 PWs)   bands (ev):

    -4.1422   0.9370   3.2688   3.7114

          k =-0.3750 0.3750 0.3750 (   359 PWs)   bands (ev):

    -4.2435   0.0224   4.7858   4.7858

          k =-0.8750-0.6250 0.3750 (   362 PWs)   bands (ev):

    -3.7350   0.0852   2.6346   3.9838

          k = 0.3750-0.3750 1.1250 (   365 PWs)   bands (ev):

    -3.0617  -0.6911   1.9949   4.0185

          k =-0.1250-1.3750 1.1250 (   365 PWs)   bands (ev):

    -2.5307  -1.0038   1.9437   2.9997

          k = 0.1250-0.3750 0.3750 (   356 PWs)   bands (ev):

    -4.6679   1.2871   3.6089   5.0885

          k =-0.3750-1.3750 0.3750 (   363 PWs)   bands (ev):

    -3.5510  -0.7560   3.6212   4.3296

          k = 0.3750-0.3750-0.1250 (   356 PWs)   bands (ev):

    -4.6679   1.2871   3.6089   5.0885

          k =-0.1250-1.3750-0.1250 (   355 PWs)   bands (ev):

    -4.1422   0.9370   3.2688   3.7114

          k =-0.6250 0.3750-0.3750 (   363 PWs)   bands (ev):

    -3.5510  -0.7560   3.6212   4.3296

          k =-1.1250-0.6250-0.3750 (   362 PWs)   bands (ev):

    -3.7350   0.0852   2.6346   3.9838

          k =-0.3750 0.3750 0.6250 (   363 PWs)   bands (ev):

    -3.5510  -0.7560   3.6212   4.3296

          k =-0.8750-0.6250 0.6250 (   356 PWs)   bands (ev):

    -4.6679   1.2871   3.6089   5.0885

          k =-0.3750 0.1250-0.1250 (   357 PWs)   bands (ev):

    -5.1592   2.6444   4.5742   4.6302

          k =-0.8750-0.8750-0.1250 (   362 PWs)   bands (ev):

    -2.6915  -0.9099   2.5404   3.2501

          k =-0.1250 0.1250 0.3750 (   357 PWs)   bands (ev):

    -5.1592   2.6444   4.5742   4.6302

          k =-0.6250-0.8750 0.3750 (   362 PWs)   bands (ev):

    -3.7350   0.0852   2.6346   3.9838

          k = 0.1250 0.6250-0.1250 (   355 PWs)   bands (ev):

    -4.1422   0.9370   3.2688   3.7114

          k =-0.3750-0.3750-0.1250 (   356 PWs)   bands (ev):

    -4.6679   1.2871   3.6089   5.0885

          k = 0.6250 0.1250-0.1250 (   355 PWs)   bands (ev):

    -4.1422   0.9370   3.2688   3.7114

          k = 0.1250-0.8750-0.1250 (   362 PWs)   bands (ev):

    -2.6915  -0.9099   2.5404   3.2501

          k =-0.8750 0.1250-0.6250 (   365 PWs)   bands (ev):

    -2.5307  -1.0038   1.9437   2.9997

          k =-1.3750-0.8750-0.6250 (   356 PWs)   bands (ev):

    -4.6679   1.2871   3.6089   5.0885

          k = 0.8750-0.1250 0.6250 (   365 PWs)   bands (ev):

    -2.5307  -1.0038   1.9437   2.9997

          k = 0.3750-1.1250 0.6250 (   362 PWs)   bands (ev):

    -3.7350   0.0852   2.6346   3.9838

          k =-0.6250 0.1250 0.8750 (   365 PWs)   bands (ev):

    -2.5307  -1.0038   1.9437   2.9997

          k =-1.1250-0.8750 0.8750 (   347 PWs)   bands (ev):

    -5.6796   4.2570   5.5667   5.5667

          k =-0.1250 0.8750 0.6250 (   365 PWs)   bands (ev):

    -2.5307  -1.0038   1.9437   2.9997

          k =-0.6250-0.1250 0.6250 (   365 PWs)   bands (ev):

    -3.0617  -0.6911   1.9949   4.0185

          k = 0.1250 0.8750-0.6250 (   365 PWs)   bands (ev):

    -2.5307  -1.0038   1.9437   2.9997

          k =-0.3750-0.1250-0.6250 (   362 PWs)   bands (ev):

    -3.7350   0.0852   2.6346   3.9838

          k =-0.6250-0.1250-0.3750 (   362 PWs)   bands (ev):

    -3.7350   0.0852   2.6346   3.9838

          k =-1.1250-1.1250-0.3750 (   355 PWs)   bands (ev):

    -4.1422   0.9370   3.2688   3.7114

          k = 0.6250 0.1250 0.3750 (   362 PWs)   bands (ev):

    -3.7350   0.0852   2.6346   3.9838

          k = 0.1250-0.8750 0.3750 (   365 PWs)   bands (ev):

    -2.5307  -1.0038   1.9437   2.9997

          k =-0.3750-0.1250 0.6250 (   362 PWs)   bands (ev):

    -3.7350   0.0852   2.6346   3.9838

          k =-0.8750-1.1250 0.6250 (   357 PWs)   bands (ev):

    -5.1592   2.6444   4.5742   4.6302

          k = 0.1250 0.6250 0.3750 (   362 PWs)   bands (ev):

    -3.7350   0.0852   2.6346   3.9838

          k =-0.3750-0.3750 0.3750 (   359 PWs)   bands (ev):

    -4.2435   0.0224   4.7858   4.7858

          k =-0.1250 0.6250-0.3750 (   362 PWs)   bands (ev):

    -3.7350   0.0852   2.6346   3.9838

          k =-0.6250-0.3750-0.3750 (   363 PWs)   bands (ev):

    -3.5510  -0.7560   3.6212   4.3296

          k = 0.1250-0.8750-0.1250 (   362 PWs)   bands (ev):

    -2.6915  -0.9099   2.5404   3.2501

          k =-0.3750-1.8750-0.1250 (   357 PWs)   bands (ev):

    -5.1592   2.6444   4.5742   4.6302

          k =-0.8750 0.1250-0.1250 (   362 PWs)   bands (ev):

    -2.6915  -0.9099   2.5404   3.2501

          k =-1.3750-0.8750-0.1250 (   365 PWs)   bands (ev):

    -2.5307  -1.0038   1.9437   2.9997

          k =-1.1250 0.3750-0.3750 (   365 PWs)   bands (ev):

    -3.0617  -0.6911   1.9949   4.0185

          k =-1.6250-0.6250-0.3750 (   363 PWs)   bands (ev):

    -3.5510  -0.7560   3.6212   4.3296

          k =-0.3750 0.3750 1.1250 (   365 PWs)   bands (ev):

    -3.0617  -0.6911   1.9949   4.0185

          k =-0.8750-0.6250 1.1250 (   357 PWs)   bands (ev):

    -5.1592   2.6444   4.5742   4.6302

     highest occupied level (ev):     5.5667

     Writing output data file silicon.10.38.save

                                                                                

     bravais-lattice index     =            2
     lattice parameter (alat)  =      10.3800  a.u.
     unit-cell volume          =     279.5967 (a.u.)^3
     number of atoms/cell      =            2
     number of atomic types    =            1
     kinetic-energy cut-off    =      18.0000  Ry
     charge density cut-off    =      72.0000  Ry
     convergence threshold     =      1.0E-12
     beta                      =       0.7000
     number of iterations used =            4
     Exchange-correlation      = SLA  PW   PBE  PBE ( 1  4  3  4 0 0)


     celldm(1)=   10.38000  celldm(2)=    0.00000  celldm(3)=    0.00000
     celldm(4)=    0.00000  celldm(5)=    0.00000  celldm(6)=    0.00000

     crystal axes: (cart. coord. in units of alat)
               a(1) = ( -0.5000  0.0000  0.5000 )  
               a(2) = (  0.0000  0.5000  0.5000 )  
               a(3) = ( -0.5000  0.5000  0.0000 )  

     reciprocal axes: (cart. coord. in units 2 pi/alat)
               b(1) = ( -1.0000 -1.0000  1.0000 )  
               b(2) = (  1.0000  1.0000  1.0000 )  
               b(3) = ( -1.0000  1.0000 -1.0000 )  


     Atoms inside the unit cell: 

     Cartesian axes

     site n.  atom      mass           positions (alat units)
        1     Si  28.0860   tau(    1) = (    0.00000    0.00000    0.00000  )
        2     Si  28.0860   tau(    2) = (    0.25000    0.25000    0.25000  )

     Computing dynamical matrix for 
                    q = (  -0.5000000  -1.0000000   0.0000000 )

      8 Sym.Ops. (no q -> -q+G )


     G cutoff =  196.5022  (    722 G-vectors)     FFT grid: ( 20, 20, 20)
     number of k points=    64

     PseudoPot. # 1 for Si read from file:
     /home/max/quantum_espresso/qe-6.1/pseudo/si_pbe_v1.uspp.F.UPF.txt
     MD5 check sum: a056efeee980c13900f22a371efd63c1
     Pseudo is Ultrasoft + core correction, Zval =  4.0
     Generated by new atomic code, or converted to UPF format
     Using radial grid of  899 points,  6 beta functions with: 
                l(1) =   0
                l(2) =   0
                l(3) =   1
                l(4) =   1
                l(5) =   2
                l(6) =   2
     Q(r) pseudized with  8 coefficients,  rinner =    0.900   0.900   0.900
                                                       0.900   0.900


     Atomic displacements:
     There are   3 irreducible representations

     Representation     1      2 modes -  To be done

     Representation     2      2 modes -  To be done

     Representation     3      2 modes -  To be done



     Alpha used in Ewald sum =   0.7000
     PHONON       :  1m 9.44s CPU     1m12.55s WALL



     Representation #  1 modes #   1  2

     Self-consistent Calculation

      iter #   1 total cpu time :    72.8 secs   av.it.:   5.3
      thresh= 1.000E-02 alpha_mix =  0.700 |ddv_scf|^2 =  6.281E-06

      iter #   2 total cpu time :    73.1 secs   av.it.:   9.8
      thresh= 2.506E-04 alpha_mix =  0.700 |ddv_scf|^2 =  3.390E-06

      iter #   3 total cpu time :    73.4 secs   av.it.:   9.3
      thresh= 1.841E-04 alpha_mix =  0.700 |ddv_scf|^2 =  8.381E-09

      iter #   4 total cpu time :    73.7 secs   av.it.:   9.1
      thresh= 9.155E-06 alpha_mix =  0.700 |ddv_scf|^2 =  2.077E-11

      iter #   5 total cpu time :    74.1 secs   av.it.:   9.1
      thresh= 4.557E-07 alpha_mix =  0.700 |ddv_scf|^2 =  6.106E-13

     End of self-consistent calculation

     Convergence has been achieved 


     Representation #  2 modes #   3  4

     Self-consistent Calculation

      iter #   1 total cpu time :    74.3 secs   av.it.:   5.2
      thresh= 1.000E-02 alpha_mix =  0.700 |ddv_scf|^2 =  9.733E-06

      iter #   2 total cpu time :    74.6 secs   av.it.:   9.9
      thresh= 3.120E-04 alpha_mix =  0.700 |ddv_scf|^2 =  1.316E-05

      iter #   3 total cpu time :    75.0 secs   av.it.:   9.1
      thresh= 3.627E-04 alpha_mix =  0.700 |ddv_scf|^2 =  1.004E-08

      iter #   4 total cpu time :    75.3 secs   av.it.:   8.9
      thresh= 1.002E-05 alpha_mix =  0.700 |ddv_scf|^2 =  9.256E-11

      iter #   5 total cpu time :    75.6 secs   av.it.:   9.4
      thresh= 9.621E-07 alpha_mix =  0.700 |ddv_scf|^2 =  1.814E-12

      iter #   6 total cpu time :    75.9 secs   av.it.:   9.1
      thresh= 1.347E-07 alpha_mix =  0.700 |ddv_scf|^2 =  1.572E-14

     End of self-consistent calculation

     Convergence has been achieved 


     Representation #  3 modes #   5  6

     Self-consistent Calculation

      iter #   1 total cpu time :    76.1 secs   av.it.:   5.1
      thresh= 1.000E-02 alpha_mix =  0.700 |ddv_scf|^2 =  2.623E-06

      iter #   2 total cpu time :    76.5 secs   av.it.:   9.7
      thresh= 1.620E-04 alpha_mix =  0.700 |ddv_scf|^2 =  1.430E-06

      iter #   3 total cpu time :    76.8 secs   av.it.:   9.1
      thresh= 1.196E-04 alpha_mix =  0.700 |ddv_scf|^2 =  8.069E-09

      iter #   4 total cpu time :    77.1 secs   av.it.:   8.7
      thresh= 8.983E-06 alpha_mix =  0.700 |ddv_scf|^2 =  4.384E-11

      iter #   5 total cpu time :    77.4 secs   av.it.:   9.1
      thresh= 6.621E-07 alpha_mix =  0.700 |ddv_scf|^2 =  6.976E-13

     End of self-consistent calculation

     Convergence has been achieved 

     Number of q in the star =    6
     List of q in the star:
          1  -0.500000000  -1.000000000   0.000000000
          2   0.000000000   1.000000000   0.500000000
          3   0.000000000  -1.000000000  -0.500000000
          4   0.500000000   1.000000000   0.000000000
          5  -1.000000000  -0.500000000   0.000000000
          6   0.000000000  -0.500000000  -1.000000000

     Diagonalizing the dynamical matrix

     q = (   -0.500000000  -1.000000000   0.000000000 ) 

 **************************************************************************
     freq (    1) =       7.751632 [THz] =     258.566619 [cm-1]
     freq (    2) =       7.751632 [THz] =     258.566619 [cm-1]
     freq (    3) =      11.066628 [THz] =     369.142990 [cm-1]
     freq (    4) =      11.066628 [THz] =     369.142990 [cm-1]
     freq (    5) =      13.839140 [THz] =     461.624013 [cm-1]
     freq (    6) =      13.839140 [THz] =     461.624013 [cm-1]
 **************************************************************************

     init_run     :      0.51s CPU      0.53s WALL (       7 calls)
     electrons    :      4.43s CPU      4.58s WALL (       7 calls)

     Called by init_run:
     wfcinit      :      0.00s CPU      0.00s WALL (       7 calls)
     potinit      :      0.01s CPU      0.02s WALL (       7 calls)

     Called by electrons:
     c_bands      :      4.42s CPU      4.57s WALL (       7 calls)
     v_of_rho     :      0.01s CPU      0.01s WALL (       8 calls)
     newd         :      0.03s CPU      0.03s WALL (       8 calls)

     Called by c_bands:
     init_us_2    :      0.67s CPU      0.70s WALL (   17588 calls)
     cegterg      :      3.72s CPU      3.84s WALL (     796 calls)

     Called by sum_band:

     Called by *egterg:
     h_psi        :     41.03s CPU     42.93s WALL (  152308 calls)
     s_psi        :      5.79s CPU      6.07s WALL (  309336 calls)
     g_psi        :      0.03s CPU      0.03s WALL (    9268 calls)
     cdiaghg      :      0.42s CPU      0.43s WALL (   10064 calls)

     Called by h_psi:
     h_psi:pot    :     40.84s CPU     42.73s WALL (  152308 calls)
     h_psi:calbec :      4.00s CPU      4.18s WALL (  152308 calls)
     vloc_psi     :     33.74s CPU     35.30s WALL (  152308 calls)
     add_vuspsi   :      2.89s CPU      3.03s WALL (  152308 calls)

     General routines
     calbec       :      8.89s CPU      9.30s WALL (  345708 calls)
     fft          :      0.28s CPU      0.30s WALL (    5239 calls)
     ffts         :      0.13s CPU      0.13s WALL (    2748 calls)
     fftw         :     38.93s CPU     40.72s WALL ( 1379042 calls)
     davcio       :      0.32s CPU      0.33s WALL (   79045 calls)

     Parallel routines
     fft_scatter  :      6.96s CPU      7.30s WALL ( 1387029 calls)

     PHONON       :  1m14.11s CPU     1m17.40s WALL

     INITIALIZATION: 
     phq_setup    :      0.05s CPU      0.05s WALL (       8 calls)
     phq_init     :      1.95s CPU      1.98s WALL (       8 calls)

     phq_init     :      1.95s CPU      1.98s WALL (       8 calls)
     set_drhoc    :      0.29s CPU      0.29s WALL (      24 calls)
     init_vloc    :      0.01s CPU      0.01s WALL (       8 calls)
     init_us_1    :      0.47s CPU      0.48s WALL (       8 calls)
     newd         :      0.03s CPU      0.03s WALL (       8 calls)
     dvanqq       :      0.23s CPU      0.23s WALL (       8 calls)
     drho         :      0.98s CPU      1.00s WALL (       8 calls)

     DYNAMICAL MATRIX:
     dynmat0      :      0.50s CPU      0.50s WALL (       8 calls)
     phqscf       :     64.79s CPU     67.79s WALL (       8 calls)
     dynmatrix    :      0.01s CPU      0.01s WALL (       8 calls)

     phqscf       :     64.79s CPU     67.79s WALL (       8 calls)
     solve_linter :     64.09s CPU     67.08s WALL (      32 calls)
     drhodv       :      0.49s CPU      0.50s WALL (      32 calls)

     dynmat0      :      0.50s CPU      0.50s WALL (       8 calls)
     dynmat_us    :      0.26s CPU      0.27s WALL (       8 calls)
     d2ionq       :      0.01s CPU      0.01s WALL (       8 calls)
     dynmatcc     :      0.22s CPU      0.22s WALL (       8 calls)

     dynmat_us    :      0.26s CPU      0.27s WALL (       8 calls)
     addusdynmat  :      0.00s CPU      0.00s WALL (       8 calls)

     phqscf       :     64.79s CPU     67.79s WALL (       8 calls)
     solve_linter :     64.09s CPU     67.08s WALL (      32 calls)

     solve_linter :     64.09s CPU     67.08s WALL (      32 calls)
     dvqpsi_us    :      1.58s CPU      1.65s WALL (    2508 calls)
     ortho        :      0.91s CPU      0.96s WALL (   15550 calls)
     cgsolve      :     50.15s CPU     52.52s WALL (   15550 calls)
     incdrhoscf   :      4.37s CPU      4.57s WALL (   15550 calls)
     addusddens   :      1.12s CPU      1.13s WALL (     228 calls)
     vpsifft      :      3.20s CPU      3.35s WALL (   12922 calls)
     dv_of_drho   :      0.19s CPU      0.20s WALL (     295 calls)
     mix_pot      :      0.05s CPU      0.06s WALL (     201 calls)
     psymdvscf    :      0.79s CPU      0.80s WALL (     196 calls)
     newdq        :      1.17s CPU      1.24s WALL (     201 calls)
     adddvscf     :      0.46s CPU      0.48s WALL (   13042 calls)
     drhodvus     :      0.00s CPU      0.00s WALL (      32 calls)

     dvqpsi_us    :      1.58s CPU      1.65s WALL (    2508 calls)
     dvqpsi_us_on :      0.81s CPU      0.85s WALL (    2508 calls)

     cgsolve      :     50.15s CPU     52.52s WALL (   15550 calls)
     ch_psi       :     48.71s CPU     50.99s WALL (  141448 calls)

     ch_psi       :     48.71s CPU     50.99s WALL (  141448 calls)
     h_psi        :     41.03s CPU     42.93s WALL (  152308 calls)
     last         :      7.70s CPU      8.06s WALL (  141448 calls)

     h_psi        :     41.03s CPU     42.93s WALL (  152308 calls)
     add_vuspsi   :      2.89s CPU      3.03s WALL (  152308 calls)

     incdrhoscf   :      4.37s CPU      4.57s WALL (   15550 calls)
     addusdbec    :      0.58s CPU      0.61s WALL (   17998 calls)

     drhodvus     :      0.00s CPU      0.00s WALL (      32 calls)

      General routines
     calbec       :      8.89s CPU      9.30s WALL (  345708 calls)
     fft          :      0.28s CPU      0.30s WALL (    5239 calls)
     ffts         :      0.13s CPU      0.13s WALL (    2748 calls)
     fftw         :     38.93s CPU     40.72s WALL ( 1379042 calls)
     davcio       :      0.32s CPU      0.33s WALL (   79045 calls)
     write_rec    :      0.20s CPU      0.21s WALL (     233 calls)


     PHONON       :  1m14.11s CPU     1m17.40s WALL


   This run was terminated on:   1:31: 7   9Nov2017            

=------------------------------------------------------------------------------=
   JOB DONE.
=------------------------------------------------------------------------------=
