
     Program PWSCF v.6.1 (svn rev. 13369) starts on  9Nov2017 at  1:29:50 

     This program is part of the open-source Quantum ESPRESSO suite
     for quantum simulation of materials; please cite
         "P. Giannozzi et al., J. Phys.:Condens. Matter 21 395502 (2009);
          URL http://www.quantum-espresso.org", 
     in publications or presentations arising from this work. More details at
     http://www.quantum-espresso.org/quote

     Parallel version (MPI), running on     4 processors
     R & G space division:  proc/nbgrp/npool/nimage =       4
     Waiting for input...
     Reading input from standard input
     Message from routine read_cards :
     DEPRECATED: no units specified in ATOMIC_POSITIONS card
     Message from routine read_cards :
     ATOMIC_POSITIONS: units set to alat

     Current dimensions of program PWSCF are:
     Max number of different atomic species (ntypx) = 10
     Max number of k-points (npk) =  40000
     Max angular momentum in pseudopotentials (lmaxx) =  3

     Subspace diagonalization in iterative solution of the eigenvalue problem:
     a serial algorithm will be used


     Parallelization info
     --------------------
     sticks:   dense  smooth     PW     G-vecs:    dense   smooth      PW
     Min          66      66     22                  722      722     152
     Max          67      67     23                  724      724     153
     Sum         265     265     91                 2891     2891     609



     bravais-lattice index     =            2
     lattice parameter (alat)  =      10.3800  a.u.
     unit-cell volume          =     279.5967 (a.u.)^3
     number of atoms/cell      =            2
     number of atomic types    =            1
     number of electrons       =         8.00
     number of Kohn-Sham states=            4
     kinetic-energy cutoff     =      18.0000  Ry
     charge density cutoff     =      72.0000  Ry
     convergence threshold     =      1.0E-08
     mixing beta               =       0.7000
     number of iterations used =            8  plain     mixing
     Exchange-correlation      = SLA  PW   PBE  PBE ( 1  4  3  4 0 0)

     celldm(1)=  10.380000  celldm(2)=   0.000000  celldm(3)=   0.000000
     celldm(4)=   0.000000  celldm(5)=   0.000000  celldm(6)=   0.000000

     crystal axes: (cart. coord. in units of alat)
               a(1) = (  -0.500000   0.000000   0.500000 )  
               a(2) = (   0.000000   0.500000   0.500000 )  
               a(3) = (  -0.500000   0.500000   0.000000 )  

     reciprocal axes: (cart. coord. in units 2 pi/alat)
               b(1) = ( -1.000000 -1.000000  1.000000 )  
               b(2) = (  1.000000  1.000000  1.000000 )  
               b(3) = ( -1.000000  1.000000 -1.000000 )  


     PseudoPot. # 1 for Si read from file:
     /home/max/quantum_espresso/qe-6.1/pseudo/si_pbe_v1.uspp.F.UPF.txt
     MD5 check sum: a056efeee980c13900f22a371efd63c1
     Pseudo is Ultrasoft + core correction, Zval =  4.0
     Generated by new atomic code, or converted to UPF format
     Using radial grid of  899 points,  6 beta functions with: 
                l(1) =   0
                l(2) =   0
                l(3) =   1
                l(4) =   1
                l(5) =   2
                l(6) =   2
     Q(r) pseudized with  8 coefficients,  rinner =    0.900   0.900   0.900
                                                       0.900   0.900

     atomic species   valence    mass     pseudopotential
        Si             4.00    28.08600     Si( 1.00)

     48 Sym. Ops., with inversion, found (24 have fractional translation)



   Cartesian axes

     site n.     atom                  positions (alat units)
         1           Si  tau(   1) = (   0.0000000   0.0000000   0.0000000  )
         2           Si  tau(   2) = (   0.2500000   0.2500000   0.2500000  )

     number of k points=    10
                       cart. coord. in units 2pi/alat
        k(    1) = (  -0.1250000   0.1250000   0.1250000), wk =   0.0625000
        k(    2) = (  -0.3750000   0.3750000  -0.1250000), wk =   0.1875000
        k(    3) = (   0.3750000  -0.3750000   0.6250000), wk =   0.1875000
        k(    4) = (   0.1250000  -0.1250000   0.3750000), wk =   0.1875000
        k(    5) = (  -0.1250000   0.6250000   0.1250000), wk =   0.1875000
        k(    6) = (   0.6250000  -0.1250000   0.8750000), wk =   0.3750000
        k(    7) = (   0.3750000   0.1250000   0.6250000), wk =   0.3750000
        k(    8) = (  -0.1250000  -0.8750000   0.1250000), wk =   0.1875000
        k(    9) = (  -0.3750000   0.3750000   0.3750000), wk =   0.0625000
        k(   10) = (   0.3750000  -0.3750000   1.1250000), wk =   0.1875000

     Dense  grid:     2891 G-vectors     FFT dimensions: (  20,  20,  20)

     Estimated max dynamical RAM per process >       0.59MB

     Estimated total allocated dynamical RAM >       2.36MB

     Check: negative/imaginary core charge=   -0.000006    0.000000

     Initial potential from superposition of free atoms

     starting charge    7.99866, renormalised to    8.00000
     Starting wfc are    8 randomized atomic wfcs

     total cpu time spent up to now is        0.1 secs

     per-process dynamical memory:     6.7 Mb

     Self-consistent Calculation

     iteration #  1     ecut=    18.00 Ry     beta=0.70
     Davidson diagonalization with overlap
     ethr =  1.00E-02,  avg # of iterations =  2.0

     Threshold (ethr) on eigenvalues was too large:
     Diagonalizing with lowered threshold

     Davidson diagonalization with overlap
     ethr =  6.76E-04,  avg # of iterations =  1.0

     total cpu time spent up to now is        0.2 secs

     total energy              =     -19.19515382 Ry
     Harris-Foulkes estimate   =     -19.20701581 Ry
     estimated scf accuracy    <       0.05373153 Ry

     iteration #  2     ecut=    18.00 Ry     beta=0.70
     Davidson diagonalization with overlap
     ethr =  6.72E-04,  avg # of iterations =  1.0

     total cpu time spent up to now is        0.2 secs

     total energy              =     -19.19670079 Ry
     Harris-Foulkes estimate   =     -19.19689427 Ry
     estimated scf accuracy    <       0.00250603 Ry

     iteration #  3     ecut=    18.00 Ry     beta=0.70
     Davidson diagonalization with overlap
     ethr =  3.13E-05,  avg # of iterations =  2.0

     total cpu time spent up to now is        0.2 secs

     total energy              =     -19.19695976 Ry
     Harris-Foulkes estimate   =     -19.19697503 Ry
     estimated scf accuracy    <       0.00004300 Ry

     iteration #  4     ecut=    18.00 Ry     beta=0.70
     Davidson diagonalization with overlap
     ethr =  5.37E-07,  avg # of iterations =  2.7

     total cpu time spent up to now is        0.2 secs

     total energy              =     -19.19698060 Ry
     Harris-Foulkes estimate   =     -19.19698155 Ry
     estimated scf accuracy    <       0.00000282 Ry

     iteration #  5     ecut=    18.00 Ry     beta=0.70
     Davidson diagonalization with overlap
     ethr =  3.52E-08,  avg # of iterations =  2.1

     total cpu time spent up to now is        0.3 secs

     total energy              =     -19.19698112 Ry
     Harris-Foulkes estimate   =     -19.19698114 Ry
     estimated scf accuracy    <       0.00000007 Ry

     iteration #  6     ecut=    18.00 Ry     beta=0.70
     Davidson diagonalization with overlap
     ethr =  8.25E-10,  avg # of iterations =  2.7

     total cpu time spent up to now is        0.3 secs

     End of self-consistent calculation

          k =-0.1250 0.1250 0.1250 (   347 PWs)   bands (ev):

    -5.6797   4.2569   5.5666   5.5666

          k =-0.3750 0.3750-0.1250 (   356 PWs)   bands (ev):

    -4.6680   1.2870   3.6088   5.0883

          k = 0.3750-0.3750 0.6250 (   363 PWs)   bands (ev):

    -3.5511  -0.7561   3.6211   4.3295

          k = 0.1250-0.1250 0.3750 (   357 PWs)   bands (ev):

    -5.1593   2.6443   4.5741   4.6301

          k =-0.1250 0.6250 0.1250 (   355 PWs)   bands (ev):

    -4.1423   0.9369   3.2687   3.7113

          k = 0.6250-0.1250 0.8750 (   365 PWs)   bands (ev):

    -2.5308  -1.0039   1.9436   2.9996

          k = 0.3750 0.1250 0.6250 (   362 PWs)   bands (ev):

    -3.7351   0.0851   2.6345   3.9837

          k =-0.1250-0.8750 0.1250 (   362 PWs)   bands (ev):

    -2.6917  -0.9100   2.5403   3.2500

          k =-0.3750 0.3750 0.3750 (   359 PWs)   bands (ev):

    -4.2436   0.0223   4.7857   4.7857

          k = 0.3750-0.3750 1.1250 (   365 PWs)   bands (ev):

    -3.0618  -0.6912   1.9948   4.0184

     highest occupied level (ev):     5.5666

!    total energy              =     -19.19698114 Ry
     Harris-Foulkes estimate   =     -19.19698114 Ry
     estimated scf accuracy    <          1.3E-09 Ry

     The total energy is the sum of the following terms:

     one-electron contribution =       4.84630407 Ry
     hartree contribution      =       1.15391406 Ry
     xc contribution           =      -8.59050005 Ry
     ewald contribution        =     -16.60669923 Ry

     convergence has been achieved in   6 iterations

     Writing output data file silicon.10.38.save

     init_run     :      0.08s CPU      0.08s WALL (       1 calls)
     electrons    :      0.15s CPU      0.16s WALL (       1 calls)

     Called by init_run:
     wfcinit      :      0.01s CPU      0.01s WALL (       1 calls)
     potinit      :      0.00s CPU      0.00s WALL (       1 calls)

     Called by electrons:
     c_bands      :      0.08s CPU      0.08s WALL (       7 calls)
     sum_band     :      0.04s CPU      0.04s WALL (       7 calls)
     v_of_rho     :      0.01s CPU      0.01s WALL (       7 calls)
     newd         :      0.02s CPU      0.03s WALL (       7 calls)
     mix_rho      :      0.00s CPU      0.00s WALL (       7 calls)

     Called by c_bands:
     init_us_2    :      0.01s CPU      0.01s WALL (     150 calls)
     cegterg      :      0.07s CPU      0.07s WALL (      70 calls)

     Called by sum_band:
     sum_band:bec :      0.00s CPU      0.00s WALL (      70 calls)
     addusdens    :      0.02s CPU      0.02s WALL (       7 calls)

     Called by *egterg:
     h_psi        :      0.06s CPU      0.06s WALL (     215 calls)
     s_psi        :      0.00s CPU      0.00s WALL (     215 calls)
     g_psi        :      0.00s CPU      0.00s WALL (     135 calls)
     cdiaghg      :      0.01s CPU      0.01s WALL (     195 calls)

     Called by h_psi:
     h_psi:pot    :      0.06s CPU      0.06s WALL (     215 calls)
     h_psi:calbec :      0.01s CPU      0.01s WALL (     215 calls)
     vloc_psi     :      0.05s CPU      0.05s WALL (     215 calls)
     add_vuspsi   :      0.00s CPU      0.00s WALL (     215 calls)

     General routines
     calbec       :      0.01s CPU      0.01s WALL (     285 calls)
     fft          :      0.01s CPU      0.01s WALL (      93 calls)
     fftw         :      0.05s CPU      0.05s WALL (    1936 calls)
     davcio       :      0.00s CPU      0.00s WALL (      10 calls)

     Parallel routines
     fft_scatter  :      0.01s CPU      0.01s WALL (    2029 calls)

     PWSCF        :     0.31s CPU         0.32s WALL


   This run was terminated on:   1:29:50   9Nov2017            

=------------------------------------------------------------------------------=
   JOB DONE.
=------------------------------------------------------------------------------=
