
     Program PHONON v.6.1 (svn rev. 13369) starts on 10Nov2017 at 15:39:11 

     This program is part of the open-source Quantum ESPRESSO suite
     for quantum simulation of materials; please cite
         "P. Giannozzi et al., J. Phys.:Condens. Matter 21 395502 (2009);
          URL http://www.quantum-espresso.org", 
     in publications or presentations arising from this work. More details at
     http://www.quantum-espresso.org/quote

     Parallel version (MPI), running on     4 processors
     R & G space division:  proc/nbgrp/npool/nimage =       4

     Reading data from directory:
     ./silicon.10.302.save

   Info: using nr1, nr2, nr3 values from input

   Info: using nr1, nr2, nr3 values from input

     IMPORTANT: XC functional enforced from input :
     Exchange-correlation      = SLA  PW   PBE  PBE ( 1  4  3  4 0 0)
     Any further DFT definition will be discarded
     Please, verify this is what you really want


     Parallelization info
     --------------------
     sticks:   dense  smooth     PW     G-vecs:    dense   smooth      PW
     Min         217     108     37                 4288     1495     284
     Max         219     109     38                 4289     1498     285
     Sum         871     433    151                17153     5985    1139



     Dynamical matrices for ( 4, 4, 4)  uniform grid of q-points
     (   8q-points):
       N         xq(1)         xq(2)         xq(3) 
       1   0.000000000   0.000000000   0.000000000
       2  -0.250000000   0.250000000  -0.250000000
       3   0.500000000  -0.500000000   0.500000000
       4   0.000000000   0.500000000   0.000000000
       5   0.750000000  -0.250000000   0.750000000
       6   0.500000000   0.000000000   0.500000000
       7   0.000000000  -1.000000000   0.000000000
       8  -0.500000000  -1.000000000   0.000000000

     Calculation of q =    0.0000000   0.0000000   0.0000000

                                                                                

     bravais-lattice index     =            2
     lattice parameter (alat)  =      10.3020  a.u.
     unit-cell volume          =     273.3409 (a.u.)^3
     number of atoms/cell      =            2
     number of atomic types    =            1
     kinetic-energy cut-off    =      30.0000  Ry
     charge density cut-off    =     240.0000  Ry
     convergence threshold     =      1.0E-12
     beta                      =       0.7000
     number of iterations used =            4
     Exchange-correlation      = SLA  PW   PBE  PBE ( 1  4  3  4 0 0)


     celldm(1)=   10.30200  celldm(2)=    0.00000  celldm(3)=    0.00000
     celldm(4)=    0.00000  celldm(5)=    0.00000  celldm(6)=    0.00000

     crystal axes: (cart. coord. in units of alat)
               a(1) = ( -0.5000  0.0000  0.5000 )  
               a(2) = (  0.0000  0.5000  0.5000 )  
               a(3) = ( -0.5000  0.5000  0.0000 )  

     reciprocal axes: (cart. coord. in units 2 pi/alat)
               b(1) = ( -1.0000 -1.0000  1.0000 )  
               b(2) = (  1.0000  1.0000  1.0000 )  
               b(3) = ( -1.0000  1.0000 -1.0000 )  


     Atoms inside the unit cell: 

     Cartesian axes

     site n.  atom      mass           positions (alat units)
        1     Si  28.0860   tau(    1) = (    0.00000    0.00000    0.00000  )
        2     Si  28.0860   tau(    2) = (    0.25000    0.25000    0.25000  )

     Computing dynamical matrix for 
                    q = (   0.0000000   0.0000000   0.0000000 )

     49 Sym.Ops. (with q -> -q+G )


     G cutoff =  645.2004  (   4288 G-vectors)     FFT grid: ( 36, 36, 36)
     G cutoff =  322.6002  (   1497 G-vectors)  smooth grid: ( 25, 25, 25)
     number of k points=    10

     PseudoPot. # 1 for Si read from file:
     /home/s1333534/quantum_espresso/qe-6.1/pseudo/si_pbe_v1.uspp.F.UPF.txt
     MD5 check sum: a056efeee980c13900f22a371efd63c1
     Pseudo is Ultrasoft + core correction, Zval =  4.0
     Generated by new atomic code, or converted to UPF format
     Using radial grid of  899 points,  6 beta functions with: 
                l(1) =   0
                l(2) =   0
                l(3) =   1
                l(4) =   1
                l(5) =   2
                l(6) =   2
     Q(r) pseudized with  8 coefficients,  rinner =    0.900   0.900   0.900
                                                       0.900   0.900

     Mode symmetry, O_h (m-3m)  point group:


     Electric field:
     Dielectric constant
     Born effective charges in two ways 


     Atomic displacements:
     There are   2 irreducible representations

     Representation     1      3 modes -T_2g G_25' G_5+  To be done

     Representation     2      3 modes -T_1u G_15  G_4-  To be done



     Alpha used in Ewald sum =   2.5000
     PHONON       :     0.95s CPU         1.29s WALL


     Electric Fields Calculation

      iter #   1 total cpu time :     2.4 secs   av.it.:   5.7
      thresh= 1.000E-02 alpha_mix =  0.700 |ddv_scf|^2 =  1.335E-07

      iter #   2 total cpu time :     3.0 secs   av.it.:  11.7
      thresh= 3.654E-05 alpha_mix =  0.700 |ddv_scf|^2 =  7.763E-09

      iter #   3 total cpu time :     3.7 secs   av.it.:  11.4
      thresh= 8.811E-06 alpha_mix =  0.700 |ddv_scf|^2 =  5.123E-10

      iter #   4 total cpu time :     4.4 secs   av.it.:  10.3
      thresh= 2.263E-06 alpha_mix =  0.700 |ddv_scf|^2 =  3.305E-12

      iter #   5 total cpu time :     4.9 secs   av.it.:  11.1
      thresh= 1.818E-07 alpha_mix =  0.700 |ddv_scf|^2 =  3.297E-15

     End of electric fields calculation

          Dielectric constant in cartesian axis 

          (      13.904858613      -0.000000000       0.000000000 )
          (       0.000000000      13.904858613       0.000000000 )
          (       0.000000000       0.000000000      13.904858613 )

          Effective charges (d Force / dE) in cartesian axis

           atom      1   Si 
      Ex  (       -0.03907        0.00000       -0.00000 )
      Ey  (        0.00000       -0.03907       -0.00000 )
      Ez  (       -0.00000       -0.00000       -0.03907 )
           atom      2   Si 
      Ex  (       -0.03907       -0.00000        0.00000 )
      Ey  (       -0.00000       -0.03907        0.00000 )
      Ez  (        0.00000       -0.00000       -0.03907 )


     Representation #  1 modes #   1  2  3

     Self-consistent Calculation

      iter #   1 total cpu time :     6.2 secs   av.it.:   5.1
      thresh= 1.000E-02 alpha_mix =  0.700 |ddv_scf|^2 =  2.355E-08

      iter #   2 total cpu time :     6.9 secs   av.it.:  11.6
      thresh= 1.535E-05 alpha_mix =  0.700 |ddv_scf|^2 =  9.659E-10

      iter #   3 total cpu time :     7.5 secs   av.it.:  11.1
      thresh= 3.108E-06 alpha_mix =  0.700 |ddv_scf|^2 =  6.568E-11

      iter #   4 total cpu time :     8.1 secs   av.it.:  10.1
      thresh= 8.105E-07 alpha_mix =  0.700 |ddv_scf|^2 =  1.600E-13

     End of self-consistent calculation

     Convergence has been achieved 


     Representation #  2 modes #   4  5  6

     Self-consistent Calculation

      iter #   1 total cpu time :     8.9 secs   av.it.:   5.2
      thresh= 1.000E-02 alpha_mix =  0.700 |ddv_scf|^2 =  1.859E-08

      iter #   2 total cpu time :     9.9 secs   av.it.:  11.6
      thresh= 1.363E-05 alpha_mix =  0.700 |ddv_scf|^2 =  1.095E-09

      iter #   3 total cpu time :    10.6 secs   av.it.:  11.1
      thresh= 3.309E-06 alpha_mix =  0.700 |ddv_scf|^2 =  6.777E-11

      iter #   4 total cpu time :    11.2 secs   av.it.:  11.3
      thresh= 8.232E-07 alpha_mix =  0.700 |ddv_scf|^2 =  2.613E-13

     End of self-consistent calculation

     Convergence has been achieved 

     Number of q in the star =    1
     List of q in the star:
          1   0.000000000   0.000000000   0.000000000

          Dielectric constant in cartesian axis 

          (      13.904858613      -0.000000000       0.000000000 )
          (       0.000000000      13.904858613       0.000000000 )
          (       0.000000000       0.000000000      13.904858613 )

          Effective charges (d Force / dE) in cartesian axis

           atom      1   Si 
      Ex  (       -0.03907        0.00000       -0.00000 )
      Ey  (        0.00000       -0.03907       -0.00000 )
      Ez  (       -0.00000       -0.00000       -0.03907 )
           atom      2   Si 
      Ex  (       -0.03907       -0.00000        0.00000 )
      Ey  (       -0.00000       -0.03907        0.00000 )
      Ez  (        0.00000       -0.00000       -0.03907 )

          Effective charges (d P / du) in cartesian axis 

           atom      1   Si 
      Px  (       -0.07208       -0.00000       -0.00000 )
      Py  (       -0.00000       -0.07208        0.00000 )
      Pz  (       -0.00000        0.00000       -0.07208 )
           atom      2   Si 
      Px  (       -0.07208       -0.00000       -0.00000 )
      Py  (       -0.00000       -0.07208        0.00000 )
      Pz  (       -0.00000        0.00000       -0.07208 )

     Diagonalizing the dynamical matrix

     q = (    0.000000000   0.000000000   0.000000000 ) 

 **************************************************************************
     freq (    1) =      -0.468550 [THz] =     -15.629129 [cm-1]
     freq (    2) =      -0.468550 [THz] =     -15.629129 [cm-1]
     freq (    3) =      -0.468550 [THz] =     -15.629129 [cm-1]
     freq (    4) =      15.204697 [THz] =     507.174095 [cm-1]
     freq (    5) =      15.204697 [THz] =     507.174095 [cm-1]
     freq (    6) =      15.204697 [THz] =     507.174095 [cm-1]
 **************************************************************************

     Mode symmetry, O_h (m-3m)  point group:

     freq (  1 -  3) =        -15.6  [cm-1]   --> T_1u G_15  G_4- I  
     freq (  4 -  6) =        507.2  [cm-1]   --> T_2g G_25' G_5+ R  

     Calculation of q =   -0.2500000   0.2500000  -0.2500000

   Info: using nr1, nr2, nr3 values from input

   Info: using nr1, nr2, nr3 values from input

     Parallelization info
     --------------------
     sticks:   dense  smooth     PW     G-vecs:    dense   smooth      PW
     Min         217     108     37                 4287     1495     309
     Max         218     109     38                 4289     1498     312
     Sum         871     433    151                17153     5985    1243



     bravais-lattice index     =            2
     lattice parameter (alat)  =      10.3020  a.u.
     unit-cell volume          =     273.3409 (a.u.)^3
     number of atoms/cell      =            2
     number of atomic types    =            1
     number of electrons       =         8.00
     number of Kohn-Sham states=            4
     kinetic-energy cutoff     =      30.0000  Ry
     charge density cutoff     =     240.0000  Ry
     Exchange-correlation      = SLA  PW   PBE  PBE ( 1  4  3  4 0 0)

     celldm(1)=  10.302000  celldm(2)=   0.000000  celldm(3)=   0.000000
     celldm(4)=   0.000000  celldm(5)=   0.000000  celldm(6)=   0.000000

     crystal axes: (cart. coord. in units of alat)
               a(1) = (  -0.500000   0.000000   0.500000 )  
               a(2) = (   0.000000   0.500000   0.500000 )  
               a(3) = (  -0.500000   0.500000   0.000000 )  

     reciprocal axes: (cart. coord. in units 2 pi/alat)
               b(1) = ( -1.000000 -1.000000  1.000000 )  
               b(2) = (  1.000000  1.000000  1.000000 )  
               b(3) = ( -1.000000  1.000000 -1.000000 )  


     PseudoPot. # 1 for Si read from file:
     /home/s1333534/quantum_espresso/qe-6.1/pseudo/si_pbe_v1.uspp.F.UPF.txt
     MD5 check sum: a056efeee980c13900f22a371efd63c1
     Pseudo is Ultrasoft + core correction, Zval =  4.0
     Generated by new atomic code, or converted to UPF format
     Using radial grid of  899 points,  6 beta functions with: 
                l(1) =   0
                l(2) =   0
                l(3) =   1
                l(4) =   1
                l(5) =   2
                l(6) =   2
     Q(r) pseudized with  8 coefficients,  rinner =    0.900   0.900   0.900
                                                       0.900   0.900

     atomic species   valence    mass     pseudopotential
        Si             4.00    28.08600     Si( 1.00)

     48 Sym. Ops., with inversion, found



   Cartesian axes

     site n.     atom                  positions (alat units)
         1           Si  tau(   1) = (   0.0000000   0.0000000   0.0000000  )
         2           Si  tau(   2) = (   0.2500000   0.2500000   0.2500000  )

     number of k points=   120

     Number of k-points >= 100: set verbosity='high' to print them.

     Dense  grid:    17153 G-vectors     FFT dimensions: (  36,  36,  36)

     Smooth grid:     5985 G-vectors     FFT dimensions: (  25,  25,  25)

     Estimated max dynamical RAM per process >       1.51MB

     Estimated total allocated dynamical RAM >       6.05MB

     The potential is recalculated from file :
     ./_ph0/silicon.10.302.save/charge-density.dat

     Starting wfc are    8 atomic wfcs

     Band Structure Calculation
     Davidson diagonalization with overlap

     ethr =  1.25E-10,  avg # of iterations = 12.2

     total cpu time spent up to now is        1.4 secs

     End of band structure calculation

     Number of k-points >= 100: set verbosity='high' to print the bands.

     highest occupied level (ev):     5.7880

     Writing output data file silicon.10.302.save

                                                                                

     bravais-lattice index     =            2
     lattice parameter (alat)  =      10.3020  a.u.
     unit-cell volume          =     273.3409 (a.u.)^3
     number of atoms/cell      =            2
     number of atomic types    =            1
     kinetic-energy cut-off    =      30.0000  Ry
     charge density cut-off    =     240.0000  Ry
     convergence threshold     =      1.0E-12
     beta                      =       0.7000
     number of iterations used =            4
     Exchange-correlation      = SLA  PW   PBE  PBE ( 1  4  3  4 0 0)


     celldm(1)=   10.30200  celldm(2)=    0.00000  celldm(3)=    0.00000
     celldm(4)=    0.00000  celldm(5)=    0.00000  celldm(6)=    0.00000

     crystal axes: (cart. coord. in units of alat)
               a(1) = ( -0.5000  0.0000  0.5000 )  
               a(2) = (  0.0000  0.5000  0.5000 )  
               a(3) = ( -0.5000  0.5000  0.0000 )  

     reciprocal axes: (cart. coord. in units 2 pi/alat)
               b(1) = ( -1.0000 -1.0000  1.0000 )  
               b(2) = (  1.0000  1.0000  1.0000 )  
               b(3) = ( -1.0000  1.0000 -1.0000 )  


     Atoms inside the unit cell: 

     Cartesian axes

     site n.  atom      mass           positions (alat units)
        1     Si  28.0860   tau(    1) = (    0.00000    0.00000    0.00000  )
        2     Si  28.0860   tau(    2) = (    0.25000    0.25000    0.25000  )

     Computing dynamical matrix for 
                    q = (  -0.2500000   0.2500000  -0.2500000 )

      6 Sym.Ops. (no q -> -q+G )


     G cutoff =  645.2004  (   4288 G-vectors)     FFT grid: ( 36, 36, 36)
     G cutoff =  322.6002  (   1496 G-vectors)  smooth grid: ( 25, 25, 25)
     number of k points=   120

     PseudoPot. # 1 for Si read from file:
     /home/s1333534/quantum_espresso/qe-6.1/pseudo/si_pbe_v1.uspp.F.UPF.txt
     MD5 check sum: a056efeee980c13900f22a371efd63c1
     Pseudo is Ultrasoft + core correction, Zval =  4.0
     Generated by new atomic code, or converted to UPF format
     Using radial grid of  899 points,  6 beta functions with: 
                l(1) =   0
                l(2) =   0
                l(3) =   1
                l(4) =   1
                l(5) =   2
                l(6) =   2
     Q(r) pseudized with  8 coefficients,  rinner =    0.900   0.900   0.900
                                                       0.900   0.900

     Mode symmetry, C_3v (3m)   point group:


     Atomic displacements:
     There are   4 irreducible representations

     Representation     1      1 modes -A_1  L_1  To be done

     Representation     2      1 modes -A_1  L_1  To be done

     Representation     3      2 modes -E    L_3  To be done

     Representation     4      2 modes -E    L_3  To be done



     Alpha used in Ewald sum =   2.5000
     PHONON       :    10.63s CPU        14.62s WALL



     Representation #  1 mode #   1

     Self-consistent Calculation

      iter #   1 total cpu time :    15.1 secs   av.it.:   5.9
      thresh= 1.000E-02 alpha_mix =  0.700 |ddv_scf|^2 =  4.301E-04

      iter #   2 total cpu time :    15.7 secs   av.it.:   9.0
      thresh= 2.074E-03 alpha_mix =  0.700 |ddv_scf|^2 =  6.532E-03

      iter #   3 total cpu time :    16.2 secs   av.it.:   6.9
      thresh= 8.082E-03 alpha_mix =  0.700 |ddv_scf|^2 =  2.715E-07

      iter #   4 total cpu time :    16.8 secs   av.it.:   9.6
      thresh= 5.211E-05 alpha_mix =  0.700 |ddv_scf|^2 =  1.783E-08

      iter #   5 total cpu time :    17.5 secs   av.it.:   9.6
      thresh= 1.335E-05 alpha_mix =  0.700 |ddv_scf|^2 =  3.344E-10

      iter #   6 total cpu time :    18.1 secs   av.it.:   9.7
      thresh= 1.829E-06 alpha_mix =  0.700 |ddv_scf|^2 =  1.107E-09

      iter #   7 total cpu time :    18.6 secs   av.it.:   7.6
      thresh= 3.327E-06 alpha_mix =  0.700 |ddv_scf|^2 =  3.793E-11

      iter #   8 total cpu time :    19.2 secs   av.it.:   9.3
      thresh= 6.159E-07 alpha_mix =  0.700 |ddv_scf|^2 =  5.022E-13

     End of self-consistent calculation

     Convergence has been achieved 


     Representation #  2 mode #   2

     Self-consistent Calculation

      iter #   1 total cpu time :    19.7 secs   av.it.:   5.9
      thresh= 1.000E-02 alpha_mix =  0.700 |ddv_scf|^2 =  4.301E-04

      iter #   2 total cpu time :    20.3 secs   av.it.:   9.0
      thresh= 2.074E-03 alpha_mix =  0.700 |ddv_scf|^2 =  6.532E-03

      iter #   3 total cpu time :    20.8 secs   av.it.:   6.9
      thresh= 8.082E-03 alpha_mix =  0.700 |ddv_scf|^2 =  2.715E-07

      iter #   4 total cpu time :    21.4 secs   av.it.:   9.6
      thresh= 5.211E-05 alpha_mix =  0.700 |ddv_scf|^2 =  1.783E-08

      iter #   5 total cpu time :    22.0 secs   av.it.:   9.6
      thresh= 1.335E-05 alpha_mix =  0.700 |ddv_scf|^2 =  3.344E-10

      iter #   6 total cpu time :    22.7 secs   av.it.:   9.7
      thresh= 1.829E-06 alpha_mix =  0.700 |ddv_scf|^2 =  1.107E-09

      iter #   7 total cpu time :    23.2 secs   av.it.:   7.6
      thresh= 3.327E-06 alpha_mix =  0.700 |ddv_scf|^2 =  3.793E-11

      iter #   8 total cpu time :    23.8 secs   av.it.:   9.3
      thresh= 6.159E-07 alpha_mix =  0.700 |ddv_scf|^2 =  5.022E-13

     End of self-consistent calculation

     Convergence has been achieved 


     Representation #  3 modes #   3  4

     Self-consistent Calculation

      iter #   1 total cpu time :    24.7 secs   av.it.:   5.2
      thresh= 1.000E-02 alpha_mix =  0.700 |ddv_scf|^2 =  6.633E-08

      iter #   2 total cpu time :    26.0 secs   av.it.:  11.4
      thresh= 2.576E-05 alpha_mix =  0.700 |ddv_scf|^2 =  4.264E-09

      iter #   3 total cpu time :    27.2 secs   av.it.:  11.1
      thresh= 6.530E-06 alpha_mix =  0.700 |ddv_scf|^2 =  2.258E-10

      iter #   4 total cpu time :    28.3 secs   av.it.:  11.0
      thresh= 1.503E-06 alpha_mix =  0.700 |ddv_scf|^2 =  8.534E-13

     End of self-consistent calculation

     Convergence has been achieved 


     Representation #  4 modes #   5  6

     Self-consistent Calculation

      iter #   1 total cpu time :    29.3 secs   av.it.:   5.2
      thresh= 1.000E-02 alpha_mix =  0.700 |ddv_scf|^2 =  6.634E-08

      iter #   2 total cpu time :    30.6 secs   av.it.:  11.4
      thresh= 2.576E-05 alpha_mix =  0.700 |ddv_scf|^2 =  4.264E-09

      iter #   3 total cpu time :    31.8 secs   av.it.:  11.2
      thresh= 6.530E-06 alpha_mix =  0.700 |ddv_scf|^2 =  2.257E-10

      iter #   4 total cpu time :    33.0 secs   av.it.:  11.0
      thresh= 1.502E-06 alpha_mix =  0.700 |ddv_scf|^2 =  8.573E-13

     End of self-consistent calculation

     Convergence has been achieved 

     Number of q in the star =    8
     List of q in the star:
          1  -0.250000000   0.250000000  -0.250000000
          2   0.250000000  -0.250000000  -0.250000000
          3   0.250000000  -0.250000000   0.250000000
          4   0.250000000   0.250000000   0.250000000
          5  -0.250000000  -0.250000000  -0.250000000
          6  -0.250000000  -0.250000000   0.250000000
          7  -0.250000000   0.250000000   0.250000000
          8   0.250000000   0.250000000  -0.250000000

     Diagonalizing the dynamical matrix

     q = (   -0.250000000   0.250000000  -0.250000000 ) 

 **************************************************************************
     freq (    1) =       2.768145 [THz] =      92.335385 [cm-1]
     freq (    2) =       2.768145 [THz] =      92.335385 [cm-1]
     freq (    3) =       6.794512 [THz] =     226.640513 [cm-1]
     freq (    4) =      14.353283 [THz] =     478.773993 [cm-1]
     freq (    5) =      14.642488 [THz] =     488.420813 [cm-1]
     freq (    6) =      14.642488 [THz] =     488.420813 [cm-1]
 **************************************************************************

     Mode symmetry, C_3v (3m)   point group:

     freq (  1 -  2) =         92.3  [cm-1]   --> E    L_3           
     freq (  3 -  3) =        226.6  [cm-1]   --> A_1  L_1           
     freq (  4 -  4) =        478.8  [cm-1]   --> A_1  L_1           
     freq (  5 -  6) =        488.4  [cm-1]   --> E    L_3           

     Calculation of q =    0.5000000  -0.5000000   0.5000000

   Info: using nr1, nr2, nr3 values from input

   Info: using nr1, nr2, nr3 values from input

     Parallelization info
     --------------------
     sticks:   dense  smooth     PW     G-vecs:    dense   smooth      PW
     Min         217     108     40                 4288     1495     351
     Max         219     109     41                 4289     1498     354
     Sum         871     433    163                17153     5985    1411



     bravais-lattice index     =            2
     lattice parameter (alat)  =      10.3020  a.u.
     unit-cell volume          =     273.3409 (a.u.)^3
     number of atoms/cell      =            2
     number of atomic types    =            1
     number of electrons       =         8.00
     number of Kohn-Sham states=            4
     kinetic-energy cutoff     =      30.0000  Ry
     charge density cutoff     =     240.0000  Ry
     Exchange-correlation      = SLA  PW   PBE  PBE ( 1  4  3  4 0 0)

     celldm(1)=  10.302000  celldm(2)=   0.000000  celldm(3)=   0.000000
     celldm(4)=   0.000000  celldm(5)=   0.000000  celldm(6)=   0.000000

     crystal axes: (cart. coord. in units of alat)
               a(1) = (  -0.500000   0.000000   0.500000 )  
               a(2) = (   0.000000   0.500000   0.500000 )  
               a(3) = (  -0.500000   0.500000   0.000000 )  

     reciprocal axes: (cart. coord. in units 2 pi/alat)
               b(1) = ( -1.000000 -1.000000  1.000000 )  
               b(2) = (  1.000000  1.000000  1.000000 )  
               b(3) = ( -1.000000  1.000000 -1.000000 )  


     PseudoPot. # 1 for Si read from file:
     /home/s1333534/quantum_espresso/qe-6.1/pseudo/si_pbe_v1.uspp.F.UPF.txt
     MD5 check sum: a056efeee980c13900f22a371efd63c1
     Pseudo is Ultrasoft + core correction, Zval =  4.0
     Generated by new atomic code, or converted to UPF format
     Using radial grid of  899 points,  6 beta functions with: 
                l(1) =   0
                l(2) =   0
                l(3) =   1
                l(4) =   1
                l(5) =   2
                l(6) =   2
     Q(r) pseudized with  8 coefficients,  rinner =    0.900   0.900   0.900
                                                       0.900   0.900

     atomic species   valence    mass     pseudopotential
        Si             4.00    28.08600     Si( 1.00)

     48 Sym. Ops., with inversion, found



   Cartesian axes

     site n.     atom                  positions (alat units)
         1           Si  tau(   1) = (   0.0000000   0.0000000   0.0000000  )
         2           Si  tau(   2) = (   0.2500000   0.2500000   0.2500000  )

     number of k points=    60
                       cart. coord. in units 2pi/alat
        k(    1) = (  -0.1250000   0.1250000   0.1250000), wk =   0.0468750
        k(    2) = (   0.3750000  -0.3750000   0.6250000), wk =   0.0000000
        k(    3) = (  -0.3750000   0.3750000  -0.1250000), wk =   0.0468750
        k(    4) = (   0.1250000  -0.1250000   0.3750000), wk =   0.0000000
        k(    5) = (   0.3750000  -0.3750000   0.6250000), wk =   0.0468750
        k(    6) = (   0.8750000  -0.8750000   1.1250000), wk =   0.0000000
        k(    7) = (   0.1250000  -0.1250000   0.3750000), wk =   0.0468750
        k(    8) = (   0.6250000  -0.6250000   0.8750000), wk =   0.0000000
        k(    9) = (  -0.1250000   0.6250000   0.1250000), wk =   0.0937500
        k(   10) = (   0.3750000   0.1250000   0.6250000), wk =   0.0000000
        k(   11) = (   0.6250000  -0.1250000   0.8750000), wk =   0.0937500
        k(   12) = (   1.1250000  -0.6250000   1.3750000), wk =   0.0000000
        k(   13) = (   0.3750000   0.1250000   0.6250000), wk =   0.0937500
        k(   14) = (   0.8750000  -0.3750000   1.1250000), wk =   0.0000000
        k(   15) = (  -0.1250000  -0.8750000   0.1250000), wk =   0.0937500
        k(   16) = (   0.3750000  -1.3750000   0.6250000), wk =   0.0000000
        k(   17) = (  -0.3750000   0.3750000   0.3750000), wk =   0.0468750
        k(   18) = (   0.1250000  -0.1250000   0.8750000), wk =   0.0000000
        k(   19) = (   0.3750000  -0.3750000   1.1250000), wk =   0.0468750
        k(   20) = (   0.8750000  -0.8750000   1.6250000), wk =   0.0000000
        k(   21) = (   0.1250000  -0.1250000   0.1250000), wk =   0.0156250
        k(   22) = (   0.6250000  -0.6250000   0.6250000), wk =   0.0000000
        k(   23) = (  -0.3750000  -0.3750000  -0.1250000), wk =   0.0937500
        k(   24) = (   0.1250000  -0.8750000   0.3750000), wk =   0.0000000
        k(   25) = (  -0.1250000  -0.3750000   0.3750000), wk =   0.0468750
        k(   26) = (   0.3750000  -0.8750000   0.8750000), wk =   0.0000000
        k(   27) = (   0.3750000   0.3750000   0.6250000), wk =   0.0937500
        k(   28) = (   0.8750000  -0.1250000   1.1250000), wk =   0.0000000
        k(   29) = (   0.6250000   0.3750000  -0.3750000), wk =   0.0468750
        k(   30) = (   1.1250000  -0.1250000   0.1250000), wk =   0.0000000
        k(   31) = (   0.1250000   0.1250000   0.3750000), wk =   0.0937500
        k(   32) = (   0.6250000  -0.3750000   0.8750000), wk =   0.0000000
        k(   33) = (   0.3750000   0.1250000  -0.1250000), wk =   0.0468750
        k(   34) = (   0.8750000  -0.3750000   0.3750000), wk =   0.0000000
        k(   35) = (  -0.1250000  -0.6250000  -0.1250000), wk =   0.0468750
        k(   36) = (   0.3750000  -1.1250000   0.3750000), wk =   0.0000000
        k(   37) = (   0.1250000  -0.6250000   0.1250000), wk =   0.0468750
        k(   38) = (   0.6250000  -1.1250000   0.6250000), wk =   0.0000000
        k(   39) = (   0.6250000   0.1250000   0.8750000), wk =   0.0937500
        k(   40) = (   1.1250000  -0.3750000   1.3750000), wk =   0.0000000
        k(   41) = (  -0.8750000   0.1250000   0.6250000), wk =   0.0937500
        k(   42) = (  -0.3750000  -0.3750000   1.1250000), wk =   0.0000000
        k(   43) = (   0.8750000   0.1250000  -0.6250000), wk =   0.0937500
        k(   44) = (   1.3750000  -0.3750000  -0.1250000), wk =   0.0000000
        k(   45) = (   0.3750000  -0.1250000   0.6250000), wk =   0.0937500
        k(   46) = (   0.8750000  -0.6250000   1.1250000), wk =   0.0000000
        k(   47) = (  -0.6250000  -0.1250000   0.3750000), wk =   0.0937500
        k(   48) = (  -0.1250000  -0.6250000   0.8750000), wk =   0.0000000
        k(   49) = (   0.6250000  -0.1250000  -0.3750000), wk =   0.0937500
        k(   50) = (   1.1250000  -0.6250000   0.1250000), wk =   0.0000000
        k(   51) = (  -0.1250000   0.8750000  -0.1250000), wk =   0.0468750
        k(   52) = (   0.3750000   0.3750000   0.3750000), wk =   0.0000000
        k(   53) = (   0.1250000   0.8750000   0.1250000), wk =   0.0468750
        k(   54) = (   0.6250000   0.3750000   0.6250000), wk =   0.0000000
        k(   55) = (   0.3750000  -0.3750000   0.3750000), wk =   0.0156250
        k(   56) = (   0.8750000  -0.8750000   0.8750000), wk =   0.0000000
        k(   57) = (   0.3750000   0.3750000   1.1250000), wk =   0.0937500
        k(   58) = (   0.8750000  -0.1250000   1.6250000), wk =   0.0000000
        k(   59) = (   1.1250000   0.3750000  -0.3750000), wk =   0.0468750
        k(   60) = (   1.6250000  -0.1250000   0.1250000), wk =   0.0000000

     Dense  grid:    17153 G-vectors     FFT dimensions: (  36,  36,  36)

     Smooth grid:     5985 G-vectors     FFT dimensions: (  25,  25,  25)

     Estimated max dynamical RAM per process >       1.51MB

     Estimated total allocated dynamical RAM >       6.05MB

     The potential is recalculated from file :
     ./_ph0/silicon.10.302.save/charge-density.dat

     Starting wfc are    8 atomic wfcs

     Band Structure Calculation
     Davidson diagonalization with overlap

     ethr =  1.25E-10,  avg # of iterations = 12.2

     total cpu time spent up to now is        2.4 secs

     End of band structure calculation

          k =-0.1250 0.1250 0.1250 (   752 PWs)   bands (ev):

    -5.6042   4.4789   5.7880   5.7880

          k = 0.3750-0.3750 0.6250 (   759 PWs)   bands (ev):

    -3.4181  -0.6247   3.8123   4.5273

          k =-0.3750 0.3750-0.1250 (   757 PWs)   bands (ev):

    -4.5695   1.4721   3.7874   5.3057

          k = 0.1250-0.1250 0.3750 (   765 PWs)   bands (ev):

    -5.0724   2.8590   4.7711   4.8403

          k = 0.3750-0.3750 0.6250 (   759 PWs)   bands (ev):

    -3.4181  -0.6247   3.8123   4.5273

          k = 0.8750-0.8750 1.1250 (   752 PWs)   bands (ev):

    -5.6042   4.4789   5.7880   5.7880

          k = 0.1250-0.1250 0.3750 (   765 PWs)   bands (ev):

    -5.0724   2.8590   4.7711   4.8403

          k = 0.6250-0.6250 0.8750 (   757 PWs)   bands (ev):

    -4.5695   1.4721   3.7874   5.3057

          k =-0.1250 0.6250 0.1250 (   760 PWs)   bands (ev):

    -4.0331   1.1458   3.4341   3.8906

          k = 0.3750 0.1250 0.6250 (   759 PWs)   bands (ev):

    -3.6133   0.2612   2.7887   4.1671

          k = 0.6250-0.1250 0.8750 (   751 PWs)   bands (ev):

    -2.3782  -0.8284   2.0652   3.1516

          k = 1.1250-0.6250 1.3750 (   757 PWs)   bands (ev):

    -4.5695   1.4721   3.7874   5.3057

          k = 0.3750 0.1250 0.6250 (   759 PWs)   bands (ev):

    -3.6133   0.2612   2.7887   4.1671

          k = 0.8750-0.3750 1.1250 (   760 PWs)   bands (ev):

    -4.0331   1.1458   3.4341   3.8906

          k =-0.1250-0.8750 0.1250 (   759 PWs)   bands (ev):

    -2.5494  -0.7292   2.6811   3.4205

          k = 0.3750-1.3750 0.6250 (   759 PWs)   bands (ev):

    -3.4181  -0.6247   3.8123   4.5273

          k =-0.3750 0.3750 0.3750 (   763 PWs)   bands (ev):

    -4.1322   0.1687   4.9963   4.9963

          k = 0.1250-0.1250 0.8750 (   759 PWs)   bands (ev):

    -2.5494  -0.7292   2.6811   3.4205

          k = 0.3750-0.3750 1.1250 (   759 PWs)   bands (ev):

    -2.9188  -0.5306   2.1273   4.2074

          k = 0.8750-0.8750 1.6250 (   760 PWs)   bands (ev):

    -4.0331   1.1458   3.4341   3.8906

          k = 0.1250-0.1250 0.1250 (   752 PWs)   bands (ev):

    -5.6042   4.4789   5.7880   5.7880

          k = 0.6250-0.6250 0.6250 (   763 PWs)   bands (ev):

    -4.1322   0.1687   4.9963   4.9963

          k =-0.3750-0.3750-0.1250 (   757 PWs)   bands (ev):

    -4.5695   1.4721   3.7874   5.3057

          k = 0.1250-0.8750 0.3750 (   751 PWs)   bands (ev):

    -2.3782  -0.8284   2.0652   3.1516

          k =-0.1250-0.3750 0.3750 (   757 PWs)   bands (ev):

    -4.5695   1.4721   3.7874   5.3057

          k = 0.3750-0.8750 0.8750 (   760 PWs)   bands (ev):

    -4.0331   1.1458   3.4341   3.8906

          k = 0.3750 0.3750 0.6250 (   759 PWs)   bands (ev):

    -3.4181  -0.6247   3.8123   4.5273

          k = 0.8750-0.1250 1.1250 (   759 PWs)   bands (ev):

    -2.5494  -0.7292   2.6811   3.4205

          k = 0.6250 0.3750-0.3750 (   759 PWs)   bands (ev):

    -3.4181  -0.6247   3.8123   4.5273

          k = 1.1250-0.1250 0.1250 (   759 PWs)   bands (ev):

    -2.5494  -0.7292   2.6811   3.4205

          k = 0.1250 0.1250 0.3750 (   765 PWs)   bands (ev):

    -5.0724   2.8590   4.7711   4.8403

          k = 0.6250-0.3750 0.8750 (   759 PWs)   bands (ev):

    -3.6133   0.2612   2.7887   4.1671

          k = 0.3750 0.1250-0.1250 (   765 PWs)   bands (ev):

    -5.0724   2.8590   4.7711   4.8403

          k = 0.8750-0.3750 0.3750 (   759 PWs)   bands (ev):

    -2.9188  -0.5306   2.1273   4.2074

          k =-0.1250-0.6250-0.1250 (   760 PWs)   bands (ev):

    -4.0331   1.1458   3.4341   3.8906

          k = 0.3750-1.1250 0.3750 (   759 PWs)   bands (ev):

    -2.9188  -0.5306   2.1273   4.2074

          k = 0.1250-0.6250 0.1250 (   760 PWs)   bands (ev):

    -4.0331   1.1458   3.4341   3.8906

          k = 0.6250-1.1250 0.6250 (   757 PWs)   bands (ev):

    -4.5695   1.4721   3.7874   5.3057

          k = 0.6250 0.1250 0.8750 (   751 PWs)   bands (ev):

    -2.3782  -0.8284   2.0652   3.1516

          k = 1.1250-0.3750 1.3750 (   759 PWs)   bands (ev):

    -3.6133   0.2612   2.7887   4.1671

          k =-0.8750 0.1250 0.6250 (   751 PWs)   bands (ev):

    -2.3782  -0.8284   2.0652   3.1516

          k =-0.3750-0.3750 1.1250 (   759 PWs)   bands (ev):

    -2.9188  -0.5306   2.1273   4.2074

          k = 0.8750 0.1250-0.6250 (   751 PWs)   bands (ev):

    -2.3782  -0.8284   2.0652   3.1516

          k = 1.3750-0.3750-0.1250 (   759 PWs)   bands (ev):

    -3.6133   0.2612   2.7887   4.1671

          k = 0.3750-0.1250 0.6250 (   759 PWs)   bands (ev):

    -3.6133   0.2612   2.7887   4.1671

          k = 0.8750-0.6250 1.1250 (   765 PWs)   bands (ev):

    -5.0724   2.8590   4.7711   4.8403

          k =-0.6250-0.1250 0.3750 (   759 PWs)   bands (ev):

    -3.6133   0.2612   2.7887   4.1671

          k =-0.1250-0.6250 0.8750 (   751 PWs)   bands (ev):

    -2.3782  -0.8284   2.0652   3.1516

          k = 0.6250-0.1250-0.3750 (   759 PWs)   bands (ev):

    -3.6133   0.2612   2.7887   4.1671

          k = 1.1250-0.6250 0.1250 (   751 PWs)   bands (ev):

    -2.3782  -0.8284   2.0652   3.1516

          k =-0.1250 0.8750-0.1250 (   759 PWs)   bands (ev):

    -2.5494  -0.7292   2.6811   3.4205

          k = 0.3750 0.3750 0.3750 (   763 PWs)   bands (ev):

    -4.1322   0.1687   4.9963   4.9963

          k = 0.1250 0.8750 0.1250 (   759 PWs)   bands (ev):

    -2.5494  -0.7292   2.6811   3.4205

          k = 0.6250 0.3750 0.6250 (   759 PWs)   bands (ev):

    -3.4181  -0.6247   3.8123   4.5273

          k = 0.3750-0.3750 0.3750 (   763 PWs)   bands (ev):

    -4.1322   0.1687   4.9963   4.9963

          k = 0.8750-0.8750 0.8750 (   752 PWs)   bands (ev):

    -5.6042   4.4789   5.7880   5.7880

          k = 0.3750 0.3750 1.1250 (   759 PWs)   bands (ev):

    -2.9188  -0.5306   2.1273   4.2074

          k = 0.8750-0.1250 1.6250 (   751 PWs)   bands (ev):

    -2.3782  -0.8284   2.0652   3.1516

          k = 1.1250 0.3750-0.3750 (   759 PWs)   bands (ev):

    -2.9188  -0.5306   2.1273   4.2074

          k = 1.6250-0.1250 0.1250 (   765 PWs)   bands (ev):

    -5.0724   2.8590   4.7711   4.8403

     highest occupied level (ev):     5.7880

     Writing output data file silicon.10.302.save

                                                                                

     bravais-lattice index     =            2
     lattice parameter (alat)  =      10.3020  a.u.
     unit-cell volume          =     273.3409 (a.u.)^3
     number of atoms/cell      =            2
     number of atomic types    =            1
     kinetic-energy cut-off    =      30.0000  Ry
     charge density cut-off    =     240.0000  Ry
     convergence threshold     =      1.0E-12
     beta                      =       0.7000
     number of iterations used =            4
     Exchange-correlation      = SLA  PW   PBE  PBE ( 1  4  3  4 0 0)


     celldm(1)=   10.30200  celldm(2)=    0.00000  celldm(3)=    0.00000
     celldm(4)=    0.00000  celldm(5)=    0.00000  celldm(6)=    0.00000

     crystal axes: (cart. coord. in units of alat)
               a(1) = ( -0.5000  0.0000  0.5000 )  
               a(2) = (  0.0000  0.5000  0.5000 )  
               a(3) = ( -0.5000  0.5000  0.0000 )  

     reciprocal axes: (cart. coord. in units 2 pi/alat)
               b(1) = ( -1.0000 -1.0000  1.0000 )  
               b(2) = (  1.0000  1.0000  1.0000 )  
               b(3) = ( -1.0000  1.0000 -1.0000 )  


     Atoms inside the unit cell: 

     Cartesian axes

     site n.  atom      mass           positions (alat units)
        1     Si  28.0860   tau(    1) = (    0.00000    0.00000    0.00000  )
        2     Si  28.0860   tau(    2) = (    0.25000    0.25000    0.25000  )

     Computing dynamical matrix for 
                    q = (   0.5000000  -0.5000000   0.5000000 )

     13 Sym.Ops. (with q -> -q+G )


     G cutoff =  645.2004  (   4288 G-vectors)     FFT grid: ( 36, 36, 36)
     G cutoff =  322.6002  (   1497 G-vectors)  smooth grid: ( 25, 25, 25)
     number of k points=    60

     PseudoPot. # 1 for Si read from file:
     /home/s1333534/quantum_espresso/qe-6.1/pseudo/si_pbe_v1.uspp.F.UPF.txt
     MD5 check sum: a056efeee980c13900f22a371efd63c1
     Pseudo is Ultrasoft + core correction, Zval =  4.0
     Generated by new atomic code, or converted to UPF format
     Using radial grid of  899 points,  6 beta functions with: 
                l(1) =   0
                l(2) =   0
                l(3) =   1
                l(4) =   1
                l(5) =   2
                l(6) =   2
     Q(r) pseudized with  8 coefficients,  rinner =    0.900   0.900   0.900
                                                       0.900   0.900


     Atomic displacements:
     There are   4 irreducible representations

     Representation     1      1 modes -  To be done

     Representation     2      1 modes -  To be done

     Representation     3      2 modes -  To be done

     Representation     4      2 modes -  To be done



     Alpha used in Ewald sum =   2.5000
     PHONON       :    27.58s CPU        35.48s WALL



     Representation #  1 mode #   1

     Self-consistent Calculation

      iter #   1 total cpu time :    35.8 secs   av.it.:   5.1
      thresh= 1.000E-02 alpha_mix =  0.700 |ddv_scf|^2 =  4.218E-06

      iter #   2 total cpu time :    36.2 secs   av.it.:   9.9
      thresh= 2.054E-04 alpha_mix =  0.700 |ddv_scf|^2 =  3.842E-06

      iter #   3 total cpu time :    36.6 secs   av.it.:   9.2
      thresh= 1.960E-04 alpha_mix =  0.700 |ddv_scf|^2 =  2.325E-09

      iter #   4 total cpu time :    37.0 secs   av.it.:   9.4
      thresh= 4.822E-06 alpha_mix =  0.700 |ddv_scf|^2 =  2.259E-11

      iter #   5 total cpu time :    37.3 secs   av.it.:   9.3
      thresh= 4.753E-07 alpha_mix =  0.700 |ddv_scf|^2 =  3.043E-13

     End of self-consistent calculation

     Convergence has been achieved 


     Representation #  2 mode #   2

     Self-consistent Calculation

      iter #   1 total cpu time :    37.8 secs   av.it.:   6.0
      thresh= 1.000E-02 alpha_mix =  0.700 |ddv_scf|^2 =  6.002E-05

      iter #   2 total cpu time :    38.2 secs   av.it.:   9.8
      thresh= 7.747E-04 alpha_mix =  0.700 |ddv_scf|^2 =  1.864E-04

      iter #   3 total cpu time :    38.6 secs   av.it.:   8.6
      thresh= 1.365E-03 alpha_mix =  0.700 |ddv_scf|^2 =  1.290E-08

      iter #   4 total cpu time :    39.1 secs   av.it.:   9.8
      thresh= 1.136E-05 alpha_mix =  0.700 |ddv_scf|^2 =  6.562E-10

      iter #   5 total cpu time :    39.5 secs   av.it.:  10.2
      thresh= 2.562E-06 alpha_mix =  0.700 |ddv_scf|^2 =  2.017E-11

      iter #   6 total cpu time :    39.8 secs   av.it.:   9.7
      thresh= 4.491E-07 alpha_mix =  0.700 |ddv_scf|^2 =  1.525E-13

     End of self-consistent calculation

     Convergence has been achieved 


     Representation #  3 modes #   3  4

     Self-consistent Calculation

      iter #   1 total cpu time :    40.5 secs   av.it.:   5.1
      thresh= 1.000E-02 alpha_mix =  0.700 |ddv_scf|^2 =  2.703E-08

      iter #   2 total cpu time :    41.3 secs   av.it.:  10.9
      thresh= 1.644E-05 alpha_mix =  0.700 |ddv_scf|^2 =  1.597E-09

      iter #   3 total cpu time :    42.3 secs   av.it.:  10.7
      thresh= 3.996E-06 alpha_mix =  0.700 |ddv_scf|^2 =  5.303E-11

      iter #   4 total cpu time :    43.0 secs   av.it.:  10.7
      thresh= 7.282E-07 alpha_mix =  0.700 |ddv_scf|^2 =  4.333E-13

     End of self-consistent calculation

     Convergence has been achieved 


     Representation #  4 modes #   5  6

     Self-consistent Calculation

      iter #   1 total cpu time :    43.6 secs   av.it.:   5.1
      thresh= 1.000E-02 alpha_mix =  0.700 |ddv_scf|^2 =  1.382E-07

      iter #   2 total cpu time :    44.4 secs   av.it.:  11.1
      thresh= 3.717E-05 alpha_mix =  0.700 |ddv_scf|^2 =  1.108E-08

      iter #   3 total cpu time :    45.2 secs   av.it.:  10.9
      thresh= 1.053E-05 alpha_mix =  0.700 |ddv_scf|^2 =  2.917E-10

      iter #   4 total cpu time :    45.9 secs   av.it.:   9.8
      thresh= 1.708E-06 alpha_mix =  0.700 |ddv_scf|^2 =  5.243E-13

     End of self-consistent calculation

     Convergence has been achieved 

     Number of q in the star =    4
     List of q in the star:
          1   0.500000000  -0.500000000   0.500000000
          2   0.500000000   0.500000000   0.500000000
          3  -0.500000000   0.500000000   0.500000000
          4   0.500000000   0.500000000  -0.500000000

     Diagonalizing the dynamical matrix

     q = (    0.500000000  -0.500000000   0.500000000 ) 

 **************************************************************************
     freq (    1) =       3.254323 [THz] =     108.552532 [cm-1]
     freq (    2) =       3.254323 [THz] =     108.552532 [cm-1]
     freq (    3) =      11.134152 [THz] =     371.395334 [cm-1]
     freq (    4) =      12.145100 [THz] =     405.116920 [cm-1]
     freq (    5) =      14.443197 [THz] =     481.773184 [cm-1]
     freq (    6) =      14.443197 [THz] =     481.773184 [cm-1]
 **************************************************************************

     Calculation of q =    0.0000000   0.5000000   0.0000000

   Info: using nr1, nr2, nr3 values from input

   Info: using nr1, nr2, nr3 values from input

     Parallelization info
     --------------------
     sticks:   dense  smooth     PW     G-vecs:    dense   smooth      PW
     Min         217     108     37                 4287     1495     309
     Max         218     109     38                 4289     1498     312
     Sum         871     433    151                17153     5985    1243



     bravais-lattice index     =            2
     lattice parameter (alat)  =      10.3020  a.u.
     unit-cell volume          =     273.3409 (a.u.)^3
     number of atoms/cell      =            2
     number of atomic types    =            1
     number of electrons       =         8.00
     number of Kohn-Sham states=            4
     kinetic-energy cutoff     =      30.0000  Ry
     charge density cutoff     =     240.0000  Ry
     Exchange-correlation      = SLA  PW   PBE  PBE ( 1  4  3  4 0 0)

     celldm(1)=  10.302000  celldm(2)=   0.000000  celldm(3)=   0.000000
     celldm(4)=   0.000000  celldm(5)=   0.000000  celldm(6)=   0.000000

     crystal axes: (cart. coord. in units of alat)
               a(1) = (  -0.500000   0.000000   0.500000 )  
               a(2) = (   0.000000   0.500000   0.500000 )  
               a(3) = (  -0.500000   0.500000   0.000000 )  

     reciprocal axes: (cart. coord. in units 2 pi/alat)
               b(1) = ( -1.000000 -1.000000  1.000000 )  
               b(2) = (  1.000000  1.000000  1.000000 )  
               b(3) = ( -1.000000  1.000000 -1.000000 )  


     PseudoPot. # 1 for Si read from file:
     /home/s1333534/quantum_espresso/qe-6.1/pseudo/si_pbe_v1.uspp.F.UPF.txt
     MD5 check sum: a056efeee980c13900f22a371efd63c1
     Pseudo is Ultrasoft + core correction, Zval =  4.0
     Generated by new atomic code, or converted to UPF format
     Using radial grid of  899 points,  6 beta functions with: 
                l(1) =   0
                l(2) =   0
                l(3) =   1
                l(4) =   1
                l(5) =   2
                l(6) =   2
     Q(r) pseudized with  8 coefficients,  rinner =    0.900   0.900   0.900
                                                       0.900   0.900

     atomic species   valence    mass     pseudopotential
        Si             4.00    28.08600     Si( 1.00)

     48 Sym. Ops., with inversion, found



   Cartesian axes

     site n.     atom                  positions (alat units)
         1           Si  tau(   1) = (   0.0000000   0.0000000   0.0000000  )
         2           Si  tau(   2) = (   0.2500000   0.2500000   0.2500000  )

     number of k points=    80
                       cart. coord. in units 2pi/alat
        k(    1) = (  -0.1250000   0.1250000   0.1250000), wk =   0.0312500
        k(    2) = (  -0.1250000   0.6250000   0.1250000), wk =   0.0000000
        k(    3) = (  -0.3750000   0.3750000  -0.1250000), wk =   0.0625000
        k(    4) = (  -0.3750000   0.8750000  -0.1250000), wk =   0.0000000
        k(    5) = (   0.3750000  -0.3750000   0.6250000), wk =   0.0625000
        k(    6) = (   0.3750000   0.1250000   0.6250000), wk =   0.0000000
        k(    7) = (   0.1250000  -0.1250000   0.3750000), wk =   0.0625000
        k(    8) = (   0.1250000   0.3750000   0.3750000), wk =   0.0000000
        k(    9) = (  -0.1250000   0.6250000   0.1250000), wk =   0.0312500
        k(   10) = (  -0.1250000   1.1250000   0.1250000), wk =   0.0000000
        k(   11) = (   0.6250000  -0.1250000   0.8750000), wk =   0.0625000
        k(   12) = (   0.6250000   0.3750000   0.8750000), wk =   0.0000000
        k(   13) = (   0.3750000   0.1250000   0.6250000), wk =   0.0625000
        k(   14) = (   0.3750000   0.6250000   0.6250000), wk =   0.0000000
        k(   15) = (  -0.1250000  -0.8750000   0.1250000), wk =   0.0312500
        k(   16) = (  -0.1250000  -0.3750000   0.1250000), wk =   0.0000000
        k(   17) = (  -0.3750000   0.3750000   0.3750000), wk =   0.0312500
        k(   18) = (  -0.3750000   0.8750000   0.3750000), wk =   0.0000000
        k(   19) = (   0.3750000  -0.3750000   1.1250000), wk =   0.0625000
        k(   20) = (   0.3750000   0.1250000   1.1250000), wk =   0.0000000
        k(   21) = (  -0.1250000  -0.1250000   0.1250000), wk =   0.0312500
        k(   22) = (  -0.1250000   0.3750000   0.1250000), wk =   0.0000000
        k(   23) = (   0.1250000  -0.3750000   0.3750000), wk =   0.0625000
        k(   24) = (   0.1250000   0.1250000   0.3750000), wk =   0.0000000
        k(   25) = (   0.3750000  -0.1250000   0.3750000), wk =   0.0312500
        k(   26) = (   0.3750000   0.3750000   0.3750000), wk =   0.0000000
        k(   27) = (   0.3750000   0.1250000   0.3750000), wk =   0.0312500
        k(   28) = (   0.3750000   0.6250000   0.3750000), wk =   0.0000000
        k(   29) = (  -0.6250000   0.3750000  -0.3750000), wk =   0.0625000
        k(   30) = (  -0.6250000   0.8750000  -0.3750000), wk =   0.0000000
        k(   31) = (  -0.3750000   0.6250000  -0.3750000), wk =   0.0312500
        k(   32) = (  -0.3750000   1.1250000  -0.3750000), wk =   0.0000000
        k(   33) = (  -0.3750000  -0.6250000  -0.3750000), wk =   0.0312500
        k(   34) = (  -0.3750000  -0.1250000  -0.3750000), wk =   0.0000000
        k(   35) = (  -0.3750000   0.1250000  -0.1250000), wk =   0.0625000
        k(   36) = (  -0.3750000   0.6250000  -0.1250000), wk =   0.0000000
        k(   37) = (  -0.1250000   0.3750000  -0.1250000), wk =   0.0312500
        k(   38) = (  -0.1250000   0.8750000  -0.1250000), wk =   0.0000000
        k(   39) = (  -0.1250000  -0.3750000  -0.1250000), wk =   0.0312500
        k(   40) = (  -0.1250000   0.1250000  -0.1250000), wk =   0.0000000
        k(   41) = (  -0.1250000  -0.6250000   0.1250000), wk =   0.0312500
        k(   42) = (  -0.1250000  -0.1250000   0.1250000), wk =   0.0000000
        k(   43) = (   0.6250000  -0.1250000  -0.1250000), wk =   0.0625000
        k(   44) = (   0.6250000   0.3750000  -0.1250000), wk =   0.0000000
        k(   45) = (   0.6250000   0.1250000   0.1250000), wk =   0.0625000
        k(   46) = (   0.6250000   0.6250000   0.1250000), wk =   0.0000000
        k(   47) = (  -0.8750000   0.1250000  -0.6250000), wk =   0.0625000
        k(   48) = (  -0.8750000   0.6250000  -0.6250000), wk =   0.0000000
        k(   49) = (  -0.1250000   0.6250000  -0.8750000), wk =   0.0625000
        k(   50) = (  -0.1250000   1.1250000  -0.8750000), wk =   0.0000000
        k(   51) = (  -0.1250000   0.8750000  -0.6250000), wk =   0.0625000
        k(   52) = (  -0.1250000   1.3750000  -0.6250000), wk =   0.0000000
        k(   53) = (  -0.1250000  -0.8750000  -0.6250000), wk =   0.0625000
        k(   54) = (  -0.1250000  -0.3750000  -0.6250000), wk =   0.0000000
        k(   55) = (   0.8750000  -0.6250000   0.1250000), wk =   0.0625000
        k(   56) = (   0.8750000  -0.1250000   0.1250000), wk =   0.0000000
        k(   57) = (  -0.6250000  -0.1250000  -0.3750000), wk =   0.0625000
        k(   58) = (  -0.6250000   0.3750000  -0.3750000), wk =   0.0000000
        k(   59) = (   0.1250000   0.3750000  -0.6250000), wk =   0.0625000
        k(   60) = (   0.1250000   0.8750000  -0.6250000), wk =   0.0000000
        k(   61) = (   0.1250000   0.6250000  -0.3750000), wk =   0.0625000
        k(   62) = (   0.1250000   1.1250000  -0.3750000), wk =   0.0000000
        k(   63) = (   0.1250000  -0.6250000  -0.3750000), wk =   0.0625000
        k(   64) = (   0.1250000  -0.1250000  -0.3750000), wk =   0.0000000
        k(   65) = (   0.6250000  -0.3750000  -0.1250000), wk =   0.0625000
        k(   66) = (   0.6250000   0.1250000  -0.1250000), wk =   0.0000000
        k(   67) = (  -0.1250000   0.8750000   0.1250000), wk =   0.0312500
        k(   68) = (  -0.1250000   1.3750000   0.1250000), wk =   0.0000000
        k(   69) = (  -0.8750000  -0.1250000  -0.1250000), wk =   0.0625000
        k(   70) = (  -0.8750000   0.3750000  -0.1250000), wk =   0.0000000
        k(   71) = (  -0.8750000   0.1250000   0.1250000), wk =   0.0625000
        k(   72) = (  -0.8750000   0.6250000   0.1250000), wk =   0.0000000
        k(   73) = (  -0.3750000  -0.3750000   0.3750000), wk =   0.0312500
        k(   74) = (  -0.3750000   0.1250000   0.3750000), wk =   0.0000000
        k(   75) = (  -1.1250000   0.3750000  -0.3750000), wk =   0.0625000
        k(   76) = (  -1.1250000   0.8750000  -0.3750000), wk =   0.0000000
        k(   77) = (  -0.3750000   1.1250000  -0.3750000), wk =   0.0312500
        k(   78) = (  -0.3750000   1.6250000  -0.3750000), wk =   0.0000000
        k(   79) = (  -0.3750000  -1.1250000  -0.3750000), wk =   0.0312500
        k(   80) = (  -0.3750000  -0.6250000  -0.3750000), wk =   0.0000000

     Dense  grid:    17153 G-vectors     FFT dimensions: (  36,  36,  36)

     Smooth grid:     5985 G-vectors     FFT dimensions: (  25,  25,  25)

     Estimated max dynamical RAM per process >       1.51MB

     Estimated total allocated dynamical RAM >       6.05MB

     The potential is recalculated from file :
     ./_ph0/silicon.10.302.save/charge-density.dat

     Starting wfc are    8 atomic wfcs

     Band Structure Calculation
     Davidson diagonalization with overlap

     ethr =  1.25E-10,  avg # of iterations = 12.2

     total cpu time spent up to now is        3.5 secs

     End of band structure calculation

          k =-0.1250 0.1250 0.1250 (   752 PWs)   bands (ev):

    -5.6042   4.4789   5.7880   5.7880

          k =-0.1250 0.6250 0.1250 (   760 PWs)   bands (ev):

    -4.0331   1.1458   3.4341   3.8906

          k =-0.3750 0.3750-0.1250 (   757 PWs)   bands (ev):

    -4.5695   1.4721   3.7874   5.3057

          k =-0.3750 0.8750-0.1250 (   751 PWs)   bands (ev):

    -2.3782  -0.8284   2.0652   3.1516

          k = 0.3750-0.3750 0.6250 (   759 PWs)   bands (ev):

    -3.4181  -0.6247   3.8123   4.5273

          k = 0.3750 0.1250 0.6250 (   759 PWs)   bands (ev):

    -3.6133   0.2612   2.7887   4.1671

          k = 0.1250-0.1250 0.3750 (   765 PWs)   bands (ev):

    -5.0724   2.8590   4.7711   4.8403

          k = 0.1250 0.3750 0.3750 (   757 PWs)   bands (ev):

    -4.5695   1.4721   3.7874   5.3057

          k =-0.1250 0.6250 0.1250 (   760 PWs)   bands (ev):

    -4.0331   1.1458   3.4341   3.8906

          k =-0.1250 1.1250 0.1250 (   759 PWs)   bands (ev):

    -2.5494  -0.7292   2.6811   3.4205

          k = 0.6250-0.1250 0.8750 (   751 PWs)   bands (ev):

    -2.3782  -0.8284   2.0652   3.1516

          k = 0.6250 0.3750 0.8750 (   759 PWs)   bands (ev):

    -3.6133   0.2612   2.7887   4.1671

          k = 0.3750 0.1250 0.6250 (   759 PWs)   bands (ev):

    -3.6133   0.2612   2.7887   4.1671

          k = 0.3750 0.6250 0.6250 (   759 PWs)   bands (ev):

    -3.4181  -0.6247   3.8123   4.5273

          k =-0.1250-0.8750 0.1250 (   759 PWs)   bands (ev):

    -2.5494  -0.7292   2.6811   3.4205

          k =-0.1250-0.3750 0.1250 (   765 PWs)   bands (ev):

    -5.0724   2.8590   4.7711   4.8403

          k =-0.3750 0.3750 0.3750 (   763 PWs)   bands (ev):

    -4.1322   0.1687   4.9963   4.9963

          k =-0.3750 0.8750 0.3750 (   759 PWs)   bands (ev):

    -2.9188  -0.5306   2.1273   4.2074

          k = 0.3750-0.3750 1.1250 (   759 PWs)   bands (ev):

    -2.9188  -0.5306   2.1273   4.2074

          k = 0.3750 0.1250 1.1250 (   751 PWs)   bands (ev):

    -2.3782  -0.8284   2.0652   3.1516

          k =-0.1250-0.1250 0.1250 (   752 PWs)   bands (ev):

    -5.6042   4.4789   5.7880   5.7880

          k =-0.1250 0.3750 0.1250 (   765 PWs)   bands (ev):

    -5.0724   2.8590   4.7711   4.8403

          k = 0.1250-0.3750 0.3750 (   757 PWs)   bands (ev):

    -4.5695   1.4721   3.7874   5.3057

          k = 0.1250 0.1250 0.3750 (   765 PWs)   bands (ev):

    -5.0724   2.8590   4.7711   4.8403

          k = 0.3750-0.1250 0.3750 (   757 PWs)   bands (ev):

    -4.5695   1.4721   3.7874   5.3057

          k = 0.3750 0.3750 0.3750 (   763 PWs)   bands (ev):

    -4.1322   0.1687   4.9963   4.9963

          k = 0.3750 0.1250 0.3750 (   757 PWs)   bands (ev):

    -4.5695   1.4721   3.7874   5.3057

          k = 0.3750 0.6250 0.3750 (   759 PWs)   bands (ev):

    -3.4181  -0.6247   3.8123   4.5273

          k =-0.6250 0.3750-0.3750 (   759 PWs)   bands (ev):

    -3.4181  -0.6247   3.8123   4.5273

          k =-0.6250 0.8750-0.3750 (   759 PWs)   bands (ev):

    -3.6133   0.2612   2.7887   4.1671

          k =-0.3750 0.6250-0.3750 (   759 PWs)   bands (ev):

    -3.4181  -0.6247   3.8123   4.5273

          k =-0.3750 1.1250-0.3750 (   759 PWs)   bands (ev):

    -2.9188  -0.5306   2.1273   4.2074

          k =-0.3750-0.6250-0.3750 (   759 PWs)   bands (ev):

    -3.4181  -0.6247   3.8123   4.5273

          k =-0.3750-0.1250-0.3750 (   757 PWs)   bands (ev):

    -4.5695   1.4721   3.7874   5.3057

          k =-0.3750 0.1250-0.1250 (   765 PWs)   bands (ev):

    -5.0724   2.8590   4.7711   4.8403

          k =-0.3750 0.6250-0.1250 (   759 PWs)   bands (ev):

    -3.6133   0.2612   2.7887   4.1671

          k =-0.1250 0.3750-0.1250 (   765 PWs)   bands (ev):

    -5.0724   2.8590   4.7711   4.8403

          k =-0.1250 0.8750-0.1250 (   759 PWs)   bands (ev):

    -2.5494  -0.7292   2.6811   3.4205

          k =-0.1250-0.3750-0.1250 (   765 PWs)   bands (ev):

    -5.0724   2.8590   4.7711   4.8403

          k =-0.1250 0.1250-0.1250 (   752 PWs)   bands (ev):

    -5.6042   4.4789   5.7880   5.7880

          k =-0.1250-0.6250 0.1250 (   760 PWs)   bands (ev):

    -4.0331   1.1458   3.4341   3.8906

          k =-0.1250-0.1250 0.1250 (   752 PWs)   bands (ev):

    -5.6042   4.4789   5.7880   5.7880

          k = 0.6250-0.1250-0.1250 (   760 PWs)   bands (ev):

    -4.0331   1.1458   3.4341   3.8906

          k = 0.6250 0.3750-0.1250 (   759 PWs)   bands (ev):

    -3.6133   0.2612   2.7887   4.1671

          k = 0.6250 0.1250 0.1250 (   760 PWs)   bands (ev):

    -4.0331   1.1458   3.4341   3.8906

          k = 0.6250 0.6250 0.1250 (   759 PWs)   bands (ev):

    -2.9188  -0.5306   2.1273   4.2074

          k =-0.8750 0.1250-0.6250 (   751 PWs)   bands (ev):

    -2.3782  -0.8284   2.0652   3.1516

          k =-0.8750 0.6250-0.6250 (   757 PWs)   bands (ev):

    -4.5695   1.4721   3.7874   5.3057

          k =-0.1250 0.6250-0.8750 (   751 PWs)   bands (ev):

    -2.3782  -0.8284   2.0652   3.1516

          k =-0.1250 1.1250-0.8750 (   759 PWs)   bands (ev):

    -2.5494  -0.7292   2.6811   3.4205

          k =-0.1250 0.8750-0.6250 (   751 PWs)   bands (ev):

    -2.3782  -0.8284   2.0652   3.1516

          k =-0.1250 1.3750-0.6250 (   759 PWs)   bands (ev):

    -2.9188  -0.5306   2.1273   4.2074

          k =-0.1250-0.8750-0.6250 (   751 PWs)   bands (ev):

    -2.3782  -0.8284   2.0652   3.1516

          k =-0.1250-0.3750-0.6250 (   759 PWs)   bands (ev):

    -3.6133   0.2612   2.7887   4.1671

          k = 0.8750-0.6250 0.1250 (   751 PWs)   bands (ev):

    -2.3782  -0.8284   2.0652   3.1516

          k = 0.8750-0.1250 0.1250 (   759 PWs)   bands (ev):

    -2.5494  -0.7292   2.6811   3.4205

          k =-0.6250-0.1250-0.3750 (   759 PWs)   bands (ev):

    -3.6133   0.2612   2.7887   4.1671

          k =-0.6250 0.3750-0.3750 (   759 PWs)   bands (ev):

    -3.4181  -0.6247   3.8123   4.5273

          k = 0.1250 0.3750-0.6250 (   759 PWs)   bands (ev):

    -3.6133   0.2612   2.7887   4.1671

          k = 0.1250 0.8750-0.6250 (   751 PWs)   bands (ev):

    -2.3782  -0.8284   2.0652   3.1516

          k = 0.1250 0.6250-0.3750 (   759 PWs)   bands (ev):

    -3.6133   0.2612   2.7887   4.1671

          k = 0.1250 1.1250-0.3750 (   751 PWs)   bands (ev):

    -2.3782  -0.8284   2.0652   3.1516

          k = 0.1250-0.6250-0.3750 (   759 PWs)   bands (ev):

    -3.6133   0.2612   2.7887   4.1671

          k = 0.1250-0.1250-0.3750 (   765 PWs)   bands (ev):

    -5.0724   2.8590   4.7711   4.8403

          k = 0.6250-0.3750-0.1250 (   759 PWs)   bands (ev):

    -3.6133   0.2612   2.7887   4.1671

          k = 0.6250 0.1250-0.1250 (   760 PWs)   bands (ev):

    -4.0331   1.1458   3.4341   3.8906

          k =-0.1250 0.8750 0.1250 (   759 PWs)   bands (ev):

    -2.5494  -0.7292   2.6811   3.4205

          k =-0.1250 1.3750 0.1250 (   760 PWs)   bands (ev):

    -4.0331   1.1458   3.4341   3.8906

          k =-0.8750-0.1250-0.1250 (   759 PWs)   bands (ev):

    -2.5494  -0.7292   2.6811   3.4205

          k =-0.8750 0.3750-0.1250 (   751 PWs)   bands (ev):

    -2.3782  -0.8284   2.0652   3.1516

          k =-0.8750 0.1250 0.1250 (   759 PWs)   bands (ev):

    -2.5494  -0.7292   2.6811   3.4205

          k =-0.8750 0.6250 0.1250 (   751 PWs)   bands (ev):

    -2.3782  -0.8284   2.0652   3.1516

          k =-0.3750-0.3750 0.3750 (   763 PWs)   bands (ev):

    -4.1322   0.1687   4.9963   4.9963

          k =-0.3750 0.1250 0.3750 (   757 PWs)   bands (ev):

    -4.5695   1.4721   3.7874   5.3057

          k =-1.1250 0.3750-0.3750 (   759 PWs)   bands (ev):

    -2.9188  -0.5306   2.1273   4.2074

          k =-1.1250 0.8750-0.3750 (   760 PWs)   bands (ev):

    -4.0331   1.1458   3.4341   3.8906

          k =-0.3750 1.1250-0.3750 (   759 PWs)   bands (ev):

    -2.9188  -0.5306   2.1273   4.2074

          k =-0.3750 1.6250-0.3750 (   763 PWs)   bands (ev):

    -4.1322   0.1687   4.9963   4.9963

          k =-0.3750-1.1250-0.3750 (   759 PWs)   bands (ev):

    -2.9188  -0.5306   2.1273   4.2074

          k =-0.3750-0.6250-0.3750 (   759 PWs)   bands (ev):

    -3.4181  -0.6247   3.8123   4.5273

     highest occupied level (ev):     5.7880

     Writing output data file silicon.10.302.save

                                                                                

     bravais-lattice index     =            2
     lattice parameter (alat)  =      10.3020  a.u.
     unit-cell volume          =     273.3409 (a.u.)^3
     number of atoms/cell      =            2
     number of atomic types    =            1
     kinetic-energy cut-off    =      30.0000  Ry
     charge density cut-off    =     240.0000  Ry
     convergence threshold     =      1.0E-12
     beta                      =       0.7000
     number of iterations used =            4
     Exchange-correlation      = SLA  PW   PBE  PBE ( 1  4  3  4 0 0)


     celldm(1)=   10.30200  celldm(2)=    0.00000  celldm(3)=    0.00000
     celldm(4)=    0.00000  celldm(5)=    0.00000  celldm(6)=    0.00000

     crystal axes: (cart. coord. in units of alat)
               a(1) = ( -0.5000  0.0000  0.5000 )  
               a(2) = (  0.0000  0.5000  0.5000 )  
               a(3) = ( -0.5000  0.5000  0.0000 )  

     reciprocal axes: (cart. coord. in units 2 pi/alat)
               b(1) = ( -1.0000 -1.0000  1.0000 )  
               b(2) = (  1.0000  1.0000  1.0000 )  
               b(3) = ( -1.0000  1.0000 -1.0000 )  


     Atoms inside the unit cell: 

     Cartesian axes

     site n.  atom      mass           positions (alat units)
        1     Si  28.0860   tau(    1) = (    0.00000    0.00000    0.00000  )
        2     Si  28.0860   tau(    2) = (    0.25000    0.25000    0.25000  )

     Computing dynamical matrix for 
                    q = (   0.0000000   0.5000000   0.0000000 )

      8 Sym.Ops. (no q -> -q+G )


     G cutoff =  645.2004  (   4288 G-vectors)     FFT grid: ( 36, 36, 36)
     G cutoff =  322.6002  (   1496 G-vectors)  smooth grid: ( 25, 25, 25)
     number of k points=    80

     PseudoPot. # 1 for Si read from file:
     /home/s1333534/quantum_espresso/qe-6.1/pseudo/si_pbe_v1.uspp.F.UPF.txt
     MD5 check sum: a056efeee980c13900f22a371efd63c1
     Pseudo is Ultrasoft + core correction, Zval =  4.0
     Generated by new atomic code, or converted to UPF format
     Using radial grid of  899 points,  6 beta functions with: 
                l(1) =   0
                l(2) =   0
                l(3) =   1
                l(4) =   1
                l(5) =   2
                l(6) =   2
     Q(r) pseudized with  8 coefficients,  rinner =    0.900   0.900   0.900
                                                       0.900   0.900

     Mode symmetry, C_4v (4mm)  point group:


     Atomic displacements:
     There are   4 irreducible representations

     Representation     1      1 modes -A_1  G_1 D_1  To be done

     Representation     2      1 modes -B_2  G_4 D_2'  To be done

     Representation     3      2 modes -E    G_5 D_5  To be done

     Representation     4      2 modes -E    G_5 D_5  To be done



     Alpha used in Ewald sum =   2.5000
     PHONON       :    37.34s CPU        48.28s WALL



     Representation #  1 mode #   1

     Self-consistent Calculation

      iter #   1 total cpu time :    48.6 secs   av.it.:   6.2
      thresh= 1.000E-02 alpha_mix =  0.700 |ddv_scf|^2 =  5.170E-04

      iter #   2 total cpu time :    49.1 secs   av.it.:   9.2
      thresh= 2.274E-03 alpha_mix =  0.700 |ddv_scf|^2 =  6.834E-03

      iter #   3 total cpu time :    49.5 secs   av.it.:   7.3
      thresh= 8.267E-03 alpha_mix =  0.700 |ddv_scf|^2 =  1.037E-08

      iter #   4 total cpu time :    50.0 secs   av.it.:  10.1
      thresh= 1.019E-05 alpha_mix =  0.700 |ddv_scf|^2 =  1.007E-09

      iter #   5 total cpu time :    50.5 secs   av.it.:   9.6
      thresh= 3.174E-06 alpha_mix =  0.700 |ddv_scf|^2 =  1.157E-10

      iter #   6 total cpu time :    50.9 secs   av.it.:   9.3
      thresh= 1.076E-06 alpha_mix =  0.700 |ddv_scf|^2 =  3.148E-13

     End of self-consistent calculation

     Convergence has been achieved 


     Representation #  2 mode #   2

     Self-consistent Calculation

      iter #   1 total cpu time :    51.4 secs   av.it.:   5.1
      thresh= 1.000E-02 alpha_mix =  0.700 |ddv_scf|^2 =  8.133E-07

      iter #   2 total cpu time :    51.9 secs   av.it.:  10.4
      thresh= 9.018E-05 alpha_mix =  0.700 |ddv_scf|^2 =  2.197E-07

      iter #   3 total cpu time :    52.4 secs   av.it.:   9.9
      thresh= 4.687E-05 alpha_mix =  0.700 |ddv_scf|^2 =  2.232E-09

      iter #   4 total cpu time :    52.8 secs   av.it.:  10.1
      thresh= 4.724E-06 alpha_mix =  0.700 |ddv_scf|^2 =  8.580E-11

      iter #   5 total cpu time :    53.3 secs   av.it.:  10.3
      thresh= 9.263E-07 alpha_mix =  0.700 |ddv_scf|^2 =  5.162E-13

     End of self-consistent calculation

     Convergence has been achieved 


     Representation #  3 modes #   3  4

     Self-consistent Calculation

      iter #   1 total cpu time :    54.0 secs   av.it.:   5.2
      thresh= 1.000E-02 alpha_mix =  0.700 |ddv_scf|^2 =  1.443E-07

      iter #   2 total cpu time :    54.9 secs   av.it.:  11.5
      thresh= 3.799E-05 alpha_mix =  0.700 |ddv_scf|^2 =  1.988E-08

      iter #   3 total cpu time :    55.8 secs   av.it.:  11.1
      thresh= 1.410E-05 alpha_mix =  0.700 |ddv_scf|^2 =  3.350E-10

      iter #   4 total cpu time :    56.7 secs   av.it.:  10.7
      thresh= 1.830E-06 alpha_mix =  0.700 |ddv_scf|^2 =  7.780E-13

     End of self-consistent calculation

     Convergence has been achieved 


     Representation #  4 modes #   5  6

     Self-consistent Calculation

      iter #   1 total cpu time :    57.4 secs   av.it.:   5.3
      thresh= 1.000E-02 alpha_mix =  0.700 |ddv_scf|^2 =  1.323E-07

      iter #   2 total cpu time :    58.4 secs   av.it.:  11.4
      thresh= 3.638E-05 alpha_mix =  0.700 |ddv_scf|^2 =  1.773E-08

      iter #   3 total cpu time :    59.3 secs   av.it.:  11.2
      thresh= 1.332E-05 alpha_mix =  0.700 |ddv_scf|^2 =  3.433E-10

      iter #   4 total cpu time :    60.2 secs   av.it.:  11.0
      thresh= 1.853E-06 alpha_mix =  0.700 |ddv_scf|^2 =  8.387E-13

     End of self-consistent calculation

     Convergence has been achieved 

     Number of q in the star =    6
     List of q in the star:
          1   0.000000000   0.500000000   0.000000000
          2   0.000000000  -0.500000000   0.000000000
          3   0.500000000   0.000000000   0.000000000
          4   0.000000000   0.000000000   0.500000000
          5   0.000000000   0.000000000  -0.500000000
          6  -0.500000000   0.000000000   0.000000000

     Diagonalizing the dynamical matrix

     q = (    0.000000000   0.500000000   0.000000000 ) 

 **************************************************************************
     freq (    1) =       3.749205 [THz] =     125.060016 [cm-1]
     freq (    2) =       3.749205 [THz] =     125.060016 [cm-1]
     freq (    3) =       7.127943 [THz] =     237.762586 [cm-1]
     freq (    4) =      13.983381 [THz] =     466.435377 [cm-1]
     freq (    5) =      13.983381 [THz] =     466.435377 [cm-1]
     freq (    6) =      14.586586 [THz] =     486.556141 [cm-1]
 **************************************************************************

     Mode symmetry, C_4v (4mm)  point group:

     freq (  1 -  2) =        125.1  [cm-1]   --> E    G_5 D_5       
     freq (  3 -  3) =        237.8  [cm-1]   --> A_1  G_1 D_1       
     freq (  4 -  5) =        466.4  [cm-1]   --> E    G_5 D_5       
     freq (  6 -  6) =        486.6  [cm-1]   --> B_2  G_4 D_2'      

     Calculation of q =    0.7500000  -0.2500000   0.7500000

   Info: using nr1, nr2, nr3 values from input

   Info: using nr1, nr2, nr3 values from input

     Parallelization info
     --------------------
     sticks:   dense  smooth     PW     G-vecs:    dense   smooth      PW
     Min         217     108     40                 4287     1495     362
     Max         218     109     41                 4289     1498     366
     Sum         871     433    163                17153     5985    1459



     bravais-lattice index     =            2
     lattice parameter (alat)  =      10.3020  a.u.
     unit-cell volume          =     273.3409 (a.u.)^3
     number of atoms/cell      =            2
     number of atomic types    =            1
     number of electrons       =         8.00
     number of Kohn-Sham states=            4
     kinetic-energy cutoff     =      30.0000  Ry
     charge density cutoff     =     240.0000  Ry
     Exchange-correlation      = SLA  PW   PBE  PBE ( 1  4  3  4 0 0)

     celldm(1)=  10.302000  celldm(2)=   0.000000  celldm(3)=   0.000000
     celldm(4)=   0.000000  celldm(5)=   0.000000  celldm(6)=   0.000000

     crystal axes: (cart. coord. in units of alat)
               a(1) = (  -0.500000   0.000000   0.500000 )  
               a(2) = (   0.000000   0.500000   0.500000 )  
               a(3) = (  -0.500000   0.500000   0.000000 )  

     reciprocal axes: (cart. coord. in units 2 pi/alat)
               b(1) = ( -1.000000 -1.000000  1.000000 )  
               b(2) = (  1.000000  1.000000  1.000000 )  
               b(3) = ( -1.000000  1.000000 -1.000000 )  


     PseudoPot. # 1 for Si read from file:
     /home/s1333534/quantum_espresso/qe-6.1/pseudo/si_pbe_v1.uspp.F.UPF.txt
     MD5 check sum: a056efeee980c13900f22a371efd63c1
     Pseudo is Ultrasoft + core correction, Zval =  4.0
     Generated by new atomic code, or converted to UPF format
     Using radial grid of  899 points,  6 beta functions with: 
                l(1) =   0
                l(2) =   0
                l(3) =   1
                l(4) =   1
                l(5) =   2
                l(6) =   2
     Q(r) pseudized with  8 coefficients,  rinner =    0.900   0.900   0.900
                                                       0.900   0.900

     atomic species   valence    mass     pseudopotential
        Si             4.00    28.08600     Si( 1.00)

     48 Sym. Ops., with inversion, found



   Cartesian axes

     site n.     atom                  positions (alat units)
         1           Si  tau(   1) = (   0.0000000   0.0000000   0.0000000  )
         2           Si  tau(   2) = (   0.2500000   0.2500000   0.2500000  )

     number of k points=   288

     Number of k-points >= 100: set verbosity='high' to print them.

     Dense  grid:    17153 G-vectors     FFT dimensions: (  36,  36,  36)

     Smooth grid:     5985 G-vectors     FFT dimensions: (  25,  25,  25)

     Estimated max dynamical RAM per process >       1.51MB

     Estimated total allocated dynamical RAM >       6.05MB

     The potential is recalculated from file :
     ./_ph0/silicon.10.302.save/charge-density.dat

     Starting wfc are    8 atomic wfcs

     Band Structure Calculation
     Davidson diagonalization with overlap

     ethr =  1.25E-10,  avg # of iterations = 12.1

     total cpu time spent up to now is        6.7 secs

     End of band structure calculation

     Number of k-points >= 100: set verbosity='high' to print the bands.

     highest occupied level (ev):     5.7880

     Writing output data file silicon.10.302.save

                                                                                

     bravais-lattice index     =            2
     lattice parameter (alat)  =      10.3020  a.u.
     unit-cell volume          =     273.3409 (a.u.)^3
     number of atoms/cell      =            2
     number of atomic types    =            1
     kinetic-energy cut-off    =      30.0000  Ry
     charge density cut-off    =     240.0000  Ry
     convergence threshold     =      1.0E-12
     beta                      =       0.7000
     number of iterations used =            4
     Exchange-correlation      = SLA  PW   PBE  PBE ( 1  4  3  4 0 0)


     celldm(1)=   10.30200  celldm(2)=    0.00000  celldm(3)=    0.00000
     celldm(4)=    0.00000  celldm(5)=    0.00000  celldm(6)=    0.00000

     crystal axes: (cart. coord. in units of alat)
               a(1) = ( -0.5000  0.0000  0.5000 )  
               a(2) = (  0.0000  0.5000  0.5000 )  
               a(3) = ( -0.5000  0.5000  0.0000 )  

     reciprocal axes: (cart. coord. in units 2 pi/alat)
               b(1) = ( -1.0000 -1.0000  1.0000 )  
               b(2) = (  1.0000  1.0000  1.0000 )  
               b(3) = ( -1.0000  1.0000 -1.0000 )  


     Atoms inside the unit cell: 

     Cartesian axes

     site n.  atom      mass           positions (alat units)
        1     Si  28.0860   tau(    1) = (    0.00000    0.00000    0.00000  )
        2     Si  28.0860   tau(    2) = (    0.25000    0.25000    0.25000  )

     Computing dynamical matrix for 
                    q = (   0.7500000  -0.2500000   0.7500000 )

      2 Sym.Ops. (no q -> -q+G )


     G cutoff =  645.2004  (   4288 G-vectors)     FFT grid: ( 36, 36, 36)
     G cutoff =  322.6002  (   1497 G-vectors)  smooth grid: ( 25, 25, 25)
     number of k points=   288

     PseudoPot. # 1 for Si read from file:
     /home/s1333534/quantum_espresso/qe-6.1/pseudo/si_pbe_v1.uspp.F.UPF.txt
     MD5 check sum: a056efeee980c13900f22a371efd63c1
     Pseudo is Ultrasoft + core correction, Zval =  4.0
     Generated by new atomic code, or converted to UPF format
     Using radial grid of  899 points,  6 beta functions with: 
                l(1) =   0
                l(2) =   0
                l(3) =   1
                l(4) =   1
                l(5) =   2
                l(6) =   2
     Q(r) pseudized with  8 coefficients,  rinner =    0.900   0.900   0.900
                                                       0.900   0.900

     Mode symmetry, C_s (m)     point group:


     Atomic displacements:
     There are   6 irreducible representations

     Representation     1      1 modes -A'  To be done

     Representation     2      1 modes -A'  To be done

     Representation     3      1 modes -A'  To be done

     Representation     4      1 modes -A'  To be done

     Representation     5      1 modes -A''  To be done

     Representation     6      1 modes -A''  To be done



     Alpha used in Ewald sum =   2.5000
     PHONON       :  0m51.26s CPU     1m 5.45s WALL



     Representation #  1 mode #   1

     Self-consistent Calculation

      iter #   1 total cpu time :    66.3 secs   av.it.:   5.7
      thresh= 1.000E-02 alpha_mix =  0.700 |ddv_scf|^2 =  1.054E-05

      iter #   2 total cpu time :    67.7 secs   av.it.:  10.6
      thresh= 3.246E-04 alpha_mix =  0.700 |ddv_scf|^2 =  2.802E-05

      iter #   3 total cpu time :    68.9 secs   av.it.:   9.2
      thresh= 5.293E-04 alpha_mix =  0.700 |ddv_scf|^2 =  1.882E-07

      iter #   4 total cpu time :    70.1 secs   av.it.:   9.9
      thresh= 4.338E-05 alpha_mix =  0.700 |ddv_scf|^2 =  3.694E-09

      iter #   5 total cpu time :    71.4 secs   av.it.:  10.4
      thresh= 6.078E-06 alpha_mix =  0.700 |ddv_scf|^2 =  6.400E-10

      iter #   6 total cpu time :    72.7 secs   av.it.:  10.4
      thresh= 2.530E-06 alpha_mix =  0.700 |ddv_scf|^2 =  9.405E-12

      iter #   7 total cpu time :    74.0 secs   av.it.:  10.6
      thresh= 3.067E-07 alpha_mix =  0.700 |ddv_scf|^2 =  3.506E-13

     End of self-consistent calculation

     Convergence has been achieved 


     Representation #  2 mode #   2

     Self-consistent Calculation

      iter #   1 total cpu time :    75.1 secs   av.it.:   5.8
      thresh= 1.000E-02 alpha_mix =  0.700 |ddv_scf|^2 =  1.890E-05

      iter #   2 total cpu time :    76.4 secs   av.it.:  10.4
      thresh= 4.347E-04 alpha_mix =  0.700 |ddv_scf|^2 =  5.460E-05

      iter #   3 total cpu time :    77.5 secs   av.it.:   9.0
      thresh= 7.390E-04 alpha_mix =  0.700 |ddv_scf|^2 =  1.257E-07

      iter #   4 total cpu time :    78.8 secs   av.it.:  10.2
      thresh= 3.546E-05 alpha_mix =  0.700 |ddv_scf|^2 =  4.172E-09

      iter #   5 total cpu time :    80.1 secs   av.it.:  10.4
      thresh= 6.459E-06 alpha_mix =  0.700 |ddv_scf|^2 =  8.510E-10

      iter #   6 total cpu time :    81.4 secs   av.it.:  10.3
      thresh= 2.917E-06 alpha_mix =  0.700 |ddv_scf|^2 =  8.735E-12

      iter #   7 total cpu time :    82.7 secs   av.it.:  10.6
      thresh= 2.956E-07 alpha_mix =  0.700 |ddv_scf|^2 =  3.047E-13

     End of self-consistent calculation

     Convergence has been achieved 


     Representation #  3 mode #   3

     Self-consistent Calculation

      iter #   1 total cpu time :    83.7 secs   av.it.:   5.7
      thresh= 1.000E-02 alpha_mix =  0.700 |ddv_scf|^2 =  1.481E-05

      iter #   2 total cpu time :    84.9 secs   av.it.:  10.4
      thresh= 3.849E-04 alpha_mix =  0.700 |ddv_scf|^2 =  4.023E-05

      iter #   3 total cpu time :    86.2 secs   av.it.:   9.0
      thresh= 6.343E-04 alpha_mix =  0.700 |ddv_scf|^2 =  2.197E-07

      iter #   4 total cpu time :    87.5 secs   av.it.:  10.0
      thresh= 4.687E-05 alpha_mix =  0.700 |ddv_scf|^2 =  4.255E-09

      iter #   5 total cpu time :    88.9 secs   av.it.:  10.4
      thresh= 6.523E-06 alpha_mix =  0.700 |ddv_scf|^2 =  8.287E-10

      iter #   6 total cpu time :    90.2 secs   av.it.:  10.3
      thresh= 2.879E-06 alpha_mix =  0.700 |ddv_scf|^2 =  6.127E-12

      iter #   7 total cpu time :    91.4 secs   av.it.:  10.5
      thresh= 2.475E-07 alpha_mix =  0.700 |ddv_scf|^2 =  1.780E-13

     End of self-consistent calculation

     Convergence has been achieved 


     Representation #  4 mode #   4

     Self-consistent Calculation

      iter #   1 total cpu time :    92.4 secs   av.it.:   5.5
      thresh= 1.000E-02 alpha_mix =  0.700 |ddv_scf|^2 =  6.448E-06

      iter #   2 total cpu time :    93.8 secs   av.it.:  10.7
      thresh= 2.539E-04 alpha_mix =  0.700 |ddv_scf|^2 =  1.361E-05

      iter #   3 total cpu time :    95.0 secs   av.it.:   9.4
      thresh= 3.689E-04 alpha_mix =  0.700 |ddv_scf|^2 =  2.948E-07

      iter #   4 total cpu time :    96.3 secs   av.it.:   9.8
      thresh= 5.429E-05 alpha_mix =  0.700 |ddv_scf|^2 =  3.644E-09

      iter #   5 total cpu time :    97.6 secs   av.it.:  10.5
      thresh= 6.037E-06 alpha_mix =  0.700 |ddv_scf|^2 =  6.819E-10

      iter #   6 total cpu time :    99.2 secs   av.it.:  10.4
      thresh= 2.611E-06 alpha_mix =  0.700 |ddv_scf|^2 =  3.984E-12

      iter #   7 total cpu time :   100.5 secs   av.it.:  10.6
      thresh= 1.996E-07 alpha_mix =  0.700 |ddv_scf|^2 =  1.805E-13

     End of self-consistent calculation

     Convergence has been achieved 


     Representation #  5 mode #   5

     Self-consistent Calculation

      iter #   1 total cpu time :   101.7 secs   av.it.:   5.2
      thresh= 1.000E-02 alpha_mix =  0.700 |ddv_scf|^2 =  6.673E-07

      iter #   2 total cpu time :   103.0 secs   av.it.:  10.4
      thresh= 8.169E-05 alpha_mix =  0.700 |ddv_scf|^2 =  1.088E-07

      iter #   3 total cpu time :   104.3 secs   av.it.:  10.0
      thresh= 3.298E-05 alpha_mix =  0.700 |ddv_scf|^2 =  1.452E-09

      iter #   4 total cpu time :   105.6 secs   av.it.:   9.6
      thresh= 3.810E-06 alpha_mix =  0.700 |ddv_scf|^2 =  3.365E-12

      iter #   5 total cpu time :   106.8 secs   av.it.:  10.0
      thresh= 1.834E-07 alpha_mix =  0.700 |ddv_scf|^2 =  9.412E-14

     End of self-consistent calculation

     Convergence has been achieved 


     Representation #  6 mode #   6

     Self-consistent Calculation

      iter #   1 total cpu time :   107.8 secs   av.it.:   5.2
      thresh= 1.000E-02 alpha_mix =  0.700 |ddv_scf|^2 =  6.673E-07

      iter #   2 total cpu time :   109.1 secs   av.it.:  10.4
[...]
        k(   59) = (  -0.8750000   0.1250000  -0.1250000), wk =   0.0625000
        k(   60) = (  -1.3750000  -0.8750000  -0.1250000), wk =   0.0000000
        k(   61) = (  -1.1250000   0.3750000  -0.3750000), wk =   0.0625000
        k(   62) = (  -1.6250000  -0.6250000  -0.3750000), wk =   0.0000000
        k(   63) = (  -0.3750000   0.3750000   1.1250000), wk =   0.0625000
        k(   64) = (  -0.8750000  -0.6250000   1.1250000), wk =   0.0000000

     Dense  grid:    17153 G-vectors     FFT dimensions: (  36,  36,  36)

     Smooth grid:     5985 G-vectors     FFT dimensions: (  25,  25,  25)

     Estimated max dynamical RAM per process >       1.51MB

     Estimated total allocated dynamical RAM >       6.05MB

     The potential is recalculated from file :
     ./_ph0/silicon.10.302.save/charge-density.dat

     Starting wfc are    8 atomic wfcs

     Band Structure Calculation
     Davidson diagonalization with overlap

     ethr =  1.25E-10,  avg # of iterations = 12.1

     total cpu time spent up to now is       10.8 secs

     End of band structure calculation

          k =-0.1250 0.1250 0.1250 (   752 PWs)   bands (ev):

    -5.6042   4.4789   5.7880   5.7880

          k =-0.6250-0.8750 0.1250 (   751 PWs)   bands (ev):

    -2.3782  -0.8284   2.0652   3.1516

          k =-0.3750 0.3750-0.1250 (   757 PWs)   bands (ev):

    -4.5695   1.4721   3.7874   5.3057

          k =-0.8750-0.6250-0.1250 (   751 PWs)   bands (ev):

    -2.3782  -0.8284   2.0652   3.1516

          k = 0.3750-0.3750 0.6250 (   759 PWs)   bands (ev):

    -3.4181  -0.6247   3.8123   4.5273

          k =-0.1250-1.3750 0.6250 (   759 PWs)   bands (ev):

    -2.9188  -0.5306   2.1273   4.2074

          k = 0.1250-0.1250 0.3750 (   765 PWs)   bands (ev):

    -5.0724   2.8590   4.7711   4.8403

          k =-0.3750-1.1250 0.3750 (   759 PWs)   bands (ev):

    -2.9188  -0.5306   2.1273   4.2074

          k =-0.1250 0.6250 0.1250 (   760 PWs)   bands (ev):

    -4.0331   1.1458   3.4341   3.8906

          k =-0.6250-0.3750 0.1250 (   759 PWs)   bands (ev):

    -3.6133   0.2612   2.7887   4.1671

          k = 0.6250-0.1250 0.8750 (   751 PWs)   bands (ev):

    -2.3782  -0.8284   2.0652   3.1516

          k = 0.1250-1.1250 0.8750 (   759 PWs)   bands (ev):

    -2.5494  -0.7292   2.6811   3.4205

          k = 0.3750 0.1250 0.6250 (   759 PWs)   bands (ev):

    -3.6133   0.2612   2.7887   4.1671

          k =-0.1250-0.8750 0.6250 (   751 PWs)   bands (ev):

    -2.3782  -0.8284   2.0652   3.1516

          k =-0.1250-0.8750 0.1250 (   759 PWs)   bands (ev):

    -2.5494  -0.7292   2.6811   3.4205

          k =-0.6250-1.8750 0.1250 (   760 PWs)   bands (ev):

    -4.0331   1.1458   3.4341   3.8906

          k =-0.3750 0.3750 0.3750 (   763 PWs)   bands (ev):

    -4.1322   0.1687   4.9963   4.9963

          k =-0.8750-0.6250 0.3750 (   759 PWs)   bands (ev):

    -3.6133   0.2612   2.7887   4.1671

          k = 0.3750-0.3750 1.1250 (   759 PWs)   bands (ev):

    -2.9188  -0.5306   2.1273   4.2074

          k =-0.1250-1.3750 1.1250 (   751 PWs)   bands (ev):

    -2.3782  -0.8284   2.0652   3.1516

          k = 0.1250-0.3750 0.3750 (   757 PWs)   bands (ev):

    -4.5695   1.4721   3.7874   5.3057

          k =-0.3750-1.3750 0.3750 (   759 PWs)   bands (ev):

    -3.4181  -0.6247   3.8123   4.5273

          k = 0.3750-0.3750-0.1250 (   757 PWs)   bands (ev):

    -4.5695   1.4721   3.7874   5.3057

          k =-0.1250-1.3750-0.1250 (   760 PWs)   bands (ev):

    -4.0331   1.1458   3.4341   3.8906

          k =-0.6250 0.3750-0.3750 (   759 PWs)   bands (ev):

    -3.4181  -0.6247   3.8123   4.5273

          k =-1.1250-0.6250-0.3750 (   759 PWs)   bands (ev):

    -3.6133   0.2612   2.7887   4.1671

          k =-0.3750 0.3750 0.6250 (   759 PWs)   bands (ev):

    -3.4181  -0.6247   3.8123   4.5273

          k =-0.8750-0.6250 0.6250 (   757 PWs)   bands (ev):

    -4.5695   1.4721   3.7874   5.3057

          k =-0.3750 0.1250-0.1250 (   765 PWs)   bands (ev):

    -5.0724   2.8590   4.7711   4.8403

          k =-0.8750-0.8750-0.1250 (   759 PWs)   bands (ev):

    -2.5494  -0.7292   2.6811   3.4205

          k =-0.1250 0.1250 0.3750 (   765 PWs)   bands (ev):

    -5.0724   2.8590   4.7711   4.8403

          k =-0.6250-0.8750 0.3750 (   759 PWs)   bands (ev):

    -3.6133   0.2612   2.7887   4.1671

          k = 0.1250 0.6250-0.1250 (   760 PWs)   bands (ev):

    -4.0331   1.1458   3.4341   3.8906

          k =-0.3750-0.3750-0.1250 (   757 PWs)   bands (ev):

    -4.5695   1.4721   3.7874   5.3057

          k = 0.6250 0.1250-0.1250 (   760 PWs)   bands (ev):

    -4.0331   1.1458   3.4341   3.8906

          k = 0.1250-0.8750-0.1250 (   759 PWs)   bands (ev):

    -2.5494  -0.7292   2.6811   3.4205

          k =-0.8750 0.1250-0.6250 (   751 PWs)   bands (ev):

    -2.3782  -0.8284   2.0652   3.1516

          k =-1.3750-0.8750-0.6250 (   757 PWs)   bands (ev):

    -4.5695   1.4721   3.7874   5.3057

          k = 0.8750-0.1250 0.6250 (   751 PWs)   bands (ev):

    -2.3782  -0.8284   2.0652   3.1516

          k = 0.3750-1.1250 0.6250 (   759 PWs)   bands (ev):

    -3.6133   0.2612   2.7887   4.1671

          k =-0.6250 0.1250 0.8750 (   751 PWs)   bands (ev):

    -2.3782  -0.8284   2.0652   3.1516

          k =-1.1250-0.8750 0.8750 (   752 PWs)   bands (ev):

    -5.6042   4.4789   5.7880   5.7880

          k =-0.1250 0.8750 0.6250 (   751 PWs)   bands (ev):

    -2.3782  -0.8284   2.0652   3.1516

          k =-0.6250-0.1250 0.6250 (   759 PWs)   bands (ev):

    -2.9188  -0.5306   2.1273   4.2074

          k = 0.1250 0.8750-0.6250 (   751 PWs)   bands (ev):

    -2.3782  -0.8284   2.0652   3.1516

          k =-0.3750-0.1250-0.6250 (   759 PWs)   bands (ev):

    -3.6133   0.2612   2.7887   4.1671

          k =-0.6250-0.1250-0.3750 (   759 PWs)   bands (ev):

    -3.6133   0.2612   2.7887   4.1671

          k =-1.1250-1.1250-0.3750 (   760 PWs)   bands (ev):

    -4.0331   1.1458   3.4341   3.8906

          k = 0.6250 0.1250 0.3750 (   759 PWs)   bands (ev):

    -3.6133   0.2612   2.7887   4.1671

          k = 0.1250-0.8750 0.3750 (   751 PWs)   bands (ev):

    -2.3782  -0.8284   2.0652   3.1516

          k =-0.3750-0.1250 0.6250 (   759 PWs)   bands (ev):

    -3.6133   0.2612   2.7887   4.1671

          k =-0.8750-1.1250 0.6250 (   765 PWs)   bands (ev):

    -5.0724   2.8590   4.7711   4.8403

          k = 0.1250 0.6250 0.3750 (   759 PWs)   bands (ev):

    -3.6133   0.2612   2.7887   4.1671

          k =-0.3750-0.3750 0.3750 (   763 PWs)   bands (ev):

    -4.1322   0.1687   4.9963   4.9963

          k =-0.1250 0.6250-0.3750 (   759 PWs)   bands (ev):

    -3.6133   0.2612   2.7887   4.1671

          k =-0.6250-0.3750-0.3750 (   759 PWs)   bands (ev):

    -3.4181  -0.6247   3.8123   4.5273

          k = 0.1250-0.8750-0.1250 (   759 PWs)   bands (ev):

    -2.5494  -0.7292   2.6811   3.4205

          k =-0.3750-1.8750-0.1250 (   765 PWs)   bands (ev):

    -5.0724   2.8590   4.7711   4.8403

          k =-0.8750 0.1250-0.1250 (   759 PWs)   bands (ev):

    -2.5494  -0.7292   2.6811   3.4205

          k =-1.3750-0.8750-0.1250 (   751 PWs)   bands (ev):

    -2.3782  -0.8284   2.0652   3.1516

          k =-1.1250 0.3750-0.3750 (   759 PWs)   bands (ev):

    -2.9188  -0.5306   2.1273   4.2074

          k =-1.6250-0.6250-0.3750 (   759 PWs)   bands (ev):

    -3.4181  -0.6247   3.8123   4.5273

          k =-0.3750 0.3750 1.1250 (   759 PWs)   bands (ev):

    -2.9188  -0.5306   2.1273   4.2074

          k =-0.8750-0.6250 1.1250 (   765 PWs)   bands (ev):

    -5.0724   2.8590   4.7711   4.8403

     highest occupied level (ev):     5.7880

     Writing output data file silicon.10.302.save

                                                                                

     bravais-lattice index     =            2
     lattice parameter (alat)  =      10.3020  a.u.
     unit-cell volume          =     273.3409 (a.u.)^3
     number of atoms/cell      =            2
     number of atomic types    =            1
     kinetic-energy cut-off    =      30.0000  Ry
     charge density cut-off    =     240.0000  Ry
     convergence threshold     =      1.0E-12
     beta                      =       0.7000
     number of iterations used =            4
     Exchange-correlation      = SLA  PW   PBE  PBE ( 1  4  3  4 0 0)


     celldm(1)=   10.30200  celldm(2)=    0.00000  celldm(3)=    0.00000
     celldm(4)=    0.00000  celldm(5)=    0.00000  celldm(6)=    0.00000

     crystal axes: (cart. coord. in units of alat)
               a(1) = ( -0.5000  0.0000  0.5000 )  
               a(2) = (  0.0000  0.5000  0.5000 )  
               a(3) = ( -0.5000  0.5000  0.0000 )  

     reciprocal axes: (cart. coord. in units 2 pi/alat)
               b(1) = ( -1.0000 -1.0000  1.0000 )  
               b(2) = (  1.0000  1.0000  1.0000 )  
               b(3) = ( -1.0000  1.0000 -1.0000 )  


     Atoms inside the unit cell: 

     Cartesian axes

     site n.  atom      mass           positions (alat units)
        1     Si  28.0860   tau(    1) = (    0.00000    0.00000    0.00000  )
        2     Si  28.0860   tau(    2) = (    0.25000    0.25000    0.25000  )

     Computing dynamical matrix for 
                    q = (  -0.5000000  -1.0000000   0.0000000 )

      8 Sym.Ops. (no q -> -q+G )


     G cutoff =  645.2004  (   4288 G-vectors)     FFT grid: ( 36, 36, 36)
     G cutoff =  322.6002  (   1497 G-vectors)  smooth grid: ( 25, 25, 25)
     number of k points=    64

     PseudoPot. # 1 for Si read from file:
     /home/s1333534/quantum_espresso/qe-6.1/pseudo/si_pbe_v1.uspp.F.UPF.txt
     MD5 check sum: a056efeee980c13900f22a371efd63c1
     Pseudo is Ultrasoft + core correction, Zval =  4.0
     Generated by new atomic code, or converted to UPF format
     Using radial grid of  899 points,  6 beta functions with: 
                l(1) =   0
                l(2) =   0
                l(3) =   1
                l(4) =   1
                l(5) =   2
                l(6) =   2
     Q(r) pseudized with  8 coefficients,  rinner =    0.900   0.900   0.900
                                                       0.900   0.900


     Atomic displacements:
     There are   3 irreducible representations

     Representation     1      2 modes -  To be done

     Representation     2      2 modes -  To be done

     Representation     3      2 modes -  To be done



     Alpha used in Ewald sum =   2.5000
     PHONON       :  2m 2.74s CPU     2m32.64s WALL



     Representation #  1 modes #   1  2

     Self-consistent Calculation

      iter #   1 total cpu time :   153.4 secs   av.it.:   5.7
      thresh= 1.000E-02 alpha_mix =  0.700 |ddv_scf|^2 =  1.091E-06

      iter #   2 total cpu time :   154.2 secs   av.it.:  11.6
      thresh= 1.045E-04 alpha_mix =  0.700 |ddv_scf|^2 =  6.188E-07

      iter #   3 total cpu time :   155.0 secs   av.it.:  11.1
      thresh= 7.866E-05 alpha_mix =  0.700 |ddv_scf|^2 =  5.910E-10

      iter #   4 total cpu time :   155.7 secs   av.it.:  11.0
      thresh= 2.431E-06 alpha_mix =  0.700 |ddv_scf|^2 =  2.624E-12

      iter #   5 total cpu time :   156.5 secs   av.it.:  11.1
      thresh= 1.620E-07 alpha_mix =  0.700 |ddv_scf|^2 =  6.916E-14

     End of self-consistent calculation

     Convergence has been achieved 


     Representation #  2 modes #   3  4

     Self-consistent Calculation

      iter #   1 total cpu time :   157.2 secs   av.it.:   5.7
      thresh= 1.000E-02 alpha_mix =  0.700 |ddv_scf|^2 =  1.688E-06

      iter #   2 total cpu time :   158.0 secs   av.it.:  11.6
      thresh= 1.299E-04 alpha_mix =  0.700 |ddv_scf|^2 =  2.269E-06

      iter #   3 total cpu time :   158.8 secs   av.it.:  10.9
      thresh= 1.506E-04 alpha_mix =  0.700 |ddv_scf|^2 =  6.968E-10

      iter #   4 total cpu time :   159.5 secs   av.it.:  11.0
      thresh= 2.640E-06 alpha_mix =  0.700 |ddv_scf|^2 =  1.028E-11

      iter #   5 total cpu time :   160.5 secs   av.it.:  11.1
      thresh= 3.206E-07 alpha_mix =  0.700 |ddv_scf|^2 =  1.749E-13

     End of self-consistent calculation

     Convergence has been achieved 


     Representation #  3 modes #   5  6

     Self-consistent Calculation

      iter #   1 total cpu time :   161.2 secs   av.it.:   5.3
      thresh= 1.000E-02 alpha_mix =  0.700 |ddv_scf|^2 =  4.432E-07

      iter #   2 total cpu time :   162.0 secs   av.it.:  11.6
      thresh= 6.658E-05 alpha_mix =  0.700 |ddv_scf|^2 =  2.592E-07

      iter #   3 total cpu time :   162.8 secs   av.it.:  11.1
      thresh= 5.091E-05 alpha_mix =  0.700 |ddv_scf|^2 =  5.145E-10

      iter #   4 total cpu time :   163.8 secs   av.it.:  11.0
      thresh= 2.268E-06 alpha_mix =  0.700 |ddv_scf|^2 =  5.953E-12

      iter #   5 total cpu time :   164.6 secs   av.it.:  11.1
      thresh= 2.440E-07 alpha_mix =  0.700 |ddv_scf|^2 =  8.327E-14

     End of self-consistent calculation

     Convergence has been achieved 

     Number of q in the star =    6
     List of q in the star:
          1  -0.500000000  -1.000000000   0.000000000
          2   0.000000000   1.000000000   0.500000000
          3   0.000000000  -1.000000000  -0.500000000
          4   0.500000000   1.000000000   0.000000000
          5  -1.000000000  -0.500000000   0.000000000
          6   0.000000000  -0.500000000  -1.000000000

     Diagonalizing the dynamical matrix

     q = (   -0.500000000  -1.000000000   0.000000000 ) 

 **************************************************************************
     freq (    1) =       5.994272 [THz] =     199.947389 [cm-1]
     freq (    2) =       5.994272 [THz] =     199.947389 [cm-1]
     freq (    3) =      10.435832 [THz] =     348.101877 [cm-1]
     freq (    4) =      10.435832 [THz] =     348.101877 [cm-1]
     freq (    5) =      13.741589 [THz] =     458.370058 [cm-1]
     freq (    6) =      13.741589 [THz] =     458.370058 [cm-1]
 **************************************************************************

     init_run     :      1.24s CPU      1.29s WALL (       7 calls)
     electrons    :      7.16s CPU      7.80s WALL (       7 calls)

     Called by init_run:
     wfcinit      :      0.00s CPU      0.02s WALL (       7 calls)
     potinit      :      0.08s CPU      0.10s WALL (       7 calls)

     Called by electrons:
     c_bands      :      7.16s CPU      7.80s WALL (       7 calls)
     v_of_rho     :      0.07s CPU      0.07s WALL (       8 calls)
     newd         :      0.13s CPU      0.13s WALL (       8 calls)

     Called by c_bands:
     init_us_2    :      1.64s CPU      1.58s WALL (   16040 calls)
     cegterg      :      5.98s CPU      6.49s WALL (     796 calls)

     Called by sum_band:

     Called by *egterg:
     h_psi        :     68.69s CPU     73.62s WALL (  154453 calls)
     s_psi        :      5.82s CPU      7.08s WALL (  311308 calls)
     g_psi        :      0.05s CPU      0.07s WALL (    9666 calls)
     cdiaghg      :      0.56s CPU      0.57s WALL (   10462 calls)

     Called by h_psi:
     h_psi:pot    :     68.28s CPU     73.11s WALL (  154453 calls)
     h_psi:calbec :      3.43s CPU      3.95s WALL (  154453 calls)
     vloc_psi     :     60.17s CPU     64.98s WALL (  154453 calls)
     add_vuspsi   :      4.33s CPU      3.70s WALL (  154453 calls)

     General routines
     calbec       :      8.05s CPU      8.45s WALL (  345760 calls)
     fft          :      1.34s CPU      1.40s WALL (    5265 calls)
     ffts         :      0.22s CPU      0.23s WALL (    3320 calls)
     fftw         :     63.51s CPU     67.74s WALL ( 1383638 calls)
     interpolate  :      0.24s CPU      0.26s WALL (     572 calls)
     davcio       :      0.31s CPU      1.05s WALL (   69876 calls)

     Parallel routines
     fft_scatter  :     16.20s CPU     19.64s WALL ( 1392223 calls)

     PHONON       :  2m11.88s CPU     2m45.58s WALL

     INITIALIZATION: 
     phq_setup    :      0.22s CPU      0.43s WALL (       8 calls)
     phq_init     :      6.77s CPU      7.07s WALL (       8 calls)

     phq_init     :      6.77s CPU      7.07s WALL (       8 calls)
     set_drhoc    :      1.82s CPU      1.82s WALL (      24 calls)
     init_vloc    :      0.03s CPU      0.03s WALL (       8 calls)
     init_us_1    :      0.96s CPU      0.97s WALL (       8 calls)
     newd         :      0.13s CPU      0.13s WALL (       8 calls)
     dvanqq       :      1.17s CPU      1.17s WALL (       8 calls)
     drho         :      2.59s CPU      2.67s WALL (       8 calls)

     DYNAMICAL MATRIX:
     dynmat0      :      1.69s CPU      1.85s WALL (       8 calls)
     phqscf       :    111.48s CPU    139.10s WALL (       8 calls)
     dynmatrix    :      0.01s CPU      0.22s WALL (       8 calls)

     phqscf       :    111.48s CPU    139.10s WALL (       8 calls)
     solve_linter :    110.60s CPU    136.39s WALL (      32 calls)
     drhodv       :      0.58s CPU      0.60s WALL (      32 calls)

     dynmat0      :      1.69s CPU      1.85s WALL (       8 calls)
     dynmat_us    :      0.38s CPU      0.38s WALL (       8 calls)
     d2ionq       :      0.04s CPU      0.04s WALL (       8 calls)
     dynmatcc     :      1.27s CPU      1.27s WALL (       8 calls)

     dynmat_us    :      0.38s CPU      0.38s WALL (       8 calls)
     addusdynmat  :      0.00s CPU      0.00s WALL (       8 calls)

     phqscf       :    111.48s CPU    139.10s WALL (       8 calls)
     solve_linter :    110.60s CPU    136.39s WALL (      32 calls)

     solve_linter :    110.60s CPU    136.39s WALL (      32 calls)
     dvqpsi_us    :      2.16s CPU      2.29s WALL (    2508 calls)
     ortho        :      0.95s CPU      1.12s WALL (   13630 calls)
     cgsolve      :     76.17s CPU     82.80s WALL (   13630 calls)
     incdrhoscf   :      6.40s CPU      6.95s WALL (   13630 calls)
     addusddens   :      7.04s CPU      7.08s WALL (     202 calls)
     vpsifft      :      4.45s CPU      4.89s WALL (   11002 calls)
     dv_of_drho   :      1.20s CPU      1.24s WALL (     256 calls)
     mix_pot      :      0.30s CPU      8.88s WALL (     175 calls)
     psymdvscf    :      4.04s CPU      4.07s WALL (     170 calls)
     newdq        :      7.72s CPU      7.77s WALL (     175 calls)
     adddvscf     :      0.46s CPU      0.44s WALL (   11122 calls)
     drhodvus     :      0.01s CPU      0.02s WALL (      32 calls)

     dvqpsi_us    :      2.16s CPU      2.29s WALL (    2508 calls)
     dvqpsi_us_on :      0.93s CPU      0.95s WALL (    2508 calls)

     cgsolve      :     76.17s CPU     82.80s WALL (   13630 calls)
     ch_psi       :     75.12s CPU     81.14s WALL (  143195 calls)

     ch_psi       :     75.12s CPU     81.14s WALL (  143195 calls)
     h_psi        :     68.69s CPU     73.62s WALL (  154453 calls)
     last         :      8.96s CPU      9.10s WALL (  143195 calls)

     h_psi        :     68.69s CPU     73.62s WALL (  154453 calls)
     add_vuspsi   :      4.33s CPU      3.70s WALL (  154453 calls)

     incdrhoscf   :      6.40s CPU      6.95s WALL (   13630 calls)
     addusdbec    :      0.48s CPU      0.51s WALL (   16078 calls)

     drhodvus     :      0.01s CPU      0.02s WALL (      32 calls)

      General routines
     calbec       :      8.05s CPU      8.45s WALL (  345760 calls)
     fft          :      1.34s CPU      1.40s WALL (    5265 calls)
     ffts         :      0.22s CPU      0.23s WALL (    3320 calls)
     fftw         :     63.51s CPU     67.74s WALL ( 1383638 calls)
     davcio       :      0.31s CPU      1.05s WALL (   69876 calls)
     write_rec    :      0.23s CPU     10.81s WALL (     207 calls)


     PHONON       :  2m11.88s CPU     2m45.58s WALL


   This run was terminated on:  15:41:56  10Nov2017            

=------------------------------------------------------------------------------=
   JOB DONE.
=------------------------------------------------------------------------------=
