
     Program PHONON v.6.1 (svn rev. 13369) starts on 10Nov2017 at 15:56:19 

     This program is part of the open-source Quantum ESPRESSO suite
     for quantum simulation of materials; please cite
         "P. Giannozzi et al., J. Phys.:Condens. Matter 21 395502 (2009);
          URL http://www.quantum-espresso.org", 
     in publications or presentations arising from this work. More details at
     http://www.quantum-espresso.org/quote

     Parallel version (MPI), running on     4 processors
     R & G space division:  proc/nbgrp/npool/nimage =       4

     Reading data from directory:
     ./silicon.10.358.save

   Info: using nr1, nr2, nr3 values from input

   Info: using nr1, nr2, nr3 values from input

     IMPORTANT: XC functional enforced from input :
     Exchange-correlation      = SLA  PW   PBE  PBE ( 1  4  3  4 0 0)
     Any further DFT definition will be discarded
     Please, verify this is what you really want


     Parallelization info
     --------------------
     sticks:   dense  smooth     PW     G-vecs:    dense   smooth      PW
     Min         222     109     37                 4369     1545     284
     Max         223     110     38                 4370     1546     285
     Sum         889     439    151                17477     6183    1139



     Dynamical matrices for ( 4, 4, 4)  uniform grid of q-points
     (   8q-points):
       N         xq(1)         xq(2)         xq(3) 
       1   0.000000000   0.000000000   0.000000000
       2  -0.250000000   0.250000000  -0.250000000
       3   0.500000000  -0.500000000   0.500000000
       4   0.000000000   0.500000000   0.000000000
       5   0.750000000  -0.250000000   0.750000000
       6   0.500000000   0.000000000   0.500000000
       7   0.000000000  -1.000000000   0.000000000
       8  -0.500000000  -1.000000000   0.000000000

     Calculation of q =    0.0000000   0.0000000   0.0000000

                                                                                

     bravais-lattice index     =            2
     lattice parameter (alat)  =      10.3580  a.u.
     unit-cell volume          =     277.8227 (a.u.)^3
     number of atoms/cell      =            2
     number of atomic types    =            1
     kinetic-energy cut-off    =      30.0000  Ry
     charge density cut-off    =     240.0000  Ry
     convergence threshold     =      1.0E-12
     beta                      =       0.7000
     number of iterations used =            4
     Exchange-correlation      = SLA  PW   PBE  PBE ( 1  4  3  4 0 0)


     celldm(1)=   10.35800  celldm(2)=    0.00000  celldm(3)=    0.00000
     celldm(4)=    0.00000  celldm(5)=    0.00000  celldm(6)=    0.00000

     crystal axes: (cart. coord. in units of alat)
               a(1) = ( -0.5000  0.0000  0.5000 )  
               a(2) = (  0.0000  0.5000  0.5000 )  
               a(3) = ( -0.5000  0.5000  0.0000 )  

     reciprocal axes: (cart. coord. in units 2 pi/alat)
               b(1) = ( -1.0000 -1.0000  1.0000 )  
               b(2) = (  1.0000  1.0000  1.0000 )  
               b(3) = ( -1.0000  1.0000 -1.0000 )  


     Atoms inside the unit cell: 

     Cartesian axes

     site n.  atom      mass           positions (alat units)
        1     Si  28.0860   tau(    1) = (    0.00000    0.00000    0.00000  )
        2     Si  28.0860   tau(    2) = (    0.25000    0.25000    0.25000  )

     Computing dynamical matrix for 
                    q = (   0.0000000   0.0000000   0.0000000 )

     49 Sym.Ops. (with q -> -q+G )


     G cutoff =  652.2338  (   4369 G-vectors)     FFT grid: ( 40, 40, 40)
     G cutoff =  326.1169  (   1546 G-vectors)  smooth grid: ( 25, 25, 25)
     number of k points=    10

     PseudoPot. # 1 for Si read from file:
     /home/s1333534/quantum_espresso/qe-6.1/pseudo/si_pbe_v1.uspp.F.UPF.txt
     MD5 check sum: a056efeee980c13900f22a371efd63c1
     Pseudo is Ultrasoft + core correction, Zval =  4.0
     Generated by new atomic code, or converted to UPF format
     Using radial grid of  899 points,  6 beta functions with: 
                l(1) =   0
                l(2) =   0
                l(3) =   1
                l(4) =   1
                l(5) =   2
                l(6) =   2
     Q(r) pseudized with  8 coefficients,  rinner =    0.900   0.900   0.900
                                                       0.900   0.900

     Mode symmetry, O_h (m-3m)  point group:


     Electric field:
     Dielectric constant
     Born effective charges in two ways 


     Atomic displacements:
     There are   2 irreducible representations

     Representation     1      3 modes -T_2g G_25' G_5+  To be done

     Representation     2      3 modes -T_1u G_15  G_4-  To be done



     Alpha used in Ewald sum =   2.5000
     PHONON       :     0.97s CPU         1.45s WALL


     Electric Fields Calculation

      iter #   1 total cpu time :     2.6 secs   av.it.:   5.8
      thresh= 1.000E-02 alpha_mix =  0.700 |ddv_scf|^2 =  9.672E-08

      iter #   2 total cpu time :     3.5 secs   av.it.:  11.9
      thresh= 3.110E-05 alpha_mix =  0.700 |ddv_scf|^2 =  5.758E-09

      iter #   3 total cpu time :     4.2 secs   av.it.:  11.8
      thresh= 7.588E-06 alpha_mix =  0.700 |ddv_scf|^2 =  3.881E-10

      iter #   4 total cpu time :     5.0 secs   av.it.:  10.6
      thresh= 1.970E-06 alpha_mix =  0.700 |ddv_scf|^2 =  2.597E-12

      iter #   5 total cpu time :     5.6 secs   av.it.:  11.2
      thresh= 1.612E-07 alpha_mix =  0.700 |ddv_scf|^2 =  2.600E-15

     End of electric fields calculation

          Dielectric constant in cartesian axis 

          (      14.017415406      -0.000000000      -0.000000000 )
          (      -0.000000000      14.017415406       0.000000000 )
          (      -0.000000000       0.000000000      14.017415406 )

          Effective charges (d Force / dE) in cartesian axis

           atom      1   Si 
      Ex  (       -0.03806       -0.00000       -0.00000 )
      Ey  (       -0.00000       -0.03806        0.00000 )
      Ez  (       -0.00000        0.00000       -0.03806 )
           atom      2   Si 
      Ex  (       -0.03806        0.00000        0.00000 )
      Ey  (        0.00000       -0.03806       -0.00000 )
      Ez  (        0.00000       -0.00000       -0.03806 )


     Representation #  1 modes #   1  2  3

     Self-consistent Calculation

      iter #   1 total cpu time :     7.1 secs   av.it.:   5.1
      thresh= 1.000E-02 alpha_mix =  0.700 |ddv_scf|^2 =  1.712E-08

      iter #   2 total cpu time :     8.0 secs   av.it.:  11.8
      thresh= 1.309E-05 alpha_mix =  0.700 |ddv_scf|^2 =  6.997E-10

      iter #   3 total cpu time :     8.8 secs   av.it.:  11.3
      thresh= 2.645E-06 alpha_mix =  0.700 |ddv_scf|^2 =  4.757E-11

      iter #   4 total cpu time :     9.5 secs   av.it.:  10.4
      thresh= 6.897E-07 alpha_mix =  0.700 |ddv_scf|^2 =  1.178E-13

     End of self-consistent calculation

     Convergence has been achieved 


     Representation #  2 modes #   4  5  6

     Self-consistent Calculation

      iter #   1 total cpu time :    10.6 secs   av.it.:   5.2
      thresh= 1.000E-02 alpha_mix =  0.700 |ddv_scf|^2 =  1.350E-08

      iter #   2 total cpu time :    11.5 secs   av.it.:  11.7
      thresh= 1.162E-05 alpha_mix =  0.700 |ddv_scf|^2 =  7.935E-10

      iter #   3 total cpu time :    12.4 secs   av.it.:  11.4
      thresh= 2.817E-06 alpha_mix =  0.700 |ddv_scf|^2 =  4.927E-11

      iter #   4 total cpu time :    13.1 secs   av.it.:  11.5
      thresh= 7.020E-07 alpha_mix =  0.700 |ddv_scf|^2 =  1.926E-13

     End of self-consistent calculation

     Convergence has been achieved 

     Number of q in the star =    1
     List of q in the star:
          1   0.000000000   0.000000000   0.000000000

          Dielectric constant in cartesian axis 

          (      14.017415406      -0.000000000      -0.000000000 )
          (      -0.000000000      14.017415406       0.000000000 )
          (      -0.000000000       0.000000000      14.017415406 )

          Effective charges (d Force / dE) in cartesian axis

           atom      1   Si 
      Ex  (       -0.03806       -0.00000       -0.00000 )
      Ey  (       -0.00000       -0.03806        0.00000 )
      Ez  (       -0.00000        0.00000       -0.03806 )
           atom      2   Si 
      Ex  (       -0.03806        0.00000        0.00000 )
      Ey  (        0.00000       -0.03806       -0.00000 )
      Ez  (        0.00000       -0.00000       -0.03806 )

          Effective charges (d P / du) in cartesian axis 

           atom      1   Si 
      Px  (       -0.07283       -0.00000       -0.00000 )
      Py  (       -0.00000       -0.07283        0.00000 )
      Pz  (       -0.00000        0.00000       -0.07283 )
           atom      2   Si 
      Px  (       -0.07283        0.00000       -0.00000 )
      Py  (        0.00000       -0.07283        0.00000 )
      Pz  (       -0.00000       -0.00000       -0.07283 )

     Diagonalizing the dynamical matrix

     q = (    0.000000000   0.000000000   0.000000000 ) 

 **************************************************************************
     freq (    1) =      -0.476743 [THz] =     -15.902442 [cm-1]
     freq (    2) =      -0.476743 [THz] =     -15.902442 [cm-1]
     freq (    3) =      -0.476743 [THz] =     -15.902442 [cm-1]
     freq (    4) =      14.962823 [THz] =     499.106063 [cm-1]
     freq (    5) =      14.962823 [THz] =     499.106063 [cm-1]
     freq (    6) =      14.962823 [THz] =     499.106063 [cm-1]
 **************************************************************************

     Mode symmetry, O_h (m-3m)  point group:

     freq (  1 -  3) =        -15.9  [cm-1]   --> T_1u G_15  G_4- I  
     freq (  4 -  6) =        499.1  [cm-1]   --> T_2g G_25' G_5+ R  

     Calculation of q =   -0.2500000   0.2500000  -0.2500000

   Info: using nr1, nr2, nr3 values from input

   Info: using nr1, nr2, nr3 values from input

     Parallelization info
     --------------------
     sticks:   dense  smooth     PW     G-vecs:    dense   smooth      PW
     Min         222     109     37                 4369     1545     309
     Max         223     110     38                 4370     1546     312
     Sum         889     439    151                17477     6183    1243



     bravais-lattice index     =            2
     lattice parameter (alat)  =      10.3580  a.u.
     unit-cell volume          =     277.8227 (a.u.)^3
     number of atoms/cell      =            2
     number of atomic types    =            1
     number of electrons       =         8.00
     number of Kohn-Sham states=            4
     kinetic-energy cutoff     =      30.0000  Ry
     charge density cutoff     =     240.0000  Ry
     Exchange-correlation      = SLA  PW   PBE  PBE ( 1  4  3  4 0 0)

     celldm(1)=  10.358000  celldm(2)=   0.000000  celldm(3)=   0.000000
     celldm(4)=   0.000000  celldm(5)=   0.000000  celldm(6)=   0.000000

     crystal axes: (cart. coord. in units of alat)
               a(1) = (  -0.500000   0.000000   0.500000 )  
               a(2) = (   0.000000   0.500000   0.500000 )  
               a(3) = (  -0.500000   0.500000   0.000000 )  

     reciprocal axes: (cart. coord. in units 2 pi/alat)
               b(1) = ( -1.000000 -1.000000  1.000000 )  
               b(2) = (  1.000000  1.000000  1.000000 )  
               b(3) = ( -1.000000  1.000000 -1.000000 )  


     PseudoPot. # 1 for Si read from file:
     /home/s1333534/quantum_espresso/qe-6.1/pseudo/si_pbe_v1.uspp.F.UPF.txt
     MD5 check sum: a056efeee980c13900f22a371efd63c1
     Pseudo is Ultrasoft + core correction, Zval =  4.0
     Generated by new atomic code, or converted to UPF format
     Using radial grid of  899 points,  6 beta functions with: 
                l(1) =   0
                l(2) =   0
                l(3) =   1
                l(4) =   1
                l(5) =   2
                l(6) =   2
     Q(r) pseudized with  8 coefficients,  rinner =    0.900   0.900   0.900
                                                       0.900   0.900

     atomic species   valence    mass     pseudopotential
        Si             4.00    28.08600     Si( 1.00)

     48 Sym. Ops., with inversion, found



   Cartesian axes

     site n.     atom                  positions (alat units)
         1           Si  tau(   1) = (   0.0000000   0.0000000   0.0000000  )
         2           Si  tau(   2) = (   0.2500000   0.2500000   0.2500000  )

     number of k points=   120

     Number of k-points >= 100: set verbosity='high' to print them.

     Dense  grid:    17477 G-vectors     FFT dimensions: (  40,  40,  40)

     Smooth grid:     6183 G-vectors     FFT dimensions: (  25,  25,  25)

     Estimated max dynamical RAM per process >       1.79MB

     Estimated total allocated dynamical RAM >       7.17MB

     The potential is recalculated from file :
     ./_ph0/silicon.10.358.save/charge-density.dat

     Starting wfc are    8 atomic wfcs

     Band Structure Calculation
     Davidson diagonalization with overlap

     ethr =  1.25E-10,  avg # of iterations = 12.2

     total cpu time spent up to now is        1.4 secs

     End of band structure calculation

     Number of k-points >= 100: set verbosity='high' to print the bands.

     highest occupied level (ev):     5.6259

     Writing output data file silicon.10.358.save

                                                                                

     bravais-lattice index     =            2
     lattice parameter (alat)  =      10.3580  a.u.
     unit-cell volume          =     277.8227 (a.u.)^3
     number of atoms/cell      =            2
     number of atomic types    =            1
     kinetic-energy cut-off    =      30.0000  Ry
     charge density cut-off    =     240.0000  Ry
     convergence threshold     =      1.0E-12
     beta                      =       0.7000
     number of iterations used =            4
     Exchange-correlation      = SLA  PW   PBE  PBE ( 1  4  3  4 0 0)


     celldm(1)=   10.35800  celldm(2)=    0.00000  celldm(3)=    0.00000
     celldm(4)=    0.00000  celldm(5)=    0.00000  celldm(6)=    0.00000

     crystal axes: (cart. coord. in units of alat)
               a(1) = ( -0.5000  0.0000  0.5000 )  
               a(2) = (  0.0000  0.5000  0.5000 )  
               a(3) = ( -0.5000  0.5000  0.0000 )  

     reciprocal axes: (cart. coord. in units 2 pi/alat)
               b(1) = ( -1.0000 -1.0000  1.0000 )  
               b(2) = (  1.0000  1.0000  1.0000 )  
               b(3) = ( -1.0000  1.0000 -1.0000 )  


     Atoms inside the unit cell: 

     Cartesian axes

     site n.  atom      mass           positions (alat units)
        1     Si  28.0860   tau(    1) = (    0.00000    0.00000    0.00000  )
        2     Si  28.0860   tau(    2) = (    0.25000    0.25000    0.25000  )

     Computing dynamical matrix for 
                    q = (  -0.2500000   0.2500000  -0.2500000 )

      6 Sym.Ops. (no q -> -q+G )


     G cutoff =  652.2338  (   4369 G-vectors)     FFT grid: ( 40, 40, 40)
     G cutoff =  326.1169  (   1546 G-vectors)  smooth grid: ( 25, 25, 25)
     number of k points=   120

     PseudoPot. # 1 for Si read from file:
     /home/s1333534/quantum_espresso/qe-6.1/pseudo/si_pbe_v1.uspp.F.UPF.txt
     MD5 check sum: a056efeee980c13900f22a371efd63c1
     Pseudo is Ultrasoft + core correction, Zval =  4.0
     Generated by new atomic code, or converted to UPF format
     Using radial grid of  899 points,  6 beta functions with: 
                l(1) =   0
                l(2) =   0
                l(3) =   1
                l(4) =   1
                l(5) =   2
                l(6) =   2
     Q(r) pseudized with  8 coefficients,  rinner =    0.900   0.900   0.900
                                                       0.900   0.900

     Mode symmetry, C_3v (3m)   point group:


     Atomic displacements:
     There are   4 irreducible representations

     Representation     1      1 modes -A_1  L_1  To be done

     Representation     2      1 modes -A_1  L_1  To be done

     Representation     3      2 modes -E    L_3  To be done

     Representation     4      2 modes -E    L_3  To be done



     Alpha used in Ewald sum =   2.5000
     PHONON       :    12.02s CPU        16.62s WALL



     Representation #  1 mode #   1

     Self-consistent Calculation

      iter #   1 total cpu time :    17.1 secs   av.it.:   5.9
      thresh= 1.000E-02 alpha_mix =  0.700 |ddv_scf|^2 =  3.086E-04

      iter #   2 total cpu time :    17.7 secs   av.it.:   9.2
      thresh= 1.757E-03 alpha_mix =  0.700 |ddv_scf|^2 =  4.716E-03

      iter #   3 total cpu time :    18.2 secs   av.it.:   7.1
      thresh= 6.867E-03 alpha_mix =  0.700 |ddv_scf|^2 =  1.952E-07

      iter #   4 total cpu time :    19.0 secs   av.it.:   9.7
      thresh= 4.419E-05 alpha_mix =  0.700 |ddv_scf|^2 =  1.305E-08

      iter #   5 total cpu time :    19.7 secs   av.it.:   9.8
      thresh= 1.143E-05 alpha_mix =  0.700 |ddv_scf|^2 =  2.403E-10

      iter #   6 total cpu time :    20.3 secs   av.it.:   9.9
      thresh= 1.550E-06 alpha_mix =  0.700 |ddv_scf|^2 =  6.103E-10

      iter #   7 total cpu time :    20.9 secs   av.it.:   7.8
      thresh= 2.470E-06 alpha_mix =  0.700 |ddv_scf|^2 =  3.879E-11

      iter #   8 total cpu time :    21.4 secs   av.it.:   9.4
      thresh= 6.229E-07 alpha_mix =  0.700 |ddv_scf|^2 =  4.099E-13

     End of self-consistent calculation

     Convergence has been achieved 


     Representation #  2 mode #   2

     Self-consistent Calculation

      iter #   1 total cpu time :    22.0 secs   av.it.:   5.9
      thresh= 1.000E-02 alpha_mix =  0.700 |ddv_scf|^2 =  3.086E-04

      iter #   2 total cpu time :    22.7 secs   av.it.:   9.2
      thresh= 1.757E-03 alpha_mix =  0.700 |ddv_scf|^2 =  4.716E-03

      iter #   3 total cpu time :    23.2 secs   av.it.:   7.1
      thresh= 6.867E-03 alpha_mix =  0.700 |ddv_scf|^2 =  1.952E-07

      iter #   4 total cpu time :    23.9 secs   av.it.:   9.7
      thresh= 4.419E-05 alpha_mix =  0.700 |ddv_scf|^2 =  1.305E-08

      iter #   5 total cpu time :    24.5 secs   av.it.:   9.8
      thresh= 1.143E-05 alpha_mix =  0.700 |ddv_scf|^2 =  2.403E-10

      iter #   6 total cpu time :    25.2 secs   av.it.:   9.9
      thresh= 1.550E-06 alpha_mix =  0.700 |ddv_scf|^2 =  6.103E-10

      iter #   7 total cpu time :    25.8 secs   av.it.:   7.8
      thresh= 2.470E-06 alpha_mix =  0.700 |ddv_scf|^2 =  3.879E-11

      iter #   8 total cpu time :    26.5 secs   av.it.:   9.4
      thresh= 6.229E-07 alpha_mix =  0.700 |ddv_scf|^2 =  4.099E-13

     End of self-consistent calculation

     Convergence has been achieved 


     Representation #  3 modes #   3  4

     Self-consistent Calculation

      iter #   1 total cpu time :    27.5 secs   av.it.:   5.2
      thresh= 1.000E-02 alpha_mix =  0.700 |ddv_scf|^2 =  4.812E-08

      iter #   2 total cpu time :    29.0 secs   av.it.:  11.6
      thresh= 2.194E-05 alpha_mix =  0.700 |ddv_scf|^2 =  3.092E-09

      iter #   3 total cpu time :    30.3 secs   av.it.:  11.2
      thresh= 5.561E-06 alpha_mix =  0.700 |ddv_scf|^2 =  1.633E-10

      iter #   4 total cpu time :    31.5 secs   av.it.:  11.1
      thresh= 1.278E-06 alpha_mix =  0.700 |ddv_scf|^2 =  6.292E-13

     End of self-consistent calculation

     Convergence has been achieved 


     Representation #  4 modes #   5  6

     Self-consistent Calculation

      iter #   1 total cpu time :    32.5 secs   av.it.:   5.2
      thresh= 1.000E-02 alpha_mix =  0.700 |ddv_scf|^2 =  4.813E-08

      iter #   2 total cpu time :    34.0 secs   av.it.:  11.7
      thresh= 2.194E-05 alpha_mix =  0.700 |ddv_scf|^2 =  3.093E-09

      iter #   3 total cpu time :    35.3 secs   av.it.:  11.4
      thresh= 5.561E-06 alpha_mix =  0.700 |ddv_scf|^2 =  1.632E-10

      iter #   4 total cpu time :    36.5 secs   av.it.:  11.2
      thresh= 1.278E-06 alpha_mix =  0.700 |ddv_scf|^2 =  6.324E-13

     End of self-consistent calculation

     Convergence has been achieved 

     Number of q in the star =    8
     List of q in the star:
          1  -0.250000000   0.250000000  -0.250000000
          2   0.250000000  -0.250000000  -0.250000000
          3   0.250000000  -0.250000000   0.250000000
          4   0.250000000   0.250000000   0.250000000
          5  -0.250000000  -0.250000000  -0.250000000
          6  -0.250000000  -0.250000000   0.250000000
          7  -0.250000000   0.250000000   0.250000000
          8   0.250000000   0.250000000  -0.250000000

     Diagonalizing the dynamical matrix

     q = (   -0.250000000   0.250000000  -0.250000000 ) 

 **************************************************************************
     freq (    1) =       2.798711 [THz] =      93.354938 [cm-1]
     freq (    2) =       2.798711 [THz] =      93.354938 [cm-1]
     freq (    3) =       6.680860 [THz] =     222.849501 [cm-1]
     freq (    4) =      14.117456 [THz] =     470.907637 [cm-1]
     freq (    5) =      14.376881 [THz] =     479.561124 [cm-1]
     freq (    6) =      14.376881 [THz] =     479.561124 [cm-1]
 **************************************************************************

     Mode symmetry, C_3v (3m)   point group:

     freq (  1 -  2) =         93.4  [cm-1]   --> E    L_3           
     freq (  3 -  3) =        222.8  [cm-1]   --> A_1  L_1           
     freq (  4 -  4) =        470.9  [cm-1]   --> A_1  L_1           
     freq (  5 -  6) =        479.6  [cm-1]   --> E    L_3           

     Calculation of q =    0.5000000  -0.5000000   0.5000000

   Info: using nr1, nr2, nr3 values from input

   Info: using nr1, nr2, nr3 values from input

     Parallelization info
     --------------------
     sticks:   dense  smooth     PW     G-vecs:    dense   smooth      PW
     Min         222     109     40                 4369     1545     351
     Max         223     110     41                 4370     1546     354
     Sum         889     439    163                17477     6183    1411



     bravais-lattice index     =            2
     lattice parameter (alat)  =      10.3580  a.u.
     unit-cell volume          =     277.8227 (a.u.)^3
     number of atoms/cell      =            2
     number of atomic types    =            1
     number of electrons       =         8.00
     number of Kohn-Sham states=            4
     kinetic-energy cutoff     =      30.0000  Ry
     charge density cutoff     =     240.0000  Ry
     Exchange-correlation      = SLA  PW   PBE  PBE ( 1  4  3  4 0 0)

     celldm(1)=  10.358000  celldm(2)=   0.000000  celldm(3)=   0.000000
     celldm(4)=   0.000000  celldm(5)=   0.000000  celldm(6)=   0.000000

     crystal axes: (cart. coord. in units of alat)
               a(1) = (  -0.500000   0.000000   0.500000 )  
               a(2) = (   0.000000   0.500000   0.500000 )  
               a(3) = (  -0.500000   0.500000   0.000000 )  

     reciprocal axes: (cart. coord. in units 2 pi/alat)
               b(1) = ( -1.000000 -1.000000  1.000000 )  
               b(2) = (  1.000000  1.000000  1.000000 )  
               b(3) = ( -1.000000  1.000000 -1.000000 )  


     PseudoPot. # 1 for Si read from file:
     /home/s1333534/quantum_espresso/qe-6.1/pseudo/si_pbe_v1.uspp.F.UPF.txt
     MD5 check sum: a056efeee980c13900f22a371efd63c1
     Pseudo is Ultrasoft + core correction, Zval =  4.0
     Generated by new atomic code, or converted to UPF format
     Using radial grid of  899 points,  6 beta functions with: 
                l(1) =   0
                l(2) =   0
                l(3) =   1
                l(4) =   1
                l(5) =   2
                l(6) =   2
     Q(r) pseudized with  8 coefficients,  rinner =    0.900   0.900   0.900
                                                       0.900   0.900

     atomic species   valence    mass     pseudopotential
        Si             4.00    28.08600     Si( 1.00)

     48 Sym. Ops., with inversion, found



   Cartesian axes

     site n.     atom                  positions (alat units)
         1           Si  tau(   1) = (   0.0000000   0.0000000   0.0000000  )
         2           Si  tau(   2) = (   0.2500000   0.2500000   0.2500000  )

     number of k points=    60
                       cart. coord. in units 2pi/alat
        k(    1) = (  -0.1250000   0.1250000   0.1250000), wk =   0.0468750
        k(    2) = (   0.3750000  -0.3750000   0.6250000), wk =   0.0000000
        k(    3) = (  -0.3750000   0.3750000  -0.1250000), wk =   0.0468750
        k(    4) = (   0.1250000  -0.1250000   0.3750000), wk =   0.0000000
        k(    5) = (   0.3750000  -0.3750000   0.6250000), wk =   0.0468750
        k(    6) = (   0.8750000  -0.8750000   1.1250000), wk =   0.0000000
        k(    7) = (   0.1250000  -0.1250000   0.3750000), wk =   0.0468750
        k(    8) = (   0.6250000  -0.6250000   0.8750000), wk =   0.0000000
        k(    9) = (  -0.1250000   0.6250000   0.1250000), wk =   0.0937500
        k(   10) = (   0.3750000   0.1250000   0.6250000), wk =   0.0000000
        k(   11) = (   0.6250000  -0.1250000   0.8750000), wk =   0.0937500
        k(   12) = (   1.1250000  -0.6250000   1.3750000), wk =   0.0000000
        k(   13) = (   0.3750000   0.1250000   0.6250000), wk =   0.0937500
        k(   14) = (   0.8750000  -0.3750000   1.1250000), wk =   0.0000000
        k(   15) = (  -0.1250000  -0.8750000   0.1250000), wk =   0.0937500
        k(   16) = (   0.3750000  -1.3750000   0.6250000), wk =   0.0000000
        k(   17) = (  -0.3750000   0.3750000   0.3750000), wk =   0.0468750
        k(   18) = (   0.1250000  -0.1250000   0.8750000), wk =   0.0000000
        k(   19) = (   0.3750000  -0.3750000   1.1250000), wk =   0.0468750
        k(   20) = (   0.8750000  -0.8750000   1.6250000), wk =   0.0000000
        k(   21) = (   0.1250000  -0.1250000   0.1250000), wk =   0.0156250
        k(   22) = (   0.6250000  -0.6250000   0.6250000), wk =   0.0000000
        k(   23) = (  -0.3750000  -0.3750000  -0.1250000), wk =   0.0937500
        k(   24) = (   0.1250000  -0.8750000   0.3750000), wk =   0.0000000
        k(   25) = (  -0.1250000  -0.3750000   0.3750000), wk =   0.0468750
        k(   26) = (   0.3750000  -0.8750000   0.8750000), wk =   0.0000000
        k(   27) = (   0.3750000   0.3750000   0.6250000), wk =   0.0937500
        k(   28) = (   0.8750000  -0.1250000   1.1250000), wk =   0.0000000
        k(   29) = (   0.6250000   0.3750000  -0.3750000), wk =   0.0468750
        k(   30) = (   1.1250000  -0.1250000   0.1250000), wk =   0.0000000
        k(   31) = (   0.1250000   0.1250000   0.3750000), wk =   0.0937500
        k(   32) = (   0.6250000  -0.3750000   0.8750000), wk =   0.0000000
        k(   33) = (   0.3750000   0.1250000  -0.1250000), wk =   0.0468750
        k(   34) = (   0.8750000  -0.3750000   0.3750000), wk =   0.0000000
        k(   35) = (  -0.1250000  -0.6250000  -0.1250000), wk =   0.0468750
        k(   36) = (   0.3750000  -1.1250000   0.3750000), wk =   0.0000000
        k(   37) = (   0.1250000  -0.6250000   0.1250000), wk =   0.0468750
        k(   38) = (   0.6250000  -1.1250000   0.6250000), wk =   0.0000000
        k(   39) = (   0.6250000   0.1250000   0.8750000), wk =   0.0937500
        k(   40) = (   1.1250000  -0.3750000   1.3750000), wk =   0.0000000
        k(   41) = (  -0.8750000   0.1250000   0.6250000), wk =   0.0937500
        k(   42) = (  -0.3750000  -0.3750000   1.1250000), wk =   0.0000000
        k(   43) = (   0.8750000   0.1250000  -0.6250000), wk =   0.0937500
        k(   44) = (   1.3750000  -0.3750000  -0.1250000), wk =   0.0000000
        k(   45) = (   0.3750000  -0.1250000   0.6250000), wk =   0.0937500
        k(   46) = (   0.8750000  -0.6250000   1.1250000), wk =   0.0000000
        k(   47) = (  -0.6250000  -0.1250000   0.3750000), wk =   0.0937500
        k(   48) = (  -0.1250000  -0.6250000   0.8750000), wk =   0.0000000
        k(   49) = (   0.6250000  -0.1250000  -0.3750000), wk =   0.0937500
        k(   50) = (   1.1250000  -0.6250000   0.1250000), wk =   0.0000000
        k(   51) = (  -0.1250000   0.8750000  -0.1250000), wk =   0.0468750
        k(   52) = (   0.3750000   0.3750000   0.3750000), wk =   0.0000000
        k(   53) = (   0.1250000   0.8750000   0.1250000), wk =   0.0468750
        k(   54) = (   0.6250000   0.3750000   0.6250000), wk =   0.0000000
        k(   55) = (   0.3750000  -0.3750000   0.3750000), wk =   0.0156250
        k(   56) = (   0.8750000  -0.8750000   0.8750000), wk =   0.0000000
        k(   57) = (   0.3750000   0.3750000   1.1250000), wk =   0.0937500
        k(   58) = (   0.8750000  -0.1250000   1.6250000), wk =   0.0000000
        k(   59) = (   1.1250000   0.3750000  -0.3750000), wk =   0.0468750
        k(   60) = (   1.6250000  -0.1250000   0.1250000), wk =   0.0000000

     Dense  grid:    17477 G-vectors     FFT dimensions: (  40,  40,  40)

     Smooth grid:     6183 G-vectors     FFT dimensions: (  25,  25,  25)

     Estimated max dynamical RAM per process >       1.79MB

     Estimated total allocated dynamical RAM >       7.17MB

     The potential is recalculated from file :
     ./_ph0/silicon.10.358.save/charge-density.dat

     Starting wfc are    8 atomic wfcs

     Band Structure Calculation
     Davidson diagonalization with overlap

     ethr =  1.25E-10,  avg # of iterations = 12.2

     total cpu time spent up to now is        2.4 secs

     End of band structure calculation

          k =-0.1250 0.1250 0.1250 (   773 PWs)   bands (ev):

    -5.6638   4.3163   5.6259   5.6259

          k = 0.3750-0.3750 0.6250 (   773 PWs)   bands (ev):

    -3.5150  -0.7252   3.6702   4.3825

          k =-0.3750 0.3750-0.1250 (   776 PWs)   bands (ev):

    -4.6443   1.3364   3.6529   5.1478

          k = 0.1250-0.1250 0.3750 (   781 PWs)   bands (ev):

    -5.1394   2.7037   4.6259   4.6857

          k = 0.3750-0.3750 0.6250 (   773 PWs)   bands (ev):

    -3.5150  -0.7252   3.6702   4.3825

          k = 0.8750-0.8750 1.1250 (   773 PWs)   bands (ev):

    -5.6638   4.3163   5.6259   5.6259

          k = 0.1250-0.1250 0.3750 (   781 PWs)   bands (ev):

    -5.1394   2.7037   4.6259   4.6857

          k = 0.6250-0.6250 0.8750 (   776 PWs)   bands (ev):

    -4.6443   1.3364   3.6529   5.1478

          k =-0.1250 0.6250 0.1250 (   775 PWs)   bands (ev):

    -4.1152   0.9960   3.3085   3.7578

          k = 0.3750 0.1250 0.6250 (   770 PWs)   bands (ev):

    -3.7033   0.1328   2.6699   4.0307

          k = 0.6250-0.1250 0.8750 (   762 PWs)   bands (ev):

    -2.4887  -0.9546   1.9669   3.0349

          k = 1.1250-0.6250 1.3750 (   776 PWs)   bands (ev):

    -4.6443   1.3364   3.6529   5.1478

          k = 0.3750 0.1250 0.6250 (   770 PWs)   bands (ev):

    -3.7033   0.1328   2.6699   4.0307

          k = 0.8750-0.3750 1.1250 (   775 PWs)   bands (ev):

    -4.1152   0.9960   3.3085   3.7578

          k =-0.1250-0.8750 0.1250 (   763 PWs)   bands (ev):

    -2.6535  -0.8589   2.5715   3.2938

          k = 0.3750-1.3750 0.6250 (   773 PWs)   bands (ev):

    -3.5150  -0.7252   3.6702   4.3825

          k =-0.3750 0.3750 0.3750 (   769 PWs)   bands (ev):

    -4.2151   0.0579   4.8431   4.8431

          k = 0.1250-0.1250 0.8750 (   763 PWs)   bands (ev):

    -2.6535  -0.8589   2.5715   3.2938

          k = 0.3750-0.3750 1.1250 (   769 PWs)   bands (ev):

    -3.0225  -0.6483   2.0220   4.0682

          k = 0.8750-0.8750 1.6250 (   775 PWs)   bands (ev):

    -4.1152   0.9960   3.3085   3.7578

          k = 0.1250-0.1250 0.1250 (   773 PWs)   bands (ev):

    -5.6638   4.3163   5.6259   5.6259

          k = 0.6250-0.6250 0.6250 (   769 PWs)   bands (ev):

    -4.2151   0.0579   4.8431   4.8431

          k =-0.3750-0.3750-0.1250 (   776 PWs)   bands (ev):

    -4.6443   1.3364   3.6529   5.1478

          k = 0.1250-0.8750 0.3750 (   762 PWs)   bands (ev):

    -2.4887  -0.9546   1.9669   3.0349

          k =-0.1250-0.3750 0.3750 (   776 PWs)   bands (ev):

    -4.6443   1.3364   3.6529   5.1478

          k = 0.3750-0.8750 0.8750 (   775 PWs)   bands (ev):

    -4.1152   0.9960   3.3085   3.7578

          k = 0.3750 0.3750 0.6250 (   773 PWs)   bands (ev):

    -3.5150  -0.7252   3.6702   4.3825

          k = 0.8750-0.1250 1.1250 (   763 PWs)   bands (ev):

    -2.6535  -0.8589   2.5715   3.2938

          k = 0.6250 0.3750-0.3750 (   773 PWs)   bands (ev):

    -3.5150  -0.7252   3.6702   4.3825

          k = 1.1250-0.1250 0.1250 (   763 PWs)   bands (ev):

    -2.6535  -0.8589   2.5715   3.2938

          k = 0.1250 0.1250 0.3750 (   781 PWs)   bands (ev):

    -5.1394   2.7037   4.6259   4.6857

          k = 0.6250-0.3750 0.8750 (   770 PWs)   bands (ev):

    -3.7033   0.1328   2.6699   4.0307

          k = 0.3750 0.1250-0.1250 (   781 PWs)   bands (ev):

    -5.1394   2.7037   4.6259   4.6857

          k = 0.8750-0.3750 0.3750 (   769 PWs)   bands (ev):

    -3.0225  -0.6483   2.0220   4.0682

          k =-0.1250-0.6250-0.1250 (   775 PWs)   bands (ev):

    -4.1152   0.9960   3.3085   3.7578

          k = 0.3750-1.1250 0.3750 (   769 PWs)   bands (ev):

    -3.0225  -0.6483   2.0220   4.0682

          k = 0.1250-0.6250 0.1250 (   775 PWs)   bands (ev):

    -4.1152   0.9960   3.3085   3.7578

          k = 0.6250-1.1250 0.6250 (   776 PWs)   bands (ev):

    -4.6443   1.3364   3.6529   5.1478

          k = 0.6250 0.1250 0.8750 (   762 PWs)   bands (ev):

    -2.4887  -0.9546   1.9669   3.0349

          k = 1.1250-0.3750 1.3750 (   770 PWs)   bands (ev):

    -3.7033   0.1328   2.6699   4.0307

          k =-0.8750 0.1250 0.6250 (   762 PWs)   bands (ev):

    -2.4887  -0.9546   1.9669   3.0349

          k =-0.3750-0.3750 1.1250 (   769 PWs)   bands (ev):

    -3.0225  -0.6483   2.0220   4.0682

          k = 0.8750 0.1250-0.6250 (   762 PWs)   bands (ev):

    -2.4887  -0.9546   1.9669   3.0349

          k = 1.3750-0.3750-0.1250 (   770 PWs)   bands (ev):

    -3.7033   0.1328   2.6699   4.0307

          k = 0.3750-0.1250 0.6250 (   770 PWs)   bands (ev):

    -3.7033   0.1328   2.6699   4.0307

          k = 0.8750-0.6250 1.1250 (   781 PWs)   bands (ev):

    -5.1394   2.7037   4.6259   4.6857

          k =-0.6250-0.1250 0.3750 (   770 PWs)   bands (ev):

    -3.7033   0.1328   2.6699   4.0307

          k =-0.1250-0.6250 0.8750 (   762 PWs)   bands (ev):

    -2.4887  -0.9546   1.9669   3.0349

          k = 0.6250-0.1250-0.3750 (   770 PWs)   bands (ev):

    -3.7033   0.1328   2.6699   4.0307

          k = 1.1250-0.6250 0.1250 (   762 PWs)   bands (ev):

    -2.4887  -0.9546   1.9669   3.0349

          k =-0.1250 0.8750-0.1250 (   763 PWs)   bands (ev):

    -2.6535  -0.8589   2.5715   3.2938

          k = 0.3750 0.3750 0.3750 (   769 PWs)   bands (ev):

    -4.2151   0.0579   4.8431   4.8431

          k = 0.1250 0.8750 0.1250 (   763 PWs)   bands (ev):

    -2.6535  -0.8589   2.5715   3.2938

          k = 0.6250 0.3750 0.6250 (   773 PWs)   bands (ev):

    -3.5150  -0.7252   3.6702   4.3825

          k = 0.3750-0.3750 0.3750 (   769 PWs)   bands (ev):

    -4.2151   0.0579   4.8431   4.8431

          k = 0.8750-0.8750 0.8750 (   773 PWs)   bands (ev):

    -5.6638   4.3163   5.6259   5.6259

          k = 0.3750 0.3750 1.1250 (   769 PWs)   bands (ev):

    -3.0225  -0.6483   2.0220   4.0682

          k = 0.8750-0.1250 1.6250 (   762 PWs)   bands (ev):

    -2.4887  -0.9546   1.9669   3.0349

          k = 1.1250 0.3750-0.3750 (   769 PWs)   bands (ev):

    -3.0225  -0.6483   2.0220   4.0682

          k = 1.6250-0.1250 0.1250 (   781 PWs)   bands (ev):

    -5.1394   2.7037   4.6259   4.6857

     highest occupied level (ev):     5.6259

     Writing output data file silicon.10.358.save

                                                                                

     bravais-lattice index     =            2
     lattice parameter (alat)  =      10.3580  a.u.
     unit-cell volume          =     277.8227 (a.u.)^3
     number of atoms/cell      =            2
     number of atomic types    =            1
     kinetic-energy cut-off    =      30.0000  Ry
     charge density cut-off    =     240.0000  Ry
     convergence threshold     =      1.0E-12
     beta                      =       0.7000
     number of iterations used =            4
     Exchange-correlation      = SLA  PW   PBE  PBE ( 1  4  3  4 0 0)


     celldm(1)=   10.35800  celldm(2)=    0.00000  celldm(3)=    0.00000
     celldm(4)=    0.00000  celldm(5)=    0.00000  celldm(6)=    0.00000

     crystal axes: (cart. coord. in units of alat)
               a(1) = ( -0.5000  0.0000  0.5000 )  
               a(2) = (  0.0000  0.5000  0.5000 )  
               a(3) = ( -0.5000  0.5000  0.0000 )  

     reciprocal axes: (cart. coord. in units 2 pi/alat)
               b(1) = ( -1.0000 -1.0000  1.0000 )  
               b(2) = (  1.0000  1.0000  1.0000 )  
               b(3) = ( -1.0000  1.0000 -1.0000 )  


     Atoms inside the unit cell: 

     Cartesian axes

     site n.  atom      mass           positions (alat units)
        1     Si  28.0860   tau(    1) = (    0.00000    0.00000    0.00000  )
        2     Si  28.0860   tau(    2) = (    0.25000    0.25000    0.25000  )

     Computing dynamical matrix for 
                    q = (   0.5000000  -0.5000000   0.5000000 )

     13 Sym.Ops. (with q -> -q+G )


     G cutoff =  652.2338  (   4369 G-vectors)     FFT grid: ( 40, 40, 40)
     G cutoff =  326.1169  (   1546 G-vectors)  smooth grid: ( 25, 25, 25)
     number of k points=    60

     PseudoPot. # 1 for Si read from file:
     /home/s1333534/quantum_espresso/qe-6.1/pseudo/si_pbe_v1.uspp.F.UPF.txt
     MD5 check sum: a056efeee980c13900f22a371efd63c1
     Pseudo is Ultrasoft + core correction, Zval =  4.0
     Generated by new atomic code, or converted to UPF format
     Using radial grid of  899 points,  6 beta functions with: 
                l(1) =   0
                l(2) =   0
                l(3) =   1
                l(4) =   1
                l(5) =   2
                l(6) =   2
     Q(r) pseudized with  8 coefficients,  rinner =    0.900   0.900   0.900
                                                       0.900   0.900


     Atomic displacements:
     There are   4 irreducible representations

     Representation     1      1 modes -  To be done

     Representation     2      1 modes -  To be done

     Representation     3      2 modes -  To be done

     Representation     4      2 modes -  To be done



     Alpha used in Ewald sum =   2.5000
     PHONON       :    29.81s CPU        39.03s WALL



     Representation #  1 mode #   1

     Self-consistent Calculation

      iter #   1 total cpu time :    39.3 secs   av.it.:   5.0
      thresh= 1.000E-02 alpha_mix =  0.700 |ddv_scf|^2 =  3.026E-06

      iter #   2 total cpu time :    39.8 secs   av.it.:  10.1
      thresh= 1.740E-04 alpha_mix =  0.700 |ddv_scf|^2 =  2.795E-06

      iter #   3 total cpu time :    40.2 secs   av.it.:   9.4
      thresh= 1.672E-04 alpha_mix =  0.700 |ddv_scf|^2 =  1.653E-09

      iter #   4 total cpu time :    40.6 secs   av.it.:   9.6
      thresh= 4.066E-06 alpha_mix =  0.700 |ddv_scf|^2 =  1.561E-11

      iter #   5 total cpu time :    41.0 secs   av.it.:   9.5
      thresh= 3.951E-07 alpha_mix =  0.700 |ddv_scf|^2 =  2.283E-13

     End of self-consistent calculation

     Convergence has been achieved 


     Representation #  2 mode #   2

     Self-consistent Calculation

      iter #   1 total cpu time :    41.4 secs   av.it.:   6.0
      thresh= 1.000E-02 alpha_mix =  0.700 |ddv_scf|^2 =  4.302E-05

      iter #   2 total cpu time :    41.9 secs   av.it.:  10.0
      thresh= 6.559E-04 alpha_mix =  0.700 |ddv_scf|^2 =  1.341E-04

      iter #   3 total cpu time :    42.5 secs   av.it.:   8.9
      thresh= 1.158E-03 alpha_mix =  0.700 |ddv_scf|^2 =  1.014E-08

      iter #   4 total cpu time :    43.0 secs   av.it.:  10.0
      thresh= 1.007E-05 alpha_mix =  0.700 |ddv_scf|^2 =  5.129E-10

      iter #   5 total cpu time :    43.4 secs   av.it.:  10.4
      thresh= 2.265E-06 alpha_mix =  0.700 |ddv_scf|^2 =  1.512E-11

      iter #   6 total cpu time :    43.8 secs   av.it.:   9.9
      thresh= 3.888E-07 alpha_mix =  0.700 |ddv_scf|^2 =  1.122E-13

     End of self-consistent calculation

     Convergence has been achieved 


     Representation #  3 modes #   3  4

     Self-consistent Calculation

      iter #   1 total cpu time :    44.4 secs   av.it.:   5.1
      thresh= 1.000E-02 alpha_mix =  0.700 |ddv_scf|^2 =  1.952E-08

      iter #   2 total cpu time :    45.3 secs   av.it.:  11.1
      thresh= 1.397E-05 alpha_mix =  0.700 |ddv_scf|^2 =  1.147E-09

      iter #   3 total cpu time :    46.1 secs   av.it.:  10.9
      thresh= 3.387E-06 alpha_mix =  0.700 |ddv_scf|^2 =  3.873E-11

      iter #   4 total cpu time :    46.9 secs   av.it.:  10.8
      thresh= 6.223E-07 alpha_mix =  0.700 |ddv_scf|^2 =  3.170E-13

     End of self-consistent calculation

     Convergence has been achieved 


     Representation #  4 modes #   5  6

     Self-consistent Calculation

      iter #   1 total cpu time :    47.6 secs   av.it.:   5.1
      thresh= 1.000E-02 alpha_mix =  0.700 |ddv_scf|^2 =  1.002E-07

      iter #   2 total cpu time :    48.4 secs   av.it.:  11.2
      thresh= 3.166E-05 alpha_mix =  0.700 |ddv_scf|^2 =  8.052E-09

      iter #   3 total cpu time :    49.2 secs   av.it.:  11.2
      thresh= 8.973E-06 alpha_mix =  0.700 |ddv_scf|^2 =  2.110E-10

      iter #   4 total cpu time :    49.9 secs   av.it.:  10.1
      thresh= 1.453E-06 alpha_mix =  0.700 |ddv_scf|^2 =  3.862E-13

     End of self-consistent calculation

     Convergence has been achieved 

     Number of q in the star =    4
     List of q in the star:
          1   0.500000000  -0.500000000   0.500000000
          2   0.500000000   0.500000000   0.500000000
          3  -0.500000000   0.500000000   0.500000000
          4   0.500000000   0.500000000  -0.500000000

     Diagonalizing the dynamical matrix

     q = (    0.500000000  -0.500000000   0.500000000 ) 

 **************************************************************************
     freq (    1) =       3.337995 [THz] =     111.343527 [cm-1]
     freq (    2) =       3.337995 [THz] =     111.343527 [cm-1]
     freq (    3) =      11.068076 [THz] =     369.191266 [cm-1]
     freq (    4) =      11.828344 [THz] =     394.551083 [cm-1]
     freq (    5) =      14.156876 [THz] =     472.222550 [cm-1]
     freq (    6) =      14.156876 [THz] =     472.222550 [cm-1]
 **************************************************************************

     Calculation of q =    0.0000000   0.5000000   0.0000000

   Info: using nr1, nr2, nr3 values from input

   Info: using nr1, nr2, nr3 values from input

     Parallelization info
     --------------------
     sticks:   dense  smooth     PW     G-vecs:    dense   smooth      PW
     Min         222     109     40                 4369     1545     322
     Max         223     110     42                 4370     1547     323
     Sum         889     439    163                17477     6183    1291



     bravais-lattice index     =            2
     lattice parameter (alat)  =      10.3580  a.u.
     unit-cell volume          =     277.8227 (a.u.)^3
     number of atoms/cell      =            2
     number of atomic types    =            1
     number of electrons       =         8.00
     number of Kohn-Sham states=            4
     kinetic-energy cutoff     =      30.0000  Ry
     charge density cutoff     =     240.0000  Ry
     Exchange-correlation      = SLA  PW   PBE  PBE ( 1  4  3  4 0 0)

     celldm(1)=  10.358000  celldm(2)=   0.000000  celldm(3)=   0.000000
     celldm(4)=   0.000000  celldm(5)=   0.000000  celldm(6)=   0.000000

     crystal axes: (cart. coord. in units of alat)
               a(1) = (  -0.500000   0.000000   0.500000 )  
               a(2) = (   0.000000   0.500000   0.500000 )  
               a(3) = (  -0.500000   0.500000   0.000000 )  

     reciprocal axes: (cart. coord. in units 2 pi/alat)
               b(1) = ( -1.000000 -1.000000  1.000000 )  
               b(2) = (  1.000000  1.000000  1.000000 )  
               b(3) = ( -1.000000  1.000000 -1.000000 )  


     PseudoPot. # 1 for Si read from file:
     /home/s1333534/quantum_espresso/qe-6.1/pseudo/si_pbe_v1.uspp.F.UPF.txt
     MD5 check sum: a056efeee980c13900f22a371efd63c1
     Pseudo is Ultrasoft + core correction, Zval =  4.0
     Generated by new atomic code, or converted to UPF format
     Using radial grid of  899 points,  6 beta functions with: 
                l(1) =   0
                l(2) =   0
                l(3) =   1
                l(4) =   1
                l(5) =   2
                l(6) =   2
     Q(r) pseudized with  8 coefficients,  rinner =    0.900   0.900   0.900
                                                       0.900   0.900

     atomic species   valence    mass     pseudopotential
        Si             4.00    28.08600     Si( 1.00)

     48 Sym. Ops., with inversion, found



   Cartesian axes

     site n.     atom                  positions (alat units)
         1           Si  tau(   1) = (   0.0000000   0.0000000   0.0000000  )
         2           Si  tau(   2) = (   0.2500000   0.2500000   0.2500000  )

     number of k points=    80
                       cart. coord. in units 2pi/alat
        k(    1) = (  -0.1250000   0.1250000   0.1250000), wk =   0.0312500
        k(    2) = (  -0.1250000   0.6250000   0.1250000), wk =   0.0000000
        k(    3) = (  -0.3750000   0.3750000  -0.1250000), wk =   0.0625000
        k(    4) = (  -0.3750000   0.8750000  -0.1250000), wk =   0.0000000
        k(    5) = (   0.3750000  -0.3750000   0.6250000), wk =   0.0625000
        k(    6) = (   0.3750000   0.1250000   0.6250000), wk =   0.0000000
        k(    7) = (   0.1250000  -0.1250000   0.3750000), wk =   0.0625000
        k(    8) = (   0.1250000   0.3750000   0.3750000), wk =   0.0000000
        k(    9) = (  -0.1250000   0.6250000   0.1250000), wk =   0.0312500
        k(   10) = (  -0.1250000   1.1250000   0.1250000), wk =   0.0000000
        k(   11) = (   0.6250000  -0.1250000   0.8750000), wk =   0.0625000
        k(   12) = (   0.6250000   0.3750000   0.8750000), wk =   0.0000000
        k(   13) = (   0.3750000   0.1250000   0.6250000), wk =   0.0625000
        k(   14) = (   0.3750000   0.6250000   0.6250000), wk =   0.0000000
        k(   15) = (  -0.1250000  -0.8750000   0.1250000), wk =   0.0312500
        k(   16) = (  -0.1250000  -0.3750000   0.1250000), wk =   0.0000000
        k(   17) = (  -0.3750000   0.3750000   0.3750000), wk =   0.0312500
        k(   18) = (  -0.3750000   0.8750000   0.3750000), wk =   0.0000000
        k(   19) = (   0.3750000  -0.3750000   1.1250000), wk =   0.0625000
        k(   20) = (   0.3750000   0.1250000   1.1250000), wk =   0.0000000
        k(   21) = (  -0.1250000  -0.1250000   0.1250000), wk =   0.0312500
        k(   22) = (  -0.1250000   0.3750000   0.1250000), wk =   0.0000000
        k(   23) = (   0.1250000  -0.3750000   0.3750000), wk =   0.0625000
        k(   24) = (   0.1250000   0.1250000   0.3750000), wk =   0.0000000
        k(   25) = (   0.3750000  -0.1250000   0.3750000), wk =   0.0312500
        k(   26) = (   0.3750000   0.3750000   0.3750000), wk =   0.0000000
        k(   27) = (   0.3750000   0.1250000   0.3750000), wk =   0.0312500
        k(   28) = (   0.3750000   0.6250000   0.3750000), wk =   0.0000000
        k(   29) = (  -0.6250000   0.3750000  -0.3750000), wk =   0.0625000
        k(   30) = (  -0.6250000   0.8750000  -0.3750000), wk =   0.0000000
        k(   31) = (  -0.3750000   0.6250000  -0.3750000), wk =   0.0312500
        k(   32) = (  -0.3750000   1.1250000  -0.3750000), wk =   0.0000000
        k(   33) = (  -0.3750000  -0.6250000  -0.3750000), wk =   0.0312500
        k(   34) = (  -0.3750000  -0.1250000  -0.3750000), wk =   0.0000000
        k(   35) = (  -0.3750000   0.1250000  -0.1250000), wk =   0.0625000
        k(   36) = (  -0.3750000   0.6250000  -0.1250000), wk =   0.0000000
        k(   37) = (  -0.1250000   0.3750000  -0.1250000), wk =   0.0312500
        k(   38) = (  -0.1250000   0.8750000  -0.1250000), wk =   0.0000000
        k(   39) = (  -0.1250000  -0.3750000  -0.1250000), wk =   0.0312500
        k(   40) = (  -0.1250000   0.1250000  -0.1250000), wk =   0.0000000
        k(   41) = (  -0.1250000  -0.6250000   0.1250000), wk =   0.0312500
        k(   42) = (  -0.1250000  -0.1250000   0.1250000), wk =   0.0000000
        k(   43) = (   0.6250000  -0.1250000  -0.1250000), wk =   0.0625000
        k(   44) = (   0.6250000   0.3750000  -0.1250000), wk =   0.0000000
        k(   45) = (   0.6250000   0.1250000   0.1250000), wk =   0.0625000
        k(   46) = (   0.6250000   0.6250000   0.1250000), wk =   0.0000000
        k(   47) = (  -0.8750000   0.1250000  -0.6250000), wk =   0.0625000
        k(   48) = (  -0.8750000   0.6250000  -0.6250000), wk =   0.0000000
        k(   49) = (  -0.1250000   0.6250000  -0.8750000), wk =   0.0625000
        k(   50) = (  -0.1250000   1.1250000  -0.8750000), wk =   0.0000000
        k(   51) = (  -0.1250000   0.8750000  -0.6250000), wk =   0.0625000
        k(   52) = (  -0.1250000   1.3750000  -0.6250000), wk =   0.0000000
        k(   53) = (  -0.1250000  -0.8750000  -0.6250000), wk =   0.0625000
        k(   54) = (  -0.1250000  -0.3750000  -0.6250000), wk =   0.0000000
        k(   55) = (   0.8750000  -0.6250000   0.1250000), wk =   0.0625000
        k(   56) = (   0.8750000  -0.1250000   0.1250000), wk =   0.0000000
        k(   57) = (  -0.6250000  -0.1250000  -0.3750000), wk =   0.0625000
        k(   58) = (  -0.6250000   0.3750000  -0.3750000), wk =   0.0000000
        k(   59) = (   0.1250000   0.3750000  -0.6250000), wk =   0.0625000
        k(   60) = (   0.1250000   0.8750000  -0.6250000), wk =   0.0000000
        k(   61) = (   0.1250000   0.6250000  -0.3750000), wk =   0.0625000
        k(   62) = (   0.1250000   1.1250000  -0.3750000), wk =   0.0000000
        k(   63) = (   0.1250000  -0.6250000  -0.3750000), wk =   0.0625000
        k(   64) = (   0.1250000  -0.1250000  -0.3750000), wk =   0.0000000
        k(   65) = (   0.6250000  -0.3750000  -0.1250000), wk =   0.0625000
        k(   66) = (   0.6250000   0.1250000  -0.1250000), wk =   0.0000000
        k(   67) = (  -0.1250000   0.8750000   0.1250000), wk =   0.0312500
        k(   68) = (  -0.1250000   1.3750000   0.1250000), wk =   0.0000000
        k(   69) = (  -0.8750000  -0.1250000  -0.1250000), wk =   0.0625000
        k(   70) = (  -0.8750000   0.3750000  -0.1250000), wk =   0.0000000
        k(   71) = (  -0.8750000   0.1250000   0.1250000), wk =   0.0625000
        k(   72) = (  -0.8750000   0.6250000   0.1250000), wk =   0.0000000
        k(   73) = (  -0.3750000  -0.3750000   0.3750000), wk =   0.0312500
        k(   74) = (  -0.3750000   0.1250000   0.3750000), wk =   0.0000000
        k(   75) = (  -1.1250000   0.3750000  -0.3750000), wk =   0.0625000
        k(   76) = (  -1.1250000   0.8750000  -0.3750000), wk =   0.0000000
        k(   77) = (  -0.3750000   1.1250000  -0.3750000), wk =   0.0312500
        k(   78) = (  -0.3750000   1.6250000  -0.3750000), wk =   0.0000000
        k(   79) = (  -0.3750000  -1.1250000  -0.3750000), wk =   0.0312500
        k(   80) = (  -0.3750000  -0.6250000  -0.3750000), wk =   0.0000000

     Dense  grid:    17477 G-vectors     FFT dimensions: (  40,  40,  40)

     Smooth grid:     6183 G-vectors     FFT dimensions: (  25,  25,  25)

     Estimated max dynamical RAM per process >       1.79MB

     Estimated total allocated dynamical RAM >       7.17MB

     The potential is recalculated from file :
     ./_ph0/silicon.10.358.save/charge-density.dat

     Starting wfc are    8 atomic wfcs

     Band Structure Calculation
     Davidson diagonalization with overlap

     ethr =  1.25E-10,  avg # of iterations = 12.2

     total cpu time spent up to now is        3.5 secs

     End of band structure calculation

          k =-0.1250 0.1250 0.1250 (   773 PWs)   bands (ev):

    -5.6638   4.3163   5.6259   5.6259

          k =-0.1250 0.6250 0.1250 (   775 PWs)   bands (ev):

    -4.1152   0.9960   3.3085   3.7578

          k =-0.3750 0.3750-0.1250 (   776 PWs)   bands (ev):

    -4.6443   1.3364   3.6529   5.1478

          k =-0.3750 0.8750-0.1250 (   762 PWs)   bands (ev):

    -2.4887  -0.9546   1.9669   3.0349

          k = 0.3750-0.3750 0.6250 (   773 PWs)   bands (ev):

    -3.5150  -0.7252   3.6702   4.3825

          k = 0.3750 0.1250 0.6250 (   770 PWs)   bands (ev):

    -3.7033   0.1328   2.6699   4.0307

          k = 0.1250-0.1250 0.3750 (   781 PWs)   bands (ev):

    -5.1394   2.7037   4.6259   4.6857

          k = 0.1250 0.3750 0.3750 (   776 PWs)   bands (ev):

    -4.6443   1.3364   3.6529   5.1478

          k =-0.1250 0.6250 0.1250 (   775 PWs)   bands (ev):

    -4.1152   0.9960   3.3085   3.7578

          k =-0.1250 1.1250 0.1250 (   763 PWs)   bands (ev):

    -2.6535  -0.8589   2.5715   3.2938

          k = 0.6250-0.1250 0.8750 (   762 PWs)   bands (ev):

    -2.4887  -0.9546   1.9669   3.0349

          k = 0.6250 0.3750 0.8750 (   770 PWs)   bands (ev):

    -3.7033   0.1328   2.6699   4.0307

          k = 0.3750 0.1250 0.6250 (   770 PWs)   bands (ev):

    -3.7033   0.1328   2.6699   4.0307

          k = 0.3750 0.6250 0.6250 (   773 PWs)   bands (ev):

    -3.5150  -0.7252   3.6702   4.3825

          k =-0.1250-0.8750 0.1250 (   763 PWs)   bands (ev):

    -2.6535  -0.8589   2.5715   3.2938

          k =-0.1250-0.3750 0.1250 (   781 PWs)   bands (ev):

    -5.1394   2.7037   4.6259   4.6857

          k =-0.3750 0.3750 0.3750 (   769 PWs)   bands (ev):

    -4.2151   0.0579   4.8431   4.8431

          k =-0.3750 0.8750 0.3750 (   769 PWs)   bands (ev):

    -3.0225  -0.6483   2.0220   4.0682

          k = 0.3750-0.3750 1.1250 (   769 PWs)   bands (ev):

    -3.0225  -0.6483   2.0220   4.0682

          k = 0.3750 0.1250 1.1250 (   762 PWs)   bands (ev):

    -2.4887  -0.9546   1.9669   3.0349

          k =-0.1250-0.1250 0.1250 (   773 PWs)   bands (ev):

    -5.6638   4.3163   5.6259   5.6259

          k =-0.1250 0.3750 0.1250 (   781 PWs)   bands (ev):

    -5.1394   2.7037   4.6259   4.6857

          k = 0.1250-0.3750 0.3750 (   776 PWs)   bands (ev):

    -4.6443   1.3364   3.6529   5.1478

          k = 0.1250 0.1250 0.3750 (   781 PWs)   bands (ev):

    -5.1394   2.7037   4.6259   4.6857

          k = 0.3750-0.1250 0.3750 (   776 PWs)   bands (ev):

    -4.6443   1.3364   3.6529   5.1478

          k = 0.3750 0.3750 0.3750 (   769 PWs)   bands (ev):

    -4.2151   0.0579   4.8431   4.8431

          k = 0.3750 0.1250 0.3750 (   776 PWs)   bands (ev):

    -4.6443   1.3364   3.6529   5.1478

          k = 0.3750 0.6250 0.3750 (   773 PWs)   bands (ev):

    -3.5150  -0.7252   3.6702   4.3825

          k =-0.6250 0.3750-0.3750 (   773 PWs)   bands (ev):

    -3.5150  -0.7252   3.6702   4.3825

          k =-0.6250 0.8750-0.3750 (   770 PWs)   bands (ev):

    -3.7033   0.1328   2.6699   4.0307

          k =-0.3750 0.6250-0.3750 (   773 PWs)   bands (ev):

    -3.5150  -0.7252   3.6702   4.3825

          k =-0.3750 1.1250-0.3750 (   769 PWs)   bands (ev):

    -3.0225  -0.6483   2.0220   4.0682

          k =-0.3750-0.6250-0.3750 (   773 PWs)   bands (ev):

    -3.5150  -0.7252   3.6702   4.3825

          k =-0.3750-0.1250-0.3750 (   776 PWs)   bands (ev):

    -4.6443   1.3364   3.6529   5.1478

          k =-0.3750 0.1250-0.1250 (   781 PWs)   bands (ev):

    -5.1394   2.7037   4.6259   4.6857

          k =-0.3750 0.6250-0.1250 (   770 PWs)   bands (ev):

    -3.7033   0.1328   2.6699   4.0307

          k =-0.1250 0.3750-0.1250 (   781 PWs)   bands (ev):

    -5.1394   2.7037   4.6259   4.6857

          k =-0.1250 0.8750-0.1250 (   763 PWs)   bands (ev):

    -2.6535  -0.8589   2.5715   3.2938

          k =-0.1250-0.3750-0.1250 (   781 PWs)   bands (ev):

    -5.1394   2.7037   4.6259   4.6857

          k =-0.1250 0.1250-0.1250 (   773 PWs)   bands (ev):

    -5.6638   4.3163   5.6259   5.6259

          k =-0.1250-0.6250 0.1250 (   775 PWs)   bands (ev):

    -4.1152   0.9960   3.3085   3.7578

          k =-0.1250-0.1250 0.1250 (   773 PWs)   bands (ev):

    -5.6638   4.3163   5.6259   5.6259

          k = 0.6250-0.1250-0.1250 (   775 PWs)   bands (ev):

    -4.1152   0.9960   3.3085   3.7578

          k = 0.6250 0.3750-0.1250 (   770 PWs)   bands (ev):

    -3.7033   0.1328   2.6699   4.0307

          k = 0.6250 0.1250 0.1250 (   775 PWs)   bands (ev):

    -4.1152   0.9960   3.3085   3.7578

          k = 0.6250 0.6250 0.1250 (   769 PWs)   bands (ev):

    -3.0225  -0.6483   2.0220   4.0682

          k =-0.8750 0.1250-0.6250 (   762 PWs)   bands (ev):

    -2.4887  -0.9546   1.9669   3.0349

          k =-0.8750 0.6250-0.6250 (   776 PWs)   bands (ev):

    -4.6443   1.3364   3.6529   5.1478

          k =-0.1250 0.6250-0.8750 (   762 PWs)   bands (ev):

    -2.4887  -0.9546   1.9669   3.0349

          k =-0.1250 1.1250-0.8750 (   763 PWs)   bands (ev):

    -2.6535  -0.8589   2.5715   3.2938

          k =-0.1250 0.8750-0.6250 (   762 PWs)   bands (ev):

    -2.4887  -0.9546   1.9669   3.0349

          k =-0.1250 1.3750-0.6250 (   769 PWs)   bands (ev):

    -3.0225  -0.6483   2.0220   4.0682

          k =-0.1250-0.8750-0.6250 (   762 PWs)   bands (ev):

    -2.4887  -0.9546   1.9669   3.0349

          k =-0.1250-0.3750-0.6250 (   770 PWs)   bands (ev):

    -3.7033   0.1328   2.6699   4.0307

          k = 0.8750-0.6250 0.1250 (   762 PWs)   bands (ev):

    -2.4887  -0.9546   1.9669   3.0349

          k = 0.8750-0.1250 0.1250 (   763 PWs)   bands (ev):

    -2.6535  -0.8589   2.5715   3.2938

          k =-0.6250-0.1250-0.3750 (   770 PWs)   bands (ev):

    -3.7033   0.1328   2.6699   4.0307

          k =-0.6250 0.3750-0.3750 (   773 PWs)   bands (ev):

    -3.5150  -0.7252   3.6702   4.3825

          k = 0.1250 0.3750-0.6250 (   770 PWs)   bands (ev):

    -3.7033   0.1328   2.6699   4.0307

          k = 0.1250 0.8750-0.6250 (   762 PWs)   bands (ev):

    -2.4887  -0.9546   1.9669   3.0349

          k = 0.1250 0.6250-0.3750 (   770 PWs)   bands (ev):

    -3.7033   0.1328   2.6699   4.0307

          k = 0.1250 1.1250-0.3750 (   762 PWs)   bands (ev):

    -2.4887  -0.9546   1.9669   3.0349

          k = 0.1250-0.6250-0.3750 (   770 PWs)   bands (ev):

    -3.7033   0.1328   2.6699   4.0307

          k = 0.1250-0.1250-0.3750 (   781 PWs)   bands (ev):

    -5.1394   2.7037   4.6259   4.6857

          k = 0.6250-0.3750-0.1250 (   770 PWs)   bands (ev):

    -3.7033   0.1328   2.6699   4.0307

          k = 0.6250 0.1250-0.1250 (   775 PWs)   bands (ev):

    -4.1152   0.9960   3.3085   3.7578

          k =-0.1250 0.8750 0.1250 (   763 PWs)   bands (ev):

    -2.6535  -0.8589   2.5715   3.2938

          k =-0.1250 1.3750 0.1250 (   775 PWs)   bands (ev):

    -4.1152   0.9960   3.3085   3.7578

          k =-0.8750-0.1250-0.1250 (   763 PWs)   bands (ev):

    -2.6535  -0.8589   2.5715   3.2938

          k =-0.8750 0.3750-0.1250 (   762 PWs)   bands (ev):

    -2.4887  -0.9546   1.9669   3.0349

          k =-0.8750 0.1250 0.1250 (   763 PWs)   bands (ev):

    -2.6535  -0.8589   2.5715   3.2938

          k =-0.8750 0.6250 0.1250 (   762 PWs)   bands (ev):

    -2.4887  -0.9546   1.9669   3.0349

          k =-0.3750-0.3750 0.3750 (   769 PWs)   bands (ev):

    -4.2151   0.0579   4.8431   4.8431

          k =-0.3750 0.1250 0.3750 (   776 PWs)   bands (ev):

    -4.6443   1.3364   3.6529   5.1478

          k =-1.1250 0.3750-0.3750 (   769 PWs)   bands (ev):

    -3.0225  -0.6483   2.0220   4.0682

          k =-1.1250 0.8750-0.3750 (   775 PWs)   bands (ev):

    -4.1152   0.9960   3.3085   3.7578

          k =-0.3750 1.1250-0.3750 (   769 PWs)   bands (ev):

    -3.0225  -0.6483   2.0220   4.0682

          k =-0.3750 1.6250-0.3750 (   769 PWs)   bands (ev):

    -4.2151   0.0579   4.8431   4.8431

          k =-0.3750-1.1250-0.3750 (   769 PWs)   bands (ev):

    -3.0225  -0.6483   2.0220   4.0682

          k =-0.3750-0.6250-0.3750 (   773 PWs)   bands (ev):

    -3.5150  -0.7252   3.6702   4.3825

     highest occupied level (ev):     5.6259

     Writing output data file silicon.10.358.save

                                                                                

     bravais-lattice index     =            2
     lattice parameter (alat)  =      10.3580  a.u.
     unit-cell volume          =     277.8227 (a.u.)^3
     number of atoms/cell      =            2
     number of atomic types    =            1
     kinetic-energy cut-off    =      30.0000  Ry
     charge density cut-off    =     240.0000  Ry
     convergence threshold     =      1.0E-12
     beta                      =       0.7000
     number of iterations used =            4
     Exchange-correlation      = SLA  PW   PBE  PBE ( 1  4  3  4 0 0)


     celldm(1)=   10.35800  celldm(2)=    0.00000  celldm(3)=    0.00000
     celldm(4)=    0.00000  celldm(5)=    0.00000  celldm(6)=    0.00000

     crystal axes: (cart. coord. in units of alat)
               a(1) = ( -0.5000  0.0000  0.5000 )  
               a(2) = (  0.0000  0.5000  0.5000 )  
               a(3) = ( -0.5000  0.5000  0.0000 )  

     reciprocal axes: (cart. coord. in units 2 pi/alat)
               b(1) = ( -1.0000 -1.0000  1.0000 )  
               b(2) = (  1.0000  1.0000  1.0000 )  
               b(3) = ( -1.0000  1.0000 -1.0000 )  


     Atoms inside the unit cell: 

     Cartesian axes

     site n.  atom      mass           positions (alat units)
        1     Si  28.0860   tau(    1) = (    0.00000    0.00000    0.00000  )
        2     Si  28.0860   tau(    2) = (    0.25000    0.25000    0.25000  )

     Computing dynamical matrix for 
                    q = (   0.0000000   0.5000000   0.0000000 )

      8 Sym.Ops. (no q -> -q+G )


     G cutoff =  652.2338  (   4369 G-vectors)     FFT grid: ( 40, 40, 40)
     G cutoff =  326.1169  (   1545 G-vectors)  smooth grid: ( 25, 25, 25)
     number of k points=    80

     PseudoPot. # 1 for Si read from file:
     /home/s1333534/quantum_espresso/qe-6.1/pseudo/si_pbe_v1.uspp.F.UPF.txt
     MD5 check sum: a056efeee980c13900f22a371efd63c1
     Pseudo is Ultrasoft + core correction, Zval =  4.0
     Generated by new atomic code, or converted to UPF format
     Using radial grid of  899 points,  6 beta functions with: 
                l(1) =   0
                l(2) =   0
                l(3) =   1
                l(4) =   1
                l(5) =   2
                l(6) =   2
     Q(r) pseudized with  8 coefficients,  rinner =    0.900   0.900   0.900
                                                       0.900   0.900

     Mode symmetry, C_4v (4mm)  point group:


     Atomic displacements:
     There are   4 irreducible representations

     Representation     1      1 modes -A_1  G_1 D_1  To be done

     Representation     2      1 modes -B_2  G_4 D_2'  To be done

     Representation     3      2 modes -E    G_5 D_5  To be done

     Representation     4      2 modes -E    G_5 D_5  To be done



     Alpha used in Ewald sum =   2.5000
     PHONON       :    40.14s CPU        52.49s WALL



     Representation #  1 mode #   1

     Self-consistent Calculation

      iter #   1 total cpu time :    52.9 secs   av.it.:   6.2
      thresh= 1.000E-02 alpha_mix =  0.700 |ddv_scf|^2 =  3.714E-04

      iter #   2 total cpu time :    53.4 secs   av.it.:   9.5
      thresh= 1.927E-03 alpha_mix =  0.700 |ddv_scf|^2 =  4.947E-03

      iter #   3 total cpu time :    53.8 secs   av.it.:   7.5
      thresh= 7.034E-03 alpha_mix =  0.700 |ddv_scf|^2 =  7.293E-09

      iter #   4 total cpu time :    54.3 secs   av.it.:  10.3
      thresh= 8.540E-06 alpha_mix =  0.700 |ddv_scf|^2 =  7.425E-10

      iter #   5 total cpu time :    54.8 secs   av.it.:   9.8
      thresh= 2.725E-06 alpha_mix =  0.700 |ddv_scf|^2 =  8.006E-11

      iter #   6 total cpu time :    55.3 secs   av.it.:   9.5
      thresh= 8.947E-07 alpha_mix =  0.700 |ddv_scf|^2 =  2.273E-13

     End of self-consistent calculation

     Convergence has been achieved 


     Representation #  2 mode #   2

     Self-consistent Calculation

      iter #   1 total cpu time :    55.8 secs   av.it.:   5.1
      thresh= 1.000E-02 alpha_mix =  0.700 |ddv_scf|^2 =  5.892E-07

      iter #   2 total cpu time :    56.3 secs   av.it.:  10.6
      thresh= 7.676E-05 alpha_mix =  0.700 |ddv_scf|^2 =  1.635E-07

      iter #   3 total cpu time :    56.9 secs   av.it.:  10.2
      thresh= 4.044E-05 alpha_mix =  0.700 |ddv_scf|^2 =  1.676E-09

      iter #   4 total cpu time :    57.4 secs   av.it.:  10.3
      thresh= 4.094E-06 alpha_mix =  0.700 |ddv_scf|^2 =  6.691E-11

      iter #   5 total cpu time :    57.9 secs   av.it.:  10.5
      thresh= 8.180E-07 alpha_mix =  0.700 |ddv_scf|^2 =  3.864E-13

     End of self-consistent calculation

     Convergence has been achieved 


     Representation #  3 modes #   3  4

     Self-consistent Calculation

      iter #   1 total cpu time :    58.6 secs   av.it.:   5.2
      thresh= 1.000E-02 alpha_mix =  0.700 |ddv_scf|^2 =  1.043E-07

      iter #   2 total cpu time :    59.7 secs   av.it.:  11.7
      thresh= 3.230E-05 alpha_mix =  0.700 |ddv_scf|^2 =  1.439E-08

      iter #   3 total cpu time :    60.7 secs   av.it.:  11.3
      thresh= 1.200E-05 alpha_mix =  0.700 |ddv_scf|^2 =  2.424E-10

      iter #   4 total cpu time :    61.5 secs   av.it.:  10.8
      thresh= 1.557E-06 alpha_mix =  0.700 |ddv_scf|^2 =  5.742E-13

     End of self-consistent calculation

     Convergence has been achieved 


     Representation #  4 modes #   5  6

     Self-consistent Calculation

      iter #   1 total cpu time :    62.5 secs   av.it.:   5.3
      thresh= 1.000E-02 alpha_mix =  0.700 |ddv_scf|^2 =  9.561E-08

      iter #   2 total cpu time :    63.5 secs   av.it.:  11.6
      thresh= 3.092E-05 alpha_mix =  0.700 |ddv_scf|^2 =  1.285E-08

      iter #   3 total cpu time :    64.5 secs   av.it.:  11.4
      thresh= 1.134E-05 alpha_mix =  0.700 |ddv_scf|^2 =  2.477E-10

      iter #   4 total cpu time :    65.4 secs   av.it.:  11.1
      thresh= 1.574E-06 alpha_mix =  0.700 |ddv_scf|^2 =  6.135E-13

     End of self-consistent calculation

     Convergence has been achieved 

     Number of q in the star =    6
     List of q in the star:
          1   0.000000000   0.500000000   0.000000000
          2   0.000000000  -0.500000000   0.000000000
          3   0.500000000   0.000000000   0.000000000
          4   0.000000000   0.000000000   0.500000000
          5   0.000000000   0.000000000  -0.500000000
          6  -0.500000000   0.000000000   0.000000000

     Diagonalizing the dynamical matrix

     q = (    0.000000000   0.500000000   0.000000000 ) 

 **************************************************************************
     freq (    1) =       3.784016 [THz] =     126.221178 [cm-1]
     freq (    2) =       3.784016 [THz] =     126.221178 [cm-1]
     freq (    3) =       7.005245 [THz] =     233.669833 [cm-1]
     freq (    4) =      13.696210 [THz] =     456.856380 [cm-1]
     freq (    5) =      13.696210 [THz] =     456.856380 [cm-1]
     freq (    6) =      14.355378 [THz] =     478.843871 [cm-1]
 **************************************************************************

     Mode symmetry, C_4v (4mm)  point group:

     freq (  1 -  2) =        126.2  [cm-1]   --> E    G_5 D_5       
     freq (  3 -  3) =        233.7  [cm-1]   --> A_1  G_1 D_1       
     freq (  4 -  5) =        456.9  [cm-1]   --> E    G_5 D_5       
     freq (  6 -  6) =        478.8  [cm-1]   --> B_2  G_4 D_2'      

     Calculation of q =    0.7500000  -0.2500000   0.7500000

   Info: using nr1, nr2, nr3 values from input

   Info: using nr1, nr2, nr3 values from input

     Parallelization info
     --------------------
     sticks:   dense  smooth     PW     G-vecs:    dense   smooth      PW
     Min         222     109     40                 4369     1545     362
     Max         223     110     41                 4370     1546     366
     Sum         889     439    163                17477     6183    1459



     bravais-lattice index     =            2
     lattice parameter (alat)  =      10.3580  a.u.
     unit-cell volume          =     277.8227 (a.u.)^3
     number of atoms/cell      =            2
     number of atomic types    =            1
     number of electrons       =         8.00
     number of Kohn-Sham states=            4
     kinetic-energy cutoff     =      30.0000  Ry
     charge density cutoff     =     240.0000  Ry
     Exchange-correlation      = SLA  PW   PBE  PBE ( 1  4  3  4 0 0)

     celldm(1)=  10.358000  celldm(2)=   0.000000  celldm(3)=   0.000000
     celldm(4)=   0.000000  celldm(5)=   0.000000  celldm(6)=   0.000000

     crystal axes: (cart. coord. in units of alat)
               a(1) = (  -0.500000   0.000000   0.500000 )  
               a(2) = (   0.000000   0.500000   0.500000 )  
               a(3) = (  -0.500000   0.500000   0.000000 )  

     reciprocal axes: (cart. coord. in units 2 pi/alat)
               b(1) = ( -1.000000 -1.000000  1.000000 )  
               b(2) = (  1.000000  1.000000  1.000000 )  
               b(3) = ( -1.000000  1.000000 -1.000000 )  


     PseudoPot. # 1 for Si read from file:
     /home/s1333534/quantum_espresso/qe-6.1/pseudo/si_pbe_v1.uspp.F.UPF.txt
     MD5 check sum: a056efeee980c13900f22a371efd63c1
     Pseudo is Ultrasoft + core correction, Zval =  4.0
     Generated by new atomic code, or converted to UPF format
     Using radial grid of  899 points,  6 beta functions with: 
                l(1) =   0
                l(2) =   0
                l(3) =   1
                l(4) =   1
                l(5) =   2
                l(6) =   2
     Q(r) pseudized with  8 coefficients,  rinner =    0.900   0.900   0.900
                                                       0.900   0.900

     atomic species   valence    mass     pseudopotential
        Si             4.00    28.08600     Si( 1.00)

     48 Sym. Ops., with inversion, found



   Cartesian axes

     site n.     atom                  positions (alat units)
         1           Si  tau(   1) = (   0.0000000   0.0000000   0.0000000  )
         2           Si  tau(   2) = (   0.2500000   0.2500000   0.2500000  )

     number of k points=   288

     Number of k-points >= 100: set verbosity='high' to print them.

     Dense  grid:    17477 G-vectors     FFT dimensions: (  40,  40,  40)

     Smooth grid:     6183 G-vectors     FFT dimensions: (  25,  25,  25)

     Estimated max dynamical RAM per process >       1.79MB

     Estimated total allocated dynamical RAM >       7.17MB

     The potential is recalculated from file :
     ./_ph0/silicon.10.358.save/charge-density.dat

     Starting wfc are    8 atomic wfcs

     Band Structure Calculation
     Davidson diagonalization with overlap

     ethr =  1.25E-10,  avg # of iterations = 12.1

     total cpu time spent up to now is        6.8 secs

     End of band structure calculation

     Number of k-points >= 100: set verbosity='high' to print the bands.

     highest occupied level (ev):     5.6259

     Writing output data file silicon.10.358.save

                                                                                

     bravais-lattice index     =            2
     lattice parameter (alat)  =      10.3580  a.u.
     unit-cell volume          =     277.8227 (a.u.)^3
     number of atoms/cell      =            2
     number of atomic types    =            1
     kinetic-energy cut-off    =      30.0000  Ry
     charge density cut-off    =     240.0000  Ry
     convergence threshold     =      1.0E-12
     beta                      =       0.7000
     number of iterations used =            4
     Exchange-correlation      = SLA  PW   PBE  PBE ( 1  4  3  4 0 0)


     celldm(1)=   10.35800  celldm(2)=    0.00000  celldm(3)=    0.00000
     celldm(4)=    0.00000  celldm(5)=    0.00000  celldm(6)=    0.00000

     crystal axes: (cart. coord. in units of alat)
               a(1) = ( -0.5000  0.0000  0.5000 )  
               a(2) = (  0.0000  0.5000  0.5000 )  
               a(3) = ( -0.5000  0.5000  0.0000 )  

     reciprocal axes: (cart. coord. in units 2 pi/alat)
               b(1) = ( -1.0000 -1.0000  1.0000 )  
               b(2) = (  1.0000  1.0000  1.0000 )  
               b(3) = ( -1.0000  1.0000 -1.0000 )  


     Atoms inside the unit cell: 

     Cartesian axes

     site n.  atom      mass           positions (alat units)
        1     Si  28.0860   tau(    1) = (    0.00000    0.00000    0.00000  )
        2     Si  28.0860   tau(    2) = (    0.25000    0.25000    0.25000  )

     Computing dynamical matrix for 
                    q = (   0.7500000  -0.2500000   0.7500000 )

      2 Sym.Ops. (no q -> -q+G )


     G cutoff =  652.2338  (   4369 G-vectors)     FFT grid: ( 40, 40, 40)
     G cutoff =  326.1169  (   1546 G-vectors)  smooth grid: ( 25, 25, 25)
     number of k points=   288

     PseudoPot. # 1 for Si read from file:
     /home/s1333534/quantum_espresso/qe-6.1/pseudo/si_pbe_v1.uspp.F.UPF.txt
     MD5 check sum: a056efeee980c13900f22a371efd63c1
     Pseudo is Ultrasoft + core correction, Zval =  4.0
     Generated by new atomic code, or converted to UPF format
     Using radial grid of  899 points,  6 beta functions with: 
                l(1) =   0
                l(2) =   0
                l(3) =   1
                l(4) =   1
                l(5) =   2
                l(6) =   2
     Q(r) pseudized with  8 coefficients,  rinner =    0.900   0.900   0.900
                                                       0.900   0.900

     Mode symmetry, C_s (m)     point group:


     Atomic displacements:
     There are   6 irreducible representations

     Representation     1      1 modes -A'  To be done

     Representation     2      1 modes -A'  To be done

     Representation     3      1 modes -A'  To be done

     Representation     4      1 modes -A'  To be done

     Representation     5      1 modes -A''  To be done

     Representation     6      1 modes -A''  To be done



     Alpha used in Ewald sum =   2.5000
     PHONON       :  0m54.79s CPU     1m10.76s WALL



     Representation #  1 mode #   1

     Self-consistent Calculation

      iter #   1 total cpu time :    71.7 secs   av.it.:   5.6
      thresh= 1.000E-02 alpha_mix =  0.700 |ddv_scf|^2 =  7.581E-06

      iter #   2 total cpu time :    73.1 secs   av.it.:  10.7
      thresh= 2.753E-04 alpha_mix =  0.700 |ddv_scf|^2 =  2.034E-05

      iter #   3 total cpu time :    74.4 secs   av.it.:   9.4
      thresh= 4.510E-04 alpha_mix =  0.700 |ddv_scf|^2 =  1.362E-07

      iter #   4 total cpu time :    75.7 secs   av.it.:  10.1
      thresh= 3.691E-05 alpha_mix =  0.700 |ddv_scf|^2 =  2.739E-09

      iter #   5 total cpu time :    77.2 secs   av.it.:  10.6
      thresh= 5.234E-06 alpha_mix =  0.700 |ddv_scf|^2 =  4.656E-10

      iter #   6 total cpu time :    78.6 secs   av.it.:  10.6
      thresh= 2.158E-06 alpha_mix =  0.700 |ddv_scf|^2 =  7.386E-12

      iter #   7 total cpu time :    79.9 secs   av.it.:  10.7
      thresh= 2.718E-07 alpha_mix =  0.700 |ddv_scf|^2 =  2.836E-13

     End of self-consistent calculation

     Convergence has been achieved 


     Representation #  2 mode #   2

     Self-consistent Calculation

      iter #   1 total cpu time :    81.0 secs   av.it.:   5.8
      thresh= 1.000E-02 alpha_mix =  0.700 |ddv_scf|^2 =  1.355E-05

      iter #   2 total cpu time :    82.6 secs   av.it.:  10.6
      thresh= 3.682E-04 alpha_mix =  0.700 |ddv_scf|^2 =  3.942E-05

      iter #   3 total cpu time :    84.0 secs   av.it.:   9.2
      thresh= 6.279E-04 alpha_mix =  0.700 |ddv_scf|^2 =  9.287E-08

      iter #   4 total cpu time :    85.4 secs   av.it.:  10.4
      thresh= 3.047E-05 alpha_mix =  0.700 |ddv_scf|^2 =  3.100E-09

      iter #   5 total cpu time :    86.8 secs   av.it.:  10.6
      thresh= 5.567E-06 alpha_mix =  0.700 |ddv_scf|^2 =  6.306E-10

      iter #   6 total cpu time :    88.2 secs   av.it.:  10.5
      thresh= 2.511E-06 alpha_mix =  0.700 |ddv_scf|^2 =  6.603E-12

      iter #   7 total cpu time :    89.5 secs   av.it.:  10.7
      thresh= 2.570E-07 alpha_mix =  0.700 |ddv_scf|^2 =  2.374E-13

     End of self-consistent calculation

     Convergence has been achieved 


     Representation #  3 mode #   3

     Self-consistent Calculation

      iter #   1 total cpu time :    90.7 secs   av.it.:   5.7
      thresh= 1.000E-02 alpha_mix =  0.700 |ddv_scf|^2 =  1.062E-05

      iter #   2 total cpu time :    92.0 secs   av.it.:  10.7
      thresh= 3.258E-04 alpha_mix =  0.700 |ddv_scf|^2 =  2.898E-05

      iter #   3 total cpu time :    93.2 secs   av.it.:   9.2
      thresh= 5.383E-04 alpha_mix =  0.700 |ddv_scf|^2 =  1.618E-07

      iter #   4 total cpu time :    94.6 secs   av.it.:  10.1
      thresh= 4.022E-05 alpha_mix =  0.700 |ddv_scf|^2 =  3.158E-09

      iter #   5 total cpu time :    95.9 secs   av.it.:  10.7
      thresh= 5.619E-06 alpha_mix =  0.700 |ddv_scf|^2 =  6.187E-10

      iter #   6 total cpu time :    97.3 secs   av.it.:  10.5
      thresh= 2.487E-06 alpha_mix =  0.700 |ddv_scf|^2 =  4.598E-12

      iter #   7 total cpu time :    98.6 secs   av.it.:  10.7
      thresh= 2.144E-07 alpha_mix =  0.700 |ddv_scf|^2 =  1.356E-13

     End of self-consistent calculation

     Convergence has been achieved 


     Representation #  4 mode #   4

     Self-consistent Calculation

      iter #   1 total cpu time :    99.7 secs   av.it.:   5.5
      thresh= 1.000E-02 alpha_mix =  0.700 |ddv_scf|^2 =  4.639E-06

      iter #   2 total cpu time :   101.1 secs   av.it.:  10.9
      thresh= 2.154E-04 alpha_mix =  0.700 |ddv_scf|^2 =  9.880E-06

      iter #   3 total cpu time :   102.4 secs   av.it.:   9.7
      thresh= 3.143E-04 alpha_mix =  0.700 |ddv_scf|^2 =  2.138E-07

      iter #   4 total cpu time :   103.9 secs   av.it.:  10.0
      thresh= 4.623E-05 alpha_mix =  0.700 |ddv_scf|^2 =  2.706E-09

      iter #   5 total cpu time :   105.3 secs   av.it.:  10.7
      thresh= 5.202E-06 alpha_mix =  0.700 |ddv_scf|^2 =  5.060E-10

      iter #   6 total cpu time :   106.6 secs   av.it.:  10.5
      thresh= 2.250E-06 alpha_mix =  0.700 |ddv_scf|^2 =  3.098E-12

      iter #   7 total cpu time :   107.9 secs   av.it.:  10.8
      thresh= 1.760E-07 alpha_mix =  0.700 |ddv_scf|^2 =  1.446E-13

     End of self-consistent calculation

     Convergence has been achieved 


     Representation #  5 mode #   5

     Self-consistent Calculation

      iter #   1 total cpu time :   109.0 secs   av.it.:   5.2
      thresh= 1.000E-02 alpha_mix =  0.700 |ddv_scf|^2 =  4.820E-07

      iter #   2 total cpu time :   110.3 secs   av.it.:  10.4
      thresh= 6.943E-05 alpha_mix =  0.700 |ddv_scf|^2 =  7.871E-08

      iter #   3 total cpu time :   111.7 secs   av.it.:  10.2
      thresh= 2.806E-05 alpha_mix =  0.700 |ddv_scf|^2 =  1.049E-09

      iter #   4 total cpu time :   113.0 secs   av.it.:   9.8
      thresh= 3.239E-06 alpha_mix =  0.700 |ddv_scf|^2 =  2.471E-12

      iter #   5 total cpu time :   114.2 secs   av.it.:  10.3
      thresh= 1.572E-07 alpha_mix =  0.700 |ddv_scf|^2 =  7.018E-14

     End of self-consistent calculation

     Convergence has been achieved 


     Representation #  6 mode #   6

     Self-consistent Calculation

      iter #   1 total cpu time :   115.3 secs   av.it.:   5.2
      thresh= 1.000E-02 alpha_mix =  0.700 |ddv_scf|^2 =  4.820E-07

      iter #   2 total cpu time :   116.6 secs   av.it.:  10.4
[...]
        k(   59) = (  -0.8750000   0.1250000  -0.1250000), wk =   0.0625000
        k(   60) = (  -1.3750000  -0.8750000  -0.1250000), wk =   0.0000000
        k(   61) = (  -1.1250000   0.3750000  -0.3750000), wk =   0.0625000
        k(   62) = (  -1.6250000  -0.6250000  -0.3750000), wk =   0.0000000
        k(   63) = (  -0.3750000   0.3750000   1.1250000), wk =   0.0625000
        k(   64) = (  -0.8750000  -0.6250000   1.1250000), wk =   0.0000000

     Dense  grid:    17477 G-vectors     FFT dimensions: (  40,  40,  40)

     Smooth grid:     6183 G-vectors     FFT dimensions: (  25,  25,  25)

     Estimated max dynamical RAM per process >       1.79MB

     Estimated total allocated dynamical RAM >       7.17MB

     The potential is recalculated from file :
     ./_ph0/silicon.10.358.save/charge-density.dat

     Starting wfc are    8 atomic wfcs

     Band Structure Calculation
     Davidson diagonalization with overlap

     ethr =  1.25E-10,  avg # of iterations = 12.1

     total cpu time spent up to now is       10.8 secs

     End of band structure calculation

          k =-0.1250 0.1250 0.1250 (   773 PWs)   bands (ev):

    -5.6638   4.3163   5.6259   5.6259

          k =-0.6250-0.8750 0.1250 (   762 PWs)   bands (ev):

    -2.4887  -0.9546   1.9669   3.0349

          k =-0.3750 0.3750-0.1250 (   776 PWs)   bands (ev):

    -4.6443   1.3364   3.6529   5.1478

          k =-0.8750-0.6250-0.1250 (   762 PWs)   bands (ev):

    -2.4887  -0.9546   1.9669   3.0349

          k = 0.3750-0.3750 0.6250 (   773 PWs)   bands (ev):

    -3.5150  -0.7252   3.6702   4.3825

          k =-0.1250-1.3750 0.6250 (   769 PWs)   bands (ev):

    -3.0225  -0.6483   2.0220   4.0682

          k = 0.1250-0.1250 0.3750 (   781 PWs)   bands (ev):

    -5.1394   2.7037   4.6259   4.6857

          k =-0.3750-1.1250 0.3750 (   769 PWs)   bands (ev):

    -3.0225  -0.6483   2.0220   4.0682

          k =-0.1250 0.6250 0.1250 (   775 PWs)   bands (ev):

    -4.1152   0.9960   3.3085   3.7578

          k =-0.6250-0.3750 0.1250 (   770 PWs)   bands (ev):

    -3.7033   0.1328   2.6699   4.0307

          k = 0.6250-0.1250 0.8750 (   762 PWs)   bands (ev):

    -2.4887  -0.9546   1.9669   3.0349

          k = 0.1250-1.1250 0.8750 (   763 PWs)   bands (ev):

    -2.6535  -0.8589   2.5715   3.2938

          k = 0.3750 0.1250 0.6250 (   770 PWs)   bands (ev):

    -3.7033   0.1328   2.6699   4.0307

          k =-0.1250-0.8750 0.6250 (   762 PWs)   bands (ev):

    -2.4887  -0.9546   1.9669   3.0349

          k =-0.1250-0.8750 0.1250 (   763 PWs)   bands (ev):

    -2.6535  -0.8589   2.5715   3.2938

          k =-0.6250-1.8750 0.1250 (   775 PWs)   bands (ev):

    -4.1152   0.9960   3.3085   3.7578

          k =-0.3750 0.3750 0.3750 (   769 PWs)   bands (ev):

    -4.2151   0.0579   4.8431   4.8431

          k =-0.8750-0.6250 0.3750 (   770 PWs)   bands (ev):

    -3.7033   0.1328   2.6699   4.0307

          k = 0.3750-0.3750 1.1250 (   769 PWs)   bands (ev):

    -3.0225  -0.6483   2.0220   4.0682

          k =-0.1250-1.3750 1.1250 (   762 PWs)   bands (ev):

    -2.4887  -0.9546   1.9669   3.0349

          k = 0.1250-0.3750 0.3750 (   776 PWs)   bands (ev):

    -4.6443   1.3364   3.6529   5.1478

          k =-0.3750-1.3750 0.3750 (   773 PWs)   bands (ev):

    -3.5150  -0.7252   3.6702   4.3825

          k = 0.3750-0.3750-0.1250 (   776 PWs)   bands (ev):

    -4.6443   1.3364   3.6529   5.1478

          k =-0.1250-1.3750-0.1250 (   775 PWs)   bands (ev):

    -4.1152   0.9960   3.3085   3.7578

          k =-0.6250 0.3750-0.3750 (   773 PWs)   bands (ev):

    -3.5150  -0.7252   3.6702   4.3825

          k =-1.1250-0.6250-0.3750 (   770 PWs)   bands (ev):

    -3.7033   0.1328   2.6699   4.0307

          k =-0.3750 0.3750 0.6250 (   773 PWs)   bands (ev):

    -3.5150  -0.7252   3.6702   4.3825

          k =-0.8750-0.6250 0.6250 (   776 PWs)   bands (ev):

    -4.6443   1.3364   3.6529   5.1478

          k =-0.3750 0.1250-0.1250 (   781 PWs)   bands (ev):

    -5.1394   2.7037   4.6259   4.6857

          k =-0.8750-0.8750-0.1250 (   763 PWs)   bands (ev):

    -2.6535  -0.8589   2.5715   3.2938

          k =-0.1250 0.1250 0.3750 (   781 PWs)   bands (ev):

    -5.1394   2.7037   4.6259   4.6857

          k =-0.6250-0.8750 0.3750 (   770 PWs)   bands (ev):

    -3.7033   0.1328   2.6699   4.0307

          k = 0.1250 0.6250-0.1250 (   775 PWs)   bands (ev):

    -4.1152   0.9960   3.3085   3.7578

          k =-0.3750-0.3750-0.1250 (   776 PWs)   bands (ev):

    -4.6443   1.3364   3.6529   5.1478

          k = 0.6250 0.1250-0.1250 (   775 PWs)   bands (ev):

    -4.1152   0.9960   3.3085   3.7578

          k = 0.1250-0.8750-0.1250 (   763 PWs)   bands (ev):

    -2.6535  -0.8589   2.5715   3.2938

          k =-0.8750 0.1250-0.6250 (   762 PWs)   bands (ev):

    -2.4887  -0.9546   1.9669   3.0349

          k =-1.3750-0.8750-0.6250 (   776 PWs)   bands (ev):

    -4.6443   1.3364   3.6529   5.1478

          k = 0.8750-0.1250 0.6250 (   762 PWs)   bands (ev):

    -2.4887  -0.9546   1.9669   3.0349

          k = 0.3750-1.1250 0.6250 (   770 PWs)   bands (ev):

    -3.7033   0.1328   2.6699   4.0307

          k =-0.6250 0.1250 0.8750 (   762 PWs)   bands (ev):

    -2.4887  -0.9546   1.9669   3.0349

          k =-1.1250-0.8750 0.8750 (   773 PWs)   bands (ev):

    -5.6638   4.3163   5.6259   5.6259

          k =-0.1250 0.8750 0.6250 (   762 PWs)   bands (ev):

    -2.4887  -0.9546   1.9669   3.0349

          k =-0.6250-0.1250 0.6250 (   769 PWs)   bands (ev):

    -3.0225  -0.6483   2.0220   4.0682

          k = 0.1250 0.8750-0.6250 (   762 PWs)   bands (ev):

    -2.4887  -0.9546   1.9669   3.0349

          k =-0.3750-0.1250-0.6250 (   770 PWs)   bands (ev):

    -3.7033   0.1328   2.6699   4.0307

          k =-0.6250-0.1250-0.3750 (   770 PWs)   bands (ev):

    -3.7033   0.1328   2.6699   4.0307

          k =-1.1250-1.1250-0.3750 (   775 PWs)   bands (ev):

    -4.1152   0.9960   3.3085   3.7578

          k = 0.6250 0.1250 0.3750 (   770 PWs)   bands (ev):

    -3.7033   0.1328   2.6699   4.0307

          k = 0.1250-0.8750 0.3750 (   762 PWs)   bands (ev):

    -2.4887  -0.9546   1.9669   3.0349

          k =-0.3750-0.1250 0.6250 (   770 PWs)   bands (ev):

    -3.7033   0.1328   2.6699   4.0307

          k =-0.8750-1.1250 0.6250 (   781 PWs)   bands (ev):

    -5.1394   2.7037   4.6259   4.6857

          k = 0.1250 0.6250 0.3750 (   770 PWs)   bands (ev):

    -3.7033   0.1328   2.6699   4.0307

          k =-0.3750-0.3750 0.3750 (   769 PWs)   bands (ev):

    -4.2151   0.0579   4.8431   4.8431

          k =-0.1250 0.6250-0.3750 (   770 PWs)   bands (ev):

    -3.7033   0.1328   2.6699   4.0307

          k =-0.6250-0.3750-0.3750 (   773 PWs)   bands (ev):

    -3.5150  -0.7252   3.6702   4.3825

          k = 0.1250-0.8750-0.1250 (   763 PWs)   bands (ev):

    -2.6535  -0.8589   2.5715   3.2938

          k =-0.3750-1.8750-0.1250 (   781 PWs)   bands (ev):

    -5.1394   2.7037   4.6259   4.6857

          k =-0.8750 0.1250-0.1250 (   763 PWs)   bands (ev):

    -2.6535  -0.8589   2.5715   3.2938

          k =-1.3750-0.8750-0.1250 (   762 PWs)   bands (ev):

    -2.4887  -0.9546   1.9669   3.0349

          k =-1.1250 0.3750-0.3750 (   769 PWs)   bands (ev):

    -3.0225  -0.6483   2.0220   4.0682

          k =-1.6250-0.6250-0.3750 (   773 PWs)   bands (ev):

    -3.5150  -0.7252   3.6702   4.3825

          k =-0.3750 0.3750 1.1250 (   769 PWs)   bands (ev):

    -3.0225  -0.6483   2.0220   4.0682

          k =-0.8750-0.6250 1.1250 (   781 PWs)   bands (ev):

    -5.1394   2.7037   4.6259   4.6857

     highest occupied level (ev):     5.6259

     Writing output data file silicon.10.358.save

                                                                                

     bravais-lattice index     =            2
     lattice parameter (alat)  =      10.3580  a.u.
     unit-cell volume          =     277.8227 (a.u.)^3
     number of atoms/cell      =            2
     number of atomic types    =            1
     kinetic-energy cut-off    =      30.0000  Ry
     charge density cut-off    =     240.0000  Ry
     convergence threshold     =      1.0E-12
     beta                      =       0.7000
     number of iterations used =            4
     Exchange-correlation      = SLA  PW   PBE  PBE ( 1  4  3  4 0 0)


     celldm(1)=   10.35800  celldm(2)=    0.00000  celldm(3)=    0.00000
     celldm(4)=    0.00000  celldm(5)=    0.00000  celldm(6)=    0.00000

     crystal axes: (cart. coord. in units of alat)
               a(1) = ( -0.5000  0.0000  0.5000 )  
               a(2) = (  0.0000  0.5000  0.5000 )  
               a(3) = ( -0.5000  0.5000  0.0000 )  

     reciprocal axes: (cart. coord. in units 2 pi/alat)
               b(1) = ( -1.0000 -1.0000  1.0000 )  
               b(2) = (  1.0000  1.0000  1.0000 )  
               b(3) = ( -1.0000  1.0000 -1.0000 )  


     Atoms inside the unit cell: 

     Cartesian axes

     site n.  atom      mass           positions (alat units)
        1     Si  28.0860   tau(    1) = (    0.00000    0.00000    0.00000  )
        2     Si  28.0860   tau(    2) = (    0.25000    0.25000    0.25000  )

     Computing dynamical matrix for 
                    q = (  -0.5000000  -1.0000000   0.0000000 )

      8 Sym.Ops. (no q -> -q+G )


     G cutoff =  652.2338  (   4369 G-vectors)     FFT grid: ( 40, 40, 40)
     G cutoff =  326.1169  (   1546 G-vectors)  smooth grid: ( 25, 25, 25)
     number of k points=    64

     PseudoPot. # 1 for Si read from file:
     /home/s1333534/quantum_espresso/qe-6.1/pseudo/si_pbe_v1.uspp.F.UPF.txt
     MD5 check sum: a056efeee980c13900f22a371efd63c1
     Pseudo is Ultrasoft + core correction, Zval =  4.0
     Generated by new atomic code, or converted to UPF format
     Using radial grid of  899 points,  6 beta functions with: 
                l(1) =   0
                l(2) =   0
                l(3) =   1
                l(4) =   1
                l(5) =   2
                l(6) =   2
     Q(r) pseudized with  8 coefficients,  rinner =    0.900   0.900   0.900
                                                       0.900   0.900


     Atomic displacements:
     There are   3 irreducible representations

     Representation     1      2 modes -  To be done

     Representation     2      2 modes -  To be done

     Representation     3      2 modes -  To be done



     Alpha used in Ewald sum =   2.5000
     PHONON       :  2m 8.69s CPU     2m40.55s WALL



     Representation #  1 modes #   1  2

     Self-consistent Calculation

      iter #   1 total cpu time :   161.3 secs   av.it.:   5.7
      thresh= 1.000E-02 alpha_mix =  0.700 |ddv_scf|^2 =  7.826E-07

      iter #   2 total cpu time :   162.2 secs   av.it.:  11.8
      thresh= 8.846E-05 alpha_mix =  0.700 |ddv_scf|^2 =  4.423E-07

      iter #   3 total cpu time :   163.0 secs   av.it.:  11.3
      thresh= 6.651E-05 alpha_mix =  0.700 |ddv_scf|^2 =  4.276E-10

      iter #   4 total cpu time :   163.8 secs   av.it.:  11.1
      thresh= 2.068E-06 alpha_mix =  0.700 |ddv_scf|^2 =  1.925E-12

      iter #   5 total cpu time :   164.6 secs   av.it.:  11.3
      thresh= 1.387E-07 alpha_mix =  0.700 |ddv_scf|^2 =  5.069E-14

     End of self-consistent calculation

     Convergence has been achieved 


     Representation #  2 modes #   3  4

     Self-consistent Calculation

      iter #   1 total cpu time :   165.4 secs   av.it.:   5.6
      thresh= 1.000E-02 alpha_mix =  0.700 |ddv_scf|^2 =  1.218E-06

      iter #   2 total cpu time :   166.3 secs   av.it.:  11.8
      thresh= 1.103E-04 alpha_mix =  0.700 |ddv_scf|^2 =  1.664E-06

      iter #   3 total cpu time :   167.2 secs   av.it.:  11.0
      thresh= 1.290E-04 alpha_mix =  0.700 |ddv_scf|^2 =  5.109E-10

      iter #   4 total cpu time :   168.0 secs   av.it.:  11.1
      thresh= 2.260E-06 alpha_mix =  0.700 |ddv_scf|^2 =  8.335E-12

      iter #   5 total cpu time :   168.8 secs   av.it.:  11.3
      thresh= 2.887E-07 alpha_mix =  0.700 |ddv_scf|^2 =  1.334E-13

     End of self-consistent calculation

     Convergence has been achieved 


     Representation #  3 modes #   5  6

     Self-consistent Calculation

      iter #   1 total cpu time :   169.6 secs   av.it.:   5.3
      thresh= 1.000E-02 alpha_mix =  0.700 |ddv_scf|^2 =  3.180E-07

      iter #   2 total cpu time :   170.4 secs   av.it.:  11.9
      thresh= 5.640E-05 alpha_mix =  0.700 |ddv_scf|^2 =  1.856E-07

      iter #   3 total cpu time :   171.3 secs   av.it.:  11.3
      thresh= 4.308E-05 alpha_mix =  0.700 |ddv_scf|^2 =  3.702E-10

      iter #   4 total cpu time :   172.2 secs   av.it.:  11.2
      thresh= 1.924E-06 alpha_mix =  0.700 |ddv_scf|^2 =  4.427E-12

      iter #   5 total cpu time :   173.0 secs   av.it.:  11.2
      thresh= 2.104E-07 alpha_mix =  0.700 |ddv_scf|^2 =  6.051E-14

     End of self-consistent calculation

     Convergence has been achieved 

     Number of q in the star =    6
     List of q in the star:
          1  -0.500000000  -1.000000000   0.000000000
          2   0.000000000   1.000000000   0.500000000
          3   0.000000000  -1.000000000  -0.500000000
          4   0.500000000   1.000000000   0.000000000
          5  -1.000000000  -0.500000000   0.000000000
          6   0.000000000  -0.500000000  -1.000000000

     Diagonalizing the dynamical matrix

     q = (   -0.500000000  -1.000000000   0.000000000 ) 

 **************************************************************************
     freq (    1) =       6.037763 [THz] =     201.398088 [cm-1]
     freq (    2) =       6.037763 [THz] =     201.398088 [cm-1]
     freq (    3) =      10.238441 [THz] =     341.517633 [cm-1]
     freq (    4) =      10.238441 [THz] =     341.517633 [cm-1]
     freq (    5) =      13.413144 [THz] =     447.414338 [cm-1]
     freq (    6) =      13.413144 [THz] =     447.414338 [cm-1]
 **************************************************************************

     init_run     :      1.29s CPU      1.35s WALL (       7 calls)
     electrons    :      7.38s CPU      7.94s WALL (       7 calls)

     Called by init_run:
     wfcinit      :      0.00s CPU      0.03s WALL (       7 calls)
     potinit      :      0.10s CPU      0.12s WALL (       7 calls)

     Called by electrons:
     c_bands      :      7.38s CPU      7.94s WALL (       7 calls)
     v_of_rho     :      0.09s CPU      0.09s WALL (       8 calls)
     newd         :      0.13s CPU      0.14s WALL (       8 calls)

     Called by c_bands:
     init_us_2    :      1.63s CPU      1.58s WALL (   15896 calls)
     cegterg      :      6.18s CPU      6.64s WALL (     796 calls)

     Called by sum_band:

     Called by *egterg:
     h_psi        :     70.97s CPU     75.79s WALL (  154737 calls)
     s_psi        :      6.02s CPU      7.08s WALL (  311732 calls)
     g_psi        :      0.05s CPU      0.07s WALL (    9666 calls)
     cdiaghg      :      0.55s CPU      0.55s WALL (   10462 calls)

     Called by h_psi:
     h_psi:pot    :     70.53s CPU     75.27s WALL (  154737 calls)
     h_psi:calbec :      3.44s CPU      4.05s WALL (  154737 calls)
     vloc_psi     :     62.36s CPU     67.03s WALL (  154737 calls)
     add_vuspsi   :      4.35s CPU      3.72s WALL (  154737 calls)

     General routines
     calbec       :      8.16s CPU      8.63s WALL (  346040 calls)
     fft          :      1.87s CPU      1.94s WALL (    5233 calls)
     ffts         :      0.21s CPU      0.23s WALL (    3316 calls)
     fftw         :     64.20s CPU     68.03s WALL ( 1384808 calls)
     interpolate  :      0.27s CPU      0.30s WALL (     568 calls)
     davcio       :      0.34s CPU      1.07s WALL (   69130 calls)

     Parallel routines
     fft_scatter  :     15.73s CPU     20.01s WALL ( 1393357 calls)

     PHONON       :  2m18.45s CPU     2m53.93s WALL

     INITIALIZATION: 
     phq_setup    :      0.30s CPU      0.51s WALL (       8 calls)
     phq_init     :      7.03s CPU      7.49s WALL (       8 calls)

     phq_init     :      7.03s CPU      7.49s WALL (       8 calls)
     set_drhoc    :      1.85s CPU      1.86s WALL (      24 calls)
     init_vloc    :      0.03s CPU      0.03s WALL (       8 calls)
     init_us_1    :      0.98s CPU      0.98s WALL (       8 calls)
     newd         :      0.13s CPU      0.14s WALL (       8 calls)
     dvanqq       :      1.19s CPU      1.20s WALL (       8 calls)
     drho         :      2.65s CPU      2.72s WALL (       8 calls)

     DYNAMICAL MATRIX:
     dynmat0      :      1.75s CPU      1.83s WALL (       8 calls)
     phqscf       :    117.04s CPU    146.08s WALL (       8 calls)
     dynmatrix    :      0.02s CPU      0.32s WALL (       8 calls)

     phqscf       :    117.04s CPU    146.08s WALL (       8 calls)
     solve_linter :    116.16s CPU    142.96s WALL (      32 calls)
     drhodv       :      0.58s CPU      0.60s WALL (      32 calls)

     dynmat0      :      1.75s CPU      1.83s WALL (       8 calls)
     dynmat_us    :      0.38s CPU      0.39s WALL (       8 calls)
     d2ionq       :      0.03s CPU      0.04s WALL (       8 calls)
     dynmatcc     :      1.32s CPU      1.32s WALL (       8 calls)

     dynmat_us    :      0.38s CPU      0.39s WALL (       8 calls)
     addusdynmat  :      0.00s CPU      0.00s WALL (       8 calls)

     phqscf       :    117.04s CPU    146.08s WALL (       8 calls)
     solve_linter :    116.16s CPU    142.96s WALL (      32 calls)

     solve_linter :    116.16s CPU    142.96s WALL (      32 calls)
     dvqpsi_us    :      2.16s CPU      2.30s WALL (    2508 calls)
     ortho        :      0.89s CPU      0.99s WALL (   13486 calls)
     cgsolve      :     78.46s CPU     85.06s WALL (   13486 calls)
     incdrhoscf   :      6.36s CPU      6.94s WALL (   13486 calls)
     addusddens   :      7.15s CPU      7.21s WALL (     200 calls)
     vpsifft      :      4.56s CPU      4.96s WALL (   10858 calls)
     dv_of_drho   :      1.81s CPU      1.85s WALL (     254 calls)
     mix_pot      :      0.39s CPU     10.51s WALL (     173 calls)
     psymdvscf    :      5.89s CPU      5.97s WALL (     168 calls)
     newdq        :      7.85s CPU      7.87s WALL (     173 calls)
     adddvscf     :      0.46s CPU      0.43s WALL (   10978 calls)
     drhodvus     :      0.01s CPU      0.02s WALL (      32 calls)

     dvqpsi_us    :      2.16s CPU      2.30s WALL (    2508 calls)
     dvqpsi_us_on :      0.93s CPU      0.96s WALL (    2508 calls)

     cgsolve      :     78.46s CPU     85.06s WALL (   13486 calls)
     ch_psi       :     77.42s CPU     83.30s WALL (  143479 calls)

     ch_psi       :     77.42s CPU     83.30s WALL (  143479 calls)
     h_psi        :     70.97s CPU     75.79s WALL (  154737 calls)
     last         :      9.11s CPU      9.23s WALL (  143479 calls)

     h_psi        :     70.97s CPU     75.79s WALL (  154737 calls)
     add_vuspsi   :      4.35s CPU      3.72s WALL (  154737 calls)

     incdrhoscf   :      6.36s CPU      6.94s WALL (   13486 calls)
     addusdbec    :      0.47s CPU      0.51s WALL (   15934 calls)

     drhodvus     :      0.01s CPU      0.02s WALL (      32 calls)

      General routines
     calbec       :      8.16s CPU      8.63s WALL (  346040 calls)
     fft          :      1.87s CPU      1.94s WALL (    5233 calls)
     ffts         :      0.21s CPU      0.23s WALL (    3316 calls)
     fftw         :     64.20s CPU     68.03s WALL ( 1384808 calls)
     davcio       :      0.34s CPU      1.07s WALL (   69130 calls)
     write_rec    :      0.23s CPU     11.24s WALL (     205 calls)


     PHONON       :  2m18.45s CPU     2m53.93s WALL


   This run was terminated on:  15:59:13  10Nov2017            

=------------------------------------------------------------------------------=
   JOB DONE.
=------------------------------------------------------------------------------=
