
     Program PHONON v.6.1 (svn rev. 13369) starts on  9Nov2017 at  1:48:39 

     This program is part of the open-source Quantum ESPRESSO suite
     for quantum simulation of materials; please cite
         "P. Giannozzi et al., J. Phys.:Condens. Matter 21 395502 (2009);
          URL http://www.quantum-espresso.org", 
     in publications or presentations arising from this work. More details at
     http://www.quantum-espresso.org/quote

     Parallel version (MPI), running on     4 processors
     R & G space division:  proc/nbgrp/npool/nimage =       4

     Reading data from directory:
     ./silicon.10.50.save

   Info: using nr1, nr2, nr3 values from input

   Info: using nr1, nr2, nr3 values from input

     IMPORTANT: XC functional enforced from input :
     Exchange-correlation      = SLA  PW   PBE  PBE ( 1  4  3  4 0 0)
     Any further DFT definition will be discarded
     Please, verify this is what you really want


     Parallelization info
     --------------------
     sticks:   dense  smooth     PW     G-vecs:    dense   smooth      PW
     Min          67      67     22                  743      743     152
     Max          68      68     23                  744      744     153
     Sum         271     271     91                 2975     2975     609


     Check: negative/imaginary core charge=   -0.000006    0.000000


     Dynamical matrices for ( 4, 4, 4)  uniform grid of q-points
     (   8q-points):
       N         xq(1)         xq(2)         xq(3) 
       1   0.000000000   0.000000000   0.000000000
       2  -0.250000000   0.250000000  -0.250000000
       3   0.500000000  -0.500000000   0.500000000
       4   0.000000000   0.500000000   0.000000000
       5   0.750000000  -0.250000000   0.750000000
       6   0.500000000   0.000000000   0.500000000
       7   0.000000000  -1.000000000   0.000000000
       8  -0.500000000  -1.000000000   0.000000000

     Calculation of q =    0.0000000   0.0000000   0.0000000

                                                                                

     bravais-lattice index     =            2
     lattice parameter (alat)  =      10.5000  a.u.
     unit-cell volume          =     289.4062 (a.u.)^3
     number of atoms/cell      =            2
     number of atomic types    =            1
     kinetic-energy cut-off    =      18.0000  Ry
     charge density cut-off    =      72.0000  Ry
     convergence threshold     =      1.0E-12
     beta                      =       0.7000
     number of iterations used =            4
     Exchange-correlation      = SLA  PW   PBE  PBE ( 1  4  3  4 0 0)


     celldm(1)=   10.50000  celldm(2)=    0.00000  celldm(3)=    0.00000
     celldm(4)=    0.00000  celldm(5)=    0.00000  celldm(6)=    0.00000

     crystal axes: (cart. coord. in units of alat)
               a(1) = ( -0.5000  0.0000  0.5000 )  
               a(2) = (  0.0000  0.5000  0.5000 )  
               a(3) = ( -0.5000  0.5000  0.0000 )  

     reciprocal axes: (cart. coord. in units 2 pi/alat)
               b(1) = ( -1.0000 -1.0000  1.0000 )  
               b(2) = (  1.0000  1.0000  1.0000 )  
               b(3) = ( -1.0000  1.0000 -1.0000 )  


     Atoms inside the unit cell: 

     Cartesian axes

     site n.  atom      mass           positions (alat units)
        1     Si  28.0860   tau(    1) = (    0.00000    0.00000    0.00000  )
        2     Si  28.0860   tau(    2) = (    0.25000    0.25000    0.25000  )

     Computing dynamical matrix for 
                    q = (   0.0000000   0.0000000   0.0000000 )

     49 Sym.Ops. (with q -> -q+G )


     G cutoff =  201.0719  (    744 G-vectors)     FFT grid: ( 24, 24, 24)
     number of k points=    10

     PseudoPot. # 1 for Si read from file:
     /home/max/quantum_espresso/qe-6.1/pseudo/si_pbe_v1.uspp.F.UPF.txt
     MD5 check sum: a056efeee980c13900f22a371efd63c1
     Pseudo is Ultrasoft + core correction, Zval =  4.0
     Generated by new atomic code, or converted to UPF format
     Using radial grid of  899 points,  6 beta functions with: 
                l(1) =   0
                l(2) =   0
                l(3) =   1
                l(4) =   1
                l(5) =   2
                l(6) =   2
     Q(r) pseudized with  8 coefficients,  rinner =    0.900   0.900   0.900
                                                       0.900   0.900

     Mode symmetry, O_h (m-3m)  point group:


     Electric field:
     Dielectric constant
     Born effective charges in two ways 


     Atomic displacements:
     There are   2 irreducible representations

     Representation     1      3 modes -T_2g G_25' G_5+  To be done

     Representation     2      3 modes -T_1u G_15  G_4-  To be done



     Alpha used in Ewald sum =   0.7000
     PHONON       :     0.42s CPU         0.43s WALL


     Electric Fields Calculation

      iter #   1 total cpu time :     1.0 secs   av.it.:   5.6
      thresh= 1.000E-02 alpha_mix =  0.700 |ddv_scf|^2 =  5.745E-07

      iter #   2 total cpu time :     1.3 secs   av.it.:  10.1
      thresh= 7.579E-05 alpha_mix =  0.700 |ddv_scf|^2 =  3.970E-08

      iter #   3 total cpu time :     1.5 secs   av.it.:   9.9
      thresh= 1.992E-05 alpha_mix =  0.700 |ddv_scf|^2 =  3.203E-09

      iter #   4 total cpu time :     1.7 secs   av.it.:   9.3
      thresh= 5.660E-06 alpha_mix =  0.700 |ddv_scf|^2 =  2.339E-11

      iter #   5 total cpu time :     2.0 secs   av.it.:   9.4
      thresh= 4.836E-07 alpha_mix =  0.700 |ddv_scf|^2 =  1.215E-14

     End of electric fields calculation

          Dielectric constant in cartesian axis 

          (      14.276795328       0.000000000       0.000000000 )
          (       0.000000000      14.276795328      -0.000000000 )
          (       0.000000000      -0.000000000      14.276795328 )

          Effective charges (d Force / dE) in cartesian axis

           atom      1   Si 
      Ex  (       -0.02778        0.00000        0.00000 )
      Ey  (        0.00000       -0.02778        0.00000 )
      Ez  (        0.00000        0.00000       -0.02778 )
           atom      2   Si 
      Ex  (       -0.02778       -0.00000        0.00000 )
      Ey  (       -0.00000       -0.02778       -0.00000 )
      Ez  (        0.00000       -0.00000       -0.02778 )


     Representation #  1 modes #   1  2  3

     Self-consistent Calculation

      iter #   1 total cpu time :     2.4 secs   av.it.:   4.9
      thresh= 1.000E-02 alpha_mix =  0.700 |ddv_scf|^2 =  1.212E-07

      iter #   2 total cpu time :     2.7 secs   av.it.:  10.1
      thresh= 3.481E-05 alpha_mix =  0.700 |ddv_scf|^2 =  7.118E-09

      iter #   3 total cpu time :     3.1 secs   av.it.:   9.9
      thresh= 8.437E-06 alpha_mix =  0.700 |ddv_scf|^2 =  4.732E-10

      iter #   4 total cpu time :     3.3 secs   av.it.:   9.3
      thresh= 2.175E-06 alpha_mix =  0.700 |ddv_scf|^2 =  1.102E-12

      iter #   5 total cpu time :     3.6 secs   av.it.:   9.8
      thresh= 1.050E-07 alpha_mix =  0.700 |ddv_scf|^2 =  7.225E-15

     End of self-consistent calculation

     Convergence has been achieved 


     Representation #  2 modes #   4  5  6

     Self-consistent Calculation

      iter #   1 total cpu time :     3.8 secs   av.it.:   5.0
      thresh= 1.000E-02 alpha_mix =  0.700 |ddv_scf|^2 =  1.147E-07

      iter #   2 total cpu time :     4.1 secs   av.it.:   9.9
      thresh= 3.387E-05 alpha_mix =  0.700 |ddv_scf|^2 =  9.546E-09

      iter #   3 total cpu time :     4.3 secs   av.it.:   9.6
      thresh= 9.770E-06 alpha_mix =  0.700 |ddv_scf|^2 =  5.753E-10

      iter #   4 total cpu time :     4.6 secs   av.it.:   9.8
      thresh= 2.398E-06 alpha_mix =  0.700 |ddv_scf|^2 =  3.355E-12

      iter #   5 total cpu time :     4.8 secs   av.it.:   9.3
      thresh= 1.832E-07 alpha_mix =  0.700 |ddv_scf|^2 =  3.734E-15

     End of self-consistent calculation

     Convergence has been achieved 

     Number of q in the star =    1
     List of q in the star:
          1   0.000000000   0.000000000   0.000000000

          Dielectric constant in cartesian axis 

          (      14.276795328       0.000000000       0.000000000 )
          (       0.000000000      14.276795328      -0.000000000 )
          (       0.000000000      -0.000000000      14.276795328 )

          Effective charges (d Force / dE) in cartesian axis

           atom      1   Si 
      Ex  (       -0.02778        0.00000        0.00000 )
      Ey  (        0.00000       -0.02778        0.00000 )
      Ez  (        0.00000        0.00000       -0.02778 )
           atom      2   Si 
      Ex  (       -0.02778       -0.00000        0.00000 )
      Ey  (       -0.00000       -0.02778       -0.00000 )
      Ez  (        0.00000       -0.00000       -0.02778 )

          Effective charges (d P / du) in cartesian axis 

           atom      1   Si 
      Px  (       -0.07046       -0.00000       -0.00000 )
      Py  (       -0.00000       -0.07046        0.00000 )
      Pz  (       -0.00000        0.00000       -0.07046 )
           atom      2   Si 
      Px  (       -0.07046        0.00000       -0.00000 )
      Py  (        0.00000       -0.07046       -0.00000 )
      Pz  (       -0.00000       -0.00000       -0.07046 )

     Diagonalizing the dynamical matrix

     q = (    0.000000000   0.000000000   0.000000000 ) 

 **************************************************************************
     freq (    1) =       0.721601 [THz] =      24.070005 [cm-1]
     freq (    2) =       0.721601 [THz] =      24.070005 [cm-1]
     freq (    3) =       0.721601 [THz] =      24.070005 [cm-1]
     freq (    4) =      14.829102 [THz] =     494.645604 [cm-1]
     freq (    5) =      14.829102 [THz] =     494.645604 [cm-1]
     freq (    6) =      14.829102 [THz] =     494.645604 [cm-1]
 **************************************************************************

     Mode symmetry, O_h (m-3m)  point group:

     freq (  1 -  3) =         24.1  [cm-1]   --> T_1u G_15  G_4- I  
     freq (  4 -  6) =        494.6  [cm-1]   --> T_2g G_25' G_5+ R  

     Calculation of q =   -0.2500000   0.2500000  -0.2500000

   Info: using nr1, nr2, nr3 values from input

   Info: using nr1, nr2, nr3 values from input

     Parallelization info
     --------------------
     sticks:   dense  smooth     PW     G-vecs:    dense   smooth      PW
     Min          67      67     27                  743      743     181
     Max          69      69     28                  744      744     182
     Sum         271     271    109                 2975     2975     725



     bravais-lattice index     =            2
     lattice parameter (alat)  =      10.5000  a.u.
     unit-cell volume          =     289.4062 (a.u.)^3
     number of atoms/cell      =            2
     number of atomic types    =            1
     number of electrons       =         8.00
     number of Kohn-Sham states=            4
     kinetic-energy cutoff     =      18.0000  Ry
     charge density cutoff     =      72.0000  Ry
     Exchange-correlation      = SLA  PW   PBE  PBE ( 1  4  3  4 0 0)

     celldm(1)=  10.500000  celldm(2)=   0.000000  celldm(3)=   0.000000
     celldm(4)=   0.000000  celldm(5)=   0.000000  celldm(6)=   0.000000

     crystal axes: (cart. coord. in units of alat)
               a(1) = (  -0.500000   0.000000   0.500000 )  
               a(2) = (   0.000000   0.500000   0.500000 )  
               a(3) = (  -0.500000   0.500000   0.000000 )  

     reciprocal axes: (cart. coord. in units 2 pi/alat)
               b(1) = ( -1.000000 -1.000000  1.000000 )  
               b(2) = (  1.000000  1.000000  1.000000 )  
               b(3) = ( -1.000000  1.000000 -1.000000 )  


     PseudoPot. # 1 for Si read from file:
     /home/max/quantum_espresso/qe-6.1/pseudo/si_pbe_v1.uspp.F.UPF.txt
     MD5 check sum: a056efeee980c13900f22a371efd63c1
     Pseudo is Ultrasoft + core correction, Zval =  4.0
     Generated by new atomic code, or converted to UPF format
     Using radial grid of  899 points,  6 beta functions with: 
                l(1) =   0
                l(2) =   0
                l(3) =   1
                l(4) =   1
                l(5) =   2
                l(6) =   2
     Q(r) pseudized with  8 coefficients,  rinner =    0.900   0.900   0.900
                                                       0.900   0.900

     atomic species   valence    mass     pseudopotential
        Si             4.00    28.08600     Si( 1.00)

     48 Sym. Ops., with inversion, found



   Cartesian axes

     site n.     atom                  positions (alat units)
         1           Si  tau(   1) = (   0.0000000   0.0000000   0.0000000  )
         2           Si  tau(   2) = (   0.2500000   0.2500000   0.2500000  )

     number of k points=   120

     Number of k-points >= 100: set verbosity='high' to print them.

     Dense  grid:     2975 G-vectors     FFT dimensions: (  24,  24,  24)

     Estimated max dynamical RAM per process >       0.43MB

     Estimated total allocated dynamical RAM >       1.71MB

     Check: negative/imaginary core charge=   -0.000006    0.000000

     The potential is recalculated from file :
     ./_ph0/silicon.10.50.save/charge-density.dat

     Starting wfc are    8 atomic wfcs

     Band Structure Calculation
     Davidson diagonalization with overlap

     ethr =  1.25E-10,  avg # of iterations = 11.7

     total cpu time spent up to now is        0.9 secs

     End of band structure calculation

     Number of k-points >= 100: set verbosity='high' to print the bands.

     highest occupied level (ev):     5.2345

     Writing output data file silicon.10.50.save

                                                                                

     bravais-lattice index     =            2
     lattice parameter (alat)  =      10.5000  a.u.
     unit-cell volume          =     289.4062 (a.u.)^3
     number of atoms/cell      =            2
     number of atomic types    =            1
     kinetic-energy cut-off    =      18.0000  Ry
     charge density cut-off    =      72.0000  Ry
     convergence threshold     =      1.0E-12
     beta                      =       0.7000
     number of iterations used =            4
     Exchange-correlation      = SLA  PW   PBE  PBE ( 1  4  3  4 0 0)


     celldm(1)=   10.50000  celldm(2)=    0.00000  celldm(3)=    0.00000
     celldm(4)=    0.00000  celldm(5)=    0.00000  celldm(6)=    0.00000

     crystal axes: (cart. coord. in units of alat)
               a(1) = ( -0.5000  0.0000  0.5000 )  
               a(2) = (  0.0000  0.5000  0.5000 )  
               a(3) = ( -0.5000  0.5000  0.0000 )  

     reciprocal axes: (cart. coord. in units 2 pi/alat)
               b(1) = ( -1.0000 -1.0000  1.0000 )  
               b(2) = (  1.0000  1.0000  1.0000 )  
               b(3) = ( -1.0000  1.0000 -1.0000 )  


     Atoms inside the unit cell: 

     Cartesian axes

     site n.  atom      mass           positions (alat units)
        1     Si  28.0860   tau(    1) = (    0.00000    0.00000    0.00000  )
        2     Si  28.0860   tau(    2) = (    0.25000    0.25000    0.25000  )

     Computing dynamical matrix for 
                    q = (  -0.2500000   0.2500000  -0.2500000 )

      6 Sym.Ops. (no q -> -q+G )


     G cutoff =  201.0719  (    744 G-vectors)     FFT grid: ( 24, 24, 24)
     number of k points=   120

     PseudoPot. # 1 for Si read from file:
     /home/max/quantum_espresso/qe-6.1/pseudo/si_pbe_v1.uspp.F.UPF.txt
     MD5 check sum: a056efeee980c13900f22a371efd63c1
     Pseudo is Ultrasoft + core correction, Zval =  4.0
     Generated by new atomic code, or converted to UPF format
     Using radial grid of  899 points,  6 beta functions with: 
                l(1) =   0
                l(2) =   0
                l(3) =   1
                l(4) =   1
                l(5) =   2
                l(6) =   2
     Q(r) pseudized with  8 coefficients,  rinner =    0.900   0.900   0.900
                                                       0.900   0.900

     Mode symmetry, C_3v (3m)   point group:


     Atomic displacements:
     There are   4 irreducible representations

     Representation     1      1 modes -A_1  L_1  To be done

     Representation     2      1 modes -A_1  L_1  To be done

     Representation     3      2 modes -E    L_3  To be done

     Representation     4      2 modes -E    L_3  To be done



     Alpha used in Ewald sum =   0.7000
     PHONON       :     6.07s CPU         6.44s WALL



     Representation #  1 mode #   1

     Self-consistent Calculation

      iter #   1 total cpu time :     6.7 secs   av.it.:   5.5
      thresh= 1.000E-02 alpha_mix =  0.700 |ddv_scf|^2 =  1.367E-03

      iter #   2 total cpu time :     7.2 secs   av.it.:   7.8
      thresh= 3.697E-03 alpha_mix =  0.700 |ddv_scf|^2 =  2.105E-02

      iter #   3 total cpu time :     7.5 secs   av.it.:   6.3
      thresh= 1.000E-02 alpha_mix =  0.700 |ddv_scf|^2 =  9.967E-07

      iter #   4 total cpu time :     7.8 secs   av.it.:   8.5
      thresh= 9.984E-05 alpha_mix =  0.700 |ddv_scf|^2 =  7.172E-08

      iter #   5 total cpu time :     8.2 secs   av.it.:   8.4
      thresh= 2.678E-05 alpha_mix =  0.700 |ddv_scf|^2 =  2.808E-09

      iter #   6 total cpu time :     8.5 secs   av.it.:   8.4
      thresh= 5.299E-06 alpha_mix =  0.700 |ddv_scf|^2 =  1.945E-09

      iter #   7 total cpu time :     8.8 secs   av.it.:   6.7
      thresh= 4.410E-06 alpha_mix =  0.700 |ddv_scf|^2 =  5.671E-10

      iter #   8 total cpu time :     9.3 secs   av.it.:   7.4
      thresh= 2.381E-06 alpha_mix =  0.700 |ddv_scf|^2 =  2.032E-12

      iter #   9 total cpu time :     9.6 secs   av.it.:   7.4
      thresh= 1.425E-07 alpha_mix =  0.700 |ddv_scf|^2 =  9.230E-14

     End of self-consistent calculation

     Convergence has been achieved 


     Representation #  2 mode #   2

     Self-consistent Calculation

      iter #   1 total cpu time :     9.9 secs   av.it.:   5.5
      thresh= 1.000E-02 alpha_mix =  0.700 |ddv_scf|^2 =  1.367E-03

      iter #   2 total cpu time :    10.2 secs   av.it.:   7.8
      thresh= 3.697E-03 alpha_mix =  0.700 |ddv_scf|^2 =  2.105E-02

      iter #   3 total cpu time :    10.5 secs   av.it.:   6.3
      thresh= 1.000E-02 alpha_mix =  0.700 |ddv_scf|^2 =  9.967E-07

      iter #   4 total cpu time :    10.8 secs   av.it.:   8.5
      thresh= 9.984E-05 alpha_mix =  0.700 |ddv_scf|^2 =  7.172E-08

      iter #   5 total cpu time :    11.3 secs   av.it.:   8.4
      thresh= 2.678E-05 alpha_mix =  0.700 |ddv_scf|^2 =  2.808E-09

      iter #   6 total cpu time :    11.7 secs   av.it.:   8.4
      thresh= 5.299E-06 alpha_mix =  0.700 |ddv_scf|^2 =  1.945E-09

      iter #   7 total cpu time :    11.9 secs   av.it.:   6.7
      thresh= 4.410E-06 alpha_mix =  0.700 |ddv_scf|^2 =  5.671E-10

      iter #   8 total cpu time :    12.3 secs   av.it.:   7.4
      thresh= 2.381E-06 alpha_mix =  0.700 |ddv_scf|^2 =  2.032E-12

      iter #   9 total cpu time :    12.6 secs   av.it.:   7.4
      thresh= 1.425E-07 alpha_mix =  0.700 |ddv_scf|^2 =  9.230E-14

     End of self-consistent calculation

     Convergence has been achieved 


     Representation #  3 modes #   3  4

     Self-consistent Calculation

      iter #   1 total cpu time :    13.3 secs   av.it.:   4.9
      thresh= 1.000E-02 alpha_mix =  0.700 |ddv_scf|^2 =  3.284E-07

      iter #   2 total cpu time :    14.0 secs   av.it.:   9.9
      thresh= 5.731E-05 alpha_mix =  0.700 |ddv_scf|^2 =  2.481E-08

      iter #   3 total cpu time :    14.8 secs   av.it.:   9.7
      thresh= 1.575E-05 alpha_mix =  0.700 |ddv_scf|^2 =  2.193E-09

      iter #   4 total cpu time :    15.6 secs   av.it.:   9.3
      thresh= 4.682E-06 alpha_mix =  0.700 |ddv_scf|^2 =  6.855E-12

      iter #   5 total cpu time :    16.4 secs   av.it.:   9.6
      thresh= 2.618E-07 alpha_mix =  0.700 |ddv_scf|^2 =  2.952E-13

     End of self-consistent calculation

     Convergence has been achieved 


     Representation #  4 modes #   5  6

     Self-consistent Calculation

      iter #   1 total cpu time :    17.0 secs   av.it.:   5.0
      thresh= 1.000E-02 alpha_mix =  0.700 |ddv_scf|^2 =  3.283E-07

      iter #   2 total cpu time :    17.8 secs   av.it.:   9.9
      thresh= 5.730E-05 alpha_mix =  0.700 |ddv_scf|^2 =  2.478E-08

      iter #   3 total cpu time :    18.6 secs   av.it.:   9.9
      thresh= 1.574E-05 alpha_mix =  0.700 |ddv_scf|^2 =  2.190E-09

      iter #   4 total cpu time :    19.5 secs   av.it.:   9.4
      thresh= 4.679E-06 alpha_mix =  0.700 |ddv_scf|^2 =  6.861E-12

      iter #   5 total cpu time :    20.2 secs   av.it.:   9.7
      thresh= 2.619E-07 alpha_mix =  0.700 |ddv_scf|^2 =  2.955E-13

     End of self-consistent calculation

     Convergence has been achieved 

     Number of q in the star =    8
     List of q in the star:
          1  -0.250000000   0.250000000  -0.250000000
          2   0.250000000  -0.250000000  -0.250000000
          3   0.250000000  -0.250000000   0.250000000
          4   0.250000000   0.250000000   0.250000000
          5  -0.250000000  -0.250000000  -0.250000000
          6  -0.250000000  -0.250000000   0.250000000
          7  -0.250000000   0.250000000   0.250000000
          8   0.250000000   0.250000000  -0.250000000

     Diagonalizing the dynamical matrix

     q = (   -0.250000000   0.250000000  -0.250000000 ) 

 **************************************************************************
     freq (    1) =       2.942103 [THz] =      98.138004 [cm-1]
     freq (    2) =       2.942103 [THz] =      98.138004 [cm-1]
     freq (    3) =       6.290899 [THz] =     209.841806 [cm-1]
     freq (    4) =      13.973790 [THz] =     466.115455 [cm-1]
     freq (    5) =      14.171197 [THz] =     472.700244 [cm-1]
     freq (    6) =      14.171197 [THz] =     472.700244 [cm-1]
 **************************************************************************

     Mode symmetry, C_3v (3m)   point group:

     freq (  1 -  2) =         98.1  [cm-1]   --> E    L_3           
     freq (  3 -  3) =        209.8  [cm-1]   --> A_1  L_1           
     freq (  4 -  4) =        466.1  [cm-1]   --> A_1  L_1           
     freq (  5 -  6) =        472.7  [cm-1]   --> E    L_3           

     Calculation of q =    0.5000000  -0.5000000   0.5000000

   Info: using nr1, nr2, nr3 values from input

   Info: using nr1, nr2, nr3 values from input

     Parallelization info
     --------------------
     sticks:   dense  smooth     PW     G-vecs:    dense   smooth      PW
     Min          67      67     30                  743      743     205
     Max          69      69     31                  744      744     206
     Sum         271     271    121                 2975     2975     821



     bravais-lattice index     =            2
     lattice parameter (alat)  =      10.5000  a.u.
     unit-cell volume          =     289.4062 (a.u.)^3
     number of atoms/cell      =            2
     number of atomic types    =            1
     number of electrons       =         8.00
     number of Kohn-Sham states=            4
     kinetic-energy cutoff     =      18.0000  Ry
     charge density cutoff     =      72.0000  Ry
     Exchange-correlation      = SLA  PW   PBE  PBE ( 1  4  3  4 0 0)

     celldm(1)=  10.500000  celldm(2)=   0.000000  celldm(3)=   0.000000
     celldm(4)=   0.000000  celldm(5)=   0.000000  celldm(6)=   0.000000

     crystal axes: (cart. coord. in units of alat)
               a(1) = (  -0.500000   0.000000   0.500000 )  
               a(2) = (   0.000000   0.500000   0.500000 )  
               a(3) = (  -0.500000   0.500000   0.000000 )  

     reciprocal axes: (cart. coord. in units 2 pi/alat)
               b(1) = ( -1.000000 -1.000000  1.000000 )  
               b(2) = (  1.000000  1.000000  1.000000 )  
               b(3) = ( -1.000000  1.000000 -1.000000 )  


     PseudoPot. # 1 for Si read from file:
     /home/max/quantum_espresso/qe-6.1/pseudo/si_pbe_v1.uspp.F.UPF.txt
     MD5 check sum: a056efeee980c13900f22a371efd63c1
     Pseudo is Ultrasoft + core correction, Zval =  4.0
     Generated by new atomic code, or converted to UPF format
     Using radial grid of  899 points,  6 beta functions with: 
                l(1) =   0
                l(2) =   0
                l(3) =   1
                l(4) =   1
                l(5) =   2
                l(6) =   2
     Q(r) pseudized with  8 coefficients,  rinner =    0.900   0.900   0.900
                                                       0.900   0.900

     atomic species   valence    mass     pseudopotential
        Si             4.00    28.08600     Si( 1.00)

     48 Sym. Ops., with inversion, found



   Cartesian axes

     site n.     atom                  positions (alat units)
         1           Si  tau(   1) = (   0.0000000   0.0000000   0.0000000  )
         2           Si  tau(   2) = (   0.2500000   0.2500000   0.2500000  )

     number of k points=    60
                       cart. coord. in units 2pi/alat
        k(    1) = (  -0.1250000   0.1250000   0.1250000), wk =   0.0468750
        k(    2) = (   0.3750000  -0.3750000   0.6250000), wk =   0.0000000
        k(    3) = (  -0.3750000   0.3750000  -0.1250000), wk =   0.0468750
        k(    4) = (   0.1250000  -0.1250000   0.3750000), wk =   0.0000000
        k(    5) = (   0.3750000  -0.3750000   0.6250000), wk =   0.0468750
        k(    6) = (   0.8750000  -0.8750000   1.1250000), wk =   0.0000000
        k(    7) = (   0.1250000  -0.1250000   0.3750000), wk =   0.0468750
        k(    8) = (   0.6250000  -0.6250000   0.8750000), wk =   0.0000000
        k(    9) = (  -0.1250000   0.6250000   0.1250000), wk =   0.0937500
        k(   10) = (   0.3750000   0.1250000   0.6250000), wk =   0.0000000
        k(   11) = (   0.6250000  -0.1250000   0.8750000), wk =   0.0937500
        k(   12) = (   1.1250000  -0.6250000   1.3750000), wk =   0.0000000
        k(   13) = (   0.3750000   0.1250000   0.6250000), wk =   0.0937500
        k(   14) = (   0.8750000  -0.3750000   1.1250000), wk =   0.0000000
        k(   15) = (  -0.1250000  -0.8750000   0.1250000), wk =   0.0937500
        k(   16) = (   0.3750000  -1.3750000   0.6250000), wk =   0.0000000
        k(   17) = (  -0.3750000   0.3750000   0.3750000), wk =   0.0468750
        k(   18) = (   0.1250000  -0.1250000   0.8750000), wk =   0.0000000
        k(   19) = (   0.3750000  -0.3750000   1.1250000), wk =   0.0468750
        k(   20) = (   0.8750000  -0.8750000   1.6250000), wk =   0.0000000
        k(   21) = (   0.1250000  -0.1250000   0.1250000), wk =   0.0156250
        k(   22) = (   0.6250000  -0.6250000   0.6250000), wk =   0.0000000
        k(   23) = (  -0.3750000  -0.3750000  -0.1250000), wk =   0.0937500
        k(   24) = (   0.1250000  -0.8750000   0.3750000), wk =   0.0000000
        k(   25) = (  -0.1250000  -0.3750000   0.3750000), wk =   0.0468750
        k(   26) = (   0.3750000  -0.8750000   0.8750000), wk =   0.0000000
        k(   27) = (   0.3750000   0.3750000   0.6250000), wk =   0.0937500
        k(   28) = (   0.8750000  -0.1250000   1.1250000), wk =   0.0000000
        k(   29) = (   0.6250000   0.3750000  -0.3750000), wk =   0.0468750
        k(   30) = (   1.1250000  -0.1250000   0.1250000), wk =   0.0000000
        k(   31) = (   0.1250000   0.1250000   0.3750000), wk =   0.0937500
        k(   32) = (   0.6250000  -0.3750000   0.8750000), wk =   0.0000000
        k(   33) = (   0.3750000   0.1250000  -0.1250000), wk =   0.0468750
        k(   34) = (   0.8750000  -0.3750000   0.3750000), wk =   0.0000000
        k(   35) = (  -0.1250000  -0.6250000  -0.1250000), wk =   0.0468750
        k(   36) = (   0.3750000  -1.1250000   0.3750000), wk =   0.0000000
        k(   37) = (   0.1250000  -0.6250000   0.1250000), wk =   0.0468750
        k(   38) = (   0.6250000  -1.1250000   0.6250000), wk =   0.0000000
        k(   39) = (   0.6250000   0.1250000   0.8750000), wk =   0.0937500
        k(   40) = (   1.1250000  -0.3750000   1.3750000), wk =   0.0000000
        k(   41) = (  -0.8750000   0.1250000   0.6250000), wk =   0.0937500
        k(   42) = (  -0.3750000  -0.3750000   1.1250000), wk =   0.0000000
        k(   43) = (   0.8750000   0.1250000  -0.6250000), wk =   0.0937500
        k(   44) = (   1.3750000  -0.3750000  -0.1250000), wk =   0.0000000
        k(   45) = (   0.3750000  -0.1250000   0.6250000), wk =   0.0937500
        k(   46) = (   0.8750000  -0.6250000   1.1250000), wk =   0.0000000
        k(   47) = (  -0.6250000  -0.1250000   0.3750000), wk =   0.0937500
        k(   48) = (  -0.1250000  -0.6250000   0.8750000), wk =   0.0000000
        k(   49) = (   0.6250000  -0.1250000  -0.3750000), wk =   0.0937500
        k(   50) = (   1.1250000  -0.6250000   0.1250000), wk =   0.0000000
        k(   51) = (  -0.1250000   0.8750000  -0.1250000), wk =   0.0468750
        k(   52) = (   0.3750000   0.3750000   0.3750000), wk =   0.0000000
        k(   53) = (   0.1250000   0.8750000   0.1250000), wk =   0.0468750
        k(   54) = (   0.6250000   0.3750000   0.6250000), wk =   0.0000000
        k(   55) = (   0.3750000  -0.3750000   0.3750000), wk =   0.0156250
        k(   56) = (   0.8750000  -0.8750000   0.8750000), wk =   0.0000000
        k(   57) = (   0.3750000   0.3750000   1.1250000), wk =   0.0937500
        k(   58) = (   0.8750000  -0.1250000   1.6250000), wk =   0.0000000
        k(   59) = (   1.1250000   0.3750000  -0.3750000), wk =   0.0468750
        k(   60) = (   1.6250000  -0.1250000   0.1250000), wk =   0.0000000

     Dense  grid:     2975 G-vectors     FFT dimensions: (  24,  24,  24)

     Estimated max dynamical RAM per process >       0.43MB

     Estimated total allocated dynamical RAM >       1.71MB

     Check: negative/imaginary core charge=   -0.000006    0.000000

     The potential is recalculated from file :
     ./_ph0/silicon.10.50.save/charge-density.dat

     Starting wfc are    8 atomic wfcs

     Band Structure Calculation
     Davidson diagonalization with overlap

     ethr =  1.25E-10,  avg # of iterations = 11.7

     total cpu time spent up to now is        1.6 secs

     End of band structure calculation

          k =-0.1250 0.1250 0.1250 (   362 PWs)   bands (ev):

    -5.7985   3.9175   5.2345   5.2345

          k = 0.3750-0.3750 0.6250 (   377 PWs)   bands (ev):

    -3.7479  -0.9631   3.3324   4.0337

          k =-0.3750 0.3750-0.1250 (   370 PWs)   bands (ev):

    -4.8194   1.0067   3.3360   4.7654

          k = 0.1250-0.1250 0.3750 (   366 PWs)   bands (ev):

    -5.2938   2.3221   4.2777   4.3157

          k = 0.3750-0.3750 0.6250 (   377 PWs)   bands (ev):

    -3.7479  -0.9631   3.3324   4.0337

          k = 0.8750-0.8750 1.1250 (   362 PWs)   bands (ev):

    -5.7985   3.9175   5.2345   5.2345

          k = 0.1250-0.1250 0.3750 (   366 PWs)   bands (ev):

    -5.2938   2.3221   4.2777   4.3157

          k = 0.6250-0.6250 0.8750 (   370 PWs)   bands (ev):

    -4.8194   1.0067   3.3360   4.7654

          k =-0.1250 0.6250 0.1250 (   372 PWs)   bands (ev):

    -4.3086   0.6279   3.0139   3.4403

          k = 0.3750 0.1250 0.6250 (   372 PWs)   bands (ev):

    -3.9179  -0.1796   2.3950   3.7053

          k = 0.6250-0.1250 0.8750 (   381 PWs)   bands (ev):

    -2.7563  -1.2628   1.7455   2.7620

          k = 1.1250-0.6250 1.3750 (   370 PWs)   bands (ev):

    -4.8194   1.0067   3.3360   4.7654

          k = 0.3750 0.1250 0.6250 (   372 PWs)   bands (ev):

    -3.9179  -0.1796   2.3950   3.7053

          k = 0.8750-0.3750 1.1250 (   372 PWs)   bands (ev):

    -4.3086   0.6279   3.0139   3.4403

          k =-0.1250-0.8750 0.1250 (   368 PWs)   bands (ev):

    -2.9031  -1.1750   2.3182   2.9919

          k = 0.3750-1.3750 0.6250 (   377 PWs)   bands (ev):

    -3.7479  -0.9631   3.3324   4.0337

          k =-0.3750 0.3750 0.3750 (   362 PWs)   bands (ev):

    -4.4106  -0.2048   4.4730   4.4730

          k = 0.1250-0.1250 0.8750 (   368 PWs)   bands (ev):

    -2.9031  -1.1750   2.3182   2.9919

          k = 0.3750-0.3750 1.1250 (   374 PWs)   bands (ev):

    -3.2726  -0.9339   1.7835   3.7340

          k = 0.8750-0.8750 1.6250 (   372 PWs)   bands (ev):

    -4.3086   0.6279   3.0139   3.4403

          k = 0.1250-0.1250 0.1250 (   362 PWs)   bands (ev):

    -5.7985   3.9175   5.2345   5.2345

          k = 0.6250-0.6250 0.6250 (   362 PWs)   bands (ev):

    -4.4106  -0.2048   4.4730   4.4730

          k =-0.3750-0.3750-0.1250 (   370 PWs)   bands (ev):

    -4.8194   1.0067   3.3360   4.7654

          k = 0.1250-0.8750 0.3750 (   381 PWs)   bands (ev):

    -2.7563  -1.2628   1.7455   2.7620

          k =-0.1250-0.3750 0.3750 (   370 PWs)   bands (ev):

    -4.8194   1.0067   3.3360   4.7654

          k = 0.3750-0.8750 0.8750 (   372 PWs)   bands (ev):

    -4.3086   0.6279   3.0139   3.4403

          k = 0.3750 0.3750 0.6250 (   377 PWs)   bands (ev):

    -3.7479  -0.9631   3.3324   4.0337

          k = 0.8750-0.1250 1.1250 (   368 PWs)   bands (ev):

    -2.9031  -1.1750   2.3182   2.9919

          k = 0.6250 0.3750-0.3750 (   377 PWs)   bands (ev):

    -3.7479  -0.9631   3.3324   4.0337

          k = 1.1250-0.1250 0.1250 (   368 PWs)   bands (ev):

    -2.9031  -1.1750   2.3182   2.9919

          k = 0.1250 0.1250 0.3750 (   366 PWs)   bands (ev):

    -5.2938   2.3221   4.2777   4.3157

          k = 0.6250-0.3750 0.8750 (   372 PWs)   bands (ev):

    -3.9179  -0.1796   2.3950   3.7053

          k = 0.3750 0.1250-0.1250 (   366 PWs)   bands (ev):

    -5.2938   2.3221   4.2777   4.3157

          k = 0.8750-0.3750 0.3750 (   374 PWs)   bands (ev):

    -3.2726  -0.9339   1.7835   3.7340

          k =-0.1250-0.6250-0.1250 (   372 PWs)   bands (ev):

    -4.3086   0.6279   3.0139   3.4403

          k = 0.3750-1.1250 0.3750 (   374 PWs)   bands (ev):

    -3.2726  -0.9339   1.7835   3.7340

          k = 0.1250-0.6250 0.1250 (   372 PWs)   bands (ev):

    -4.3086   0.6279   3.0139   3.4403

          k = 0.6250-1.1250 0.6250 (   370 PWs)   bands (ev):

    -4.8194   1.0067   3.3360   4.7654

          k = 0.6250 0.1250 0.8750 (   381 PWs)   bands (ev):

    -2.7563  -1.2628   1.7455   2.7620

          k = 1.1250-0.3750 1.3750 (   372 PWs)   bands (ev):

    -3.9179  -0.1796   2.3950   3.7053

          k =-0.8750 0.1250 0.6250 (   381 PWs)   bands (ev):

    -2.7563  -1.2628   1.7455   2.7620

          k =-0.3750-0.3750 1.1250 (   374 PWs)   bands (ev):

    -3.2726  -0.9339   1.7835   3.7340

          k = 0.8750 0.1250-0.6250 (   381 PWs)   bands (ev):

    -2.7563  -1.2628   1.7455   2.7620

          k = 1.3750-0.3750-0.1250 (   372 PWs)   bands (ev):

    -3.9179  -0.1796   2.3950   3.7053

          k = 0.3750-0.1250 0.6250 (   372 PWs)   bands (ev):

    -3.9179  -0.1796   2.3950   3.7053

          k = 0.8750-0.6250 1.1250 (   366 PWs)   bands (ev):

    -5.2938   2.3221   4.2777   4.3157

          k =-0.6250-0.1250 0.3750 (   372 PWs)   bands (ev):

    -3.9179  -0.1796   2.3950   3.7053

          k =-0.1250-0.6250 0.8750 (   381 PWs)   bands (ev):

    -2.7563  -1.2628   1.7455   2.7620

          k = 0.6250-0.1250-0.3750 (   372 PWs)   bands (ev):

    -3.9179  -0.1796   2.3950   3.7053

          k = 1.1250-0.6250 0.1250 (   381 PWs)   bands (ev):

    -2.7563  -1.2628   1.7455   2.7620

          k =-0.1250 0.8750-0.1250 (   368 PWs)   bands (ev):

    -2.9031  -1.1750   2.3182   2.9919

          k = 0.3750 0.3750 0.3750 (   362 PWs)   bands (ev):

    -4.4106  -0.2048   4.4730   4.4730

          k = 0.1250 0.8750 0.1250 (   368 PWs)   bands (ev):

    -2.9031  -1.1750   2.3182   2.9919

          k = 0.6250 0.3750 0.6250 (   377 PWs)   bands (ev):

    -3.7479  -0.9631   3.3324   4.0337

          k = 0.3750-0.3750 0.3750 (   362 PWs)   bands (ev):

    -4.4106  -0.2048   4.4730   4.4730

          k = 0.8750-0.8750 0.8750 (   362 PWs)   bands (ev):

    -5.7985   3.9175   5.2345   5.2345

          k = 0.3750 0.3750 1.1250 (   374 PWs)   bands (ev):

    -3.2726  -0.9339   1.7835   3.7340

          k = 0.8750-0.1250 1.6250 (   381 PWs)   bands (ev):

    -2.7563  -1.2628   1.7455   2.7620

          k = 1.1250 0.3750-0.3750 (   374 PWs)   bands (ev):

    -3.2726  -0.9339   1.7835   3.7340

          k = 1.6250-0.1250 0.1250 (   366 PWs)   bands (ev):

    -5.2938   2.3221   4.2777   4.3157

     highest occupied level (ev):     5.2345

     Writing output data file silicon.10.50.save

                                                                                

     bravais-lattice index     =            2
     lattice parameter (alat)  =      10.5000  a.u.
     unit-cell volume          =     289.4062 (a.u.)^3
     number of atoms/cell      =            2
     number of atomic types    =            1
     kinetic-energy cut-off    =      18.0000  Ry
     charge density cut-off    =      72.0000  Ry
     convergence threshold     =      1.0E-12
     beta                      =       0.7000
     number of iterations used =            4
     Exchange-correlation      = SLA  PW   PBE  PBE ( 1  4  3  4 0 0)


     celldm(1)=   10.50000  celldm(2)=    0.00000  celldm(3)=    0.00000
     celldm(4)=    0.00000  celldm(5)=    0.00000  celldm(6)=    0.00000

     crystal axes: (cart. coord. in units of alat)
               a(1) = ( -0.5000  0.0000  0.5000 )  
               a(2) = (  0.0000  0.5000  0.5000 )  
               a(3) = ( -0.5000  0.5000  0.0000 )  

     reciprocal axes: (cart. coord. in units 2 pi/alat)
               b(1) = ( -1.0000 -1.0000  1.0000 )  
               b(2) = (  1.0000  1.0000  1.0000 )  
               b(3) = ( -1.0000  1.0000 -1.0000 )  


     Atoms inside the unit cell: 

     Cartesian axes

     site n.  atom      mass           positions (alat units)
        1     Si  28.0860   tau(    1) = (    0.00000    0.00000    0.00000  )
        2     Si  28.0860   tau(    2) = (    0.25000    0.25000    0.25000  )

     Computing dynamical matrix for 
                    q = (   0.5000000  -0.5000000   0.5000000 )

     13 Sym.Ops. (with q -> -q+G )


     G cutoff =  201.0719  (    744 G-vectors)     FFT grid: ( 24, 24, 24)
     number of k points=    60

     PseudoPot. # 1 for Si read from file:
     /home/max/quantum_espresso/qe-6.1/pseudo/si_pbe_v1.uspp.F.UPF.txt
     MD5 check sum: a056efeee980c13900f22a371efd63c1
     Pseudo is Ultrasoft + core correction, Zval =  4.0
     Generated by new atomic code, or converted to UPF format
     Using radial grid of  899 points,  6 beta functions with: 
                l(1) =   0
                l(2) =   0
                l(3) =   1
                l(4) =   1
                l(5) =   2
                l(6) =   2
     Q(r) pseudized with  8 coefficients,  rinner =    0.900   0.900   0.900
                                                       0.900   0.900


     Atomic displacements:
     There are   4 irreducible representations

     Representation     1      1 modes -  To be done

     Representation     2      1 modes -  To be done

     Representation     3      2 modes -  To be done

     Representation     4      2 modes -  To be done



     Alpha used in Ewald sum =   0.7000
     PHONON       :    19.80s CPU        21.16s WALL



     Representation #  1 mode #   1

     Self-consistent Calculation

      iter #   1 total cpu time :    21.3 secs   av.it.:   4.8
      thresh= 1.000E-02 alpha_mix =  0.700 |ddv_scf|^2 =  1.397E-05

      iter #   2 total cpu time :    21.5 secs   av.it.:   8.6
      thresh= 3.737E-04 alpha_mix =  0.700 |ddv_scf|^2 =  1.296E-05

      iter #   3 total cpu time :    21.7 secs   av.it.:   7.7
      thresh= 3.600E-04 alpha_mix =  0.700 |ddv_scf|^2 =  3.267E-08

      iter #   4 total cpu time :    21.8 secs   av.it.:   7.6
      thresh= 1.807E-05 alpha_mix =  0.700 |ddv_scf|^2 =  7.831E-11

      iter #   5 total cpu time :    22.0 secs   av.it.:   8.1
      thresh= 8.849E-07 alpha_mix =  0.700 |ddv_scf|^2 =  1.937E-12

      iter #   6 total cpu time :    22.2 secs   av.it.:   8.1
      thresh= 1.392E-07 alpha_mix =  0.700 |ddv_scf|^2 =  3.210E-14

     End of self-consistent calculation

     Convergence has been achieved 


     Representation #  2 mode #   2

     Self-consistent Calculation

      iter #   1 total cpu time :    22.4 secs   av.it.:   5.7
      thresh= 1.000E-02 alpha_mix =  0.700 |ddv_scf|^2 =  1.898E-04

      iter #   2 total cpu time :    22.5 secs   av.it.:   8.6
      thresh= 1.378E-03 alpha_mix =  0.700 |ddv_scf|^2 =  5.918E-04

      iter #   3 total cpu time :    22.7 secs   av.it.:   7.5
      thresh= 2.433E-03 alpha_mix =  0.700 |ddv_scf|^2 =  8.237E-08

      iter #   4 total cpu time :    23.0 secs   av.it.:   8.5
      thresh= 2.870E-05 alpha_mix =  0.700 |ddv_scf|^2 =  6.310E-09

      iter #   5 total cpu time :    23.2 secs   av.it.:   8.7
      thresh= 7.944E-06 alpha_mix =  0.700 |ddv_scf|^2 =  7.411E-11

      iter #   6 total cpu time :    23.4 secs   av.it.:   8.6
      thresh= 8.609E-07 alpha_mix =  0.700 |ddv_scf|^2 =  1.438E-12

      iter #   7 total cpu time :    23.6 secs   av.it.:   8.0
      thresh= 1.199E-07 alpha_mix =  0.700 |ddv_scf|^2 =  3.412E-15

     End of self-consistent calculation

     Convergence has been achieved 


     Representation #  3 modes #   3  4

     Self-consistent Calculation

      iter #   1 total cpu time :    23.9 secs   av.it.:   4.7
      thresh= 1.000E-02 alpha_mix =  0.700 |ddv_scf|^2 =  2.084E-07

      iter #   2 total cpu time :    24.3 secs   av.it.:   9.2
      thresh= 4.565E-05 alpha_mix =  0.700 |ddv_scf|^2 =  1.816E-08

      iter #   3 total cpu time :    24.6 secs   av.it.:   8.7
      thresh= 1.348E-05 alpha_mix =  0.700 |ddv_scf|^2 =  3.052E-10

      iter #   4 total cpu time :    25.2 secs   av.it.:   9.2
      thresh= 1.747E-06 alpha_mix =  0.700 |ddv_scf|^2 =  3.786E-12

      iter #   5 total cpu time :    25.6 secs   av.it.:   9.1
      thresh= 1.946E-07 alpha_mix =  0.700 |ddv_scf|^2 =  2.119E-14

     End of self-consistent calculation

     Convergence has been achieved 


     Representation #  4 modes #   5  6

     Self-consistent Calculation

      iter #   1 total cpu time :    25.8 secs   av.it.:   4.9
      thresh= 1.000E-02 alpha_mix =  0.700 |ddv_scf|^2 =  5.339E-07

      iter #   2 total cpu time :    26.2 secs   av.it.:   9.9
      thresh= 7.307E-05 alpha_mix =  0.700 |ddv_scf|^2 =  4.175E-08

      iter #   3 total cpu time :    26.6 secs   av.it.:   9.8
      thresh= 2.043E-05 alpha_mix =  0.700 |ddv_scf|^2 =  2.434E-09

      iter #   4 total cpu time :    27.2 secs   av.it.:   9.0
      thresh= 4.934E-06 alpha_mix =  0.700 |ddv_scf|^2 =  3.891E-12

      iter #   5 total cpu time :    27.6 secs   av.it.:   9.1
      thresh= 1.973E-07 alpha_mix =  0.700 |ddv_scf|^2 =  1.570E-14

     End of self-consistent calculation

     Convergence has been achieved 

     Number of q in the star =    4
     List of q in the star:
          1   0.500000000  -0.500000000   0.500000000
          2   0.500000000   0.500000000   0.500000000
          3  -0.500000000   0.500000000   0.500000000
          4   0.500000000   0.500000000  -0.500000000

     Diagonalizing the dynamical matrix

     q = (    0.500000000  -0.500000000   0.500000000 ) 

 **************************************************************************
     freq (    1) =       4.599161 [THz] =     153.411490 [cm-1]
     freq (    2) =       4.599161 [THz] =     153.411490 [cm-1]
     freq (    3) =      11.322135 [THz] =     377.665787 [cm-1]
     freq (    4) =      11.577710 [THz] =     386.190851 [cm-1]
     freq (    5) =      14.064658 [THz] =     469.146504 [cm-1]
     freq (    6) =      14.064658 [THz] =     469.146504 [cm-1]
 **************************************************************************

     Calculation of q =    0.0000000   0.5000000   0.0000000

   Info: using nr1, nr2, nr3 values from input

   Info: using nr1, nr2, nr3 values from input

     Parallelization info
     --------------------
     sticks:   dense  smooth     PW     G-vecs:    dense   smooth      PW
     Min          67      67     27                  743      743     181
     Max          69      69     28                  744      744     182
     Sum         271     271    109                 2975     2975     725



     bravais-lattice index     =            2
     lattice parameter (alat)  =      10.5000  a.u.
     unit-cell volume          =     289.4062 (a.u.)^3
     number of atoms/cell      =            2
     number of atomic types    =            1
     number of electrons       =         8.00
     number of Kohn-Sham states=            4
     kinetic-energy cutoff     =      18.0000  Ry
     charge density cutoff     =      72.0000  Ry
     Exchange-correlation      = SLA  PW   PBE  PBE ( 1  4  3  4 0 0)

     celldm(1)=  10.500000  celldm(2)=   0.000000  celldm(3)=   0.000000
     celldm(4)=   0.000000  celldm(5)=   0.000000  celldm(6)=   0.000000

     crystal axes: (cart. coord. in units of alat)
               a(1) = (  -0.500000   0.000000   0.500000 )  
               a(2) = (   0.000000   0.500000   0.500000 )  
               a(3) = (  -0.500000   0.500000   0.000000 )  

     reciprocal axes: (cart. coord. in units 2 pi/alat)
               b(1) = ( -1.000000 -1.000000  1.000000 )  
               b(2) = (  1.000000  1.000000  1.000000 )  
               b(3) = ( -1.000000  1.000000 -1.000000 )  


     PseudoPot. # 1 for Si read from file:
     /home/max/quantum_espresso/qe-6.1/pseudo/si_pbe_v1.uspp.F.UPF.txt
     MD5 check sum: a056efeee980c13900f22a371efd63c1
     Pseudo is Ultrasoft + core correction, Zval =  4.0
     Generated by new atomic code, or converted to UPF format
     Using radial grid of  899 points,  6 beta functions with: 
                l(1) =   0
                l(2) =   0
                l(3) =   1
                l(4) =   1
                l(5) =   2
                l(6) =   2
     Q(r) pseudized with  8 coefficients,  rinner =    0.900   0.900   0.900
                                                       0.900   0.900

     atomic species   valence    mass     pseudopotential
        Si             4.00    28.08600     Si( 1.00)

     48 Sym. Ops., with inversion, found



   Cartesian axes

     site n.     atom                  positions (alat units)
         1           Si  tau(   1) = (   0.0000000   0.0000000   0.0000000  )
         2           Si  tau(   2) = (   0.2500000   0.2500000   0.2500000  )

     number of k points=    80
                       cart. coord. in units 2pi/alat
        k(    1) = (  -0.1250000   0.1250000   0.1250000), wk =   0.0312500
        k(    2) = (  -0.1250000   0.6250000   0.1250000), wk =   0.0000000
        k(    3) = (  -0.3750000   0.3750000  -0.1250000), wk =   0.0625000
        k(    4) = (  -0.3750000   0.8750000  -0.1250000), wk =   0.0000000
        k(    5) = (   0.3750000  -0.3750000   0.6250000), wk =   0.0625000
        k(    6) = (   0.3750000   0.1250000   0.6250000), wk =   0.0000000
        k(    7) = (   0.1250000  -0.1250000   0.3750000), wk =   0.0625000
        k(    8) = (   0.1250000   0.3750000   0.3750000), wk =   0.0000000
        k(    9) = (  -0.1250000   0.6250000   0.1250000), wk =   0.0312500
        k(   10) = (  -0.1250000   1.1250000   0.1250000), wk =   0.0000000
        k(   11) = (   0.6250000  -0.1250000   0.8750000), wk =   0.0625000
        k(   12) = (   0.6250000   0.3750000   0.8750000), wk =   0.0000000
        k(   13) = (   0.3750000   0.1250000   0.6250000), wk =   0.0625000
        k(   14) = (   0.3750000   0.6250000   0.6250000), wk =   0.0000000
        k(   15) = (  -0.1250000  -0.8750000   0.1250000), wk =   0.0312500
        k(   16) = (  -0.1250000  -0.3750000   0.1250000), wk =   0.0000000
        k(   17) = (  -0.3750000   0.3750000   0.3750000), wk =   0.0312500
        k(   18) = (  -0.3750000   0.8750000   0.3750000), wk =   0.0000000
        k(   19) = (   0.3750000  -0.3750000   1.1250000), wk =   0.0625000
        k(   20) = (   0.3750000   0.1250000   1.1250000), wk =   0.0000000
        k(   21) = (  -0.1250000  -0.1250000   0.1250000), wk =   0.0312500
        k(   22) = (  -0.1250000   0.3750000   0.1250000), wk =   0.0000000
        k(   23) = (   0.1250000  -0.3750000   0.3750000), wk =   0.0625000
        k(   24) = (   0.1250000   0.1250000   0.3750000), wk =   0.0000000
        k(   25) = (   0.3750000  -0.1250000   0.3750000), wk =   0.0312500
        k(   26) = (   0.3750000   0.3750000   0.3750000), wk =   0.0000000
        k(   27) = (   0.3750000   0.1250000   0.3750000), wk =   0.0312500
        k(   28) = (   0.3750000   0.6250000   0.3750000), wk =   0.0000000
        k(   29) = (  -0.6250000   0.3750000  -0.3750000), wk =   0.0625000
        k(   30) = (  -0.6250000   0.8750000  -0.3750000), wk =   0.0000000
        k(   31) = (  -0.3750000   0.6250000  -0.3750000), wk =   0.0312500
        k(   32) = (  -0.3750000   1.1250000  -0.3750000), wk =   0.0000000
        k(   33) = (  -0.3750000  -0.6250000  -0.3750000), wk =   0.0312500
        k(   34) = (  -0.3750000  -0.1250000  -0.3750000), wk =   0.0000000
        k(   35) = (  -0.3750000   0.1250000  -0.1250000), wk =   0.0625000
        k(   36) = (  -0.3750000   0.6250000  -0.1250000), wk =   0.0000000
        k(   37) = (  -0.1250000   0.3750000  -0.1250000), wk =   0.0312500
        k(   38) = (  -0.1250000   0.8750000  -0.1250000), wk =   0.0000000
        k(   39) = (  -0.1250000  -0.3750000  -0.1250000), wk =   0.0312500
        k(   40) = (  -0.1250000   0.1250000  -0.1250000), wk =   0.0000000
        k(   41) = (  -0.1250000  -0.6250000   0.1250000), wk =   0.0312500
        k(   42) = (  -0.1250000  -0.1250000   0.1250000), wk =   0.0000000
        k(   43) = (   0.6250000  -0.1250000  -0.1250000), wk =   0.0625000
        k(   44) = (   0.6250000   0.3750000  -0.1250000), wk =   0.0000000
        k(   45) = (   0.6250000   0.1250000   0.1250000), wk =   0.0625000
        k(   46) = (   0.6250000   0.6250000   0.1250000), wk =   0.0000000
        k(   47) = (  -0.8750000   0.1250000  -0.6250000), wk =   0.0625000
        k(   48) = (  -0.8750000   0.6250000  -0.6250000), wk =   0.0000000
        k(   49) = (  -0.1250000   0.6250000  -0.8750000), wk =   0.0625000
        k(   50) = (  -0.1250000   1.1250000  -0.8750000), wk =   0.0000000
        k(   51) = (  -0.1250000   0.8750000  -0.6250000), wk =   0.0625000
        k(   52) = (  -0.1250000   1.3750000  -0.6250000), wk =   0.0000000
        k(   53) = (  -0.1250000  -0.8750000  -0.6250000), wk =   0.0625000
        k(   54) = (  -0.1250000  -0.3750000  -0.6250000), wk =   0.0000000
        k(   55) = (   0.8750000  -0.6250000   0.1250000), wk =   0.0625000
        k(   56) = (   0.8750000  -0.1250000   0.1250000), wk =   0.0000000
        k(   57) = (  -0.6250000  -0.1250000  -0.3750000), wk =   0.0625000
        k(   58) = (  -0.6250000   0.3750000  -0.3750000), wk =   0.0000000
        k(   59) = (   0.1250000   0.3750000  -0.6250000), wk =   0.0625000
        k(   60) = (   0.1250000   0.8750000  -0.6250000), wk =   0.0000000
        k(   61) = (   0.1250000   0.6250000  -0.3750000), wk =   0.0625000
        k(   62) = (   0.1250000   1.1250000  -0.3750000), wk =   0.0000000
        k(   63) = (   0.1250000  -0.6250000  -0.3750000), wk =   0.0625000
        k(   64) = (   0.1250000  -0.1250000  -0.3750000), wk =   0.0000000
        k(   65) = (   0.6250000  -0.3750000  -0.1250000), wk =   0.0625000
        k(   66) = (   0.6250000   0.1250000  -0.1250000), wk =   0.0000000
        k(   67) = (  -0.1250000   0.8750000   0.1250000), wk =   0.0312500
        k(   68) = (  -0.1250000   1.3750000   0.1250000), wk =   0.0000000
        k(   69) = (  -0.8750000  -0.1250000  -0.1250000), wk =   0.0625000
        k(   70) = (  -0.8750000   0.3750000  -0.1250000), wk =   0.0000000
        k(   71) = (  -0.8750000   0.1250000   0.1250000), wk =   0.0625000
        k(   72) = (  -0.8750000   0.6250000   0.1250000), wk =   0.0000000
        k(   73) = (  -0.3750000  -0.3750000   0.3750000), wk =   0.0312500
        k(   74) = (  -0.3750000   0.1250000   0.3750000), wk =   0.0000000
        k(   75) = (  -1.1250000   0.3750000  -0.3750000), wk =   0.0625000
        k(   76) = (  -1.1250000   0.8750000  -0.3750000), wk =   0.0000000
        k(   77) = (  -0.3750000   1.1250000  -0.3750000), wk =   0.0312500
        k(   78) = (  -0.3750000   1.6250000  -0.3750000), wk =   0.0000000
        k(   79) = (  -0.3750000  -1.1250000  -0.3750000), wk =   0.0312500
        k(   80) = (  -0.3750000  -0.6250000  -0.3750000), wk =   0.0000000

     Dense  grid:     2975 G-vectors     FFT dimensions: (  24,  24,  24)

     Estimated max dynamical RAM per process >       0.43MB

     Estimated total allocated dynamical RAM >       1.71MB

     Check: negative/imaginary core charge=   -0.000006    0.000000

     The potential is recalculated from file :
     ./_ph0/silicon.10.50.save/charge-density.dat

     Starting wfc are    8 atomic wfcs

     Band Structure Calculation
     Davidson diagonalization with overlap

     ethr =  1.25E-10,  avg # of iterations = 11.7

     total cpu time spent up to now is        2.3 secs

     End of band structure calculation

          k =-0.1250 0.1250 0.1250 (   362 PWs)   bands (ev):

    -5.7985   3.9175   5.2345   5.2345

          k =-0.1250 0.6250 0.1250 (   372 PWs)   bands (ev):

    -4.3086   0.6279   3.0139   3.4403

          k =-0.3750 0.3750-0.1250 (   370 PWs)   bands (ev):

    -4.8194   1.0067   3.3360   4.7654

          k =-0.3750 0.8750-0.1250 (   381 PWs)   bands (ev):

    -2.7563  -1.2628   1.7455   2.7620

          k = 0.3750-0.3750 0.6250 (   377 PWs)   bands (ev):

    -3.7479  -0.9631   3.3324   4.0337

          k = 0.3750 0.1250 0.6250 (   372 PWs)   bands (ev):

    -3.9179  -0.1796   2.3950   3.7053

          k = 0.1250-0.1250 0.3750 (   366 PWs)   bands (ev):

    -5.2938   2.3221   4.2777   4.3157

          k = 0.1250 0.3750 0.3750 (   370 PWs)   bands (ev):

    -4.8194   1.0067   3.3360   4.7654

          k =-0.1250 0.6250 0.1250 (   372 PWs)   bands (ev):

    -4.3086   0.6279   3.0139   3.4403

          k =-0.1250 1.1250 0.1250 (   368 PWs)   bands (ev):

    -2.9031  -1.1750   2.3182   2.9919

          k = 0.6250-0.1250 0.8750 (   381 PWs)   bands (ev):

    -2.7563  -1.2628   1.7455   2.7620

          k = 0.6250 0.3750 0.8750 (   372 PWs)   bands (ev):

    -3.9179  -0.1796   2.3950   3.7053

          k = 0.3750 0.1250 0.6250 (   372 PWs)   bands (ev):

    -3.9179  -0.1796   2.3950   3.7053

          k = 0.3750 0.6250 0.6250 (   377 PWs)   bands (ev):

    -3.7479  -0.9631   3.3324   4.0337

          k =-0.1250-0.8750 0.1250 (   368 PWs)   bands (ev):

    -2.9031  -1.1750   2.3182   2.9919

          k =-0.1250-0.3750 0.1250 (   366 PWs)   bands (ev):

    -5.2938   2.3221   4.2777   4.3157

          k =-0.3750 0.3750 0.3750 (   362 PWs)   bands (ev):

    -4.4106  -0.2048   4.4730   4.4730

          k =-0.3750 0.8750 0.3750 (   374 PWs)   bands (ev):

    -3.2726  -0.9339   1.7835   3.7340

          k = 0.3750-0.3750 1.1250 (   374 PWs)   bands (ev):

    -3.2726  -0.9339   1.7835   3.7340

          k = 0.3750 0.1250 1.1250 (   381 PWs)   bands (ev):

    -2.7563  -1.2628   1.7455   2.7620

          k =-0.1250-0.1250 0.1250 (   362 PWs)   bands (ev):

    -5.7985   3.9175   5.2345   5.2345

          k =-0.1250 0.3750 0.1250 (   366 PWs)   bands (ev):

    -5.2938   2.3221   4.2777   4.3157

          k = 0.1250-0.3750 0.3750 (   370 PWs)   bands (ev):

    -4.8194   1.0067   3.3360   4.7654

          k = 0.1250 0.1250 0.3750 (   366 PWs)   bands (ev):

    -5.2938   2.3221   4.2777   4.3157

          k = 0.3750-0.1250 0.3750 (   370 PWs)   bands (ev):

    -4.8194   1.0067   3.3360   4.7654

          k = 0.3750 0.3750 0.3750 (   362 PWs)   bands (ev):

    -4.4106  -0.2048   4.4730   4.4730

          k = 0.3750 0.1250 0.3750 (   370 PWs)   bands (ev):

    -4.8194   1.0067   3.3360   4.7654

          k = 0.3750 0.6250 0.3750 (   377 PWs)   bands (ev):

    -3.7479  -0.9631   3.3324   4.0337

          k =-0.6250 0.3750-0.3750 (   377 PWs)   bands (ev):

    -3.7479  -0.9631   3.3324   4.0337

          k =-0.6250 0.8750-0.3750 (   372 PWs)   bands (ev):

    -3.9179  -0.1796   2.3950   3.7053

          k =-0.3750 0.6250-0.3750 (   377 PWs)   bands (ev):

    -3.7479  -0.9631   3.3324   4.0337

          k =-0.3750 1.1250-0.3750 (   374 PWs)   bands (ev):

    -3.2726  -0.9339   1.7835   3.7340

          k =-0.3750-0.6250-0.3750 (   377 PWs)   bands (ev):

    -3.7479  -0.9631   3.3324   4.0337

          k =-0.3750-0.1250-0.3750 (   370 PWs)   bands (ev):

    -4.8194   1.0067   3.3360   4.7654

          k =-0.3750 0.1250-0.1250 (   366 PWs)   bands (ev):

    -5.2938   2.3221   4.2777   4.3157

          k =-0.3750 0.6250-0.1250 (   372 PWs)   bands (ev):

    -3.9179  -0.1796   2.3950   3.7053

          k =-0.1250 0.3750-0.1250 (   366 PWs)   bands (ev):

    -5.2938   2.3221   4.2777   4.3157

          k =-0.1250 0.8750-0.1250 (   368 PWs)   bands (ev):

    -2.9031  -1.1750   2.3182   2.9919

          k =-0.1250-0.3750-0.1250 (   366 PWs)   bands (ev):

    -5.2938   2.3221   4.2777   4.3157

          k =-0.1250 0.1250-0.1250 (   362 PWs)   bands (ev):

    -5.7985   3.9175   5.2345   5.2345

          k =-0.1250-0.6250 0.1250 (   372 PWs)   bands (ev):

    -4.3086   0.6279   3.0139   3.4403

          k =-0.1250-0.1250 0.1250 (   362 PWs)   bands (ev):

    -5.7985   3.9175   5.2345   5.2345

          k = 0.6250-0.1250-0.1250 (   372 PWs)   bands (ev):

    -4.3086   0.6279   3.0139   3.4403

          k = 0.6250 0.3750-0.1250 (   372 PWs)   bands (ev):

    -3.9179  -0.1796   2.3950   3.7053

          k = 0.6250 0.1250 0.1250 (   372 PWs)   bands (ev):

    -4.3086   0.6279   3.0139   3.4403

          k = 0.6250 0.6250 0.1250 (   374 PWs)   bands (ev):

    -3.2726  -0.9339   1.7835   3.7340

          k =-0.8750 0.1250-0.6250 (   381 PWs)   bands (ev):

    -2.7563  -1.2628   1.7455   2.7620

          k =-0.8750 0.6250-0.6250 (   370 PWs)   bands (ev):

    -4.8194   1.0067   3.3360   4.7654

          k =-0.1250 0.6250-0.8750 (   381 PWs)   bands (ev):

    -2.7563  -1.2628   1.7455   2.7620

          k =-0.1250 1.1250-0.8750 (   368 PWs)   bands (ev):

    -2.9031  -1.1750   2.3182   2.9919

          k =-0.1250 0.8750-0.6250 (   381 PWs)   bands (ev):

    -2.7563  -1.2628   1.7455   2.7620

          k =-0.1250 1.3750-0.6250 (   374 PWs)   bands (ev):

    -3.2726  -0.9339   1.7835   3.7340

          k =-0.1250-0.8750-0.6250 (   381 PWs)   bands (ev):

    -2.7563  -1.2628   1.7455   2.7620

          k =-0.1250-0.3750-0.6250 (   372 PWs)   bands (ev):

    -3.9179  -0.1796   2.3950   3.7053

          k = 0.8750-0.6250 0.1250 (   381 PWs)   bands (ev):

    -2.7563  -1.2628   1.7455   2.7620

          k = 0.8750-0.1250 0.1250 (   368 PWs)   bands (ev):

    -2.9031  -1.1750   2.3182   2.9919

          k =-0.6250-0.1250-0.3750 (   372 PWs)   bands (ev):

    -3.9179  -0.1796   2.3950   3.7053

          k =-0.6250 0.3750-0.3750 (   377 PWs)   bands (ev):

    -3.7479  -0.9631   3.3324   4.0337

          k = 0.1250 0.3750-0.6250 (   372 PWs)   bands (ev):

    -3.9179  -0.1796   2.3950   3.7053

          k = 0.1250 0.8750-0.6250 (   381 PWs)   bands (ev):

    -2.7563  -1.2628   1.7455   2.7620

          k = 0.1250 0.6250-0.3750 (   372 PWs)   bands (ev):

    -3.9179  -0.1796   2.3950   3.7053

          k = 0.1250 1.1250-0.3750 (   381 PWs)   bands (ev):

    -2.7563  -1.2628   1.7455   2.7620

          k = 0.1250-0.6250-0.3750 (   372 PWs)   bands (ev):

    -3.9179  -0.1796   2.3950   3.7053

          k = 0.1250-0.1250-0.3750 (   366 PWs)   bands (ev):

    -5.2938   2.3221   4.2777   4.3157

          k = 0.6250-0.3750-0.1250 (   372 PWs)   bands (ev):

    -3.9179  -0.1796   2.3950   3.7053

          k = 0.6250 0.1250-0.1250 (   372 PWs)   bands (ev):

    -4.3086   0.6279   3.0139   3.4403

          k =-0.1250 0.8750 0.1250 (   368 PWs)   bands (ev):

    -2.9031  -1.1750   2.3182   2.9919

          k =-0.1250 1.3750 0.1250 (   372 PWs)   bands (ev):

    -4.3086   0.6279   3.0139   3.4403

          k =-0.8750-0.1250-0.1250 (   368 PWs)   bands (ev):

    -2.9031  -1.1750   2.3182   2.9919

          k =-0.8750 0.3750-0.1250 (   381 PWs)   bands (ev):

    -2.7563  -1.2628   1.7455   2.7620

          k =-0.8750 0.1250 0.1250 (   368 PWs)   bands (ev):

    -2.9031  -1.1750   2.3182   2.9919

          k =-0.8750 0.6250 0.1250 (   381 PWs)   bands (ev):

    -2.7563  -1.2628   1.7455   2.7620

          k =-0.3750-0.3750 0.3750 (   362 PWs)   bands (ev):

    -4.4106  -0.2048   4.4730   4.4730

          k =-0.3750 0.1250 0.3750 (   370 PWs)   bands (ev):

    -4.8194   1.0067   3.3360   4.7654

          k =-1.1250 0.3750-0.3750 (   374 PWs)   bands (ev):

    -3.2726  -0.9339   1.7835   3.7340

          k =-1.1250 0.8750-0.3750 (   372 PWs)   bands (ev):

    -4.3086   0.6279   3.0139   3.4403

          k =-0.3750 1.1250-0.3750 (   374 PWs)   bands (ev):

    -3.2726  -0.9339   1.7835   3.7340

          k =-0.3750 1.6250-0.3750 (   362 PWs)   bands (ev):

    -4.4106  -0.2048   4.4730   4.4730

          k =-0.3750-1.1250-0.3750 (   374 PWs)   bands (ev):

    -3.2726  -0.9339   1.7835   3.7340

          k =-0.3750-0.6250-0.3750 (   377 PWs)   bands (ev):

    -3.7479  -0.9631   3.3324   4.0337

     highest occupied level (ev):     5.2345

     Writing output data file silicon.10.50.save

                                                                                

     bravais-lattice index     =            2
     lattice parameter (alat)  =      10.5000  a.u.
     unit-cell volume          =     289.4062 (a.u.)^3
     number of atoms/cell      =            2
     number of atomic types    =            1
     kinetic-energy cut-off    =      18.0000  Ry
     charge density cut-off    =      72.0000  Ry
     convergence threshold     =      1.0E-12
     beta                      =       0.7000
     number of iterations used =            4
     Exchange-correlation      = SLA  PW   PBE  PBE ( 1  4  3  4 0 0)


     celldm(1)=   10.50000  celldm(2)=    0.00000  celldm(3)=    0.00000
     celldm(4)=    0.00000  celldm(5)=    0.00000  celldm(6)=    0.00000

     crystal axes: (cart. coord. in units of alat)
               a(1) = ( -0.5000  0.0000  0.5000 )  
               a(2) = (  0.0000  0.5000  0.5000 )  
               a(3) = ( -0.5000  0.5000  0.0000 )  

     reciprocal axes: (cart. coord. in units 2 pi/alat)
               b(1) = ( -1.0000 -1.0000  1.0000 )  
               b(2) = (  1.0000  1.0000  1.0000 )  
               b(3) = ( -1.0000  1.0000 -1.0000 )  


     Atoms inside the unit cell: 

     Cartesian axes

     site n.  atom      mass           positions (alat units)
        1     Si  28.0860   tau(    1) = (    0.00000    0.00000    0.00000  )
        2     Si  28.0860   tau(    2) = (    0.25000    0.25000    0.25000  )

     Computing dynamical matrix for 
                    q = (   0.0000000   0.5000000   0.0000000 )

      8 Sym.Ops. (no q -> -q+G )


     G cutoff =  201.0719  (    744 G-vectors)     FFT grid: ( 24, 24, 24)
     number of k points=    80

     PseudoPot. # 1 for Si read from file:
     /home/max/quantum_espresso/qe-6.1/pseudo/si_pbe_v1.uspp.F.UPF.txt
     MD5 check sum: a056efeee980c13900f22a371efd63c1
     Pseudo is Ultrasoft + core correction, Zval =  4.0
     Generated by new atomic code, or converted to UPF format
     Using radial grid of  899 points,  6 beta functions with: 
                l(1) =   0
                l(2) =   0
                l(3) =   1
                l(4) =   1
                l(5) =   2
                l(6) =   2
     Q(r) pseudized with  8 coefficients,  rinner =    0.900   0.900   0.900
                                                       0.900   0.900

     Mode symmetry, C_4v (4mm)  point group:


     Atomic displacements:
     There are   4 irreducible representations

     Representation     1      1 modes -A_1  G_1 D_1  To be done

     Representation     2      1 modes -B_2  G_4 D_2'  To be done

     Representation     3      2 modes -E    G_5 D_5  To be done

     Representation     4      2 modes -E    G_5 D_5  To be done



     Alpha used in Ewald sum =   0.7000
     PHONON       :    26.69s CPU        28.57s WALL



     Representation #  1 mode #   1

     Self-consistent Calculation

      iter #   1 total cpu time :    28.8 secs   av.it.:   5.8
      thresh= 1.000E-02 alpha_mix =  0.700 |ddv_scf|^2 =  1.650E-03

      iter #   2 total cpu time :    29.2 secs   av.it.:   8.2
      thresh= 4.062E-03 alpha_mix =  0.700 |ddv_scf|^2 =  2.226E-02

      iter #   3 total cpu time :    29.4 secs   av.it.:   6.8
      thresh= 1.000E-02 alpha_mix =  0.700 |ddv_scf|^2 =  9.091E-08

      iter #   4 total cpu time :    29.6 secs   av.it.:   8.5
      thresh= 3.015E-05 alpha_mix =  0.700 |ddv_scf|^2 =  1.005E-08

      iter #   5 total cpu time :    29.8 secs   av.it.:   8.0
      thresh= 1.003E-05 alpha_mix =  0.700 |ddv_scf|^2 =  3.569E-10

      iter #   6 total cpu time :    30.0 secs   av.it.:   8.4
      thresh= 1.889E-06 alpha_mix =  0.700 |ddv_scf|^2 =  1.063E-12

      iter #   7 total cpu time :    30.3 secs   av.it.:   8.6
      thresh= 1.031E-07 alpha_mix =  0.700 |ddv_scf|^2 =  2.344E-13

     End of self-consistent calculation

     Convergence has been achieved 


     Representation #  2 mode #   2

     Self-consistent Calculation

      iter #   1 total cpu time :    30.5 secs   av.it.:   4.9
      thresh= 1.000E-02 alpha_mix =  0.700 |ddv_scf|^2 =  3.068E-06

      iter #   2 total cpu time :    30.7 secs   av.it.:   9.1
      thresh= 1.752E-04 alpha_mix =  0.700 |ddv_scf|^2 =  8.119E-07

      iter #   3 total cpu time :    31.1 secs   av.it.:   8.7
      thresh= 9.010E-05 alpha_mix =  0.700 |ddv_scf|^2 =  2.404E-08

      iter #   4 total cpu time :    31.4 secs   av.it.:   8.6
      thresh= 1.551E-05 alpha_mix =  0.700 |ddv_scf|^2 =  5.181E-10

      iter #   5 total cpu time :    31.6 secs   av.it.:   8.9
      thresh= 2.276E-06 alpha_mix =  0.700 |ddv_scf|^2 =  4.207E-12

      iter #   6 total cpu time :    31.8 secs   av.it.:   8.2
      thresh= 2.051E-07 alpha_mix =  0.700 |ddv_scf|^2 =  5.057E-14

     End of self-consistent calculation

     Convergence has been achieved 


     Representation #  3 modes #   3  4

     Self-consistent Calculation

      iter #   1 total cpu time :    32.2 secs   av.it.:   5.0
      thresh= 1.000E-02 alpha_mix =  0.700 |ddv_scf|^2 =  5.663E-07

      iter #   2 total cpu time :    32.7 secs   av.it.:  10.0
      thresh= 7.526E-05 alpha_mix =  0.700 |ddv_scf|^2 =  7.047E-08

      iter #   3 total cpu time :    33.4 secs   av.it.:   9.8
      thresh= 2.655E-05 alpha_mix =  0.700 |ddv_scf|^2 =  3.556E-09

      iter #   4 total cpu time :    33.9 secs   av.it.:   9.0
      thresh= 5.964E-06 alpha_mix =  0.700 |ddv_scf|^2 =  5.483E-12

      iter #   5 total cpu time :    34.4 secs   av.it.:   9.5
      thresh= 2.342E-07 alpha_mix =  0.700 |ddv_scf|^2 =  1.745E-13

     End of self-consistent calculation

     Convergence has been achieved 


     Representation #  4 modes #   5  6

     Self-consistent Calculation

      iter #   1 total cpu time :    34.7 secs   av.it.:   5.0
      thresh= 1.000E-02 alpha_mix =  0.700 |ddv_scf|^2 =  5.482E-07

      iter #   2 total cpu time :    35.4 secs   av.it.:  10.0
      thresh= 7.404E-05 alpha_mix =  0.700 |ddv_scf|^2 =  6.963E-08

      iter #   3 total cpu time :    35.9 secs   av.it.:   9.8
      thresh= 2.639E-05 alpha_mix =  0.700 |ddv_scf|^2 =  4.496E-09

      iter #   4 total cpu time :    36.4 secs   av.it.:   9.2
      thresh= 6.705E-06 alpha_mix =  0.700 |ddv_scf|^2 =  8.907E-12

      iter #   5 total cpu time :    37.0 secs   av.it.:   9.6
      thresh= 2.985E-07 alpha_mix =  0.700 |ddv_scf|^2 =  2.915E-14

     End of self-consistent calculation

     Convergence has been achieved 

     Number of q in the star =    6
     List of q in the star:
          1   0.000000000   0.500000000   0.000000000
          2   0.000000000  -0.500000000   0.000000000
          3   0.500000000   0.000000000   0.000000000
          4   0.000000000   0.000000000   0.500000000
          5   0.000000000   0.000000000  -0.500000000
          6  -0.500000000   0.000000000   0.000000000

     Diagonalizing the dynamical matrix

     q = (    0.000000000   0.500000000   0.000000000 ) 

 **************************************************************************
     freq (    1) =       3.868797 [THz] =     129.049185 [cm-1]
     freq (    2) =       3.868797 [THz] =     129.049185 [cm-1]
     freq (    3) =       6.583896 [THz] =     219.615115 [cm-1]
     freq (    4) =      13.454836 [THz] =     448.805021 [cm-1]
     freq (    5) =      13.454836 [THz] =     448.805021 [cm-1]
     freq (    6) =      14.186430 [THz] =     473.208364 [cm-1]
 **************************************************************************

     Mode symmetry, C_4v (4mm)  point group:

     freq (  1 -  2) =        129.0  [cm-1]   --> E    G_5 D_5       
     freq (  3 -  3) =        219.6  [cm-1]   --> A_1  G_1 D_1       
     freq (  4 -  5) =        448.8  [cm-1]   --> E    G_5 D_5       
     freq (  6 -  6) =        473.2  [cm-1]   --> B_2  G_4 D_2'      

     Calculation of q =    0.7500000  -0.2500000   0.7500000

   Info: using nr1, nr2, nr3 values from input

   Info: using nr1, nr2, nr3 values from input

     Parallelization info
     --------------------
     sticks:   dense  smooth     PW     G-vecs:    dense   smooth      PW
     Min          67      67     30                  743      743     216
     Max          68      68     31                  744      744     218
     Sum         271     271    121                 2975     2975     869



     bravais-lattice index     =            2
     lattice parameter (alat)  =      10.5000  a.u.
     unit-cell volume          =     289.4062 (a.u.)^3
     number of atoms/cell      =            2
     number of atomic types    =            1
     number of electrons       =         8.00
     number of Kohn-Sham states=            4
     kinetic-energy cutoff     =      18.0000  Ry
     charge density cutoff     =      72.0000  Ry
     Exchange-correlation      = SLA  PW   PBE  PBE ( 1  4  3  4 0 0)

     celldm(1)=  10.500000  celldm(2)=   0.000000  celldm(3)=   0.000000
     celldm(4)=   0.000000  celldm(5)=   0.000000  celldm(6)=   0.000000

     crystal axes: (cart. coord. in units of alat)
               a(1) = (  -0.500000   0.000000   0.500000 )  
               a(2) = (   0.000000   0.500000   0.500000 )  
               a(3) = (  -0.500000   0.500000   0.000000 )  

     reciprocal axes: (cart. coord. in units 2 pi/alat)
               b(1) = ( -1.000000 -1.000000  1.000000 )  
               b(2) = (  1.000000  1.000000  1.000000 )  
               b(3) = ( -1.000000  1.000000 -1.000000 )  


     PseudoPot. # 1 for Si read from file:
     /home/max/quantum_espresso/qe-6.1/pseudo/si_pbe_v1.uspp.F.UPF.txt
     MD5 check sum: a056efeee980c13900f22a371efd63c1
     Pseudo is Ultrasoft + core correction, Zval =  4.0
     Generated by new atomic code, or converted to UPF format
     Using radial grid of  899 points,  6 beta functions with: 
                l(1) =   0
                l(2) =   0
                l(3) =   1
                l(4) =   1
                l(5) =   2
                l(6) =   2
     Q(r) pseudized with  8 coefficients,  rinner =    0.900   0.900   0.900
                                                       0.900   0.900

     atomic species   valence    mass     pseudopotential
        Si             4.00    28.08600     Si( 1.00)

     48 Sym. Ops., with inversion, found



   Cartesian axes

     site n.     atom                  positions (alat units)
         1           Si  tau(   1) = (   0.0000000   0.0000000   0.0000000  )
         2           Si  tau(   2) = (   0.2500000   0.2500000   0.2500000  )

     number of k points=   288

     Number of k-points >= 100: set verbosity='high' to print them.

     Dense  grid:     2975 G-vectors     FFT dimensions: (  24,  24,  24)

     Estimated max dynamical RAM per process >       0.43MB

     Estimated total allocated dynamical RAM >       1.71MB

     Check: negative/imaginary core charge=   -0.000006    0.000000

     The potential is recalculated from file :
     ./_ph0/silicon.10.50.save/charge-density.dat

     Starting wfc are    8 atomic wfcs

     Band Structure Calculation
     Davidson diagonalization with overlap

     ethr =  1.25E-10,  avg # of iterations = 11.6

     total cpu time spent up to now is        4.7 secs

     End of band structure calculation

     Number of k-points >= 100: set verbosity='high' to print the bands.

     highest occupied level (ev):     5.2345

     Writing output data file silicon.10.50.save

                                                                                

     bravais-lattice index     =            2
     lattice parameter (alat)  =      10.5000  a.u.
     unit-cell volume          =     289.4062 (a.u.)^3
     number of atoms/cell      =            2
     number of atomic types    =            1
     kinetic-energy cut-off    =      18.0000  Ry
     charge density cut-off    =      72.0000  Ry
     convergence threshold     =      1.0E-12
     beta                      =       0.7000
     number of iterations used =            4
     Exchange-correlation      = SLA  PW   PBE  PBE ( 1  4  3  4 0 0)


     celldm(1)=   10.50000  celldm(2)=    0.00000  celldm(3)=    0.00000
     celldm(4)=    0.00000  celldm(5)=    0.00000  celldm(6)=    0.00000

     crystal axes: (cart. coord. in units of alat)
               a(1) = ( -0.5000  0.0000  0.5000 )  
               a(2) = (  0.0000  0.5000  0.5000 )  
               a(3) = ( -0.5000  0.5000  0.0000 )  

     reciprocal axes: (cart. coord. in units 2 pi/alat)
               b(1) = ( -1.0000 -1.0000  1.0000 )  
               b(2) = (  1.0000  1.0000  1.0000 )  
               b(3) = ( -1.0000  1.0000 -1.0000 )  


     Atoms inside the unit cell: 

     Cartesian axes

     site n.  atom      mass           positions (alat units)
        1     Si  28.0860   tau(    1) = (    0.00000    0.00000    0.00000  )
        2     Si  28.0860   tau(    2) = (    0.25000    0.25000    0.25000  )

     Computing dynamical matrix for 
                    q = (   0.7500000  -0.2500000   0.7500000 )

      2 Sym.Ops. (no q -> -q+G )


     G cutoff =  201.0719  (    744 G-vectors)     FFT grid: ( 24, 24, 24)
     number of k points=   288

     PseudoPot. # 1 for Si read from file:
     /home/max/quantum_espresso/qe-6.1/pseudo/si_pbe_v1.uspp.F.UPF.txt
     MD5 check sum: a056efeee980c13900f22a371efd63c1
     Pseudo is Ultrasoft + core correction, Zval =  4.0
     Generated by new atomic code, or converted to UPF format
     Using radial grid of  899 points,  6 beta functions with: 
                l(1) =   0
                l(2) =   0
                l(3) =   1
                l(4) =   1
                l(5) =   2
                l(6) =   2
     Q(r) pseudized with  8 coefficients,  rinner =    0.900   0.900   0.900
                                                       0.900   0.900

     Mode symmetry, C_s (m)     point group:


     Atomic displacements:
     There are   6 irreducible representations

     Representation     1      1 modes -A'  To be done

     Representation     2      1 modes -A'  To be done

     Representation     3      1 modes -A'  To be done

     Representation     4      1 modes -A'  To be done

     Representation     5      1 modes -A''  To be done

     Representation     6      1 modes -A''  To be done



     Alpha used in Ewald sum =   0.7000
     PHONON       :    37.61s CPU        40.25s WALL



     Representation #  1 mode #   1

     Self-consistent Calculation

      iter #   1 total cpu time :    40.9 secs   av.it.:   5.3
      thresh= 1.000E-02 alpha_mix =  0.700 |ddv_scf|^2 =  3.418E-05

      iter #   2 total cpu time :    41.9 secs   av.it.:   9.1
      thresh= 5.846E-04 alpha_mix =  0.700 |ddv_scf|^2 =  9.204E-05

      iter #   3 total cpu time :    42.6 secs   av.it.:   7.9
      thresh= 9.594E-04 alpha_mix =  0.700 |ddv_scf|^2 =  6.517E-07

      iter #   4 total cpu time :    43.6 secs   av.it.:   8.8
      thresh= 8.073E-05 alpha_mix =  0.700 |ddv_scf|^2 =  3.863E-08

      iter #   5 total cpu time :    44.4 secs   av.it.:   8.8
      thresh= 1.966E-05 alpha_mix =  0.700 |ddv_scf|^2 =  4.460E-09

      iter #   6 total cpu time :    45.4 secs   av.it.:   8.8
      thresh= 6.678E-06 alpha_mix =  0.700 |ddv_scf|^2 =  5.911E-11

      iter #   7 total cpu time :    46.3 secs   av.it.:   9.1
      thresh= 7.688E-07 alpha_mix =  0.700 |ddv_scf|^2 =  2.299E-12

      iter #   8 total cpu time :    47.3 secs   av.it.:   9.0
      thresh= 1.516E-07 alpha_mix =  0.700 |ddv_scf|^2 =  2.537E-13

     End of self-consistent calculation

     Convergence has been achieved 


     Representation #  2 mode #   2

     Self-consistent Calculation

      iter #   1 total cpu time :    47.9 secs   av.it.:   5.3
      thresh= 1.000E-02 alpha_mix =  0.700 |ddv_scf|^2 =  6.022E-05

      iter #   2 total cpu time :    48.8 secs   av.it.:   9.0
      thresh= 7.760E-04 alpha_mix =  0.700 |ddv_scf|^2 =  1.750E-04

      iter #   3 total cpu time :    49.7 secs   av.it.:   7.8
      thresh= 1.323E-03 alpha_mix =  0.700 |ddv_scf|^2 =  4.789E-07

      iter #   4 total cpu time :    50.5 secs   av.it.:   8.9
      thresh= 6.920E-05 alpha_mix =  0.700 |ddv_scf|^2 =  3.708E-08

      iter #   5 total cpu time :    51.5 secs   av.it.:   8.7
      thresh= 1.925E-05 alpha_mix =  0.700 |ddv_scf|^2 =  6.867E-09

      iter #   6 total cpu time :    52.3 secs   av.it.:   8.8
      thresh= 8.287E-06 alpha_mix =  0.700 |ddv_scf|^2 =  5.223E-11

      iter #   7 total cpu time :    53.3 secs   av.it.:   9.1
      thresh= 7.227E-07 alpha_mix =  0.700 |ddv_scf|^2 =  1.785E-12

      iter #   8 total cpu time :    54.2 secs   av.it.:   9.0
      thresh= 1.336E-07 alpha_mix =  0.700 |ddv_scf|^2 =  4.739E-13

     End of self-consistent calculation

     Convergence has been achieved 


     Representation #  3 mode #   3

     Self-consistent Calculation

      iter #   1 total cpu time :    54.8 secs   av.it.:   5.3
      thresh= 1.000E-02 alpha_mix =  0.700 |ddv_scf|^2 =  4.710E-05

      iter #   2 total cpu time :    55.8 secs   av.it.:   9.0
      thresh= 6.863E-04 alpha_mix =  0.700 |ddv_scf|^2 =  1.275E-04

      iter #   3 total cpu time :    56.6 secs   av.it.:   7.8
      thresh= 1.129E-03 alpha_mix =  0.700 |ddv_scf|^2 =  8.076E-07

      iter #   4 total cpu time :    57.6 secs   av.it.:   8.6
      thresh= 8.987E-05 alpha_mix =  0.700 |ddv_scf|^2 =  3.744E-08

      iter #   5 total cpu time :    58.4 secs   av.it.:   8.8
      thresh= 1.935E-05 alpha_mix =  0.700 |ddv_scf|^2 =  7.256E-09

      iter #   6 total cpu time :    59.4 secs   av.it.:   8.8
      thresh= 8.518E-06 alpha_mix =  0.700 |ddv_scf|^2 =  2.898E-11

      iter #   7 total cpu time :    60.2 secs   av.it.:   9.1
      thresh= 5.383E-07 alpha_mix =  0.700 |ddv_scf|^2 =  1.242E-12

      iter #   8 total cpu time :    61.2 secs   av.it.:   9.0
      thresh= 1.114E-07 alpha_mix =  0.700 |ddv_scf|^2 =  5.409E-13

     End of self-consistent calculation

     Convergence has been achieved 


     Representation #  4 mode #   4

     Self-consistent Calculation

      iter #   1 total cpu time :    61.9 secs   av.it.:   5.2
      thresh= 1.000E-02 alpha_mix =  0.700 |ddv_scf|^2 =  2.107E-05

      iter #   2 total cpu time :    62.7 secs   av.it.:   9.2
[...]
        k(   59) = (  -0.8750000   0.1250000  -0.1250000), wk =   0.0625000
        k(   60) = (  -1.3750000  -0.8750000  -0.1250000), wk =   0.0000000
        k(   61) = (  -1.1250000   0.3750000  -0.3750000), wk =   0.0625000
        k(   62) = (  -1.6250000  -0.6250000  -0.3750000), wk =   0.0000000
        k(   63) = (  -0.3750000   0.3750000   1.1250000), wk =   0.0625000
        k(   64) = (  -0.8750000  -0.6250000   1.1250000), wk =   0.0000000

     Dense  grid:     2975 G-vectors     FFT dimensions: (  24,  24,  24)

     Estimated max dynamical RAM per process >       0.43MB

     Estimated total allocated dynamical RAM >       1.71MB

     Check: negative/imaginary core charge=   -0.000006    0.000000

     The potential is recalculated from file :
     ./_ph0/silicon.10.50.save/charge-density.dat

     Starting wfc are    8 atomic wfcs

     Band Structure Calculation
     Davidson diagonalization with overlap

     ethr =  1.25E-10,  avg # of iterations = 11.6

     total cpu time spent up to now is        7.5 secs

     End of band structure calculation

          k =-0.1250 0.1250 0.1250 (   362 PWs)   bands (ev):

    -5.7985   3.9175   5.2345   5.2345

          k =-0.6250-0.8750 0.1250 (   381 PWs)   bands (ev):

    -2.7563  -1.2628   1.7455   2.7620

          k =-0.3750 0.3750-0.1250 (   370 PWs)   bands (ev):

    -4.8194   1.0067   3.3360   4.7654

          k =-0.8750-0.6250-0.1250 (   381 PWs)   bands (ev):

    -2.7563  -1.2628   1.7455   2.7620

          k = 0.3750-0.3750 0.6250 (   377 PWs)   bands (ev):

    -3.7479  -0.9631   3.3324   4.0337

          k =-0.1250-1.3750 0.6250 (   374 PWs)   bands (ev):

    -3.2726  -0.9339   1.7835   3.7340

          k = 0.1250-0.1250 0.3750 (   366 PWs)   bands (ev):

    -5.2938   2.3221   4.2777   4.3157

          k =-0.3750-1.1250 0.3750 (   374 PWs)   bands (ev):

    -3.2726  -0.9339   1.7835   3.7340

          k =-0.1250 0.6250 0.1250 (   372 PWs)   bands (ev):

    -4.3086   0.6279   3.0139   3.4403

          k =-0.6250-0.3750 0.1250 (   372 PWs)   bands (ev):

    -3.9179  -0.1796   2.3950   3.7053

          k = 0.6250-0.1250 0.8750 (   381 PWs)   bands (ev):

    -2.7563  -1.2628   1.7455   2.7620

          k = 0.1250-1.1250 0.8750 (   368 PWs)   bands (ev):

    -2.9031  -1.1750   2.3182   2.9919

          k = 0.3750 0.1250 0.6250 (   372 PWs)   bands (ev):

    -3.9179  -0.1796   2.3950   3.7053

          k =-0.1250-0.8750 0.6250 (   381 PWs)   bands (ev):

    -2.7563  -1.2628   1.7455   2.7620

          k =-0.1250-0.8750 0.1250 (   368 PWs)   bands (ev):

    -2.9031  -1.1750   2.3182   2.9919

          k =-0.6250-1.8750 0.1250 (   372 PWs)   bands (ev):

    -4.3086   0.6279   3.0139   3.4403

          k =-0.3750 0.3750 0.3750 (   362 PWs)   bands (ev):

    -4.4106  -0.2048   4.4730   4.4730

          k =-0.8750-0.6250 0.3750 (   372 PWs)   bands (ev):

    -3.9179  -0.1796   2.3950   3.7053

          k = 0.3750-0.3750 1.1250 (   374 PWs)   bands (ev):

    -3.2726  -0.9339   1.7835   3.7340

          k =-0.1250-1.3750 1.1250 (   381 PWs)   bands (ev):

    -2.7563  -1.2628   1.7455   2.7620

          k = 0.1250-0.3750 0.3750 (   370 PWs)   bands (ev):

    -4.8194   1.0067   3.3360   4.7654

          k =-0.3750-1.3750 0.3750 (   377 PWs)   bands (ev):

    -3.7479  -0.9631   3.3324   4.0337

          k = 0.3750-0.3750-0.1250 (   370 PWs)   bands (ev):

    -4.8194   1.0067   3.3360   4.7654

          k =-0.1250-1.3750-0.1250 (   372 PWs)   bands (ev):

    -4.3086   0.6279   3.0139   3.4403

          k =-0.6250 0.3750-0.3750 (   377 PWs)   bands (ev):

    -3.7479  -0.9631   3.3324   4.0337

          k =-1.1250-0.6250-0.3750 (   372 PWs)   bands (ev):

    -3.9179  -0.1796   2.3950   3.7053

          k =-0.3750 0.3750 0.6250 (   377 PWs)   bands (ev):

    -3.7479  -0.9631   3.3324   4.0337

          k =-0.8750-0.6250 0.6250 (   370 PWs)   bands (ev):

    -4.8194   1.0067   3.3360   4.7654

          k =-0.3750 0.1250-0.1250 (   366 PWs)   bands (ev):

    -5.2938   2.3221   4.2777   4.3157

          k =-0.8750-0.8750-0.1250 (   368 PWs)   bands (ev):

    -2.9031  -1.1750   2.3182   2.9919

          k =-0.1250 0.1250 0.3750 (   366 PWs)   bands (ev):

    -5.2938   2.3221   4.2777   4.3157

          k =-0.6250-0.8750 0.3750 (   372 PWs)   bands (ev):

    -3.9179  -0.1796   2.3950   3.7053

          k = 0.1250 0.6250-0.1250 (   372 PWs)   bands (ev):

    -4.3086   0.6279   3.0139   3.4403

          k =-0.3750-0.3750-0.1250 (   370 PWs)   bands (ev):

    -4.8194   1.0067   3.3360   4.7654

          k = 0.6250 0.1250-0.1250 (   372 PWs)   bands (ev):

    -4.3086   0.6279   3.0139   3.4403

          k = 0.1250-0.8750-0.1250 (   368 PWs)   bands (ev):

    -2.9031  -1.1750   2.3182   2.9919

          k =-0.8750 0.1250-0.6250 (   381 PWs)   bands (ev):

    -2.7563  -1.2628   1.7455   2.7620

          k =-1.3750-0.8750-0.6250 (   370 PWs)   bands (ev):

    -4.8194   1.0067   3.3360   4.7654

          k = 0.8750-0.1250 0.6250 (   381 PWs)   bands (ev):

    -2.7563  -1.2628   1.7455   2.7620

          k = 0.3750-1.1250 0.6250 (   372 PWs)   bands (ev):

    -3.9179  -0.1796   2.3950   3.7053

          k =-0.6250 0.1250 0.8750 (   381 PWs)   bands (ev):

    -2.7563  -1.2628   1.7455   2.7620

          k =-1.1250-0.8750 0.8750 (   362 PWs)   bands (ev):

    -5.7985   3.9175   5.2345   5.2345

          k =-0.1250 0.8750 0.6250 (   381 PWs)   bands (ev):

    -2.7563  -1.2628   1.7455   2.7620

          k =-0.6250-0.1250 0.6250 (   374 PWs)   bands (ev):

    -3.2726  -0.9339   1.7835   3.7340

          k = 0.1250 0.8750-0.6250 (   381 PWs)   bands (ev):

    -2.7563  -1.2628   1.7455   2.7620

          k =-0.3750-0.1250-0.6250 (   372 PWs)   bands (ev):

    -3.9179  -0.1796   2.3950   3.7053

          k =-0.6250-0.1250-0.3750 (   372 PWs)   bands (ev):

    -3.9179  -0.1796   2.3950   3.7053

          k =-1.1250-1.1250-0.3750 (   372 PWs)   bands (ev):

    -4.3086   0.6279   3.0139   3.4403

          k = 0.6250 0.1250 0.3750 (   372 PWs)   bands (ev):

    -3.9179  -0.1796   2.3950   3.7053

          k = 0.1250-0.8750 0.3750 (   381 PWs)   bands (ev):

    -2.7563  -1.2628   1.7455   2.7620

          k =-0.3750-0.1250 0.6250 (   372 PWs)   bands (ev):

    -3.9179  -0.1796   2.3950   3.7053

          k =-0.8750-1.1250 0.6250 (   366 PWs)   bands (ev):

    -5.2938   2.3221   4.2777   4.3157

          k = 0.1250 0.6250 0.3750 (   372 PWs)   bands (ev):

    -3.9179  -0.1796   2.3950   3.7053

          k =-0.3750-0.3750 0.3750 (   362 PWs)   bands (ev):

    -4.4106  -0.2048   4.4730   4.4730

          k =-0.1250 0.6250-0.3750 (   372 PWs)   bands (ev):

    -3.9179  -0.1796   2.3950   3.7053

          k =-0.6250-0.3750-0.3750 (   377 PWs)   bands (ev):

    -3.7479  -0.9631   3.3324   4.0337

          k = 0.1250-0.8750-0.1250 (   368 PWs)   bands (ev):

    -2.9031  -1.1750   2.3182   2.9919

          k =-0.3750-1.8750-0.1250 (   366 PWs)   bands (ev):

    -5.2938   2.3221   4.2777   4.3157

          k =-0.8750 0.1250-0.1250 (   368 PWs)   bands (ev):

    -2.9031  -1.1750   2.3182   2.9919

          k =-1.3750-0.8750-0.1250 (   381 PWs)   bands (ev):

    -2.7563  -1.2628   1.7455   2.7620

          k =-1.1250 0.3750-0.3750 (   374 PWs)   bands (ev):

    -3.2726  -0.9339   1.7835   3.7340

          k =-1.6250-0.6250-0.3750 (   377 PWs)   bands (ev):

    -3.7479  -0.9631   3.3324   4.0337

          k =-0.3750 0.3750 1.1250 (   374 PWs)   bands (ev):

    -3.2726  -0.9339   1.7835   3.7340

          k =-0.8750-0.6250 1.1250 (   366 PWs)   bands (ev):

    -5.2938   2.3221   4.2777   4.3157

     highest occupied level (ev):     5.2345

     Writing output data file silicon.10.50.save

                                                                                

     bravais-lattice index     =            2
     lattice parameter (alat)  =      10.5000  a.u.
     unit-cell volume          =     289.4062 (a.u.)^3
     number of atoms/cell      =            2
     number of atomic types    =            1
     kinetic-energy cut-off    =      18.0000  Ry
     charge density cut-off    =      72.0000  Ry
     convergence threshold     =      1.0E-12
     beta                      =       0.7000
     number of iterations used =            4
     Exchange-correlation      = SLA  PW   PBE  PBE ( 1  4  3  4 0 0)


     celldm(1)=   10.50000  celldm(2)=    0.00000  celldm(3)=    0.00000
     celldm(4)=    0.00000  celldm(5)=    0.00000  celldm(6)=    0.00000

     crystal axes: (cart. coord. in units of alat)
               a(1) = ( -0.5000  0.0000  0.5000 )  
               a(2) = (  0.0000  0.5000  0.5000 )  
               a(3) = ( -0.5000  0.5000  0.0000 )  

     reciprocal axes: (cart. coord. in units 2 pi/alat)
               b(1) = ( -1.0000 -1.0000  1.0000 )  
               b(2) = (  1.0000  1.0000  1.0000 )  
               b(3) = ( -1.0000  1.0000 -1.0000 )  


     Atoms inside the unit cell: 

     Cartesian axes

     site n.  atom      mass           positions (alat units)
        1     Si  28.0860   tau(    1) = (    0.00000    0.00000    0.00000  )
        2     Si  28.0860   tau(    2) = (    0.25000    0.25000    0.25000  )

     Computing dynamical matrix for 
                    q = (  -0.5000000  -1.0000000   0.0000000 )

      8 Sym.Ops. (no q -> -q+G )


     G cutoff =  201.0719  (    744 G-vectors)     FFT grid: ( 24, 24, 24)
     number of k points=    64

     PseudoPot. # 1 for Si read from file:
     /home/max/quantum_espresso/qe-6.1/pseudo/si_pbe_v1.uspp.F.UPF.txt
     MD5 check sum: a056efeee980c13900f22a371efd63c1
     Pseudo is Ultrasoft + core correction, Zval =  4.0
     Generated by new atomic code, or converted to UPF format
     Using radial grid of  899 points,  6 beta functions with: 
                l(1) =   0
                l(2) =   0
                l(3) =   1
                l(4) =   1
                l(5) =   2
                l(6) =   2
     Q(r) pseudized with  8 coefficients,  rinner =    0.900   0.900   0.900
                                                       0.900   0.900


     Atomic displacements:
     There are   3 irreducible representations

     Representation     1      2 modes -  To be done

     Representation     2      2 modes -  To be done

     Representation     3      2 modes -  To be done



     Alpha used in Ewald sum =   0.7000
     PHONON       :  1m33.63s CPU     1m39.82s WALL



     Representation #  1 modes #   1  2

     Self-consistent Calculation

      iter #   1 total cpu time :   100.1 secs   av.it.:   5.3
      thresh= 1.000E-02 alpha_mix =  0.700 |ddv_scf|^2 =  3.499E-06

      iter #   2 total cpu time :   100.5 secs   av.it.:  10.2
      thresh= 1.871E-04 alpha_mix =  0.700 |ddv_scf|^2 =  1.864E-06

      iter #   3 total cpu time :   101.0 secs   av.it.:   9.6
      thresh= 1.365E-04 alpha_mix =  0.700 |ddv_scf|^2 =  5.177E-09

      iter #   4 total cpu time :   101.5 secs   av.it.:   9.4
      thresh= 7.195E-06 alpha_mix =  0.700 |ddv_scf|^2 =  1.033E-11

      iter #   5 total cpu time :   101.9 secs   av.it.:   9.5
      thresh= 3.214E-07 alpha_mix =  0.700 |ddv_scf|^2 =  3.024E-13

     End of self-consistent calculation

     Convergence has been achieved 


     Representation #  2 modes #   3  4

     Self-consistent Calculation

      iter #   1 total cpu time :   102.2 secs   av.it.:   5.2
      thresh= 1.000E-02 alpha_mix =  0.700 |ddv_scf|^2 =  5.524E-06

      iter #   2 total cpu time :   102.7 secs   av.it.:  10.3
      thresh= 2.350E-04 alpha_mix =  0.700 |ddv_scf|^2 =  7.745E-06

      iter #   3 total cpu time :   103.2 secs   av.it.:   9.5
      thresh= 2.783E-04 alpha_mix =  0.700 |ddv_scf|^2 =  6.307E-09

      iter #   4 total cpu time :   103.6 secs   av.it.:   9.1
      thresh= 7.942E-06 alpha_mix =  0.700 |ddv_scf|^2 =  6.742E-11

      iter #   5 total cpu time :   104.0 secs   av.it.:   9.8
      thresh= 8.211E-07 alpha_mix =  0.700 |ddv_scf|^2 =  1.127E-12

      iter #   6 total cpu time :   104.4 secs   av.it.:   9.5
      thresh= 1.061E-07 alpha_mix =  0.700 |ddv_scf|^2 =  1.058E-14

     End of self-consistent calculation

     Convergence has been achieved 


     Representation #  3 modes #   5  6

     Self-consistent Calculation

      iter #   1 total cpu time :   104.7 secs   av.it.:   5.1
      thresh= 1.000E-02 alpha_mix =  0.700 |ddv_scf|^2 =  1.466E-06

      iter #   2 total cpu time :   105.3 secs   av.it.:  10.0
      thresh= 1.211E-04 alpha_mix =  0.700 |ddv_scf|^2 =  7.902E-07

      iter #   3 total cpu time :   105.7 secs   av.it.:   9.4
      thresh= 8.889E-05 alpha_mix =  0.700 |ddv_scf|^2 =  4.860E-09

      iter #   4 total cpu time :   106.1 secs   av.it.:   9.1
      thresh= 6.971E-06 alpha_mix =  0.700 |ddv_scf|^2 =  2.466E-11

      iter #   5 total cpu time :   106.5 secs   av.it.:   9.4
      thresh= 4.966E-07 alpha_mix =  0.700 |ddv_scf|^2 =  3.974E-13

     End of self-consistent calculation

     Convergence has been achieved 

     Number of q in the star =    6
     List of q in the star:
          1  -0.500000000  -1.000000000   0.000000000
          2   0.000000000   1.000000000   0.500000000
          3   0.000000000  -1.000000000  -0.500000000
          4   0.500000000   1.000000000   0.000000000
          5  -1.000000000  -0.500000000   0.000000000
          6   0.000000000  -0.500000000  -1.000000000

     Diagonalizing the dynamical matrix

     q = (   -0.500000000  -1.000000000   0.000000000 ) 

 **************************************************************************
     freq (    1) =       7.333949 [THz] =     244.634200 [cm-1]
     freq (    2) =       7.333949 [THz] =     244.634200 [cm-1]
     freq (    3) =      10.486242 [THz] =     349.783377 [cm-1]
     freq (    4) =      10.486242 [THz] =     349.783377 [cm-1]
     freq (    5) =      13.124819 [THz] =     437.796842 [cm-1]
     freq (    6) =      13.124819 [THz] =     437.796842 [cm-1]
 **************************************************************************

     init_run     :      0.54s CPU      0.56s WALL (       7 calls)
     electrons    :      5.74s CPU      6.18s WALL (       7 calls)

     Called by init_run:
     wfcinit      :      0.00s CPU      0.00s WALL (       7 calls)
     potinit      :      0.03s CPU      0.03s WALL (       7 calls)

     Called by electrons:
     c_bands      :      5.74s CPU      6.17s WALL (       7 calls)
     v_of_rho     :      0.02s CPU      0.02s WALL (       8 calls)
     newd         :      0.03s CPU      0.03s WALL (       8 calls)

     Called by c_bands:
     init_us_2    :      0.71s CPU      0.75s WALL (   17444 calls)
     cegterg      :      4.83s CPU      5.17s WALL (     796 calls)

     Called by sum_band:

     Called by *egterg:
     h_psi        :     58.98s CPU     62.77s WALL (  155233 calls)
     s_psi        :      6.13s CPU      6.52s WALL (  315042 calls)
     g_psi        :      0.03s CPU      0.03s WALL (    9268 calls)
     cdiaghg      :      0.45s CPU      0.49s WALL (   10064 calls)

     Called by h_psi:
     h_psi:pot    :     58.79s CPU     62.57s WALL (  155233 calls)
     h_psi:calbec :      4.77s CPU      5.11s WALL (  155233 calls)
     vloc_psi     :     50.74s CPU     54.00s WALL (  155233 calls)
     add_vuspsi   :      3.07s CPU      3.23s WALL (  155233 calls)

     General routines
     calbec       :     10.35s CPU     11.17s WALL (  351270 calls)
     fft          :      0.57s CPU      0.61s WALL (    5211 calls)
     ffts         :      0.17s CPU      0.18s WALL (    2748 calls)
     fftw         :     58.09s CPU     61.84s WALL ( 1401326 calls)
     davcio       :      0.36s CPU      0.39s WALL (   78299 calls)

     Parallel routines
     fft_scatter  :     12.15s CPU     13.40s WALL ( 1409285 calls)

     PHONON       :  1m39.93s CPU     1m46.55s WALL

     INITIALIZATION: 
     phq_setup    :      0.09s CPU      0.09s WALL (       8 calls)
     phq_init     :      2.17s CPU      2.26s WALL (       8 calls)

     phq_init     :      2.17s CPU      2.26s WALL (       8 calls)
     set_drhoc    :      0.30s CPU      0.31s WALL (      24 calls)
     init_vloc    :      0.01s CPU      0.01s WALL (       8 calls)
     init_us_1    :      0.48s CPU      0.49s WALL (       8 calls)
     newd         :      0.03s CPU      0.03s WALL (       8 calls)
     dvanqq       :      0.24s CPU      0.24s WALL (       8 calls)
     drho         :      1.17s CPU      1.19s WALL (       8 calls)

     DYNAMICAL MATRIX:
     dynmat0      :      0.50s CPU      0.51s WALL (       8 calls)
     phqscf       :     88.50s CPU     94.44s WALL (       8 calls)
     dynmatrix    :      0.02s CPU      0.02s WALL (       8 calls)

     phqscf       :     88.50s CPU     94.44s WALL (       8 calls)
     solve_linter :     87.63s CPU     93.52s WALL (      32 calls)
     drhodv       :      0.49s CPU      0.51s WALL (      32 calls)

     dynmat0      :      0.50s CPU      0.51s WALL (       8 calls)
     dynmat_us    :      0.27s CPU      0.27s WALL (       8 calls)
     d2ionq       :      0.01s CPU      0.01s WALL (       8 calls)
     dynmatcc     :      0.22s CPU      0.22s WALL (       8 calls)

     dynmat_us    :      0.27s CPU      0.27s WALL (       8 calls)
     addusdynmat  :      0.00s CPU      0.00s WALL (       8 calls)

     phqscf       :     88.50s CPU     94.44s WALL (       8 calls)
     solve_linter :     87.63s CPU     93.52s WALL (      32 calls)

     solve_linter :     87.63s CPU     93.52s WALL (      32 calls)
     dvqpsi_us    :      1.95s CPU      2.05s WALL (    2508 calls)
     ortho        :      1.14s CPU      1.26s WALL (   15406 calls)
     cgsolve      :     68.62s CPU     73.15s WALL (   15406 calls)
     incdrhoscf   :      6.40s CPU      6.77s WALL (   15406 calls)
     addusddens   :      1.15s CPU      1.20s WALL (     226 calls)
     vpsifft      :      4.72s CPU      5.13s WALL (   12778 calls)
     dv_of_drho   :      0.34s CPU      0.35s WALL (     293 calls)
     mix_pot      :      0.09s CPU      0.10s WALL (     199 calls)
     psymdvscf    :      1.42s CPU      1.50s WALL (     194 calls)
     newdq        :      1.30s CPU      1.40s WALL (     199 calls)
     adddvscf     :      0.47s CPU      0.51s WALL (   12898 calls)
     drhodvus     :      0.01s CPU      0.01s WALL (      32 calls)

     dvqpsi_us    :      1.95s CPU      2.05s WALL (    2508 calls)
     dvqpsi_us_on :      0.83s CPU      0.88s WALL (    2508 calls)

     cgsolve      :     68.62s CPU     73.15s WALL (   15406 calls)
     ch_psi       :     66.76s CPU     71.10s WALL (  144373 calls)

     ch_psi       :     66.76s CPU     71.10s WALL (  144373 calls)
     h_psi        :     58.98s CPU     62.77s WALL (  155233 calls)
     last         :      8.82s CPU      9.53s WALL (  144373 calls)

     h_psi        :     58.98s CPU     62.77s WALL (  155233 calls)
     add_vuspsi   :      3.07s CPU      3.23s WALL (  155233 calls)

     incdrhoscf   :      6.40s CPU      6.77s WALL (   15406 calls)
     addusdbec    :      0.69s CPU      0.75s WALL (   17854 calls)

     drhodvus     :      0.01s CPU      0.01s WALL (      32 calls)

      General routines
     calbec       :     10.35s CPU     11.17s WALL (  351270 calls)
     fft          :      0.57s CPU      0.61s WALL (    5211 calls)
     ffts         :      0.17s CPU      0.18s WALL (    2748 calls)
     fftw         :     58.09s CPU     61.84s WALL ( 1401326 calls)
     davcio       :      0.36s CPU      0.39s WALL (   78299 calls)
     write_rec    :      0.22s CPU      0.24s WALL (     231 calls)


     PHONON       :  1m39.93s CPU     1m46.55s WALL


   This run was terminated on:   1:50:26   9Nov2017            

=------------------------------------------------------------------------------=
   JOB DONE.
=------------------------------------------------------------------------------=
