
     Program PWSCF v.6.1 (svn rev. 13369) starts on 10Nov2017 at 10:15:21 

     This program is part of the open-source Quantum ESPRESSO suite
     for quantum simulation of materials; please cite
         "P. Giannozzi et al., J. Phys.:Condens. Matter 21 395502 (2009);
          URL http://www.quantum-espresso.org", 
     in publications or presentations arising from this work. More details at
     http://www.quantum-espresso.org/quote

     Parallel version (MPI), running on     4 processors
     R & G space division:  proc/nbgrp/npool/nimage =       4
     Waiting for input...
     Reading input from standard input
     Message from routine read_cards :
     DEPRECATED: no units specified in ATOMIC_POSITIONS card
     Message from routine read_cards :
     ATOMIC_POSITIONS: units set to alat

     Current dimensions of program PWSCF are:
     Max number of different atomic species (ntypx) = 10
     Max number of k-points (npk) =  40000
     Max angular momentum in pseudopotentials (lmaxx) =  3

     Subspace diagonalization in iterative solution of the eigenvalue problem:
     a serial algorithm will be used


     Parallelization info
     --------------------
     sticks:   dense  smooth     PW     G-vecs:    dense   smooth      PW
     Min         228     112     37                 4512     1593     309
     Max         229     113     38                 4514     1594     312
     Sum         913     451    151                18053     6375    1243



     bravais-lattice index     =            2
     lattice parameter (alat)  =      10.4700  a.u.
     unit-cell volume          =     286.9327 (a.u.)^3
     number of atoms/cell      =            2
     number of atomic types    =            1
     number of electrons       =         8.00
     number of Kohn-Sham states=            4
     kinetic-energy cutoff     =      30.0000  Ry
     charge density cutoff     =     240.0000  Ry
     convergence threshold     =      1.0E-08
     mixing beta               =       0.7000
     number of iterations used =            8  plain     mixing
     Exchange-correlation      = SLA  PW   PBE  PBE ( 1  4  3  4 0 0)

     celldm(1)=  10.470000  celldm(2)=   0.000000  celldm(3)=   0.000000
     celldm(4)=   0.000000  celldm(5)=   0.000000  celldm(6)=   0.000000

     crystal axes: (cart. coord. in units of alat)
               a(1) = (  -0.500000   0.000000   0.500000 )  
               a(2) = (   0.000000   0.500000   0.500000 )  
               a(3) = (  -0.500000   0.500000   0.000000 )  

     reciprocal axes: (cart. coord. in units 2 pi/alat)
               b(1) = ( -1.000000 -1.000000  1.000000 )  
               b(2) = (  1.000000  1.000000  1.000000 )  
               b(3) = ( -1.000000  1.000000 -1.000000 )  


     PseudoPot. # 1 for Si read from file:
     /home/max/quantum_espresso/qe-6.1/pseudo/si_pbe_v1.uspp.F.UPF.txt
     MD5 check sum: a056efeee980c13900f22a371efd63c1
     Pseudo is Ultrasoft + core correction, Zval =  4.0
     Generated by new atomic code, or converted to UPF format
     Using radial grid of  899 points,  6 beta functions with: 
                l(1) =   0
                l(2) =   0
                l(3) =   1
                l(4) =   1
                l(5) =   2
                l(6) =   2
     Q(r) pseudized with  8 coefficients,  rinner =    0.900   0.900   0.900
                                                       0.900   0.900

     atomic species   valence    mass     pseudopotential
        Si             4.00    28.08600     Si( 1.00)

     48 Sym. Ops., with inversion, found (24 have fractional translation)



   Cartesian axes

     site n.     atom                  positions (alat units)
         1           Si  tau(   1) = (   0.0000000   0.0000000   0.0000000  )
         2           Si  tau(   2) = (   0.2500000   0.2500000   0.2500000  )

     number of k points=    28
                       cart. coord. in units 2pi/alat
        k(    1) = (  -0.0833333   0.0833333   0.0833333), wk =   0.0185185
        k(    2) = (  -0.2500000   0.2500000  -0.0833333), wk =   0.0555556
        k(    3) = (  -0.4166667   0.4166667  -0.2500000), wk =   0.0555556
        k(    4) = (   0.4166667  -0.4166667   0.5833333), wk =   0.0555556
        k(    5) = (   0.2500000  -0.2500000   0.4166667), wk =   0.0555556
        k(    6) = (   0.0833333  -0.0833333   0.2500000), wk =   0.0555556
        k(    7) = (  -0.0833333   0.4166667   0.0833333), wk =   0.0555556
        k(    8) = (  -0.2500000   0.5833333  -0.0833333), wk =   0.1111111
        k(    9) = (   0.5833333  -0.2500000   0.7500000), wk =   0.1111111
        k(   10) = (   0.4166667  -0.0833333   0.5833333), wk =   0.1111111
        k(   11) = (   0.2500000   0.0833333   0.4166667), wk =   0.1111111
        k(   12) = (  -0.0833333   0.7500000   0.0833333), wk =   0.0555556
        k(   13) = (   0.7500000  -0.0833333   0.9166667), wk =   0.1111111
        k(   14) = (   0.5833333   0.0833333   0.7500000), wk =   0.1111111
        k(   15) = (   0.4166667   0.2500000   0.5833333), wk =   0.1111111
        k(   16) = (  -0.0833333  -0.9166667   0.0833333), wk =   0.0555556
        k(   17) = (  -0.2500000  -0.7500000  -0.0833333), wk =   0.1111111
        k(   18) = (  -0.0833333  -0.5833333   0.0833333), wk =   0.0555556
        k(   19) = (  -0.2500000   0.2500000   0.2500000), wk =   0.0185185
        k(   20) = (  -0.4166667   0.4166667   0.0833333), wk =   0.0555556
        k(   21) = (   0.4166667  -0.4166667   0.9166667), wk =   0.0555556
        k(   22) = (   0.2500000  -0.2500000   0.7500000), wk =   0.0555556
        k(   23) = (  -0.2500000   0.5833333   0.2500000), wk =   0.0555556
        k(   24) = (   0.5833333  -0.2500000   1.0833333), wk =   0.1111111
        k(   25) = (   0.4166667  -0.0833333   0.9166667), wk =   0.1111111
        k(   26) = (  -0.2500000  -1.0833333   0.2500000), wk =   0.0555556
        k(   27) = (  -0.4166667   0.4166667   0.4166667), wk =   0.0185185
        k(   28) = (   0.4166667  -0.4166667   1.2500000), wk =   0.0555556

     Dense  grid:    18053 G-vectors     FFT dimensions: (  40,  40,  40)

     Smooth grid:     6375 G-vectors     FFT dimensions: (  25,  25,  25)

     Estimated max dynamical RAM per process >       3.45MB

     Estimated total allocated dynamical RAM >      13.81MB

     Initial potential from superposition of free atoms

     starting charge    7.99866, renormalised to    8.00000
     Starting wfc are    8 randomized atomic wfcs

     total cpu time spent up to now is        0.5 secs

     per-process dynamical memory:    10.7 Mb

     Self-consistent Calculation

     iteration #  1     ecut=    30.00 Ry     beta=0.70
     Davidson diagonalization with overlap
     ethr =  1.00E-02,  avg # of iterations =  2.0

     Threshold (ethr) on eigenvalues was too large:
     Diagonalizing with lowered threshold

     Davidson diagonalization with overlap
     ethr =  6.32E-04,  avg # of iterations =  1.1

     total cpu time spent up to now is        1.2 secs

     total energy              =     -19.19021005 Ry
     Harris-Foulkes estimate   =     -19.20112400 Ry
     estimated scf accuracy    <       0.05027696 Ry

     iteration #  2     ecut=    30.00 Ry     beta=0.70
     Davidson diagonalization with overlap
     ethr =  6.28E-04,  avg # of iterations =  1.0

     total cpu time spent up to now is        1.4 secs

     total energy              =     -19.19175046 Ry
     Harris-Foulkes estimate   =     -19.19191664 Ry
     estimated scf accuracy    <       0.00245883 Ry

     iteration #  3     ecut=    30.00 Ry     beta=0.70
     Davidson diagonalization with overlap
     ethr =  3.07E-05,  avg # of iterations =  2.2

     total cpu time spent up to now is        1.7 secs

     total energy              =     -19.19207708 Ry
     Harris-Foulkes estimate   =     -19.19208640 Ry
     estimated scf accuracy    <       0.00003384 Ry

     iteration #  4     ecut=    30.00 Ry     beta=0.70
     Davidson diagonalization with overlap
     ethr =  4.23E-07,  avg # of iterations =  3.3

     total cpu time spent up to now is        2.0 secs

     total energy              =     -19.19210787 Ry
     Harris-Foulkes estimate   =     -19.19210814 Ry
     estimated scf accuracy    <       0.00000140 Ry

     iteration #  5     ecut=    30.00 Ry     beta=0.70
     Davidson diagonalization with overlap
     ethr =  1.75E-08,  avg # of iterations =  2.2

     total cpu time spent up to now is        2.2 secs

     End of self-consistent calculation

          k =-0.0833 0.0833 0.0833 (   809 PWs)   bands (ev):

    -5.8872   4.7191   5.4478   5.4478

          k =-0.2500 0.2500-0.0833 (   805 PWs)   bands (ev):

    -5.4338   2.6847   4.2764   5.2403

          k =-0.4167 0.4167-0.2500 (   798 PWs)   bands (ev):

    -4.4011   0.0511   3.8159   4.6328

          k = 0.4167-0.4167 0.5833 (   794 PWs)   bands (ev):

    -3.7531  -1.0242   3.8693   4.2737

          k = 0.2500-0.2500 0.4167 (   798 PWs)   bands (ev):

    -4.7888   0.8557   4.3381   4.3449

          k = 0.0833-0.0833 0.2500 (   799 PWs)   bands (ev):

    -5.6581   3.6566   4.8405   4.9966

          k =-0.0833 0.4167 0.0833 (   808 PWs)   bands (ev):

    -5.2040   2.4625   4.1180   4.1473

          k =-0.2500 0.5833-0.0833 (   799 PWs)   bands (ev):

    -4.3402   0.6921   2.8774   3.7755

          k = 0.5833-0.2500 0.7500 (   798 PWs)   bands (ev):

    -3.2968  -0.9463   2.2888   3.5649

          k = 0.4167-0.0833 0.5833 (   796 PWs)   bands (ev):

    -3.9696   0.0407   2.2687   4.0199

          k = 0.2500 0.0833 0.4167 (   804 PWs)   bands (ev):

    -4.9905   1.6817   3.5371   4.6438

          k =-0.0833 0.7500 0.0833 (   790 PWs)   bands (ev):

    -3.6617  -0.1288   2.8512   3.1651

          k = 0.7500-0.0833 0.9167 (   786 PWs)   bands (ev):

    -2.5317  -1.4100   2.0673   2.7890

          k = 0.5833 0.0833 0.7500 (   794 PWs)   bands (ev):

    -2.8967  -1.0656   1.6060   3.3041

          k = 0.4167 0.2500 0.5833 (   797 PWs)   bands (ev):

    -3.8696  -0.5689   3.1320   4.1095

          k =-0.0833-0.9167 0.0833 (   785 PWs)   bands (ev):

    -2.6125  -1.4148   2.5963   2.9591

          k =-0.2500-0.7500-0.0833 (   793 PWs)   bands (ev):

    -3.5054  -0.3368   2.3613   3.1126

          k =-0.0833-0.5833 0.0833 (   808 PWs)   bands (ev):

    -4.5336   1.1866   3.3630   3.5687

          k =-0.2500 0.2500 0.2500 (   806 PWs)   bands (ev):

    -5.2161   1.7597   4.8613   4.8613

          k =-0.4167 0.4167 0.0833 (   800 PWs)   bands (ev):

    -4.5721   0.8290   2.8417   4.6957

          k = 0.4167-0.4167 0.9167 (   791 PWs)   bands (ev):

    -3.4614  -0.5677   1.8015   3.9540

          k = 0.2500-0.2500 0.7500 (   797 PWs)   bands (ev):

    -3.4090  -0.6448   2.2452   3.4993

          k =-0.2500 0.5833 0.2500 (   800 PWs)   bands (ev):

    -4.1716   0.0666   3.2558   3.8541

          k = 0.5833-0.2500 1.0833 (   795 PWs)   bands (ev):

    -3.2248  -0.6969   1.8996   3.1161

          k = 0.4167-0.0833 0.9167 (   786 PWs)   bands (ev):

    -2.4393  -1.4176   1.7597   2.4906

          k =-0.2500-1.0833 0.2500 (   794 PWs)   bands (ev):

    -2.6410  -1.3132   1.6397   3.3141

          k =-0.4167 0.4167 0.4167 (   799 PWs)   bands (ev):

    -4.0955  -0.6452   4.4852   4.4852

          k = 0.4167-0.4167 1.2500 (   797 PWs)   bands (ev):

    -3.5279  -0.9508   2.7310   4.0728

     highest occupied level (ev):     5.4478

!    total energy              =     -19.19210812 Ry
     Harris-Foulkes estimate   =     -19.19210812 Ry
     estimated scf accuracy    <          5.5E-09 Ry

     The total energy is the sum of the following terms:

     one-electron contribution =       4.65403952 Ry
     hartree contribution      =       1.16886666 Ry
     xc contribution           =      -8.55106613 Ry
     ewald contribution        =     -16.46394818 Ry

     convergence has been achieved in   5 iterations

     Writing output data file silicon.10.47.save

     init_run     :      0.36s CPU      0.40s WALL (       1 calls)
     electrons    :      1.35s CPU      1.75s WALL (       1 calls)

     Called by init_run:
     wfcinit      :      0.08s CPU      0.10s WALL (       1 calls)
     potinit      :      0.03s CPU      0.03s WALL (       1 calls)

     Called by electrons:
     c_bands      :      0.78s CPU      1.09s WALL (       6 calls)
     sum_band     :      0.33s CPU      0.37s WALL (       6 calls)
     v_of_rho     :      0.12s CPU      0.13s WALL (       6 calls)
     newd         :      0.14s CPU      0.18s WALL (       6 calls)
     mix_rho      :      0.01s CPU      0.01s WALL (       6 calls)

     Called by c_bands:
     init_us_2    :      0.05s CPU      0.06s WALL (     364 calls)
     cegterg      :      0.66s CPU      0.91s WALL (     168 calls)

     Called by sum_band:
     sum_band:bec :      0.00s CPU      0.00s WALL (     168 calls)
     addusdens    :      0.16s CPU      0.16s WALL (       6 calls)

     Called by *egterg:
     h_psi        :      0.57s CPU      0.77s WALL (     529 calls)
     s_psi        :      0.04s CPU      0.05s WALL (     529 calls)
     g_psi        :      0.00s CPU      0.00s WALL (     333 calls)
     cdiaghg      :      0.04s CPU      0.05s WALL (     473 calls)

     Called by h_psi:
     h_psi:pot    :      0.56s CPU      0.77s WALL (     529 calls)
     h_psi:calbec :      0.06s CPU      0.08s WALL (     529 calls)
     vloc_psi     :      0.45s CPU      0.63s WALL (     529 calls)
     add_vuspsi   :      0.05s CPU      0.05s WALL (     529 calls)

     General routines
     calbec       :      0.08s CPU      0.10s WALL (     697 calls)
     fft          :      0.10s CPU      0.11s WALL (      96 calls)
     ffts         :      0.00s CPU      0.00s WALL (      12 calls)
     fftw         :      0.45s CPU      0.64s WALL (    4640 calls)
     interpolate  :      0.01s CPU      0.01s WALL (      12 calls)
     davcio       :      0.00s CPU      0.00s WALL (      28 calls)

     Parallel routines
     fft_scatter  :      0.24s CPU      0.41s WALL (    4748 calls)

     PWSCF        :     1.91s CPU         2.37s WALL


   This run was terminated on:  10:15:24  10Nov2017            

=------------------------------------------------------------------------------=
   JOB DONE.
=------------------------------------------------------------------------------=
