
     Program PWSCF v.5.4.0 starts on  9Apr2018 at 16: 4: 0 

     This program is part of the open-source Quantum ESPRESSO suite
     for quantum simulation of materials; please cite
         "P. Giannozzi et al., J. Phys.:Condens. Matter 21 395502 (2009);
          URL http://www.quantum-espresso.org", 
     in publications or presentations arising from this work. More details at
     http://www.quantum-espresso.org/quote

     Parallel version (MPI & OpenMP), running on     384 processor cores
     Number of MPI processes:               384
     Threads/MPI process:                     1
     K-points division:     npool     =      24
     R & G space division:  proc/nbgrp/npool/nimage =      16
     Waiting for input...
     Reading input from standard input
     Message from routine read_cards :
     DEPRECATED: no units specified in ATOMIC_POSITIONS card
     Message from routine read_cards :
     ATOMIC_POSITIONS: units set to alat

     Current dimensions of program PWSCF are:
     Max number of different atomic species (ntypx) = 10
     Max number of k-points (npk) =  40000
     Max angular momentum in pseudopotentials (lmaxx) =  3

     Subspace diagonalization in iterative solution of the eigenvalue problem:
     one sub-group per band group will be used
     scalapack distributed-memory algorithm (size of sub-group:  2*  2 procs)

 
     Parallelization info
     --------------------
     sticks:   dense  smooth     PW     G-vecs:    dense   smooth      PW
     Min          12      12      5                  118      118      28
     Max          13      13      6                  122      122      29
     Sum         199     199     85                 1917     1917     459
 


     bravais-lattice index     =            2
     lattice parameter (alat)  =      10.2200  a.u.
     unit-cell volume          =     266.8657 (a.u.)^3
     number of atoms/cell      =            2
     number of atomic types    =            1
     number of electrons       =         8.00
     number of Kohn-Sham states=            4
     kinetic-energy cutoff     =      14.0000  Ry
     charge density cutoff     =      56.0000  Ry
     convergence threshold     =      1.0E-08
     mixing beta               =       0.7000
     number of iterations used =            8  plain     mixing
     Exchange-correlation      = SLA  PW   PBE  PBE ( 1  4  3  4 0 0)

     celldm(1)=  10.220000  celldm(2)=   0.000000  celldm(3)=   0.000000
     celldm(4)=   0.000000  celldm(5)=   0.000000  celldm(6)=   0.000000

     crystal axes: (cart. coord. in units of alat)
               a(1) = (  -0.500000   0.000000   0.500000 )  
               a(2) = (   0.000000   0.500000   0.500000 )  
               a(3) = (  -0.500000   0.500000   0.000000 )  

     reciprocal axes: (cart. coord. in units 2 pi/alat)
               b(1) = ( -1.000000 -1.000000  1.000000 )  
               b(2) = (  1.000000  1.000000  1.000000 )  
               b(3) = ( -1.000000  1.000000 -1.000000 )  


     PseudoPot. # 1 for Si read from file:
     ./si_pbe_v1.uspp.F.UPF.txt
     MD5 check sum: a056efeee980c13900f22a371efd63c1
     Pseudo is Ultrasoft + core correction, Zval =  4.0
     Generated by new atomic code, or converted to UPF format
     Using radial grid of  899 points,  6 beta functions with: 
                l(1) =   0
                l(2) =   0
                l(3) =   1
                l(4) =   1
                l(5) =   2
                l(6) =   2
     Q(r) pseudized with  8 coefficients,  rinner =    0.900   0.900   0.900
                                                       0.900   0.900

     atomic species   valence    mass     pseudopotential
        Si             4.00    28.08600     Si( 1.00)

     24 Sym. Ops. (no inversion) found
          (note: 24 additional sym.ops. were found but ignored
           their fractional translations are incommensurate with FFT grid)


   Cartesian axes

     site n.     atom                  positions (alat units)
         1           Si  tau(   1) = (   0.0000000   0.0000000   0.0000000  )
         2           Si  tau(   2) = (   0.2500000   0.2500000   0.2500000  )

     number of k points=    60
                       cart. coord. in units 2pi/alat
        k(    1) = (  -0.0625000   0.0625000   0.0625000), wk =   0.0078125
        k(    2) = (  -0.1875000   0.1875000  -0.0625000), wk =   0.0234375
        k(    3) = (  -0.3125000   0.3125000  -0.1875000), wk =   0.0234375
        k(    4) = (  -0.4375000   0.4375000  -0.3125000), wk =   0.0234375
        k(    5) = (   0.4375000  -0.4375000   0.5625000), wk =   0.0234375
        k(    6) = (   0.3125000  -0.3125000   0.4375000), wk =   0.0234375
        k(    7) = (   0.1875000  -0.1875000   0.3125000), wk =   0.0234375
        k(    8) = (   0.0625000  -0.0625000   0.1875000), wk =   0.0234375
        k(    9) = (  -0.0625000   0.3125000   0.0625000), wk =   0.0234375
        k(   10) = (  -0.1875000   0.4375000  -0.0625000), wk =   0.0468750
        k(   11) = (  -0.3125000   0.5625000  -0.1875000), wk =   0.0468750
        k(   12) = (   0.5625000  -0.3125000   0.6875000), wk =   0.0468750
        k(   13) = (   0.4375000  -0.1875000   0.5625000), wk =   0.0468750
        k(   14) = (   0.3125000  -0.0625000   0.4375000), wk =   0.0468750
        k(   15) = (   0.1875000   0.0625000   0.3125000), wk =   0.0468750
        k(   16) = (  -0.0625000   0.5625000   0.0625000), wk =   0.0234375
        k(   17) = (  -0.1875000   0.6875000  -0.0625000), wk =   0.0468750
        k(   18) = (   0.6875000  -0.1875000   0.8125000), wk =   0.0468750
        k(   19) = (   0.5625000  -0.0625000   0.6875000), wk =   0.0468750
        k(   20) = (   0.4375000   0.0625000   0.5625000), wk =   0.0468750
        k(   21) = (   0.3125000   0.1875000   0.4375000), wk =   0.0468750
        k(   22) = (  -0.0625000   0.8125000   0.0625000), wk =   0.0234375
        k(   23) = (   0.8125000  -0.0625000   0.9375000), wk =   0.0468750
        k(   24) = (   0.6875000   0.0625000   0.8125000), wk =   0.0468750
        k(   25) = (   0.5625000   0.1875000   0.6875000), wk =   0.0468750
        k(   26) = (   0.4375000   0.3125000   0.5625000), wk =   0.0468750
        k(   27) = (  -0.0625000  -0.9375000   0.0625000), wk =   0.0234375
        k(   28) = (  -0.1875000  -0.8125000  -0.0625000), wk =   0.0468750
        k(   29) = (  -0.3125000  -0.6875000  -0.1875000), wk =   0.0468750
        k(   30) = (  -0.0625000  -0.6875000   0.0625000), wk =   0.0234375
        k(   31) = (  -0.1875000  -0.5625000  -0.0625000), wk =   0.0468750
        k(   32) = (  -0.0625000  -0.4375000   0.0625000), wk =   0.0234375
        k(   33) = (  -0.1875000   0.1875000   0.1875000), wk =   0.0078125
        k(   34) = (  -0.3125000   0.3125000   0.0625000), wk =   0.0234375
        k(   35) = (  -0.4375000   0.4375000  -0.0625000), wk =   0.0234375
        k(   36) = (   0.4375000  -0.4375000   0.8125000), wk =   0.0234375
        k(   37) = (   0.3125000  -0.3125000   0.6875000), wk =   0.0234375
        k(   38) = (   0.1875000  -0.1875000   0.5625000), wk =   0.0234375
        k(   39) = (  -0.1875000   0.4375000   0.1875000), wk =   0.0234375
        k(   40) = (  -0.3125000   0.5625000   0.0625000), wk =   0.0468750
        k(   41) = (   0.5625000  -0.3125000   0.9375000), wk =   0.0468750
        k(   42) = (   0.4375000  -0.1875000   0.8125000), wk =   0.0468750
        k(   43) = (   0.3125000  -0.0625000   0.6875000), wk =   0.0468750
        k(   44) = (  -0.1875000   0.6875000   0.1875000), wk =   0.0234375
        k(   45) = (   0.6875000  -0.1875000   1.0625000), wk =   0.0468750
        k(   46) = (   0.5625000  -0.0625000   0.9375000), wk =   0.0468750
        k(   47) = (   0.4375000   0.0625000   0.8125000), wk =   0.0468750
        k(   48) = (  -0.1875000  -1.0625000   0.1875000), wk =   0.0234375
        k(   49) = (  -0.3125000  -0.9375000   0.0625000), wk =   0.0468750
        k(   50) = (  -0.1875000  -0.8125000   0.1875000), wk =   0.0234375
        k(   51) = (  -0.3125000   0.3125000   0.3125000), wk =   0.0078125
        k(   52) = (  -0.4375000   0.4375000   0.1875000), wk =   0.0234375
        k(   53) = (   0.4375000  -0.4375000   1.0625000), wk =   0.0234375
        k(   54) = (   0.3125000  -0.3125000   0.9375000), wk =   0.0234375
        k(   55) = (  -0.3125000   0.5625000   0.3125000), wk =   0.0234375
        k(   56) = (   0.5625000  -0.3125000   1.1875000), wk =   0.0468750
        k(   57) = (   0.4375000  -0.1875000   1.0625000), wk =   0.0468750
        k(   58) = (  -0.3125000  -1.1875000   0.3125000), wk =   0.0234375
        k(   59) = (  -0.4375000   0.4375000   0.4375000), wk =   0.0078125
        k(   60) = (   0.4375000  -0.4375000   1.3125000), wk =   0.0234375

     Dense  grid:     1917 G-vectors     FFT dimensions: (  18,  18,  18)

     Largest allocated arrays     est. size (Mb)     dimensions
        Kohn-Sham Wavefunctions         0.00 Mb     (      19,    4)
        NL pseudopotentials             0.01 Mb     (      19,   36)
        Each V/rho on FFT grid          0.01 Mb     (     648)
        Each G-vector array             0.00 Mb     (     119)
        G-vector shells                 0.00 Mb     (      40)
     Largest temporary arrays     est. size (Mb)     dimensions
        Auxiliary wavefunctions         0.00 Mb     (      19,   16)
        Each subspace H/S matrix        0.00 Mb     (       8,    8)
        Each <psi_i|beta_j> matrix      0.00 Mb     (      36,    4)
        Arrays for rho mixing           0.08 Mb     (     648,    8)

     Check: negative/imaginary core charge=   -0.000022    0.000000

     Initial potential from superposition of free atoms

     starting charge    7.99866, renormalised to    8.00000
     Starting wfc are    8 randomized atomic wfcs

     total cpu time spent up to now is        0.2 secs

     per-process dynamical memory:     8.7 Mb

     Self-consistent Calculation

     iteration #  1     ecut=    14.00 Ry     beta=0.70
     Davidson diagonalization with overlap
     ethr =  1.00E-02,  avg # of iterations =  2.0

     Threshold (ethr) on eigenvalues was too large:
     Diagonalizing with lowered threshold

     Davidson diagonalization with overlap
     ethr =  7.46E-04,  avg # of iterations =  1.0

     negative rho (up, down):  6.680E-06 0.000E+00

     total cpu time spent up to now is        0.2 secs

     total energy              =     -19.19660151 Ry
     Harris-Foulkes estimate   =     -19.21041065 Ry
     estimated scf accuracy    <       0.05957899 Ry

     iteration #  2     ecut=    14.00 Ry     beta=0.70
     Davidson diagonalization with overlap
     ethr =  7.45E-04,  avg # of iterations =  1.0

     negative rho (up, down):  3.551E-05 0.000E+00

     total cpu time spent up to now is        0.2 secs

     total energy              =     -19.19834757 Ry
     Harris-Foulkes estimate   =     -19.19861827 Ry
     estimated scf accuracy    <       0.00254279 Ry

     iteration #  3     ecut=    14.00 Ry     beta=0.70
     Davidson diagonalization with overlap
     ethr =  3.18E-05,  avg # of iterations =  2.0

     negative rho (up, down):  3.551E-05 0.000E+00

     total cpu time spent up to now is        0.2 secs

     total energy              =     -19.19866435 Ry
     Harris-Foulkes estimate   =     -19.19868737 Ry
     estimated scf accuracy    <       0.00005504 Ry

     iteration #  4     ecut=    14.00 Ry     beta=0.70
     Davidson diagonalization with overlap
     ethr =  6.88E-07,  avg # of iterations =  2.3

     negative rho (up, down):  3.725E-05 0.000E+00

     total cpu time spent up to now is        0.3 secs

     total energy              =     -19.19868132 Ry
     Harris-Foulkes estimate   =     -19.19868390 Ry
     estimated scf accuracy    <       0.00000648 Ry

     iteration #  5     ecut=    14.00 Ry     beta=0.70
     Davidson diagonalization with overlap
     ethr =  8.11E-08,  avg # of iterations =  2.0

     negative rho (up, down):  3.726E-05 0.000E+00

     total cpu time spent up to now is        0.3 secs

     total energy              =     -19.19868221 Ry
     Harris-Foulkes estimate   =     -19.19868224 Ry
     estimated scf accuracy    <       0.00000008 Ry

     iteration #  6     ecut=    14.00 Ry     beta=0.70
     Davidson diagonalization with overlap
     ethr =  9.71E-10,  avg # of iterations =  2.7

     negative rho (up, down):  3.728E-05 0.000E+00

     total cpu time spent up to now is        0.3 secs

     End of self-consistent calculation

          k =-0.0625 0.0625 0.0625 (   256 PWs)   bands (ev):

    -5.6626   5.7815   6.2250   6.2250

          k =-0.1875 0.1875-0.0625 (   241 PWs)   bands (ev):

    -5.3859   4.2704   5.4064   6.1075

          k =-0.3125 0.3125-0.1875 (   239 PWs)   bands (ev):

    -4.7275   2.0123   4.9147   5.6380

          k =-0.4375 0.4375-0.3125 (   238 PWs)   bands (ev):

    -3.8063   0.0897   4.6967   5.2247

          k = 0.4375-0.4375 0.5625 (   235 PWs)   bands (ev):

    -3.3430  -0.6280   4.7501   5.0018

          k = 0.3125-0.3125 0.4375 (   237 PWs)   bands (ev):

    -4.1208   0.6593   5.0223   5.0412

          k = 0.1875-0.1875 0.3125 (   236 PWs)   bands (ev):

    -4.9853   2.7543   5.3029   5.5148

          k = 0.0625-0.0625 0.1875 (   247 PWs)   bands (ev):

    -5.5233   5.0318   5.7912   5.9595

          k =-0.0625 0.3125 0.0625 (   239 PWs)   bands (ev):

    -5.2495   4.1413   5.2240   5.3175

          k =-0.1875 0.4375-0.0625 (   235 PWs)   bands (ev):

    -4.7140   2.6218   4.2378   5.0514

          k =-0.3125 0.5625-0.1875 (   236 PWs)   bands (ev):

    -3.8531   0.7247   3.7455   4.6287

          k = 0.5625-0.3125 0.6875 (   240 PWs)   bands (ev):

    -3.0718  -0.5168   3.4533   4.5310

          k = 0.4375-0.1875 0.5625 (   240 PWs)   bands (ev):

    -3.5413   0.1914   3.3743   4.8237

          k = 0.3125-0.0625 0.4375 (   233 PWs)   bands (ev):

    -4.4612   1.9613   3.6721   5.3455

          k = 0.1875 0.0625 0.3125 (   238 PWs)   bands (ev):

    -5.1159   3.4500   4.8198   5.7267

          k =-0.0625 0.5625 0.0625 (   229 PWs)   bands (ev):

    -4.3042   2.1286   4.0920   4.2137

          k =-0.1875 0.6875-0.0625 (   232 PWs)   bands (ev):

    -3.5381   0.8684   3.2877   3.8593

          k = 0.6875-0.1875 0.8125 (   234 PWs)   bands (ev):

    -2.6186  -0.3556   2.4318   3.8272

          k = 0.5625-0.0625 0.6875 (   234 PWs)   bands (ev):

    -2.6889  -0.2610   2.0675   4.1804

          k = 0.4375 0.0625 0.5625 (   236 PWs)   bands (ev):

    -3.6082   0.7021   2.6895   4.7797

          k = 0.3125 0.1875 0.4375 (   237 PWs)   bands (ev):

    -4.3465   1.3321   4.3650   5.2444

          k =-0.0625 0.8125 0.0625 (   232 PWs)   bands (ev):

    -2.8721  -0.0084   3.3859   3.6091

          k = 0.8125-0.0625 0.9375 (   233 PWs)   bands (ev):

    -1.9429  -1.0150   2.8142   3.3588

          k = 0.6875 0.0625 0.8125 (   232 PWs)   bands (ev):

    -2.0348  -0.8476   2.0668   3.6810

          k = 0.5625 0.1875 0.6875 (   239 PWs)   bands (ev):

    -2.8112  -0.4581   2.6492   4.2951

          k = 0.4375 0.3125 0.5625 (   239 PWs)   bands (ev):

    -3.4329  -0.3211   4.1925   4.8979

          k =-0.0625-0.9375 0.0625 (   229 PWs)   bands (ev):

    -1.9963  -1.0331   3.2451   3.4851

          k =-0.1875-0.8125-0.0625 (   234 PWs)   bands (ev):

    -2.7845  -0.0727   2.9765   3.5213

          k =-0.3125-0.6875-0.1875 (   237 PWs)   bands (ev):

    -3.2645   0.1738   3.0541   4.1331

          k =-0.0625-0.6875 0.0625 (   233 PWs)   bands (ev):

    -3.6451   1.0549   3.6684   3.8537

          k =-0.1875-0.5625-0.0625 (   234 PWs)   bands (ev):

    -4.1856   1.7687   3.7182   4.3821

          k =-0.0625-0.4375 0.0625 (   233 PWs)   bands (ev):

    -4.8409   3.1654   4.6521   4.6786

          k =-0.1875 0.1875 0.1875 (   238 PWs)   bands (ev):

    -5.2500   3.5327   5.7786   5.7786

          k =-0.3125 0.3125 0.0625 (   236 PWs)   bands (ev):

    -4.8509   2.6943   4.2369   5.8003

          k =-0.4375 0.4375-0.0625 (   237 PWs)   bands (ev):

    -4.0902   1.3112   3.1322   5.2841

          k = 0.4375-0.4375 0.8125 (   238 PWs)   bands (ev):

    -3.1733  -0.2188   2.9867   4.7408

          k = 0.3125-0.3125 0.6875 (   239 PWs)   bands (ev):

    -3.1577  -0.2485   3.2958   4.4144

          k = 0.1875-0.1875 0.5625 (   232 PWs)   bands (ev):

    -4.0712   1.3052   3.9208   4.3902

          k =-0.1875 0.4375 0.1875 (   233 PWs)   bands (ev):

    -4.5894   2.0153   4.7698   4.8164

          k =-0.3125 0.5625 0.0625 (   235 PWs)   bands (ev):

    -3.9500   1.2485   3.1894   4.6202

          k = 0.5625-0.3125 0.9375 (   237 PWs)   bands (ev):

    -3.0378   0.1307   2.3797   4.0354

          k = 0.4375-0.1875 0.8125 (   236 PWs)   bands (ev):

    -2.5375  -0.4989   2.3894   3.7130

          k = 0.3125-0.0625 0.6875 (   236 PWs)   bands (ev):

    -3.3307   0.5337   2.8153   3.8979

          k =-0.1875 0.6875 0.1875 (   235 PWs)   bands (ev):

    -3.4419   0.5866   3.1625   4.0514

          k = 0.6875-0.1875 1.0625 (   237 PWs)   bands (ev):

    -2.6215  -0.2154   2.5627   3.3466

          k = 0.5625-0.0625 0.9375 (   235 PWs)   bands (ev):

    -1.7906  -0.9803   2.2326   2.8321

          k = 0.4375 0.0625 0.8125 (   239 PWs)   bands (ev):

    -2.4106  -0.4286   2.2287   3.3195

          k =-0.1875-1.0625 0.1875 (   229 PWs)   bands (ev):

    -1.9594  -0.9621   2.3401   3.7024

          k =-0.3125-0.9375 0.0625 (   235 PWs)   bands (ev):

    -1.8593  -0.9913   2.4362   3.0549

          k =-0.1875-0.8125 0.1875 (   234 PWs)   bands (ev):

    -2.7189  -0.1795   2.6168   3.8195

          k =-0.3125 0.3125 0.3125 (   232 PWs)   bands (ev):

    -4.4782   1.2943   5.3604   5.3604

          k =-0.4375 0.4375 0.1875 (   238 PWs)   bands (ev):

    -3.9906   0.7110   3.8728   5.2697

          k = 0.4375-0.4375 1.0625 (   236 PWs)   bands (ev):

    -3.1769   0.1917   2.2984   4.6750

          k = 0.3125-0.3125 0.9375 (   233 PWs)   bands (ev):

    -2.3340  -0.5968   1.9463   4.1151

          k =-0.3125 0.5625 0.3125 (   235 PWs)   bands (ev):

    -3.6681   0.1420   4.2230   4.6918

          k = 0.5625-0.3125 1.1875 (   237 PWs)   bands (ev):

    -3.0333  -0.2126   2.8788   4.2033

          k = 0.4375-0.1875 1.0625 (   234 PWs)   bands (ev):

    -2.1942  -0.6582   2.0401   3.4729

          k =-0.3125-1.1875 0.3125 (   238 PWs)   bands (ev):

    -2.6665  -0.4925   2.4697   4.2166

          k =-0.4375 0.4375 0.4375 (   235 PWs)   bands (ev):

    -3.5666  -0.3877   5.1340   5.1340

          k = 0.4375-0.4375 1.3125 (   241 PWs)   bands (ev):

    -3.2082  -0.5643   3.8960   4.8579

     highest occupied level (ev):     6.2250

!    total energy              =     -19.19868224 Ry
     Harris-Foulkes estimate   =     -19.19868224 Ry
     estimated scf accuracy    <          4.0E-09 Ry

     The total energy is the sum of the following terms:

     one-electron contribution =       5.20805472 Ry
     hartree contribution      =       1.12093122 Ry
     xc contribution           =      -8.66098154 Ry
     ewald contribution        =     -16.86668664 Ry

     convergence has been achieved in   6 iterations

     negative rho (up, down):  3.728E-05 0.000E+00

     Forces acting on atoms (Ry/au):

     atom    1 type  1   force =     0.00000000    0.00000000   -0.00000000
     atom    2 type  1   force =    -0.00000000    0.00000000   -0.00000000

     Total force =     0.000000     Total SCF correction =     0.000000


     entering subroutine stress ...


     negative rho (up, down):  3.728E-05 0.000E+00
          total   stress  (Ry/bohr**3)                   (kbar)     P=   36.39
   0.00024737  -0.00000000   0.00000000         36.39     -0.00      0.00
  -0.00000000   0.00024737   0.00000000         -0.00     36.39      0.00
   0.00000000   0.00000000   0.00024737          0.00      0.00     36.39


     Writing output data file silicon.save
 
     init_run     :      0.04s CPU      0.05s WALL (       1 calls)
     electrons    :      0.10s CPU      0.14s WALL (       1 calls)
     forces       :      0.00s CPU      0.00s WALL (       1 calls)
     stress       :      0.01s CPU      0.01s WALL (       1 calls)

     Called by init_run:
     wfcinit      :      0.01s CPU      0.02s WALL (       1 calls)
     potinit      :      0.00s CPU      0.00s WALL (       1 calls)

     Called by electrons:
     c_bands      :      0.07s CPU      0.08s WALL (       7 calls)
     sum_band     :      0.02s CPU      0.01s WALL (       7 calls)
     v_of_rho     :      0.01s CPU      0.00s WALL (       7 calls)
     newd         :      0.00s CPU      0.00s WALL (       7 calls)
     mix_rho      :      0.00s CPU      0.00s WALL (       7 calls)

     Called by c_bands:
     init_us_2    :      0.00s CPU      0.00s WALL (      51 calls)
     cegterg      :      0.06s CPU      0.05s WALL (      21 calls)

     Called by sum_band:
     sum_band:bec :      0.00s CPU      0.00s WALL (      21 calls)
     addusdens    :      0.01s CPU      0.00s WALL (       7 calls)

     Called by *egterg:
     h_psi        :      0.02s CPU      0.02s WALL (      68 calls)
     s_psi        :      0.00s CPU      0.00s WALL (      68 calls)
     g_psi        :      0.00s CPU      0.00s WALL (      44 calls)
     cdiaghg      :      0.03s CPU      0.03s WALL (      62 calls)

     Called by h_psi:
     add_vuspsi   :      0.00s CPU      0.00s WALL (      68 calls)

     General routines
     calbec       :      0.00s CPU      0.00s WALL (     104 calls)
     fft          :      0.01s CPU      0.01s WALL (     118 calls)
     fftw         :      0.02s CPU      0.02s WALL (     588 calls)
     davcio       :      0.00s CPU      0.00s WALL (       3 calls)
 
     Parallel routines
     fft_scatter  :      0.02s CPU      0.02s WALL (     706 calls)
 
     PWSCF        :     0.32s CPU         7.49s WALL

 
   This run was terminated on:  16: 4: 7   9Apr2018            

=------------------------------------------------------------------------------=
   JOB DONE.
=------------------------------------------------------------------------------=
Application 30462568 resources: utime ~2877s, stime ~49s, Rss ~20212, inblocks ~3530950, outblocks ~2801330
