
     Program PWSCF v.5.4.0 starts on  6Apr2018 at 23:48: 7 

     This program is part of the open-source Quantum ESPRESSO suite
     for quantum simulation of materials; please cite
         "P. Giannozzi et al., J. Phys.:Condens. Matter 21 395502 (2009);
          URL http://www.quantum-espresso.org", 
     in publications or presentations arising from this work. More details at
     http://www.quantum-espresso.org/quote

     Parallel version (MPI & OpenMP), running on     192 processor cores
     Number of MPI processes:               192
     Threads/MPI process:                     1
     K-points division:     npool     =      24
     R & G space division:  proc/nbgrp/npool/nimage =       8
     Waiting for input...
     Reading input from standard input
     Message from routine read_cards :
     DEPRECATED: no units specified in ATOMIC_POSITIONS card
     Message from routine read_cards :
     ATOMIC_POSITIONS: units set to alat

     Current dimensions of program PWSCF are:
     Max number of different atomic species (ntypx) = 10
     Max number of k-points (npk) =  40000
     Max angular momentum in pseudopotentials (lmaxx) =  3

     Subspace diagonalization in iterative solution of the eigenvalue problem:
     one sub-group per band group will be used
     scalapack distributed-memory algorithm (size of sub-group:  2*  2 procs)

 
     Parallelization info
     --------------------
     sticks:   dense  smooth     PW     G-vecs:    dense   smooth      PW
     Min          61      61     20                  889      889     170
     Max          63      63     21                  891      891     172
     Sum         499     499    163                 7119     7119    1363
 


     bravais-lattice index     =            2
     lattice parameter (alat)  =      10.2200  a.u.
     unit-cell volume          =     266.8657 (a.u.)^3
     number of atoms/cell      =            2
     number of atomic types    =            1
     number of electrons       =         8.00
     number of Kohn-Sham states=            4
     kinetic-energy cutoff     =      34.0000  Ry
     charge density cutoff     =     136.0000  Ry
     convergence threshold     =      1.0E-08
     mixing beta               =       0.7000
     number of iterations used =            8  plain     mixing
     Exchange-correlation      = SLA  PW   PBE  PBE ( 1  4  3  4 0 0)

     celldm(1)=  10.220000  celldm(2)=   0.000000  celldm(3)=   0.000000
     celldm(4)=   0.000000  celldm(5)=   0.000000  celldm(6)=   0.000000

     crystal axes: (cart. coord. in units of alat)
               a(1) = (  -0.500000   0.000000   0.500000 )  
               a(2) = (   0.000000   0.500000   0.500000 )  
               a(3) = (  -0.500000   0.500000   0.000000 )  

     reciprocal axes: (cart. coord. in units 2 pi/alat)
               b(1) = ( -1.000000 -1.000000  1.000000 )  
               b(2) = (  1.000000  1.000000  1.000000 )  
               b(3) = ( -1.000000  1.000000 -1.000000 )  


     PseudoPot. # 1 for Si read from file:
     ./si_pbe_v1.uspp.F.UPF.txt
     MD5 check sum: a056efeee980c13900f22a371efd63c1
     Pseudo is Ultrasoft + core correction, Zval =  4.0
     Generated by new atomic code, or converted to UPF format
     Using radial grid of  899 points,  6 beta functions with: 
                l(1) =   0
                l(2) =   0
                l(3) =   1
                l(4) =   1
                l(5) =   2
                l(6) =   2
     Q(r) pseudized with  8 coefficients,  rinner =    0.900   0.900   0.900
                                                       0.900   0.900

     atomic species   valence    mass     pseudopotential
        Si             4.00    28.08600     Si( 1.00)

     24 Sym. Ops. (no inversion) found
          (note: 24 additional sym.ops. were found but ignored
           their fractional translations are incommensurate with FFT grid)


   Cartesian axes

     site n.     atom                  positions (alat units)
         1           Si  tau(   1) = (   0.0000000   0.0000000   0.0000000  )
         2           Si  tau(   2) = (   0.2500000   0.2500000   0.2500000  )

     number of k points=    60
                       cart. coord. in units 2pi/alat
        k(    1) = (  -0.0625000   0.0625000   0.0625000), wk =   0.0078125
        k(    2) = (  -0.1875000   0.1875000  -0.0625000), wk =   0.0234375
        k(    3) = (  -0.3125000   0.3125000  -0.1875000), wk =   0.0234375
        k(    4) = (  -0.4375000   0.4375000  -0.3125000), wk =   0.0234375
        k(    5) = (   0.4375000  -0.4375000   0.5625000), wk =   0.0234375
        k(    6) = (   0.3125000  -0.3125000   0.4375000), wk =   0.0234375
        k(    7) = (   0.1875000  -0.1875000   0.3125000), wk =   0.0234375
        k(    8) = (   0.0625000  -0.0625000   0.1875000), wk =   0.0234375
        k(    9) = (  -0.0625000   0.3125000   0.0625000), wk =   0.0234375
        k(   10) = (  -0.1875000   0.4375000  -0.0625000), wk =   0.0468750
        k(   11) = (  -0.3125000   0.5625000  -0.1875000), wk =   0.0468750
        k(   12) = (   0.5625000  -0.3125000   0.6875000), wk =   0.0468750
        k(   13) = (   0.4375000  -0.1875000   0.5625000), wk =   0.0468750
        k(   14) = (   0.3125000  -0.0625000   0.4375000), wk =   0.0468750
        k(   15) = (   0.1875000   0.0625000   0.3125000), wk =   0.0468750
        k(   16) = (  -0.0625000   0.5625000   0.0625000), wk =   0.0234375
        k(   17) = (  -0.1875000   0.6875000  -0.0625000), wk =   0.0468750
        k(   18) = (   0.6875000  -0.1875000   0.8125000), wk =   0.0468750
        k(   19) = (   0.5625000  -0.0625000   0.6875000), wk =   0.0468750
        k(   20) = (   0.4375000   0.0625000   0.5625000), wk =   0.0468750
        k(   21) = (   0.3125000   0.1875000   0.4375000), wk =   0.0468750
        k(   22) = (  -0.0625000   0.8125000   0.0625000), wk =   0.0234375
        k(   23) = (   0.8125000  -0.0625000   0.9375000), wk =   0.0468750
        k(   24) = (   0.6875000   0.0625000   0.8125000), wk =   0.0468750
        k(   25) = (   0.5625000   0.1875000   0.6875000), wk =   0.0468750
        k(   26) = (   0.4375000   0.3125000   0.5625000), wk =   0.0468750
        k(   27) = (  -0.0625000  -0.9375000   0.0625000), wk =   0.0234375
        k(   28) = (  -0.1875000  -0.8125000  -0.0625000), wk =   0.0468750
        k(   29) = (  -0.3125000  -0.6875000  -0.1875000), wk =   0.0468750
        k(   30) = (  -0.0625000  -0.6875000   0.0625000), wk =   0.0234375
        k(   31) = (  -0.1875000  -0.5625000  -0.0625000), wk =   0.0468750
        k(   32) = (  -0.0625000  -0.4375000   0.0625000), wk =   0.0234375
        k(   33) = (  -0.1875000   0.1875000   0.1875000), wk =   0.0078125
        k(   34) = (  -0.3125000   0.3125000   0.0625000), wk =   0.0234375
        k(   35) = (  -0.4375000   0.4375000  -0.0625000), wk =   0.0234375
        k(   36) = (   0.4375000  -0.4375000   0.8125000), wk =   0.0234375
        k(   37) = (   0.3125000  -0.3125000   0.6875000), wk =   0.0234375
        k(   38) = (   0.1875000  -0.1875000   0.5625000), wk =   0.0234375
        k(   39) = (  -0.1875000   0.4375000   0.1875000), wk =   0.0234375
        k(   40) = (  -0.3125000   0.5625000   0.0625000), wk =   0.0468750
        k(   41) = (   0.5625000  -0.3125000   0.9375000), wk =   0.0468750
        k(   42) = (   0.4375000  -0.1875000   0.8125000), wk =   0.0468750
        k(   43) = (   0.3125000  -0.0625000   0.6875000), wk =   0.0468750
        k(   44) = (  -0.1875000   0.6875000   0.1875000), wk =   0.0234375
        k(   45) = (   0.6875000  -0.1875000   1.0625000), wk =   0.0468750
        k(   46) = (   0.5625000  -0.0625000   0.9375000), wk =   0.0468750
        k(   47) = (   0.4375000   0.0625000   0.8125000), wk =   0.0468750
        k(   48) = (  -0.1875000  -1.0625000   0.1875000), wk =   0.0234375
        k(   49) = (  -0.3125000  -0.9375000   0.0625000), wk =   0.0468750
        k(   50) = (  -0.1875000  -0.8125000   0.1875000), wk =   0.0234375
        k(   51) = (  -0.3125000   0.3125000   0.3125000), wk =   0.0078125
        k(   52) = (  -0.4375000   0.4375000   0.1875000), wk =   0.0234375
        k(   53) = (   0.4375000  -0.4375000   1.0625000), wk =   0.0234375
        k(   54) = (   0.3125000  -0.3125000   0.9375000), wk =   0.0234375
        k(   55) = (  -0.3125000   0.5625000   0.3125000), wk =   0.0234375
        k(   56) = (   0.5625000  -0.3125000   1.1875000), wk =   0.0468750
        k(   57) = (   0.4375000  -0.1875000   1.0625000), wk =   0.0468750
        k(   58) = (  -0.3125000  -1.1875000   0.3125000), wk =   0.0234375
        k(   59) = (  -0.4375000   0.4375000   0.4375000), wk =   0.0078125
        k(   60) = (   0.4375000  -0.4375000   1.3125000), wk =   0.0234375

     Dense  grid:     7119 G-vectors     FFT dimensions: (  27,  27,  27)

     Largest allocated arrays     est. size (Mb)     dimensions
        Kohn-Sham Wavefunctions         0.01 Mb     (     119,    4)
        NL pseudopotentials             0.07 Mb     (     119,   36)
        Each V/rho on FFT grid          0.04 Mb     (    2916)
        Each G-vector array             0.01 Mb     (     891)
        G-vector shells                 0.00 Mb     (     121)
     Largest temporary arrays     est. size (Mb)     dimensions
        Auxiliary wavefunctions         0.03 Mb     (     119,   16)
        Each subspace H/S matrix        0.00 Mb     (       8,    8)
        Each <psi_i|beta_j> matrix      0.00 Mb     (      36,    4)
        Arrays for rho mixing           0.36 Mb     (    2916,    8)

     Initial potential from superposition of free atoms

     starting charge    7.99866, renormalised to    8.00000
     Starting wfc are    8 randomized atomic wfcs

     total cpu time spent up to now is        0.2 secs

     per-process dynamical memory:     9.7 Mb

     Self-consistent Calculation

     iteration #  1     ecut=    34.00 Ry     beta=0.70
     Davidson diagonalization with overlap
     ethr =  1.00E-02,  avg # of iterations =  2.0

     Threshold (ethr) on eigenvalues was too large:
     Diagonalizing with lowered threshold

     Davidson diagonalization with overlap
     ethr =  7.15E-04,  avg # of iterations =  1.0

     total cpu time spent up to now is        0.3 secs

     total energy              =     -19.19009858 Ry
     Harris-Foulkes estimate   =     -19.20393423 Ry
     estimated scf accuracy    <       0.05657697 Ry

     iteration #  2     ecut=    34.00 Ry     beta=0.70
     Davidson diagonalization with overlap
     ethr =  7.07E-04,  avg # of iterations =  1.0

     total cpu time spent up to now is        0.3 secs

     total energy              =     -19.19208481 Ry
     Harris-Foulkes estimate   =     -19.19225567 Ry
     estimated scf accuracy    <       0.00244398 Ry

     iteration #  3     ecut=    34.00 Ry     beta=0.70
     Davidson diagonalization with overlap
     ethr =  3.05E-05,  avg # of iterations =  2.0

     total cpu time spent up to now is        0.3 secs

     total energy              =     -19.19244933 Ry
     Harris-Foulkes estimate   =     -19.19246437 Ry
     estimated scf accuracy    <       0.00004715 Ry

     iteration #  4     ecut=    34.00 Ry     beta=0.70
     Davidson diagonalization with overlap
     ethr =  5.89E-07,  avg # of iterations =  3.4

     total cpu time spent up to now is        0.3 secs

     total energy              =     -19.19249113 Ry
     Harris-Foulkes estimate   =     -19.19249238 Ry
     estimated scf accuracy    <       0.00000432 Ry

     iteration #  5     ecut=    34.00 Ry     beta=0.70
     Davidson diagonalization with overlap
     ethr =  5.40E-08,  avg # of iterations =  2.0

     total cpu time spent up to now is        0.4 secs

     total energy              =     -19.19249170 Ry
     Harris-Foulkes estimate   =     -19.19249169 Ry
     estimated scf accuracy    <       0.00000001 Ry

     iteration #  6     ecut=    34.00 Ry     beta=0.70
     Davidson diagonalization with overlap
     ethr =  1.63E-10,  avg # of iterations =  4.0

     total cpu time spent up to now is        0.4 secs

     End of self-consistent calculation

          k =-0.0625 0.0625 0.0625 (   902 PWs)   bands (ev):

    -5.6703   5.7930   6.2372   6.2372

          k =-0.1875 0.1875-0.0625 (   907 PWs)   bands (ev):

    -5.3962   4.2790   5.4076   6.1199

          k =-0.3125 0.3125-0.1875 (   898 PWs)   bands (ev):

    -4.7340   2.0109   4.9151   5.6482

          k =-0.4375 0.4375-0.3125 (   891 PWs)   bands (ev):

    -3.8057   0.0802   4.6993   5.2326

          k = 0.4375-0.4375 0.5625 (   890 PWs)   bands (ev):

    -3.3394  -0.6429   4.7536   5.0080

          k = 0.3125-0.3125 0.4375 (   895 PWs)   bands (ev):

    -4.1246   0.6526   5.0259   5.0472

          k = 0.1875-0.1875 0.3125 (   900 PWs)   bands (ev):

    -4.9938   2.7554   5.3048   5.5199

          k = 0.0625-0.0625 0.1875 (   904 PWs)   bands (ev):

    -5.5326   5.0435   5.7964   5.9698

          k =-0.0625 0.3125 0.0625 (   898 PWs)   bands (ev):

    -5.2584   4.1535   5.2236   5.3215

          k =-0.1875 0.4375-0.0625 (   888 PWs)   bands (ev):

    -4.7218   2.6294   4.2321   5.0549

          k =-0.3125 0.5625-0.1875 (   892 PWs)   bands (ev):

    -3.8548   0.7219   3.7398   4.6295

          k = 0.5625-0.3125 0.6875 (   893 PWs)   bands (ev):

    -3.0655  -0.5265   3.4487   4.5323

          k = 0.4375-0.1875 0.5625 (   893 PWs)   bands (ev):

    -3.5412   0.1872   3.3675   4.8270

          k = 0.3125-0.0625 0.4375 (   896 PWs)   bands (ev):

    -4.4675   1.9632   3.6618   5.3507

          k = 0.1875 0.0625 0.3125 (   903 PWs)   bands (ev):

    -5.1249   3.4573   4.8163   5.7353

          k =-0.0625 0.5625 0.0625 (   886 PWs)   bands (ev):

    -4.3125   2.1393   4.0865   4.2112

          k =-0.1875 0.6875-0.0625 (   887 PWs)   bands (ev):

    -3.5426   0.8783   3.2763   3.8537

          k = 0.6875-0.1875 0.8125 (   894 PWs)   bands (ev):

    -2.6168  -0.3548   2.4137   3.8220

          k = 0.5625-0.0625 0.6875 (   891 PWs)   bands (ev):

    -2.6879  -0.2601   2.0469   4.1769

          k = 0.4375 0.0625 0.5625 (   890 PWs)   bands (ev):

    -3.6109   0.7046   2.6739   4.7804

          k = 0.3125 0.1875 0.4375 (   896 PWs)   bands (ev):

    -4.3509   1.3286   4.3624   5.2503

          k =-0.0625 0.8125 0.0625 (   896 PWs)   bands (ev):

    -2.8749   0.0007   3.3788   3.6057

          k = 0.8125-0.0625 0.9375 (   898 PWs)   bands (ev):

    -1.9412  -1.0094   2.7994   3.3519

          k = 0.6875 0.0625 0.8125 (   896 PWs)   bands (ev):

    -2.0314  -0.8463   2.0437   3.6753

          k = 0.5625 0.1875 0.6875 (   894 PWs)   bands (ev):

    -2.8043  -0.4640   2.6371   4.2935

          k = 0.4375 0.3125 0.5625 (   892 PWs)   bands (ev):

    -3.4300  -0.3316   4.1917   4.9033

          k =-0.0625-0.9375 0.0625 (   901 PWs)   bands (ev):

    -1.9962  -1.0291   3.2378   3.4820

          k =-0.1875-0.8125-0.0625 (   895 PWs)   bands (ev):

    -2.7857  -0.0636   2.9628   3.5147

          k =-0.3125-0.6875-0.1875 (   890 PWs)   bands (ev):

    -3.2640   0.1735   3.0432   4.1305

          k =-0.0625-0.6875 0.0625 (   889 PWs)   bands (ev):

    -3.6511   1.0680   3.6615   3.8506

          k =-0.1875-0.5625-0.0625 (   889 PWs)   bands (ev):

    -4.1918   1.7778   3.7100   4.3804

          k =-0.0625-0.4375 0.0625 (   890 PWs)   bands (ev):

    -4.8503   3.1785   4.6500   4.6766

          k =-0.1875 0.1875 0.1875 (   911 PWs)   bands (ev):

    -5.2615   3.5365   5.7853   5.7853

          k =-0.3125 0.3125 0.0625 (   899 PWs)   bands (ev):

    -4.8600   2.6983   4.2289   5.8101

          k =-0.4375 0.4375-0.0625 (   893 PWs)   bands (ev):

    -4.0936   1.3117   3.1193   5.2907

          k = 0.4375-0.4375 0.8125 (   893 PWs)   bands (ev):

    -3.1701  -0.2252   2.9774   4.7438

          k = 0.3125-0.3125 0.6875 (   894 PWs)   bands (ev):

    -3.1546  -0.2536   3.2891   4.4155

          k = 0.1875-0.1875 0.5625 (   886 PWs)   bands (ev):

    -4.0772   1.3074   3.9145   4.3882

          k =-0.1875 0.4375 0.1875 (   887 PWs)   bands (ev):

    -4.5969   2.0148   4.7694   4.8170

          k =-0.3125 0.5625 0.0625 (   890 PWs)   bands (ev):

    -3.9547   1.2533   3.1773   4.6187

          k = 0.5625-0.3125 0.9375 (   895 PWs)   bands (ev):

    -3.0378   0.1355   2.3618   4.0287

          k = 0.4375-0.1875 0.8125 (   891 PWs)   bands (ev):

    -2.5324  -0.5012   2.3729   3.7041

          k = 0.3125-0.0625 0.6875 (   893 PWs)   bands (ev):

    -3.3326   0.5406   2.8010   3.8902

          k =-0.1875 0.6875 0.1875 (   890 PWs)   bands (ev):

    -3.4454   0.5921   3.1503   4.0498

          k = 0.6875-0.1875 1.0625 (   893 PWs)   bands (ev):

    -2.6200  -0.2077   2.5454   3.3345

          k = 0.5625-0.0625 0.9375 (   896 PWs)   bands (ev):

    -1.7865  -0.9760   2.2103   2.8145

          k = 0.4375 0.0625 0.8125 (   892 PWs)   bands (ev):

    -2.4057  -0.4228   2.2085   3.3061

          k =-0.1875-1.0625 0.1875 (   900 PWs)   bands (ev):

    -1.9578  -0.9608   2.3196   3.6997

          k =-0.3125-0.9375 0.0625 (   897 PWs)   bands (ev):

    -1.8552  -0.9865   2.4164   3.0411

          k =-0.1875-0.8125 0.1875 (   893 PWs)   bands (ev):

    -2.7206  -0.1736   2.5991   3.8176

          k =-0.3125 0.3125 0.3125 (   896 PWs)   bands (ev):

    -4.4858   1.2888   5.3649   5.3649

          k =-0.4375 0.4375 0.1875 (   891 PWs)   bands (ev):

    -3.9931   0.7072   3.8674   5.2768

          k = 0.4375-0.4375 1.0625 (   892 PWs)   bands (ev):

    -3.1785   0.1933   2.2803   4.6772

          k = 0.3125-0.3125 0.9375 (   890 PWs)   bands (ev):

    -2.3311  -0.5965   1.9234   4.1147

          k =-0.3125 0.5625 0.3125 (   898 PWs)   bands (ev):

    -3.6686   0.1333   4.2223   4.6943

          k = 0.5625-0.3125 1.1875 (   891 PWs)   bands (ev):

    -3.0304  -0.2174   2.8683   4.1991

          k = 0.4375-0.1875 1.0625 (   897 PWs)   bands (ev):

    -2.1903  -0.6566   2.0175   3.4616

          k =-0.3125-1.1875 0.3125 (   892 PWs)   bands (ev):

    -2.6599  -0.4961   2.4544   4.2172

          k =-0.4375 0.4375 0.4375 (   893 PWs)   bands (ev):

    -3.5661  -0.4002   5.1412   5.1412

          k = 0.4375-0.4375 1.3125 (   891 PWs)   bands (ev):

    -3.2033  -0.5755   3.8949   4.8633

     highest occupied level (ev):     6.2372

!    total energy              =     -19.19249174 Ry
     Harris-Foulkes estimate   =     -19.19249174 Ry
     estimated scf accuracy    <          5.1E-10 Ry

     The total energy is the sum of the following terms:

     one-electron contribution =       5.20529051 Ry
     hartree contribution      =       1.10488331 Ry
     xc contribution           =      -8.63597887 Ry
     ewald contribution        =     -16.86668668 Ry

     convergence has been achieved in   6 iterations

     Forces acting on atoms (Ry/au):

     atom    1 type  1   force =     0.00000000    0.00000000    0.00000000
     atom    2 type  1   force =     0.00000000    0.00000000    0.00000000

     Total force =     0.000000     Total SCF correction =     0.000000


     entering subroutine stress ...

          total   stress  (Ry/bohr**3)                   (kbar)     P=   31.23
   0.00021231  -0.00000000  -0.00000000         31.23     -0.00     -0.00
  -0.00000000   0.00021231  -0.00000000         -0.00     31.23     -0.00
  -0.00000000  -0.00000000   0.00021231         -0.00     -0.00     31.23


     Writing output data file silicon.save
 
     init_run     :      0.05s CPU      0.07s WALL (       1 calls)
     electrons    :      0.18s CPU      0.19s WALL (       1 calls)
     forces       :      0.01s CPU      0.01s WALL (       1 calls)
     stress       :      0.03s CPU      0.03s WALL (       1 calls)

     Called by init_run:
     wfcinit      :      0.00s CPU      0.01s WALL (       1 calls)
     potinit      :      0.00s CPU      0.00s WALL (       1 calls)

     Called by electrons:
     c_bands      :      0.08s CPU      0.09s WALL (       7 calls)
     sum_band     :      0.04s CPU      0.05s WALL (       7 calls)
     v_of_rho     :      0.01s CPU      0.01s WALL (       7 calls)
     newd         :      0.02s CPU      0.02s WALL (       7 calls)
     mix_rho      :      0.00s CPU      0.00s WALL (       7 calls)

     Called by c_bands:
     init_us_2    :      0.00s CPU      0.00s WALL (      51 calls)
     cegterg      :      0.06s CPU      0.07s WALL (      21 calls)

     Called by sum_band:
     sum_band:bec :      0.00s CPU      0.00s WALL (      21 calls)
     addusdens    :      0.03s CPU      0.03s WALL (       7 calls)

     Called by *egterg:
     h_psi        :      0.02s CPU      0.03s WALL (      77 calls)
     s_psi        :      0.00s CPU      0.00s WALL (      77 calls)
     g_psi        :      0.00s CPU      0.00s WALL (      53 calls)
     cdiaghg      :      0.03s CPU      0.03s WALL (      71 calls)

     Called by h_psi:
     add_vuspsi   :      0.00s CPU      0.00s WALL (      77 calls)

     General routines
     calbec       :      0.01s CPU      0.00s WALL (     113 calls)
     fft          :      0.00s CPU      0.01s WALL (     118 calls)
     fftw         :      0.01s CPU      0.03s WALL (     628 calls)
     davcio       :      0.00s CPU      0.00s WALL (       3 calls)
 
     Parallel routines
     fft_scatter  :      0.01s CPU      0.01s WALL (     746 calls)
 
     PWSCF        :     0.48s CPU         1.82s WALL

 
   This run was terminated on:  23:48: 9   6Apr2018            

=------------------------------------------------------------------------------=
   JOB DONE.
=------------------------------------------------------------------------------=
Application 30443770 resources: utime ~364s, stime ~22s, Rss ~23640, inblocks ~1759233, outblocks ~1407384
