
     Program PWSCF v.5.4.0 starts on  9Apr2018 at 16: 6:33 

     This program is part of the open-source Quantum ESPRESSO suite
     for quantum simulation of materials; please cite
         "P. Giannozzi et al., J. Phys.:Condens. Matter 21 395502 (2009);
          URL http://www.quantum-espresso.org", 
     in publications or presentations arising from this work. More details at
     http://www.quantum-espresso.org/quote

     Parallel version (MPI & OpenMP), running on     384 processor cores
     Number of MPI processes:               384
     Threads/MPI process:                     1
     K-points division:     npool     =      24
     R & G space division:  proc/nbgrp/npool/nimage =      16
     Waiting for input...
     Reading input from standard input
     Message from routine read_cards :
     DEPRECATED: no units specified in ATOMIC_POSITIONS card
     Message from routine read_cards :
     ATOMIC_POSITIONS: units set to alat

     Current dimensions of program PWSCF are:
     Max number of different atomic species (ntypx) = 10
     Max number of k-points (npk) =  40000
     Max angular momentum in pseudopotentials (lmaxx) =  3

     Subspace diagonalization in iterative solution of the eigenvalue problem:
     one sub-group per band group will be used
     scalapack distributed-memory algorithm (size of sub-group:  2*  2 procs)

 
     Parallelization info
     --------------------
     sticks:   dense  smooth     PW     G-vecs:    dense   smooth      PW
     Min          48      48     15                  894      894     160
     Max          49      49     16                  898      898     162
     Sum         769     769    253                14331    14331    2565
 


     bravais-lattice index     =            2
     lattice parameter (alat)  =      10.2200  a.u.
     unit-cell volume          =     266.8657 (a.u.)^3
     number of atoms/cell      =            2
     number of atomic types    =            1
     number of electrons       =         8.00
     number of Kohn-Sham states=            4
     kinetic-energy cutoff     =      54.0000  Ry
     charge density cutoff     =     216.0000  Ry
     convergence threshold     =      1.0E-08
     mixing beta               =       0.7000
     number of iterations used =            8  plain     mixing
     Exchange-correlation      = SLA  PW   PBE  PBE ( 1  4  3  4 0 0)

     celldm(1)=  10.220000  celldm(2)=   0.000000  celldm(3)=   0.000000
     celldm(4)=   0.000000  celldm(5)=   0.000000  celldm(6)=   0.000000

     crystal axes: (cart. coord. in units of alat)
               a(1) = (  -0.500000   0.000000   0.500000 )  
               a(2) = (   0.000000   0.500000   0.500000 )  
               a(3) = (  -0.500000   0.500000   0.000000 )  

     reciprocal axes: (cart. coord. in units 2 pi/alat)
               b(1) = ( -1.000000 -1.000000  1.000000 )  
               b(2) = (  1.000000  1.000000  1.000000 )  
               b(3) = ( -1.000000  1.000000 -1.000000 )  


     PseudoPot. # 1 for Si read from file:
     ./si_pbe_v1.uspp.F.UPF.txt
     MD5 check sum: a056efeee980c13900f22a371efd63c1
     Pseudo is Ultrasoft + core correction, Zval =  4.0
     Generated by new atomic code, or converted to UPF format
     Using radial grid of  899 points,  6 beta functions with: 
                l(1) =   0
                l(2) =   0
                l(3) =   1
                l(4) =   1
                l(5) =   2
                l(6) =   2
     Q(r) pseudized with  8 coefficients,  rinner =    0.900   0.900   0.900
                                                       0.900   0.900

     atomic species   valence    mass     pseudopotential
        Si             4.00    28.08600     Si( 1.00)

     48 Sym. Ops., with inversion, found (24 have fractional translation)



   Cartesian axes

     site n.     atom                  positions (alat units)
         1           Si  tau(   1) = (   0.0000000   0.0000000   0.0000000  )
         2           Si  tau(   2) = (   0.2500000   0.2500000   0.2500000  )

     number of k points=    60
                       cart. coord. in units 2pi/alat
        k(    1) = (  -0.0625000   0.0625000   0.0625000), wk =   0.0078125
        k(    2) = (  -0.1875000   0.1875000  -0.0625000), wk =   0.0234375
        k(    3) = (  -0.3125000   0.3125000  -0.1875000), wk =   0.0234375
        k(    4) = (  -0.4375000   0.4375000  -0.3125000), wk =   0.0234375
        k(    5) = (   0.4375000  -0.4375000   0.5625000), wk =   0.0234375
        k(    6) = (   0.3125000  -0.3125000   0.4375000), wk =   0.0234375
        k(    7) = (   0.1875000  -0.1875000   0.3125000), wk =   0.0234375
        k(    8) = (   0.0625000  -0.0625000   0.1875000), wk =   0.0234375
        k(    9) = (  -0.0625000   0.3125000   0.0625000), wk =   0.0234375
        k(   10) = (  -0.1875000   0.4375000  -0.0625000), wk =   0.0468750
        k(   11) = (  -0.3125000   0.5625000  -0.1875000), wk =   0.0468750
        k(   12) = (   0.5625000  -0.3125000   0.6875000), wk =   0.0468750
        k(   13) = (   0.4375000  -0.1875000   0.5625000), wk =   0.0468750
        k(   14) = (   0.3125000  -0.0625000   0.4375000), wk =   0.0468750
        k(   15) = (   0.1875000   0.0625000   0.3125000), wk =   0.0468750
        k(   16) = (  -0.0625000   0.5625000   0.0625000), wk =   0.0234375
        k(   17) = (  -0.1875000   0.6875000  -0.0625000), wk =   0.0468750
        k(   18) = (   0.6875000  -0.1875000   0.8125000), wk =   0.0468750
        k(   19) = (   0.5625000  -0.0625000   0.6875000), wk =   0.0468750
        k(   20) = (   0.4375000   0.0625000   0.5625000), wk =   0.0468750
        k(   21) = (   0.3125000   0.1875000   0.4375000), wk =   0.0468750
        k(   22) = (  -0.0625000   0.8125000   0.0625000), wk =   0.0234375
        k(   23) = (   0.8125000  -0.0625000   0.9375000), wk =   0.0468750
        k(   24) = (   0.6875000   0.0625000   0.8125000), wk =   0.0468750
        k(   25) = (   0.5625000   0.1875000   0.6875000), wk =   0.0468750
        k(   26) = (   0.4375000   0.3125000   0.5625000), wk =   0.0468750
        k(   27) = (  -0.0625000  -0.9375000   0.0625000), wk =   0.0234375
        k(   28) = (  -0.1875000  -0.8125000  -0.0625000), wk =   0.0468750
        k(   29) = (  -0.3125000  -0.6875000  -0.1875000), wk =   0.0468750
        k(   30) = (  -0.0625000  -0.6875000   0.0625000), wk =   0.0234375
        k(   31) = (  -0.1875000  -0.5625000  -0.0625000), wk =   0.0468750
        k(   32) = (  -0.0625000  -0.4375000   0.0625000), wk =   0.0234375
        k(   33) = (  -0.1875000   0.1875000   0.1875000), wk =   0.0078125
        k(   34) = (  -0.3125000   0.3125000   0.0625000), wk =   0.0234375
        k(   35) = (  -0.4375000   0.4375000  -0.0625000), wk =   0.0234375
        k(   36) = (   0.4375000  -0.4375000   0.8125000), wk =   0.0234375
        k(   37) = (   0.3125000  -0.3125000   0.6875000), wk =   0.0234375
        k(   38) = (   0.1875000  -0.1875000   0.5625000), wk =   0.0234375
        k(   39) = (  -0.1875000   0.4375000   0.1875000), wk =   0.0234375
        k(   40) = (  -0.3125000   0.5625000   0.0625000), wk =   0.0468750
        k(   41) = (   0.5625000  -0.3125000   0.9375000), wk =   0.0468750
        k(   42) = (   0.4375000  -0.1875000   0.8125000), wk =   0.0468750
        k(   43) = (   0.3125000  -0.0625000   0.6875000), wk =   0.0468750
        k(   44) = (  -0.1875000   0.6875000   0.1875000), wk =   0.0234375
        k(   45) = (   0.6875000  -0.1875000   1.0625000), wk =   0.0468750
        k(   46) = (   0.5625000  -0.0625000   0.9375000), wk =   0.0468750
        k(   47) = (   0.4375000   0.0625000   0.8125000), wk =   0.0468750
        k(   48) = (  -0.1875000  -1.0625000   0.1875000), wk =   0.0234375
        k(   49) = (  -0.3125000  -0.9375000   0.0625000), wk =   0.0468750
        k(   50) = (  -0.1875000  -0.8125000   0.1875000), wk =   0.0234375
        k(   51) = (  -0.3125000   0.3125000   0.3125000), wk =   0.0078125
        k(   52) = (  -0.4375000   0.4375000   0.1875000), wk =   0.0234375
        k(   53) = (   0.4375000  -0.4375000   1.0625000), wk =   0.0234375
        k(   54) = (   0.3125000  -0.3125000   0.9375000), wk =   0.0234375
        k(   55) = (  -0.3125000   0.5625000   0.3125000), wk =   0.0234375
        k(   56) = (   0.5625000  -0.3125000   1.1875000), wk =   0.0468750
        k(   57) = (   0.4375000  -0.1875000   1.0625000), wk =   0.0468750
        k(   58) = (  -0.3125000  -1.1875000   0.3125000), wk =   0.0234375
        k(   59) = (  -0.4375000   0.4375000   0.4375000), wk =   0.0078125
        k(   60) = (   0.4375000  -0.4375000   1.3125000), wk =   0.0234375

     Dense  grid:    14331 G-vectors     FFT dimensions: (  36,  36,  36)

     Largest allocated arrays     est. size (Mb)     dimensions
        Kohn-Sham Wavefunctions         0.01 Mb     (     117,    4)
        NL pseudopotentials             0.06 Mb     (     117,   36)
        Each V/rho on FFT grid          0.06 Mb     (    3888)
        Each G-vector array             0.01 Mb     (     896)
        G-vector shells                 0.00 Mb     (     179)
     Largest temporary arrays     est. size (Mb)     dimensions
        Auxiliary wavefunctions         0.03 Mb     (     117,   16)
        Each subspace H/S matrix        0.00 Mb     (       8,    8)
        Each <psi_i|beta_j> matrix      0.00 Mb     (      36,    4)
        Arrays for rho mixing           0.47 Mb     (    3888,    8)

     Initial potential from superposition of free atoms

     starting charge    7.99866, renormalised to    8.00000
     Starting wfc are    8 randomized atomic wfcs

     total cpu time spent up to now is        0.2 secs

     per-process dynamical memory:    10.3 Mb

     Self-consistent Calculation

     iteration #  1     ecut=    54.00 Ry     beta=0.70
     Davidson diagonalization with overlap
     ethr =  1.00E-02,  avg # of iterations =  2.0

     Threshold (ethr) on eigenvalues was too large:
     Diagonalizing with lowered threshold

     Davidson diagonalization with overlap
     ethr =  7.17E-04,  avg # of iterations =  1.0

     total cpu time spent up to now is        0.3 secs

     total energy              =     -19.19017412 Ry
     Harris-Foulkes estimate   =     -19.20400962 Ry
     estimated scf accuracy    <       0.05655155 Ry

     iteration #  2     ecut=    54.00 Ry     beta=0.70
     Davidson diagonalization with overlap
     ethr =  7.07E-04,  avg # of iterations =  1.0

     total cpu time spent up to now is        0.3 secs

     total energy              =     -19.19216228 Ry
     Harris-Foulkes estimate   =     -19.19233412 Ry
     estimated scf accuracy    <       0.00245098 Ry

     iteration #  3     ecut=    54.00 Ry     beta=0.70
     Davidson diagonalization with overlap
     ethr =  3.06E-05,  avg # of iterations =  2.1

     total cpu time spent up to now is        0.3 secs

     total energy              =     -19.19253023 Ry
     Harris-Foulkes estimate   =     -19.19254519 Ry
     estimated scf accuracy    <       0.00004685 Ry

     iteration #  4     ecut=    54.00 Ry     beta=0.70
     Davidson diagonalization with overlap
     ethr =  5.86E-07,  avg # of iterations =  3.6

     total cpu time spent up to now is        0.4 secs

     total energy              =     -19.19257279 Ry
     Harris-Foulkes estimate   =     -19.19257407 Ry
     estimated scf accuracy    <       0.00000442 Ry

     iteration #  5     ecut=    54.00 Ry     beta=0.70
     Davidson diagonalization with overlap
     ethr =  5.53E-08,  avg # of iterations =  2.0

     total cpu time spent up to now is        0.4 secs

     total energy              =     -19.19257336 Ry
     Harris-Foulkes estimate   =     -19.19257336 Ry
     estimated scf accuracy    <       0.00000001 Ry

     iteration #  6     ecut=    54.00 Ry     beta=0.70
     Davidson diagonalization with overlap
     ethr =  1.41E-10,  avg # of iterations =  4.0

     total cpu time spent up to now is        0.4 secs

     End of self-consistent calculation

          k =-0.0625 0.0625 0.0625 (  1816 PWs)   bands (ev):

    -5.6706   5.7926   6.2367   6.2367

          k =-0.1875 0.1875-0.0625 (  1806 PWs)   bands (ev):

    -5.3965   4.2785   5.4072   6.1194

          k =-0.3125 0.3125-0.1875 (  1803 PWs)   bands (ev):

    -4.7343   2.0105   4.9147   5.6478

          k =-0.4375 0.4375-0.3125 (  1799 PWs)   bands (ev):

    -3.8061   0.0798   4.6989   5.2322

          k = 0.4375-0.4375 0.5625 (  1790 PWs)   bands (ev):

    -3.3398  -0.6433   4.7532   5.0076

          k = 0.3125-0.3125 0.4375 (  1802 PWs)   bands (ev):

    -4.1249   0.6523   5.0255   5.0468

          k = 0.1875-0.1875 0.3125 (  1800 PWs)   bands (ev):

    -4.9941   2.7550   5.3043   5.5195

          k = 0.0625-0.0625 0.1875 (  1807 PWs)   bands (ev):

    -5.5329   5.0431   5.7960   5.9693

          k =-0.0625 0.3125 0.0625 (  1806 PWs)   bands (ev):

    -5.2587   4.1530   5.2232   5.3211

          k =-0.1875 0.4375-0.0625 (  1798 PWs)   bands (ev):

    -4.7221   2.6290   4.2317   5.0545

          k =-0.3125 0.5625-0.1875 (  1793 PWs)   bands (ev):

    -3.8551   0.7215   3.7394   4.6291

          k = 0.5625-0.3125 0.6875 (  1783 PWs)   bands (ev):

    -3.0658  -0.5268   3.4483   4.5319

          k = 0.4375-0.1875 0.5625 (  1787 PWs)   bands (ev):

    -3.5416   0.1868   3.3671   4.8266

          k = 0.3125-0.0625 0.4375 (  1793 PWs)   bands (ev):

    -4.4679   1.9628   3.6615   5.3503

          k = 0.1875 0.0625 0.3125 (  1797 PWs)   bands (ev):

    -5.1253   3.4568   4.8159   5.7348

          k =-0.0625 0.5625 0.0625 (  1785 PWs)   bands (ev):

    -4.3129   2.1389   4.0861   4.2108

          k =-0.1875 0.6875-0.0625 (  1784 PWs)   bands (ev):

    -3.5429   0.8779   3.2759   3.8533

          k = 0.6875-0.1875 0.8125 (  1784 PWs)   bands (ev):

    -2.6172  -0.3552   2.4133   3.8216

          k = 0.5625-0.0625 0.6875 (  1788 PWs)   bands (ev):

    -2.6883  -0.2605   2.0466   4.1765

          k = 0.4375 0.0625 0.5625 (  1789 PWs)   bands (ev):

    -3.6113   0.7042   2.6735   4.7799

          k = 0.3125 0.1875 0.4375 (  1803 PWs)   bands (ev):

    -4.3513   1.3282   4.3620   5.2498

          k =-0.0625 0.8125 0.0625 (  1772 PWs)   bands (ev):

    -2.8752   0.0003   3.3784   3.6053

          k = 0.8125-0.0625 0.9375 (  1778 PWs)   bands (ev):

    -1.9416  -1.0098   2.7990   3.3515

          k = 0.6875 0.0625 0.8125 (  1784 PWs)   bands (ev):

    -2.0318  -0.8467   2.0433   3.6749

          k = 0.5625 0.1875 0.6875 (  1786 PWs)   bands (ev):

    -2.8046  -0.4644   2.6367   4.2931

          k = 0.4375 0.3125 0.5625 (  1789 PWs)   bands (ev):

    -3.4304  -0.3320   4.1913   4.9028

          k =-0.0625-0.9375 0.0625 (  1764 PWs)   bands (ev):

    -1.9965  -1.0295   3.2374   3.4816

          k =-0.1875-0.8125-0.0625 (  1778 PWs)   bands (ev):

    -2.7861  -0.0640   2.9624   3.5143

          k =-0.3125-0.6875-0.1875 (  1787 PWs)   bands (ev):

    -3.2644   0.1731   3.0428   4.1301

          k =-0.0625-0.6875 0.0625 (  1775 PWs)   bands (ev):

    -3.6515   1.0675   3.6611   3.8502

          k =-0.1875-0.5625-0.0625 (  1788 PWs)   bands (ev):

    -4.1921   1.7774   3.7096   4.3800

          k =-0.0625-0.4375 0.0625 (  1797 PWs)   bands (ev):

    -4.8506   3.1781   4.6495   4.6762

          k =-0.1875 0.1875 0.1875 (  1805 PWs)   bands (ev):

    -5.2618   3.5361   5.7849   5.7849

          k =-0.3125 0.3125 0.0625 (  1798 PWs)   bands (ev):

    -4.8603   2.6979   4.2285   5.8096

          k =-0.4375 0.4375-0.0625 (  1793 PWs)   bands (ev):

    -4.0940   1.3113   3.1190   5.2902

          k = 0.4375-0.4375 0.8125 (  1788 PWs)   bands (ev):

    -3.1705  -0.2256   2.9770   4.7434

          k = 0.3125-0.3125 0.6875 (  1787 PWs)   bands (ev):

    -3.1550  -0.2540   3.2887   4.4151

          k = 0.1875-0.1875 0.5625 (  1789 PWs)   bands (ev):

    -4.0775   1.3070   3.9141   4.3878

          k =-0.1875 0.4375 0.1875 (  1805 PWs)   bands (ev):

    -4.5972   2.0144   4.7690   4.8166

          k =-0.3125 0.5625 0.0625 (  1790 PWs)   bands (ev):

    -3.9550   1.2529   3.1769   4.6183

          k = 0.5625-0.3125 0.9375 (  1783 PWs)   bands (ev):

    -3.0382   0.1351   2.3615   4.0283

          k = 0.4375-0.1875 0.8125 (  1786 PWs)   bands (ev):

    -2.5328  -0.5016   2.3725   3.7037

          k = 0.3125-0.0625 0.6875 (  1786 PWs)   bands (ev):

    -3.3330   0.5402   2.8006   3.8898

          k =-0.1875 0.6875 0.1875 (  1779 PWs)   bands (ev):

    -3.4457   0.5917   3.1499   4.0494

          k = 0.6875-0.1875 1.0625 (  1786 PWs)   bands (ev):

    -2.6203  -0.2081   2.5450   3.3342

          k = 0.5625-0.0625 0.9375 (  1780 PWs)   bands (ev):

    -1.7869  -0.9764   2.2099   2.8141

          k = 0.4375 0.0625 0.8125 (  1789 PWs)   bands (ev):

    -2.4061  -0.4232   2.2081   3.3057

          k =-0.1875-1.0625 0.1875 (  1773 PWs)   bands (ev):

    -1.9581  -0.9611   2.3192   3.6993

          k =-0.3125-0.9375 0.0625 (  1783 PWs)   bands (ev):

    -1.8555  -0.9869   2.4161   3.0408

          k =-0.1875-0.8125 0.1875 (  1782 PWs)   bands (ev):

    -2.7209  -0.1740   2.5987   3.8171

          k =-0.3125 0.3125 0.3125 (  1805 PWs)   bands (ev):

    -4.4861   1.2884   5.3645   5.3645

          k =-0.4375 0.4375 0.1875 (  1791 PWs)   bands (ev):

    -3.9934   0.7068   3.8670   5.2764

          k = 0.4375-0.4375 1.0625 (  1790 PWs)   bands (ev):

    -3.1788   0.1929   2.2799   4.6768

          k = 0.3125-0.3125 0.9375 (  1783 PWs)   bands (ev):

    -2.3315  -0.5969   1.9230   4.1143

          k =-0.3125 0.5625 0.3125 (  1795 PWs)   bands (ev):

    -3.6690   0.1329   4.2219   4.6939

          k = 0.5625-0.3125 1.1875 (  1786 PWs)   bands (ev):

    -3.0307  -0.2178   2.8679   4.1987

          k = 0.4375-0.1875 1.0625 (  1787 PWs)   bands (ev):

    -2.1907  -0.6570   2.0172   3.4612

          k =-0.3125-1.1875 0.3125 (  1785 PWs)   bands (ev):

    -2.6603  -0.4965   2.4540   4.2168

          k =-0.4375 0.4375 0.4375 (  1790 PWs)   bands (ev):

    -3.5664  -0.4006   5.1408   5.1408

          k = 0.4375-0.4375 1.3125 (  1786 PWs)   bands (ev):

    -3.2037  -0.5758   3.8945   4.8628

     highest occupied level (ev):     6.2367

!    total energy              =     -19.19257340 Ry
     Harris-Foulkes estimate   =     -19.19257340 Ry
     estimated scf accuracy    <          6.2E-10 Ry

     The total energy is the sum of the following terms:

     one-electron contribution =       5.20509306 Ry
     hartree contribution      =       1.10490346 Ry
     xc contribution           =      -8.63588326 Ry
     ewald contribution        =     -16.86668667 Ry

     convergence has been achieved in   6 iterations

     Forces acting on atoms (Ry/au):

     atom    1 type  1   force =     0.00000000    0.00000000    0.00000000
     atom    2 type  1   force =    -0.00000000   -0.00000000   -0.00000000

     Total force =     0.000000     Total SCF correction =     0.000000


     entering subroutine stress ...

          total   stress  (Ry/bohr**3)                   (kbar)     P=   31.25
   0.00021240   0.00000000   0.00000000         31.25      0.00      0.00
   0.00000000   0.00021240  -0.00000000          0.00     31.25     -0.00
   0.00000000  -0.00000000   0.00021240          0.00     -0.00     31.25


     Writing output data file silicon.save
 
     init_run     :      0.07s CPU      0.07s WALL (       1 calls)
     electrons    :      0.20s CPU      0.25s WALL (       1 calls)
     forces       :      0.01s CPU      0.01s WALL (       1 calls)
     stress       :      0.03s CPU      0.03s WALL (       1 calls)

     Called by init_run:
     wfcinit      :      0.01s CPU      0.01s WALL (       1 calls)
     potinit      :      0.01s CPU      0.01s WALL (       1 calls)

     Called by electrons:
     c_bands      :      0.11s CPU      0.12s WALL (       7 calls)
     sum_band     :      0.05s CPU      0.05s WALL (       7 calls)
     v_of_rho     :      0.02s CPU      0.02s WALL (       7 calls)
     newd         :      0.02s CPU      0.02s WALL (       7 calls)
     mix_rho      :      0.00s CPU      0.00s WALL (       7 calls)

     Called by c_bands:
     init_us_2    :      0.01s CPU      0.00s WALL (      51 calls)
     cegterg      :      0.08s CPU      0.08s WALL (      21 calls)

     Called by sum_band:
     sum_band:bec :      0.00s CPU      0.00s WALL (      21 calls)
     addusdens    :      0.03s CPU      0.03s WALL (       7 calls)

     Called by *egterg:
     h_psi        :      0.04s CPU      0.04s WALL (      75 calls)
     s_psi        :      0.00s CPU      0.00s WALL (      75 calls)
     g_psi        :      0.00s CPU      0.00s WALL (      51 calls)
     cdiaghg      :      0.04s CPU      0.04s WALL (      69 calls)

     Called by h_psi:
     add_vuspsi   :      0.00s CPU      0.00s WALL (      75 calls)

     General routines
     calbec       :      0.02s CPU      0.01s WALL (     111 calls)
     fft          :      0.01s CPU      0.01s WALL (     118 calls)
     fftw         :      0.04s CPU      0.04s WALL (     626 calls)
     davcio       :      0.00s CPU      0.02s WALL (       3 calls)
 
     Parallel routines
     fft_scatter  :      0.02s CPU      0.02s WALL (     744 calls)
 
     PWSCF        :     0.56s CPU        21.35s WALL

 
   This run was terminated on:  16: 6:54   9Apr2018            

=------------------------------------------------------------------------------=
   JOB DONE.
=------------------------------------------------------------------------------=
Application 30462629 resources: utime ~8182s, stime ~48s, Rss ~24296, inblocks ~3532468, outblocks ~2814285
