
     Program PWSCF v.5.4.0 starts on  9Apr2018 at 16: 3:40 

     This program is part of the open-source Quantum ESPRESSO suite
     for quantum simulation of materials; please cite
         "P. Giannozzi et al., J. Phys.:Condens. Matter 21 395502 (2009);
          URL http://www.quantum-espresso.org", 
     in publications or presentations arising from this work. More details at
     http://www.quantum-espresso.org/quote

     Parallel version (MPI & OpenMP), running on     384 processor cores
     Number of MPI processes:               384
     Threads/MPI process:                     1
     K-points division:     npool     =      24
     R & G space division:  proc/nbgrp/npool/nimage =      16
     Waiting for input...
     Reading input from standard input
     Message from routine read_cards :
     DEPRECATED: no units specified in ATOMIC_POSITIONS card
     Message from routine read_cards :
     ATOMIC_POSITIONS: units set to alat

     Current dimensions of program PWSCF are:
     Max number of different atomic species (ntypx) = 10
     Max number of k-points (npk) =  40000
     Max angular momentum in pseudopotentials (lmaxx) =  3

     Subspace diagonalization in iterative solution of the eigenvalue problem:
     one sub-group per band group will be used
     scalapack distributed-memory algorithm (size of sub-group:  2*  2 procs)

 
     Parallelization info
     --------------------
     sticks:   dense  smooth     PW     G-vecs:    dense   smooth      PW
     Min           9       9      3                   70       70      18
     Max          10      10      4                   72       72      21
     Sum         151     151     61                 1139     1139     307
 


     bravais-lattice index     =            2
     lattice parameter (alat)  =      10.2200  a.u.
     unit-cell volume          =     266.8657 (a.u.)^3
     number of atoms/cell      =            2
     number of atomic types    =            1
     number of electrons       =         8.00
     number of Kohn-Sham states=            4
     kinetic-energy cutoff     =      10.0000  Ry
     charge density cutoff     =      40.0000  Ry
     convergence threshold     =      1.0E-08
     mixing beta               =       0.7000
     number of iterations used =            8  plain     mixing
     Exchange-correlation      = SLA  PW   PBE  PBE ( 1  4  3  4 0 0)

     celldm(1)=  10.220000  celldm(2)=   0.000000  celldm(3)=   0.000000
     celldm(4)=   0.000000  celldm(5)=   0.000000  celldm(6)=   0.000000

     crystal axes: (cart. coord. in units of alat)
               a(1) = (  -0.500000   0.000000   0.500000 )  
               a(2) = (   0.000000   0.500000   0.500000 )  
               a(3) = (  -0.500000   0.500000   0.000000 )  

     reciprocal axes: (cart. coord. in units 2 pi/alat)
               b(1) = ( -1.000000 -1.000000  1.000000 )  
               b(2) = (  1.000000  1.000000  1.000000 )  
               b(3) = ( -1.000000  1.000000 -1.000000 )  


     PseudoPot. # 1 for Si read from file:
     ./si_pbe_v1.uspp.F.UPF.txt
     MD5 check sum: a056efeee980c13900f22a371efd63c1
     Pseudo is Ultrasoft + core correction, Zval =  4.0
     Generated by new atomic code, or converted to UPF format
     Using radial grid of  899 points,  6 beta functions with: 
                l(1) =   0
                l(2) =   0
                l(3) =   1
                l(4) =   1
                l(5) =   2
                l(6) =   2
     Q(r) pseudized with  8 coefficients,  rinner =    0.900   0.900   0.900
                                                       0.900   0.900

     atomic species   valence    mass     pseudopotential
        Si             4.00    28.08600     Si( 1.00)

     24 Sym. Ops. (no inversion) found
          (note: 24 additional sym.ops. were found but ignored
           their fractional translations are incommensurate with FFT grid)


   Cartesian axes

     site n.     atom                  positions (alat units)
         1           Si  tau(   1) = (   0.0000000   0.0000000   0.0000000  )
         2           Si  tau(   2) = (   0.2500000   0.2500000   0.2500000  )

     number of k points=    60
                       cart. coord. in units 2pi/alat
        k(    1) = (  -0.0625000   0.0625000   0.0625000), wk =   0.0078125
        k(    2) = (  -0.1875000   0.1875000  -0.0625000), wk =   0.0234375
        k(    3) = (  -0.3125000   0.3125000  -0.1875000), wk =   0.0234375
        k(    4) = (  -0.4375000   0.4375000  -0.3125000), wk =   0.0234375
        k(    5) = (   0.4375000  -0.4375000   0.5625000), wk =   0.0234375
        k(    6) = (   0.3125000  -0.3125000   0.4375000), wk =   0.0234375
        k(    7) = (   0.1875000  -0.1875000   0.3125000), wk =   0.0234375
        k(    8) = (   0.0625000  -0.0625000   0.1875000), wk =   0.0234375
        k(    9) = (  -0.0625000   0.3125000   0.0625000), wk =   0.0234375
        k(   10) = (  -0.1875000   0.4375000  -0.0625000), wk =   0.0468750
        k(   11) = (  -0.3125000   0.5625000  -0.1875000), wk =   0.0468750
        k(   12) = (   0.5625000  -0.3125000   0.6875000), wk =   0.0468750
        k(   13) = (   0.4375000  -0.1875000   0.5625000), wk =   0.0468750
        k(   14) = (   0.3125000  -0.0625000   0.4375000), wk =   0.0468750
        k(   15) = (   0.1875000   0.0625000   0.3125000), wk =   0.0468750
        k(   16) = (  -0.0625000   0.5625000   0.0625000), wk =   0.0234375
        k(   17) = (  -0.1875000   0.6875000  -0.0625000), wk =   0.0468750
        k(   18) = (   0.6875000  -0.1875000   0.8125000), wk =   0.0468750
        k(   19) = (   0.5625000  -0.0625000   0.6875000), wk =   0.0468750
        k(   20) = (   0.4375000   0.0625000   0.5625000), wk =   0.0468750
        k(   21) = (   0.3125000   0.1875000   0.4375000), wk =   0.0468750
        k(   22) = (  -0.0625000   0.8125000   0.0625000), wk =   0.0234375
        k(   23) = (   0.8125000  -0.0625000   0.9375000), wk =   0.0468750
        k(   24) = (   0.6875000   0.0625000   0.8125000), wk =   0.0468750
        k(   25) = (   0.5625000   0.1875000   0.6875000), wk =   0.0468750
        k(   26) = (   0.4375000   0.3125000   0.5625000), wk =   0.0468750
        k(   27) = (  -0.0625000  -0.9375000   0.0625000), wk =   0.0234375
        k(   28) = (  -0.1875000  -0.8125000  -0.0625000), wk =   0.0468750
        k(   29) = (  -0.3125000  -0.6875000  -0.1875000), wk =   0.0468750
        k(   30) = (  -0.0625000  -0.6875000   0.0625000), wk =   0.0234375
        k(   31) = (  -0.1875000  -0.5625000  -0.0625000), wk =   0.0468750
        k(   32) = (  -0.0625000  -0.4375000   0.0625000), wk =   0.0234375
        k(   33) = (  -0.1875000   0.1875000   0.1875000), wk =   0.0078125
        k(   34) = (  -0.3125000   0.3125000   0.0625000), wk =   0.0234375
        k(   35) = (  -0.4375000   0.4375000  -0.0625000), wk =   0.0234375
        k(   36) = (   0.4375000  -0.4375000   0.8125000), wk =   0.0234375
        k(   37) = (   0.3125000  -0.3125000   0.6875000), wk =   0.0234375
        k(   38) = (   0.1875000  -0.1875000   0.5625000), wk =   0.0234375
        k(   39) = (  -0.1875000   0.4375000   0.1875000), wk =   0.0234375
        k(   40) = (  -0.3125000   0.5625000   0.0625000), wk =   0.0468750
        k(   41) = (   0.5625000  -0.3125000   0.9375000), wk =   0.0468750
        k(   42) = (   0.4375000  -0.1875000   0.8125000), wk =   0.0468750
        k(   43) = (   0.3125000  -0.0625000   0.6875000), wk =   0.0468750
        k(   44) = (  -0.1875000   0.6875000   0.1875000), wk =   0.0234375
        k(   45) = (   0.6875000  -0.1875000   1.0625000), wk =   0.0468750
        k(   46) = (   0.5625000  -0.0625000   0.9375000), wk =   0.0468750
        k(   47) = (   0.4375000   0.0625000   0.8125000), wk =   0.0468750
        k(   48) = (  -0.1875000  -1.0625000   0.1875000), wk =   0.0234375
        k(   49) = (  -0.3125000  -0.9375000   0.0625000), wk =   0.0468750
        k(   50) = (  -0.1875000  -0.8125000   0.1875000), wk =   0.0234375
        k(   51) = (  -0.3125000   0.3125000   0.3125000), wk =   0.0078125
        k(   52) = (  -0.4375000   0.4375000   0.1875000), wk =   0.0234375
        k(   53) = (   0.4375000  -0.4375000   1.0625000), wk =   0.0234375
        k(   54) = (   0.3125000  -0.3125000   0.9375000), wk =   0.0234375
        k(   55) = (  -0.3125000   0.5625000   0.3125000), wk =   0.0234375
        k(   56) = (   0.5625000  -0.3125000   1.1875000), wk =   0.0468750
        k(   57) = (   0.4375000  -0.1875000   1.0625000), wk =   0.0468750
        k(   58) = (  -0.3125000  -1.1875000   0.3125000), wk =   0.0234375
        k(   59) = (  -0.4375000   0.4375000   0.4375000), wk =   0.0078125
        k(   60) = (   0.4375000  -0.4375000   1.3125000), wk =   0.0234375

     Dense  grid:     1139 G-vectors     FFT dimensions: (  15,  15,  15)

     Largest allocated arrays     est. size (Mb)     dimensions
        Kohn-Sham Wavefunctions         0.00 Mb     (      11,    4)
        NL pseudopotentials             0.01 Mb     (      11,   36)
        Each V/rho on FFT grid          0.00 Mb     (     225)
        Each G-vector array             0.00 Mb     (      71)
        G-vector shells                 0.00 Mb     (      32)
     Largest temporary arrays     est. size (Mb)     dimensions
        Auxiliary wavefunctions         0.00 Mb     (      11,   16)
        Each subspace H/S matrix        0.00 Mb     (       8,    8)
        Each <psi_i|beta_j> matrix      0.00 Mb     (      36,    4)
        Arrays for rho mixing           0.03 Mb     (     225,    8)

     Check: negative/imaginary core charge=   -0.000058    0.000000

     Initial potential from superposition of free atoms

     starting charge    7.99866, renormalised to    8.00000
     Starting wfc are    8 randomized atomic wfcs

     total cpu time spent up to now is        1.5 secs

     per-process dynamical memory:     8.5 Mb

     Self-consistent Calculation

     iteration #  1     ecut=    10.00 Ry     beta=0.70
     Davidson diagonalization with overlap
     ethr =  1.00E-02,  avg # of iterations =  2.0

     Threshold (ethr) on eigenvalues was too large:
     Diagonalizing with lowered threshold

     Davidson diagonalization with overlap
     ethr =  7.81E-04,  avg # of iterations =  1.0

     total cpu time spent up to now is        1.5 secs

     total energy              =     -19.18744498 Ry
     Harris-Foulkes estimate   =     -19.20398429 Ry
     estimated scf accuracy    <       0.06267419 Ry

     iteration #  2     ecut=    10.00 Ry     beta=0.70
     Davidson diagonalization with overlap
     ethr =  7.83E-04,  avg # of iterations =  1.0

     total cpu time spent up to now is        1.5 secs

     total energy              =     -19.18992685 Ry
     Harris-Foulkes estimate   =     -19.19022526 Ry
     estimated scf accuracy    <       0.00244034 Ry

     iteration #  3     ecut=    10.00 Ry     beta=0.70
     Davidson diagonalization with overlap
     ethr =  3.05E-05,  avg # of iterations =  2.5

     total cpu time spent up to now is        1.5 secs

     total energy              =     -19.19037856 Ry
     Harris-Foulkes estimate   =     -19.19042181 Ry
     estimated scf accuracy    <       0.00009295 Ry

     iteration #  4     ecut=    10.00 Ry     beta=0.70
     Davidson diagonalization with overlap
     ethr =  1.16E-06,  avg # of iterations =  2.1

     total cpu time spent up to now is        1.5 secs

     total energy              =     -19.19039810 Ry
     Harris-Foulkes estimate   =     -19.19040681 Ry
     estimated scf accuracy    <       0.00001707 Ry

     iteration #  5     ecut=    10.00 Ry     beta=0.70
     Davidson diagonalization with overlap
     ethr =  2.13E-07,  avg # of iterations =  2.0

     total cpu time spent up to now is        1.6 secs

     total energy              =     -19.19040047 Ry
     Harris-Foulkes estimate   =     -19.19040053 Ry
     estimated scf accuracy    <       0.00000018 Ry

     iteration #  6     ecut=    10.00 Ry     beta=0.70
     Davidson diagonalization with overlap
     ethr =  2.21E-09,  avg # of iterations =  2.5

     total cpu time spent up to now is        1.6 secs

     total energy              =     -19.19040051 Ry
     Harris-Foulkes estimate   =     -19.19040052 Ry
     estimated scf accuracy    <       0.00000003 Ry

     iteration #  7     ecut=    10.00 Ry     beta=0.70
     Davidson diagonalization with overlap
     ethr =  3.94E-10,  avg # of iterations =  1.2

     total cpu time spent up to now is        1.6 secs

     End of self-consistent calculation

          k =-0.0625 0.0625 0.0625 (   147 PWs)   bands (ev):

    -5.6323   5.7793   6.2160   6.2160

          k =-0.1875 0.1875-0.0625 (   148 PWs)   bands (ev):

    -5.3595   4.2754   5.3917   6.0939

          k =-0.3125 0.3125-0.1875 (   147 PWs)   bands (ev):

    -4.6985   2.0149   4.8985   5.6155

          k =-0.4375 0.4375-0.3125 (   145 PWs)   bands (ev):

    -3.7696   0.0925   4.6810   5.2014

          k = 0.4375-0.4375 0.5625 (   143 PWs)   bands (ev):

    -3.3105  -0.6178   4.7338   4.9771

          k = 0.3125-0.3125 0.4375 (   148 PWs)   bands (ev):

    -4.0937   0.6614   4.9993   5.0239

          k = 0.1875-0.1875 0.3125 (   147 PWs)   bands (ev):

    -4.9560   2.7558   5.2841   5.4982

          k = 0.0625-0.0625 0.1875 (   148 PWs)   bands (ev):

    -5.4975   5.0325   5.7759   5.9507

          k =-0.0625 0.3125 0.0625 (   146 PWs)   bands (ev):

    -5.2186   4.1486   5.2081   5.3039

          k =-0.1875 0.4375-0.0625 (   144 PWs)   bands (ev):

    -4.6789   2.6325   4.2232   5.0351

          k =-0.3125 0.5625-0.1875 (   145 PWs)   bands (ev):

    -3.8177   0.7352   3.7359   4.6089

          k = 0.5625-0.3125 0.6875 (   140 PWs)   bands (ev):

    -3.0244  -0.4998   3.4512   4.5102

          k = 0.4375-0.1875 0.5625 (   141 PWs)   bands (ev):

    -3.4971   0.2060   3.3685   4.8035

          k = 0.3125-0.0625 0.4375 (   145 PWs)   bands (ev):

    -4.4277   1.9713   3.6587   5.3247

          k = 0.1875 0.0625 0.3125 (   145 PWs)   bands (ev):

    -5.0829   3.4575   4.8052   5.7106

          k =-0.0625 0.5625 0.0625 (   141 PWs)   bands (ev):

    -4.2658   2.1494   4.0735   4.1946

          k =-0.1875 0.6875-0.0625 (   141 PWs)   bands (ev):

    -3.5005   0.8977   3.2710   3.8395

          k = 0.6875-0.1875 0.8125 (   141 PWs)   bands (ev):

    -2.5818  -0.3252   2.4170   3.8061

          k = 0.5625-0.0625 0.6875 (   140 PWs)   bands (ev):

    -2.6483  -0.2322   2.0528   4.1593

          k = 0.4375 0.0625 0.5625 (   142 PWs)   bands (ev):

    -3.5717   0.7236   2.6769   4.7578

          k = 0.3125 0.1875 0.4375 (   146 PWs)   bands (ev):

    -4.3151   1.3380   4.3519   5.2235

          k =-0.0625 0.8125 0.0625 (   135 PWs)   bands (ev):

    -2.8277   0.0320   3.3673   3.5877

          k = 0.8125-0.0625 0.9375 (   139 PWs)   bands (ev):

    -1.9007  -0.9768   2.7963   3.3390

          k = 0.6875 0.0625 0.8125 (   140 PWs)   bands (ev):

    -1.9940  -0.8163   2.0481   3.6606

          k = 0.5625 0.1875 0.6875 (   143 PWs)   bands (ev):

    -2.7676  -0.4429   2.6407   4.2737

          k = 0.4375 0.3125 0.5625 (   143 PWs)   bands (ev):

    -3.3921  -0.3119   4.1837   4.8762

          k =-0.0625-0.9375 0.0625 (   142 PWs)   bands (ev):

    -1.9612  -0.9993   3.2247   3.4626

          k =-0.1875-0.8125-0.0625 (   139 PWs)   bands (ev):

    -2.7433  -0.0358   2.9593   3.5016

          k =-0.3125-0.6875-0.1875 (   141 PWs)   bands (ev):

    -3.2256   0.1967   3.0456   4.1134

          k =-0.0625-0.6875 0.0625 (   137 PWs)   bands (ev):

    -3.5966   1.0864   3.6506   3.8342

          k =-0.1875-0.5625-0.0625 (   142 PWs)   bands (ev):

    -4.1479   1.7898   3.7038   4.3642

          k =-0.0625-0.4375 0.0625 (   143 PWs)   bands (ev):

    -4.8056   3.1817   4.6367   4.6599

          k =-0.1875 0.1875 0.1875 (   150 PWs)   bands (ev):

    -5.2288   3.5314   5.7590   5.7590

          k =-0.3125 0.3125 0.0625 (   143 PWs)   bands (ev):

    -4.8172   2.7047   4.2221   5.7802

          k =-0.4375 0.4375-0.0625 (   144 PWs)   bands (ev):

    -4.0558   1.3258   3.1187   5.2613

          k = 0.4375-0.4375 0.8125 (   142 PWs)   bands (ev):

    -3.1307  -0.2019   2.9797   4.7178

          k = 0.3125-0.3125 0.6875 (   144 PWs)   bands (ev):

    -3.1187  -0.2326   3.2894   4.3918

          k = 0.1875-0.1875 0.5625 (   145 PWs)   bands (ev):

    -4.0388   1.3190   3.9079   4.3681

          k =-0.1875 0.4375 0.1875 (   143 PWs)   bands (ev):

    -4.5531   2.0230   4.7579   4.7984

          k =-0.3125 0.5625 0.0625 (   145 PWs)   bands (ev):

    -3.9171   1.2644   3.1753   4.6004

          k = 0.5625-0.3125 0.9375 (   142 PWs)   bands (ev):

    -3.0022   0.1599   2.3658   4.0166

          k = 0.4375-0.1875 0.8125 (   141 PWs)   bands (ev):

    -2.4971  -0.4734   2.3774   3.6941

          k = 0.3125-0.0625 0.6875 (   143 PWs)   bands (ev):

    -3.2953   0.5593   2.8005   3.8793

          k =-0.1875 0.6875 0.1875 (   139 PWs)   bands (ev):

    -3.4011   0.6153   3.1496   4.0317

          k = 0.6875-0.1875 1.0625 (   142 PWs)   bands (ev):

    -2.5888  -0.1781   2.5459   3.3272

          k = 0.5625-0.0625 0.9375 (   146 PWs)   bands (ev):

    -1.7611  -0.9546   2.2139   2.8135

          k = 0.4375 0.0625 0.8125 (   140 PWs)   bands (ev):

    -2.3732  -0.3890   2.2123   3.3015

          k =-0.1875-1.0625 0.1875 (   140 PWs)   bands (ev):

    -1.9226  -0.9275   2.3214   3.6797

          k =-0.3125-0.9375 0.0625 (   139 PWs)   bands (ev):

    -1.8174  -0.9496   2.4183   3.0368

          k =-0.1875-0.8125 0.1875 (   139 PWs)   bands (ev):

    -2.6807  -0.1445   2.6003   3.7987

          k =-0.3125 0.3125 0.3125 (   144 PWs)   bands (ev):

    -4.4430   1.2940   5.3385   5.3385

          k =-0.4375 0.4375 0.1875 (   146 PWs)   bands (ev):

    -3.9584   0.7184   3.8626   5.2448

          k = 0.4375-0.4375 1.0625 (   137 PWs)   bands (ev):

    -3.1310   0.2224   2.2867   4.6531

          k = 0.3125-0.3125 0.9375 (   140 PWs)   bands (ev):

    -2.2900  -0.5724   1.9291   4.0932

          k =-0.3125 0.5625 0.3125 (   146 PWs)   bands (ev):

    -3.6349   0.1475   4.2144   4.6689

          k = 0.5625-0.3125 1.1875 (   141 PWs)   bands (ev):

    -2.9937  -0.1905   2.8725   4.1834

          k = 0.4375-0.1875 1.0625 (   143 PWs)   bands (ev):

    -2.1564  -0.6347   2.0225   3.4540

          k =-0.3125-1.1875 0.3125 (   138 PWs)   bands (ev):

    -2.6163  -0.4634   2.4608   4.1962

          k =-0.4375 0.4375 0.4375 (   147 PWs)   bands (ev):

    -3.5364  -0.3848   5.1087   5.1087

          k = 0.4375-0.4375 1.3125 (   142 PWs)   bands (ev):

    -3.1681  -0.5504   3.8920   4.8343

     highest occupied level (ev):     6.2160

!    total energy              =     -19.19040051 Ry
     Harris-Foulkes estimate   =     -19.19040051 Ry
     estimated scf accuracy    <          7.0E-10 Ry

     The total energy is the sum of the following terms:

     one-electron contribution =       5.25191260 Ry
     hartree contribution      =       1.12061375 Ry
     xc contribution           =      -8.69624022 Ry
     ewald contribution        =     -16.86668664 Ry

     convergence has been achieved in   7 iterations

     Forces acting on atoms (Ry/au):

     atom    1 type  1   force =     0.00000000   -0.00000000    0.00000000
     atom    2 type  1   force =     0.00000000    0.00000000   -0.00000000

     Total force =     0.000000     Total SCF correction =     0.000000


     entering subroutine stress ...

          total   stress  (Ry/bohr**3)                   (kbar)     P=   27.51
   0.00018703  -0.00000000  -0.00000000         27.51     -0.00     -0.00
   0.00000000   0.00018703  -0.00000000          0.00     27.51     -0.00
  -0.00000000  -0.00000000   0.00018703         -0.00     -0.00     27.51


     Writing output data file silicon.save
 
     init_run     :      0.04s CPU      0.06s WALL (       1 calls)
     electrons    :      0.09s CPU      0.14s WALL (       1 calls)
     forces       :      0.00s CPU      0.00s WALL (       1 calls)
     stress       :      0.00s CPU      0.00s WALL (       1 calls)

     Called by init_run:
     wfcinit      :      0.02s CPU      0.03s WALL (       1 calls)
     potinit      :      0.00s CPU      0.00s WALL (       1 calls)

     Called by electrons:
     c_bands      :      0.07s CPU      0.08s WALL (       8 calls)
     sum_band     :      0.00s CPU      0.01s WALL (       8 calls)
     v_of_rho     :      0.00s CPU      0.00s WALL (       8 calls)
     newd         :      0.00s CPU      0.00s WALL (       8 calls)
     mix_rho      :      0.00s CPU      0.00s WALL (       8 calls)

     Called by c_bands:
     init_us_2    :      0.00s CPU      0.00s WALL (      57 calls)
     cegterg      :      0.05s CPU      0.05s WALL (      24 calls)

     Called by sum_band:
     sum_band:bec :      0.00s CPU      0.00s WALL (      24 calls)
     addusdens    :      0.00s CPU      0.00s WALL (       8 calls)

     Called by *egterg:
     h_psi        :      0.02s CPU      0.03s WALL (      72 calls)
     s_psi        :      0.00s CPU      0.00s WALL (      72 calls)
     g_psi        :      0.00s CPU      0.00s WALL (      45 calls)
     cdiaghg      :      0.03s CPU      0.03s WALL (      66 calls)

     Called by h_psi:
     add_vuspsi   :      0.00s CPU      0.00s WALL (      72 calls)

     General routines
     calbec       :      0.01s CPU      0.00s WALL (     111 calls)
     fft          :      0.00s CPU      0.00s WALL (     131 calls)
     fftw         :      0.02s CPU      0.03s WALL (     652 calls)
     davcio       :      0.00s CPU      0.03s WALL (       3 calls)
 
     Parallel routines
     fft_scatter  :      0.02s CPU      0.03s WALL (     783 calls)
 
     PWSCF        :     2.80s CPU         8.77s WALL

 
   This run was terminated on:  16: 3:49   9Apr2018            

=------------------------------------------------------------------------------=
   JOB DONE.
=------------------------------------------------------------------------------=
Application 30462567 resources: utime ~3336s, stime ~47s, Rss ~19680, inblocks ~3526313, outblocks ~2800269
