
     Program PWSCF v.5.4.0 starts on  6Apr2018 at 23:47:59 

     This program is part of the open-source Quantum ESPRESSO suite
     for quantum simulation of materials; please cite
         "P. Giannozzi et al., J. Phys.:Condens. Matter 21 395502 (2009);
          URL http://www.quantum-espresso.org", 
     in publications or presentations arising from this work. More details at
     http://www.quantum-espresso.org/quote

     Parallel version (MPI & OpenMP), running on     192 processor cores
     Number of MPI processes:               192
     Threads/MPI process:                     1
     K-points division:     npool     =      24
     R & G space division:  proc/nbgrp/npool/nimage =       8
     Waiting for input...
     Reading input from standard input
     Message from routine read_cards :
     DEPRECATED: no units specified in ATOMIC_POSITIONS card
     Message from routine read_cards :
     ATOMIC_POSITIONS: units set to alat

     Current dimensions of program PWSCF are:
     Max number of different atomic species (ntypx) = 10
     Max number of k-points (npk) =  40000
     Max angular momentum in pseudopotentials (lmaxx) =  3

     Subspace diagonalization in iterative solution of the eigenvalue problem:
     one sub-group per band group will be used
     scalapack distributed-memory algorithm (size of sub-group:  2*  2 procs)

 
     Parallelization info
     --------------------
     sticks:   dense  smooth     PW     G-vecs:    dense   smooth      PW
     Min          54      54     18                  744      744     149
     Max          55      55     19                  747      747     152
     Sum         433     433    151                 5961     5961    1211
 


     bravais-lattice index     =            2
     lattice parameter (alat)  =      10.2200  a.u.
     unit-cell volume          =     266.8657 (a.u.)^3
     number of atoms/cell      =            2
     number of atomic types    =            1
     number of electrons       =         8.00
     number of Kohn-Sham states=            4
     kinetic-energy cutoff     =      30.0000  Ry
     charge density cutoff     =     120.0000  Ry
     convergence threshold     =      1.0E-08
     mixing beta               =       0.7000
     number of iterations used =            8  plain     mixing
     Exchange-correlation      = SLA  PW   PBE  PBE ( 1  4  3  4 0 0)

     celldm(1)=  10.220000  celldm(2)=   0.000000  celldm(3)=   0.000000
     celldm(4)=   0.000000  celldm(5)=   0.000000  celldm(6)=   0.000000

     crystal axes: (cart. coord. in units of alat)
               a(1) = (  -0.500000   0.000000   0.500000 )  
               a(2) = (   0.000000   0.500000   0.500000 )  
               a(3) = (  -0.500000   0.500000   0.000000 )  

     reciprocal axes: (cart. coord. in units 2 pi/alat)
               b(1) = ( -1.000000 -1.000000  1.000000 )  
               b(2) = (  1.000000  1.000000  1.000000 )  
               b(3) = ( -1.000000  1.000000 -1.000000 )  


     PseudoPot. # 1 for Si read from file:
     ./si_pbe_v1.uspp.F.UPF.txt
     MD5 check sum: a056efeee980c13900f22a371efd63c1
     Pseudo is Ultrasoft + core correction, Zval =  4.0
     Generated by new atomic code, or converted to UPF format
     Using radial grid of  899 points,  6 beta functions with: 
                l(1) =   0
                l(2) =   0
                l(3) =   1
                l(4) =   1
                l(5) =   2
                l(6) =   2
     Q(r) pseudized with  8 coefficients,  rinner =    0.900   0.900   0.900
                                                       0.900   0.900

     atomic species   valence    mass     pseudopotential
        Si             4.00    28.08600     Si( 1.00)

     24 Sym. Ops. (no inversion) found
          (note: 24 additional sym.ops. were found but ignored
           their fractional translations are incommensurate with FFT grid)


   Cartesian axes

     site n.     atom                  positions (alat units)
         1           Si  tau(   1) = (   0.0000000   0.0000000   0.0000000  )
         2           Si  tau(   2) = (   0.2500000   0.2500000   0.2500000  )

     number of k points=    60
                       cart. coord. in units 2pi/alat
        k(    1) = (  -0.0625000   0.0625000   0.0625000), wk =   0.0078125
        k(    2) = (  -0.1875000   0.1875000  -0.0625000), wk =   0.0234375
        k(    3) = (  -0.3125000   0.3125000  -0.1875000), wk =   0.0234375
        k(    4) = (  -0.4375000   0.4375000  -0.3125000), wk =   0.0234375
        k(    5) = (   0.4375000  -0.4375000   0.5625000), wk =   0.0234375
        k(    6) = (   0.3125000  -0.3125000   0.4375000), wk =   0.0234375
        k(    7) = (   0.1875000  -0.1875000   0.3125000), wk =   0.0234375
        k(    8) = (   0.0625000  -0.0625000   0.1875000), wk =   0.0234375
        k(    9) = (  -0.0625000   0.3125000   0.0625000), wk =   0.0234375
        k(   10) = (  -0.1875000   0.4375000  -0.0625000), wk =   0.0468750
        k(   11) = (  -0.3125000   0.5625000  -0.1875000), wk =   0.0468750
        k(   12) = (   0.5625000  -0.3125000   0.6875000), wk =   0.0468750
        k(   13) = (   0.4375000  -0.1875000   0.5625000), wk =   0.0468750
        k(   14) = (   0.3125000  -0.0625000   0.4375000), wk =   0.0468750
        k(   15) = (   0.1875000   0.0625000   0.3125000), wk =   0.0468750
        k(   16) = (  -0.0625000   0.5625000   0.0625000), wk =   0.0234375
        k(   17) = (  -0.1875000   0.6875000  -0.0625000), wk =   0.0468750
        k(   18) = (   0.6875000  -0.1875000   0.8125000), wk =   0.0468750
        k(   19) = (   0.5625000  -0.0625000   0.6875000), wk =   0.0468750
        k(   20) = (   0.4375000   0.0625000   0.5625000), wk =   0.0468750
        k(   21) = (   0.3125000   0.1875000   0.4375000), wk =   0.0468750
        k(   22) = (  -0.0625000   0.8125000   0.0625000), wk =   0.0234375
        k(   23) = (   0.8125000  -0.0625000   0.9375000), wk =   0.0468750
        k(   24) = (   0.6875000   0.0625000   0.8125000), wk =   0.0468750
        k(   25) = (   0.5625000   0.1875000   0.6875000), wk =   0.0468750
        k(   26) = (   0.4375000   0.3125000   0.5625000), wk =   0.0468750
        k(   27) = (  -0.0625000  -0.9375000   0.0625000), wk =   0.0234375
        k(   28) = (  -0.1875000  -0.8125000  -0.0625000), wk =   0.0468750
        k(   29) = (  -0.3125000  -0.6875000  -0.1875000), wk =   0.0468750
        k(   30) = (  -0.0625000  -0.6875000   0.0625000), wk =   0.0234375
        k(   31) = (  -0.1875000  -0.5625000  -0.0625000), wk =   0.0468750
        k(   32) = (  -0.0625000  -0.4375000   0.0625000), wk =   0.0234375
        k(   33) = (  -0.1875000   0.1875000   0.1875000), wk =   0.0078125
        k(   34) = (  -0.3125000   0.3125000   0.0625000), wk =   0.0234375
        k(   35) = (  -0.4375000   0.4375000  -0.0625000), wk =   0.0234375
        k(   36) = (   0.4375000  -0.4375000   0.8125000), wk =   0.0234375
        k(   37) = (   0.3125000  -0.3125000   0.6875000), wk =   0.0234375
        k(   38) = (   0.1875000  -0.1875000   0.5625000), wk =   0.0234375
        k(   39) = (  -0.1875000   0.4375000   0.1875000), wk =   0.0234375
        k(   40) = (  -0.3125000   0.5625000   0.0625000), wk =   0.0468750
        k(   41) = (   0.5625000  -0.3125000   0.9375000), wk =   0.0468750
        k(   42) = (   0.4375000  -0.1875000   0.8125000), wk =   0.0468750
        k(   43) = (   0.3125000  -0.0625000   0.6875000), wk =   0.0468750
        k(   44) = (  -0.1875000   0.6875000   0.1875000), wk =   0.0234375
        k(   45) = (   0.6875000  -0.1875000   1.0625000), wk =   0.0468750
        k(   46) = (   0.5625000  -0.0625000   0.9375000), wk =   0.0468750
        k(   47) = (   0.4375000   0.0625000   0.8125000), wk =   0.0468750
        k(   48) = (  -0.1875000  -1.0625000   0.1875000), wk =   0.0234375
        k(   49) = (  -0.3125000  -0.9375000   0.0625000), wk =   0.0468750
        k(   50) = (  -0.1875000  -0.8125000   0.1875000), wk =   0.0234375
        k(   51) = (  -0.3125000   0.3125000   0.3125000), wk =   0.0078125
        k(   52) = (  -0.4375000   0.4375000   0.1875000), wk =   0.0234375
        k(   53) = (   0.4375000  -0.4375000   1.0625000), wk =   0.0234375
        k(   54) = (   0.3125000  -0.3125000   0.9375000), wk =   0.0234375
        k(   55) = (  -0.3125000   0.5625000   0.3125000), wk =   0.0234375
        k(   56) = (   0.5625000  -0.3125000   1.1875000), wk =   0.0468750
        k(   57) = (   0.4375000  -0.1875000   1.0625000), wk =   0.0468750
        k(   58) = (  -0.3125000  -1.1875000   0.3125000), wk =   0.0234375
        k(   59) = (  -0.4375000   0.4375000   0.4375000), wk =   0.0078125
        k(   60) = (   0.4375000  -0.4375000   1.3125000), wk =   0.0234375

     Dense  grid:     5961 G-vectors     FFT dimensions: (  25,  25,  25)

     Largest allocated arrays     est. size (Mb)     dimensions
        Kohn-Sham Wavefunctions         0.01 Mb     (      99,    4)
        NL pseudopotentials             0.05 Mb     (      99,   36)
        Each V/rho on FFT grid          0.04 Mb     (    2500)
        Each G-vector array             0.01 Mb     (     746)
        G-vector shells                 0.00 Mb     (     103)
     Largest temporary arrays     est. size (Mb)     dimensions
        Auxiliary wavefunctions         0.02 Mb     (      99,   16)
        Each subspace H/S matrix        0.00 Mb     (       8,    8)
        Each <psi_i|beta_j> matrix      0.00 Mb     (      36,    4)
        Arrays for rho mixing           0.31 Mb     (    2500,    8)

     Initial potential from superposition of free atoms

     starting charge    7.99866, renormalised to    8.00000
     Starting wfc are    8 randomized atomic wfcs

     total cpu time spent up to now is        0.2 secs

     per-process dynamical memory:     9.4 Mb

     Self-consistent Calculation

     iteration #  1     ecut=    30.00 Ry     beta=0.70
     Davidson diagonalization with overlap
     ethr =  1.00E-02,  avg # of iterations =  2.0

     Threshold (ethr) on eigenvalues was too large:
     Diagonalizing with lowered threshold

     Davidson diagonalization with overlap
     ethr =  7.16E-04,  avg # of iterations =  1.0

     total cpu time spent up to now is        0.2 secs

     total energy              =     -19.19002391 Ry
     Harris-Foulkes estimate   =     -19.20386565 Ry
     estimated scf accuracy    <       0.05659154 Ry

     iteration #  2     ecut=    30.00 Ry     beta=0.70
     Davidson diagonalization with overlap
     ethr =  7.07E-04,  avg # of iterations =  1.0

     total cpu time spent up to now is        0.3 secs

     total energy              =     -19.19202641 Ry
     Harris-Foulkes estimate   =     -19.19219416 Ry
     estimated scf accuracy    <       0.00243998 Ry

     iteration #  3     ecut=    30.00 Ry     beta=0.70
     Davidson diagonalization with overlap
     ethr =  3.05E-05,  avg # of iterations =  2.1

     total cpu time spent up to now is        0.3 secs

     total energy              =     -19.19239554 Ry
     Harris-Foulkes estimate   =     -19.19241032 Ry
     estimated scf accuracy    <       0.00004657 Ry

     iteration #  4     ecut=    30.00 Ry     beta=0.70
     Davidson diagonalization with overlap
     ethr =  5.82E-07,  avg # of iterations =  3.3

     total cpu time spent up to now is        0.3 secs

     total energy              =     -19.19243554 Ry
     Harris-Foulkes estimate   =     -19.19243670 Ry
     estimated scf accuracy    <       0.00000406 Ry

     iteration #  5     ecut=    30.00 Ry     beta=0.70
     Davidson diagonalization with overlap
     ethr =  5.08E-08,  avg # of iterations =  2.0

     total cpu time spent up to now is        0.3 secs

     total energy              =     -19.19243607 Ry
     Harris-Foulkes estimate   =     -19.19243606 Ry
     estimated scf accuracy    <       0.00000001 Ry

     iteration #  6     ecut=    30.00 Ry     beta=0.70
     Davidson diagonalization with overlap
     ethr =  1.58E-10,  avg # of iterations =  4.0

     total cpu time spent up to now is        0.4 secs

     End of self-consistent calculation

          k =-0.0625 0.0625 0.0625 (   731 PWs)   bands (ev):

    -5.6701   5.7932   6.2374   6.2374

          k =-0.1875 0.1875-0.0625 (   738 PWs)   bands (ev):

    -5.3960   4.2792   5.4078   6.1201

          k =-0.3125 0.3125-0.1875 (   748 PWs)   bands (ev):

    -4.7338   2.0111   4.9153   5.6484

          k =-0.4375 0.4375-0.3125 (   747 PWs)   bands (ev):

    -3.8055   0.0804   4.6995   5.2328

          k = 0.4375-0.4375 0.5625 (   743 PWs)   bands (ev):

    -3.3392  -0.6427   4.7539   5.0082

          k = 0.3125-0.3125 0.4375 (   751 PWs)   bands (ev):

    -4.1244   0.6529   5.0261   5.0475

          k = 0.1875-0.1875 0.3125 (   742 PWs)   bands (ev):

    -4.9936   2.7556   5.3050   5.5202

          k = 0.0625-0.0625 0.1875 (   733 PWs)   bands (ev):

    -5.5324   5.0438   5.7966   5.9700

          k =-0.0625 0.3125 0.0625 (   744 PWs)   bands (ev):

    -5.2582   4.1537   5.2239   5.3218

          k =-0.1875 0.4375-0.0625 (   744 PWs)   bands (ev):

    -4.7216   2.6296   4.2323   5.0552

          k =-0.3125 0.5625-0.1875 (   742 PWs)   bands (ev):

    -3.8545   0.7221   3.7400   4.6297

          k = 0.5625-0.3125 0.6875 (   742 PWs)   bands (ev):

    -3.0652  -0.5262   3.4489   4.5326

          k = 0.4375-0.1875 0.5625 (   744 PWs)   bands (ev):

    -3.5410   0.1874   3.3677   4.8272

          k = 0.3125-0.0625 0.4375 (   743 PWs)   bands (ev):

    -4.4673   1.9634   3.6620   5.3510

          k = 0.1875 0.0625 0.3125 (   743 PWs)   bands (ev):

    -5.1248   3.4575   4.8165   5.7355

          k =-0.0625 0.5625 0.0625 (   734 PWs)   bands (ev):

    -4.3123   2.1396   4.0867   4.2115

          k =-0.1875 0.6875-0.0625 (   744 PWs)   bands (ev):

    -3.5423   0.8785   3.2765   3.8539

          k = 0.6875-0.1875 0.8125 (   735 PWs)   bands (ev):

    -2.6166  -0.3545   2.4139   3.8222

          k = 0.5625-0.0625 0.6875 (   733 PWs)   bands (ev):

    -2.6877  -0.2598   2.0471   4.1771

          k = 0.4375 0.0625 0.5625 (   744 PWs)   bands (ev):

    -3.6107   0.7048   2.6741   4.7806

          k = 0.3125 0.1875 0.4375 (   745 PWs)   bands (ev):

    -4.3507   1.3288   4.3627   5.2505

          k =-0.0625 0.8125 0.0625 (   744 PWs)   bands (ev):

    -2.8746   0.0009   3.3791   3.6059

          k = 0.8125-0.0625 0.9375 (   740 PWs)   bands (ev):

    -1.9410  -1.0092   2.7996   3.3521

          k = 0.6875 0.0625 0.8125 (   736 PWs)   bands (ev):

    -2.0311  -0.8460   2.0439   3.6755

          k = 0.5625 0.1875 0.6875 (   737 PWs)   bands (ev):

    -2.8040  -0.4638   2.6373   4.2937

          k = 0.4375 0.3125 0.5625 (   743 PWs)   bands (ev):

    -3.4298  -0.3314   4.1920   4.9035

          k =-0.0625-0.9375 0.0625 (   740 PWs)   bands (ev):

    -1.9959  -1.0289   3.2380   3.4822

          k =-0.1875-0.8125-0.0625 (   743 PWs)   bands (ev):

    -2.7855  -0.0634   2.9630   3.5150

          k =-0.3125-0.6875-0.1875 (   738 PWs)   bands (ev):

    -3.2638   0.1737   3.0434   4.1307

          k =-0.0625-0.6875 0.0625 (   740 PWs)   bands (ev):

    -3.6509   1.0682   3.6618   3.8508

          k =-0.1875-0.5625-0.0625 (   739 PWs)   bands (ev):

    -4.1916   1.7780   3.7103   4.3806

          k =-0.0625-0.4375 0.0625 (   738 PWs)   bands (ev):

    -4.8501   3.1788   4.6502   4.6768

          k =-0.1875 0.1875 0.1875 (   739 PWs)   bands (ev):

    -5.2613   3.5368   5.7856   5.7856

          k =-0.3125 0.3125 0.0625 (   742 PWs)   bands (ev):

    -4.8598   2.6985   4.2291   5.8103

          k =-0.4375 0.4375-0.0625 (   742 PWs)   bands (ev):

    -4.0934   1.3119   3.1195   5.2909

          k = 0.4375-0.4375 0.8125 (   739 PWs)   bands (ev):

    -3.1699  -0.2250   2.9776   4.7440

          k = 0.3125-0.3125 0.6875 (   740 PWs)   bands (ev):

    -3.1544  -0.2534   3.2893   4.4157

          k = 0.1875-0.1875 0.5625 (   747 PWs)   bands (ev):

    -4.0769   1.3076   3.9147   4.3885

          k =-0.1875 0.4375 0.1875 (   742 PWs)   bands (ev):

    -4.5967   2.0150   4.7696   4.8173

          k =-0.3125 0.5625 0.0625 (   743 PWs)   bands (ev):

    -3.9544   1.2535   3.1775   4.6189

          k = 0.5625-0.3125 0.9375 (   736 PWs)   bands (ev):

    -3.0376   0.1357   2.3620   4.0290

          k = 0.4375-0.1875 0.8125 (   734 PWs)   bands (ev):

    -2.5322  -0.5010   2.3731   3.7043

          k = 0.3125-0.0625 0.6875 (   742 PWs)   bands (ev):

    -3.3324   0.5409   2.8012   3.8904

          k =-0.1875 0.6875 0.1875 (   744 PWs)   bands (ev):

    -3.4452   0.5924   3.1505   4.0500

          k = 0.6875-0.1875 1.0625 (   739 PWs)   bands (ev):

    -2.6197  -0.2074   2.5456   3.3348

          k = 0.5625-0.0625 0.9375 (   736 PWs)   bands (ev):

    -1.7863  -0.9758   2.2104   2.8147

          k = 0.4375 0.0625 0.8125 (   738 PWs)   bands (ev):

    -2.4055  -0.4226   2.2087   3.3063

          k =-0.1875-1.0625 0.1875 (   739 PWs)   bands (ev):

    -1.9575  -0.9605   2.3198   3.6999

          k =-0.3125-0.9375 0.0625 (   736 PWs)   bands (ev):

    -1.8549  -0.9863   2.4166   3.0414

          k =-0.1875-0.8125 0.1875 (   743 PWs)   bands (ev):

    -2.7203  -0.1734   2.5993   3.8178

          k =-0.3125 0.3125 0.3125 (   751 PWs)   bands (ev):

    -4.4856   1.2890   5.3652   5.3652

          k =-0.4375 0.4375 0.1875 (   744 PWs)   bands (ev):

    -3.9928   0.7074   3.8677   5.2771

          k = 0.4375-0.4375 1.0625 (   740 PWs)   bands (ev):

    -3.1783   0.1936   2.2805   4.6774

          k = 0.3125-0.3125 0.9375 (   732 PWs)   bands (ev):

    -2.3308  -0.5962   1.9236   4.1149

          k =-0.3125 0.5625 0.3125 (   744 PWs)   bands (ev):

    -3.6684   0.1335   4.2225   4.6945

          k = 0.5625-0.3125 1.1875 (   740 PWs)   bands (ev):

    -3.0301  -0.2171   2.8685   4.1993

          k = 0.4375-0.1875 1.0625 (   734 PWs)   bands (ev):

    -2.1901  -0.6563   2.0177   3.4618

          k =-0.3125-1.1875 0.3125 (   741 PWs)   bands (ev):

    -2.6597  -0.4959   2.4546   4.2174

          k =-0.4375 0.4375 0.4375 (   751 PWs)   bands (ev):

    -3.5658  -0.4000   5.1414   5.1414

          k = 0.4375-0.4375 1.3125 (   747 PWs)   bands (ev):

    -3.2031  -0.5752   3.8952   4.8635

     highest occupied level (ev):     6.2374

!    total energy              =     -19.19243611 Ry
     Harris-Foulkes estimate   =     -19.19243611 Ry
     estimated scf accuracy    <          5.1E-10 Ry

     The total energy is the sum of the following terms:

     one-electron contribution =       5.20546540 Ry
     hartree contribution      =       1.10486525 Ry
     xc contribution           =      -8.63608009 Ry
     ewald contribution        =     -16.86668667 Ry

     convergence has been achieved in   6 iterations

     Forces acting on atoms (Ry/au):

     atom    1 type  1   force =     0.00000000    0.00000000   -0.00000000
     atom    2 type  1   force =     0.00000000    0.00000000    0.00000000

     Total force =     0.000000     Total SCF correction =     0.000000


     entering subroutine stress ...

          total   stress  (Ry/bohr**3)                   (kbar)     P=   31.27
   0.00021257   0.00000000   0.00000000         31.27      0.00      0.00
   0.00000000   0.00021257  -0.00000000          0.00     31.27     -0.00
   0.00000000  -0.00000000   0.00021257          0.00     -0.00     31.27


     Writing output data file silicon.save
 
     init_run     :      0.05s CPU      0.06s WALL (       1 calls)
     electrons    :      0.15s CPU      0.20s WALL (       1 calls)
     forces       :      0.01s CPU      0.01s WALL (       1 calls)
     stress       :      0.02s CPU      0.02s WALL (       1 calls)

     Called by init_run:
     wfcinit      :      0.00s CPU      0.01s WALL (       1 calls)
     potinit      :      0.00s CPU      0.00s WALL (       1 calls)

     Called by electrons:
     c_bands      :      0.08s CPU      0.09s WALL (       7 calls)
     sum_band     :      0.03s CPU      0.04s WALL (       7 calls)
     v_of_rho     :      0.01s CPU      0.01s WALL (       7 calls)
     newd         :      0.01s CPU      0.02s WALL (       7 calls)
     mix_rho      :      0.00s CPU      0.00s WALL (       7 calls)

     Called by c_bands:
     init_us_2    :      0.00s CPU      0.00s WALL (      51 calls)
     cegterg      :      0.07s CPU      0.07s WALL (      21 calls)

     Called by sum_band:
     sum_band:bec :      0.00s CPU      0.00s WALL (      21 calls)
     addusdens    :      0.02s CPU      0.02s WALL (       7 calls)

     Called by *egterg:
     h_psi        :      0.02s CPU      0.03s WALL (      75 calls)
     s_psi        :      0.00s CPU      0.00s WALL (      75 calls)
     g_psi        :      0.00s CPU      0.00s WALL (      51 calls)
     cdiaghg      :      0.03s CPU      0.03s WALL (      69 calls)

     Called by h_psi:
     add_vuspsi   :      0.00s CPU      0.00s WALL (      75 calls)

     General routines
     calbec       :      0.00s CPU      0.00s WALL (     111 calls)
     fft          :      0.00s CPU      0.01s WALL (     118 calls)
     fftw         :      0.02s CPU      0.03s WALL (     624 calls)
     davcio       :      0.00s CPU      0.00s WALL (       3 calls)
 
     Parallel routines
     fft_scatter  :      0.00s CPU      0.02s WALL (     742 calls)
 
     PWSCF        :     0.49s CPU         1.51s WALL

 
   This run was terminated on:  23:48: 0   6Apr2018            

=------------------------------------------------------------------------------=
   JOB DONE.
=------------------------------------------------------------------------------=
Application 30443769 resources: utime ~293s, stime ~23s, Rss ~22696, inblocks ~1759265, outblocks ~1406117
