
     Program PWSCF v.5.4.0 starts on  9Apr2018 at 16: 5:47 

     This program is part of the open-source Quantum ESPRESSO suite
     for quantum simulation of materials; please cite
         "P. Giannozzi et al., J. Phys.:Condens. Matter 21 395502 (2009);
          URL http://www.quantum-espresso.org", 
     in publications or presentations arising from this work. More details at
     http://www.quantum-espresso.org/quote

     Parallel version (MPI & OpenMP), running on     384 processor cores
     Number of MPI processes:               384
     Threads/MPI process:                     1
     K-points division:     npool     =      24
     R & G space division:  proc/nbgrp/npool/nimage =      16
     Waiting for input...
     Reading input from standard input
     Message from routine read_cards :
     DEPRECATED: no units specified in ATOMIC_POSITIONS card
     Message from routine read_cards :
     ATOMIC_POSITIONS: units set to alat

     Current dimensions of program PWSCF are:
     Max number of different atomic species (ntypx) = 10
     Max number of k-points (npk) =  40000
     Max angular momentum in pseudopotentials (lmaxx) =  3

     Subspace diagonalization in iterative solution of the eigenvalue problem:
     one sub-group per band group will be used
     scalapack distributed-memory algorithm (size of sub-group:  2*  2 procs)

 
     Parallelization info
     --------------------
     sticks:   dense  smooth     PW     G-vecs:    dense   smooth      PW
     Min          37      37     12                  614      614     112
     Max          38      38     13                  618      618     114
     Sum         595     595    199                 9841     9841    1807
 


     bravais-lattice index     =            2
     lattice parameter (alat)  =      10.2200  a.u.
     unit-cell volume          =     266.8657 (a.u.)^3
     number of atoms/cell      =            2
     number of atomic types    =            1
     number of electrons       =         8.00
     number of Kohn-Sham states=            4
     kinetic-energy cutoff     =      42.0000  Ry
     charge density cutoff     =     168.0000  Ry
     convergence threshold     =      1.0E-08
     mixing beta               =       0.7000
     number of iterations used =            8  plain     mixing
     Exchange-correlation      = SLA  PW   PBE  PBE ( 1  4  3  4 0 0)

     celldm(1)=  10.220000  celldm(2)=   0.000000  celldm(3)=   0.000000
     celldm(4)=   0.000000  celldm(5)=   0.000000  celldm(6)=   0.000000

     crystal axes: (cart. coord. in units of alat)
               a(1) = (  -0.500000   0.000000   0.500000 )  
               a(2) = (   0.000000   0.500000   0.500000 )  
               a(3) = (  -0.500000   0.500000   0.000000 )  

     reciprocal axes: (cart. coord. in units 2 pi/alat)
               b(1) = ( -1.000000 -1.000000  1.000000 )  
               b(2) = (  1.000000  1.000000  1.000000 )  
               b(3) = ( -1.000000  1.000000 -1.000000 )  


     PseudoPot. # 1 for Si read from file:
     ./si_pbe_v1.uspp.F.UPF.txt
     MD5 check sum: a056efeee980c13900f22a371efd63c1
     Pseudo is Ultrasoft + core correction, Zval =  4.0
     Generated by new atomic code, or converted to UPF format
     Using radial grid of  899 points,  6 beta functions with: 
                l(1) =   0
                l(2) =   0
                l(3) =   1
                l(4) =   1
                l(5) =   2
                l(6) =   2
     Q(r) pseudized with  8 coefficients,  rinner =    0.900   0.900   0.900
                                                       0.900   0.900

     atomic species   valence    mass     pseudopotential
        Si             4.00    28.08600     Si( 1.00)

     24 Sym. Ops. (no inversion) found
          (note: 24 additional sym.ops. were found but ignored
           their fractional translations are incommensurate with FFT grid)


   Cartesian axes

     site n.     atom                  positions (alat units)
         1           Si  tau(   1) = (   0.0000000   0.0000000   0.0000000  )
         2           Si  tau(   2) = (   0.2500000   0.2500000   0.2500000  )

     number of k points=    60
                       cart. coord. in units 2pi/alat
        k(    1) = (  -0.0625000   0.0625000   0.0625000), wk =   0.0078125
        k(    2) = (  -0.1875000   0.1875000  -0.0625000), wk =   0.0234375
        k(    3) = (  -0.3125000   0.3125000  -0.1875000), wk =   0.0234375
        k(    4) = (  -0.4375000   0.4375000  -0.3125000), wk =   0.0234375
        k(    5) = (   0.4375000  -0.4375000   0.5625000), wk =   0.0234375
        k(    6) = (   0.3125000  -0.3125000   0.4375000), wk =   0.0234375
        k(    7) = (   0.1875000  -0.1875000   0.3125000), wk =   0.0234375
        k(    8) = (   0.0625000  -0.0625000   0.1875000), wk =   0.0234375
        k(    9) = (  -0.0625000   0.3125000   0.0625000), wk =   0.0234375
        k(   10) = (  -0.1875000   0.4375000  -0.0625000), wk =   0.0468750
        k(   11) = (  -0.3125000   0.5625000  -0.1875000), wk =   0.0468750
        k(   12) = (   0.5625000  -0.3125000   0.6875000), wk =   0.0468750
        k(   13) = (   0.4375000  -0.1875000   0.5625000), wk =   0.0468750
        k(   14) = (   0.3125000  -0.0625000   0.4375000), wk =   0.0468750
        k(   15) = (   0.1875000   0.0625000   0.3125000), wk =   0.0468750
        k(   16) = (  -0.0625000   0.5625000   0.0625000), wk =   0.0234375
        k(   17) = (  -0.1875000   0.6875000  -0.0625000), wk =   0.0468750
        k(   18) = (   0.6875000  -0.1875000   0.8125000), wk =   0.0468750
        k(   19) = (   0.5625000  -0.0625000   0.6875000), wk =   0.0468750
        k(   20) = (   0.4375000   0.0625000   0.5625000), wk =   0.0468750
        k(   21) = (   0.3125000   0.1875000   0.4375000), wk =   0.0468750
        k(   22) = (  -0.0625000   0.8125000   0.0625000), wk =   0.0234375
        k(   23) = (   0.8125000  -0.0625000   0.9375000), wk =   0.0468750
        k(   24) = (   0.6875000   0.0625000   0.8125000), wk =   0.0468750
        k(   25) = (   0.5625000   0.1875000   0.6875000), wk =   0.0468750
        k(   26) = (   0.4375000   0.3125000   0.5625000), wk =   0.0468750
        k(   27) = (  -0.0625000  -0.9375000   0.0625000), wk =   0.0234375
        k(   28) = (  -0.1875000  -0.8125000  -0.0625000), wk =   0.0468750
        k(   29) = (  -0.3125000  -0.6875000  -0.1875000), wk =   0.0468750
        k(   30) = (  -0.0625000  -0.6875000   0.0625000), wk =   0.0234375
        k(   31) = (  -0.1875000  -0.5625000  -0.0625000), wk =   0.0468750
        k(   32) = (  -0.0625000  -0.4375000   0.0625000), wk =   0.0234375
        k(   33) = (  -0.1875000   0.1875000   0.1875000), wk =   0.0078125
        k(   34) = (  -0.3125000   0.3125000   0.0625000), wk =   0.0234375
        k(   35) = (  -0.4375000   0.4375000  -0.0625000), wk =   0.0234375
        k(   36) = (   0.4375000  -0.4375000   0.8125000), wk =   0.0234375
        k(   37) = (   0.3125000  -0.3125000   0.6875000), wk =   0.0234375
        k(   38) = (   0.1875000  -0.1875000   0.5625000), wk =   0.0234375
        k(   39) = (  -0.1875000   0.4375000   0.1875000), wk =   0.0234375
        k(   40) = (  -0.3125000   0.5625000   0.0625000), wk =   0.0468750
        k(   41) = (   0.5625000  -0.3125000   0.9375000), wk =   0.0468750
        k(   42) = (   0.4375000  -0.1875000   0.8125000), wk =   0.0468750
        k(   43) = (   0.3125000  -0.0625000   0.6875000), wk =   0.0468750
        k(   44) = (  -0.1875000   0.6875000   0.1875000), wk =   0.0234375
        k(   45) = (   0.6875000  -0.1875000   1.0625000), wk =   0.0468750
        k(   46) = (   0.5625000  -0.0625000   0.9375000), wk =   0.0468750
        k(   47) = (   0.4375000   0.0625000   0.8125000), wk =   0.0468750
        k(   48) = (  -0.1875000  -1.0625000   0.1875000), wk =   0.0234375
        k(   49) = (  -0.3125000  -0.9375000   0.0625000), wk =   0.0468750
        k(   50) = (  -0.1875000  -0.8125000   0.1875000), wk =   0.0234375
        k(   51) = (  -0.3125000   0.3125000   0.3125000), wk =   0.0078125
        k(   52) = (  -0.4375000   0.4375000   0.1875000), wk =   0.0234375
        k(   53) = (   0.4375000  -0.4375000   1.0625000), wk =   0.0234375
        k(   54) = (   0.3125000  -0.3125000   0.9375000), wk =   0.0234375
        k(   55) = (  -0.3125000   0.5625000   0.3125000), wk =   0.0234375
        k(   56) = (   0.5625000  -0.3125000   1.1875000), wk =   0.0468750
        k(   57) = (   0.4375000  -0.1875000   1.0625000), wk =   0.0468750
        k(   58) = (  -0.3125000  -1.1875000   0.3125000), wk =   0.0234375
        k(   59) = (  -0.4375000   0.4375000   0.4375000), wk =   0.0078125
        k(   60) = (   0.4375000  -0.4375000   1.3125000), wk =   0.0234375

     Dense  grid:     9841 G-vectors     FFT dimensions: (  30,  30,  30)

     Largest allocated arrays     est. size (Mb)     dimensions
        Kohn-Sham Wavefunctions         0.00 Mb     (      81,    4)
        NL pseudopotentials             0.04 Mb     (      81,   36)
        Each V/rho on FFT grid          0.03 Mb     (    1800)
        Each G-vector array             0.00 Mb     (     618)
        G-vector shells                 0.00 Mb     (     136)
     Largest temporary arrays     est. size (Mb)     dimensions
        Auxiliary wavefunctions         0.02 Mb     (      81,   16)
        Each subspace H/S matrix        0.00 Mb     (       8,    8)
        Each <psi_i|beta_j> matrix      0.00 Mb     (      36,    4)
        Arrays for rho mixing           0.22 Mb     (    1800,    8)

     Initial potential from superposition of free atoms

     starting charge    7.99866, renormalised to    8.00000
     Starting wfc are    8 randomized atomic wfcs

     total cpu time spent up to now is        0.2 secs

     per-process dynamical memory:     9.8 Mb

     Self-consistent Calculation

     iteration #  1     ecut=    42.00 Ry     beta=0.70
     Davidson diagonalization with overlap
     ethr =  1.00E-02,  avg # of iterations =  2.0

     Threshold (ethr) on eigenvalues was too large:
     Diagonalizing with lowered threshold

     Davidson diagonalization with overlap
     ethr =  7.15E-04,  avg # of iterations =  1.0

     total cpu time spent up to now is        0.2 secs

     total energy              =     -19.19013180 Ry
     Harris-Foulkes estimate   =     -19.20398195 Ry
     estimated scf accuracy    <       0.05659464 Ry

     iteration #  2     ecut=    42.00 Ry     beta=0.70
     Davidson diagonalization with overlap
     ethr =  7.07E-04,  avg # of iterations =  1.0

     total cpu time spent up to now is        0.2 secs

     total energy              =     -19.19212635 Ry
     Harris-Foulkes estimate   =     -19.19229794 Ry
     estimated scf accuracy    <       0.00244453 Ry

     iteration #  3     ecut=    42.00 Ry     beta=0.70
     Davidson diagonalization with overlap
     ethr =  3.06E-05,  avg # of iterations =  2.1

     total cpu time spent up to now is        0.3 secs

     total energy              =     -19.19249639 Ry
     Harris-Foulkes estimate   =     -19.19251130 Ry
     estimated scf accuracy    <       0.00004696 Ry

     iteration #  4     ecut=    42.00 Ry     beta=0.70
     Davidson diagonalization with overlap
     ethr =  5.87E-07,  avg # of iterations =  3.5

     total cpu time spent up to now is        0.3 secs

     total energy              =     -19.19253835 Ry
     Harris-Foulkes estimate   =     -19.19253963 Ry
     estimated scf accuracy    <       0.00000441 Ry

     iteration #  5     ecut=    42.00 Ry     beta=0.70
     Davidson diagonalization with overlap
     ethr =  5.51E-08,  avg # of iterations =  2.0

     total cpu time spent up to now is        0.3 secs

     total energy              =     -19.19253892 Ry
     Harris-Foulkes estimate   =     -19.19253892 Ry
     estimated scf accuracy    <       0.00000001 Ry

     iteration #  6     ecut=    42.00 Ry     beta=0.70
     Davidson diagonalization with overlap
     ethr =  1.41E-10,  avg # of iterations =  4.0

     total cpu time spent up to now is        0.4 secs

     End of self-consistent calculation

          k =-0.0625 0.0625 0.0625 (  1243 PWs)   bands (ev):

    -5.6705   5.7927   6.2369   6.2369

          k =-0.1875 0.1875-0.0625 (  1239 PWs)   bands (ev):

    -5.3964   4.2787   5.4073   6.1196

          k =-0.3125 0.3125-0.1875 (  1230 PWs)   bands (ev):

    -4.7342   2.0106   4.9148   5.6479

          k =-0.4375 0.4375-0.3125 (  1220 PWs)   bands (ev):

    -3.8060   0.0799   4.6990   5.2323

          k = 0.4375-0.4375 0.5625 (  1214 PWs)   bands (ev):

    -3.3397  -0.6432   4.7533   5.0077

          k = 0.3125-0.3125 0.4375 (  1228 PWs)   bands (ev):

    -4.1248   0.6524   5.0256   5.0470

          k = 0.1875-0.1875 0.3125 (  1233 PWs)   bands (ev):

    -4.9940   2.7551   5.3045   5.5197

          k = 0.0625-0.0625 0.1875 (  1238 PWs)   bands (ev):

    -5.5328   5.0432   5.7961   5.9695

          k =-0.0625 0.3125 0.0625 (  1240 PWs)   bands (ev):

    -5.2586   4.1532   5.2234   5.3212

          k =-0.1875 0.4375-0.0625 (  1237 PWs)   bands (ev):

    -4.7220   2.6291   4.2318   5.0547

          k =-0.3125 0.5625-0.1875 (  1230 PWs)   bands (ev):

    -3.8550   0.7216   3.7395   4.6292

          k = 0.5625-0.3125 0.6875 (  1220 PWs)   bands (ev):

    -3.0657  -0.5267   3.4484   4.5321

          k = 0.4375-0.1875 0.5625 (  1227 PWs)   bands (ev):

    -3.5414   0.1869   3.3672   4.8267

          k = 0.3125-0.0625 0.4375 (  1236 PWs)   bands (ev):

    -4.4678   1.9629   3.6616   5.3504

          k = 0.1875 0.0625 0.3125 (  1239 PWs)   bands (ev):

    -5.1252   3.4570   4.8160   5.7350

          k =-0.0625 0.5625 0.0625 (  1240 PWs)   bands (ev):

    -4.3128   2.1390   4.0862   4.2109

          k =-0.1875 0.6875-0.0625 (  1233 PWs)   bands (ev):

    -3.5428   0.8780   3.2760   3.8534

          k = 0.6875-0.1875 0.8125 (  1224 PWs)   bands (ev):

    -2.6171  -0.3551   2.4134   3.8217

          k = 0.5625-0.0625 0.6875 (  1220 PWs)   bands (ev):

    -2.6882  -0.2603   2.0466   4.1766

          k = 0.4375 0.0625 0.5625 (  1224 PWs)   bands (ev):

    -3.6112   0.7043   2.6736   4.7801

          k = 0.3125 0.1875 0.4375 (  1228 PWs)   bands (ev):

    -4.3512   1.3283   4.3622   5.2500

          k =-0.0625 0.8125 0.0625 (  1230 PWs)   bands (ev):

    -2.8751   0.0004   3.3786   3.6054

          k = 0.8125-0.0625 0.9375 (  1223 PWs)   bands (ev):

    -1.9415  -1.0097   2.7991   3.3516

          k = 0.6875 0.0625 0.8125 (  1224 PWs)   bands (ev):

    -2.0316  -0.8465   2.0434   3.6750

          k = 0.5625 0.1875 0.6875 (  1221 PWs)   bands (ev):

    -2.8045  -0.4643   2.6368   4.2932

          k = 0.4375 0.3125 0.5625 (  1218 PWs)   bands (ev):

    -3.4303  -0.3319   4.1915   4.9030

          k =-0.0625-0.9375 0.0625 (  1223 PWs)   bands (ev):

    -1.9964  -1.0294   3.2375   3.4817

          k =-0.1875-0.8125-0.0625 (  1222 PWs)   bands (ev):

    -2.7860  -0.0639   2.9625   3.5145

          k =-0.3125-0.6875-0.1875 (  1227 PWs)   bands (ev):

    -3.2643   0.1732   3.0429   4.1302

          k =-0.0625-0.6875 0.0625 (  1236 PWs)   bands (ev):

    -3.6514   1.0677   3.6613   3.8503

          k =-0.1875-0.5625-0.0625 (  1237 PWs)   bands (ev):

    -4.1920   1.7775   3.7098   4.3801

          k =-0.0625-0.4375 0.0625 (  1238 PWs)   bands (ev):

    -4.8505   3.1782   4.6497   4.6763

          k =-0.1875 0.1875 0.1875 (  1239 PWs)   bands (ev):

    -5.2617   3.5363   5.7851   5.7851

          k =-0.3125 0.3125 0.0625 (  1234 PWs)   bands (ev):

    -4.8602   2.6980   4.2286   5.8098

          k =-0.4375 0.4375-0.0625 (  1227 PWs)   bands (ev):

    -4.0939   1.3114   3.1191   5.2904

          k = 0.4375-0.4375 0.8125 (  1224 PWs)   bands (ev):

    -3.1703  -0.2255   2.9771   4.7435

          k = 0.3125-0.3125 0.6875 (  1227 PWs)   bands (ev):

    -3.1549  -0.2539   3.2888   4.4152

          k = 0.1875-0.1875 0.5625 (  1232 PWs)   bands (ev):

    -4.0774   1.3071   3.9142   4.3880

          k =-0.1875 0.4375 0.1875 (  1233 PWs)   bands (ev):

    -4.5971   2.0145   4.7691   4.8168

          k =-0.3125 0.5625 0.0625 (  1231 PWs)   bands (ev):

    -3.9549   1.2530   3.1770   4.6184

          k = 0.5625-0.3125 0.9375 (  1225 PWs)   bands (ev):

    -3.0380   0.1352   2.3616   4.0285

          k = 0.4375-0.1875 0.8125 (  1221 PWs)   bands (ev):

    -2.5327  -0.5015   2.3726   3.7038

          k = 0.3125-0.0625 0.6875 (  1227 PWs)   bands (ev):

    -3.3329   0.5403   2.8007   3.8900

          k =-0.1875 0.6875 0.1875 (  1229 PWs)   bands (ev):

    -3.4456   0.5918   3.1500   4.0495

          k = 0.6875-0.1875 1.0625 (  1219 PWs)   bands (ev):

    -2.6202  -0.2079   2.5451   3.3343

          k = 0.5625-0.0625 0.9375 (  1221 PWs)   bands (ev):

    -1.7868  -0.9763   2.2100   2.8142

          k = 0.4375 0.0625 0.8125 (  1213 PWs)   bands (ev):

    -2.4060  -0.4231   2.2082   3.3058

          k =-0.1875-1.0625 0.1875 (  1226 PWs)   bands (ev):

    -1.9580  -0.9610   2.3193   3.6994

          k =-0.3125-0.9375 0.0625 (  1219 PWs)   bands (ev):

    -1.8554  -0.9868   2.4162   3.0409

          k =-0.1875-0.8125 0.1875 (  1220 PWs)   bands (ev):

    -2.7208  -0.1739   2.5988   3.8173

          k =-0.3125 0.3125 0.3125 (  1233 PWs)   bands (ev):

    -4.4860   1.2885   5.3647   5.3647

          k =-0.4375 0.4375 0.1875 (  1227 PWs)   bands (ev):

    -3.9933   0.7069   3.8672   5.2766

          k = 0.4375-0.4375 1.0625 (  1221 PWs)   bands (ev):

    -3.1787   0.1930   2.2800   4.6769

          k = 0.3125-0.3125 0.9375 (  1221 PWs)   bands (ev):

    -2.3313  -0.5967   1.9231   4.1144

          k =-0.3125 0.5625 0.3125 (  1227 PWs)   bands (ev):

    -3.6688   0.1330   4.2220   4.6940

          k = 0.5625-0.3125 1.1875 (  1224 PWs)   bands (ev):

    -3.0306  -0.2177   2.8680   4.1988

          k = 0.4375-0.1875 1.0625 (  1221 PWs)   bands (ev):

    -2.1906  -0.6569   2.0172   3.4614

          k =-0.3125-1.1875 0.3125 (  1224 PWs)   bands (ev):

    -2.6602  -0.4964   2.4541   4.2169

          k =-0.4375 0.4375 0.4375 (  1215 PWs)   bands (ev):

    -3.5663  -0.4005   5.1409   5.1409

          k = 0.4375-0.4375 1.3125 (  1217 PWs)   bands (ev):

    -3.2035  -0.5758   3.8947   4.8630

     highest occupied level (ev):     6.2369

!    total energy              =     -19.19253896 Ry
     Harris-Foulkes estimate   =     -19.19253896 Ry
     estimated scf accuracy    <          1.0E-09 Ry

     The total energy is the sum of the following terms:

     one-electron contribution =       5.20511454 Ry
     hartree contribution      =       1.10487766 Ry
     xc contribution           =      -8.63584450 Ry
     ewald contribution        =     -16.86668667 Ry

     convergence has been achieved in   6 iterations

     Forces acting on atoms (Ry/au):

     atom    1 type  1   force =    -0.00000000    0.00000000   -0.00000000
     atom    2 type  1   force =     0.00000000   -0.00000000    0.00000000

     Total force =     0.000000     Total SCF correction =     0.000000


     entering subroutine stress ...

          total   stress  (Ry/bohr**3)                   (kbar)     P=   31.25
   0.00021243  -0.00000000   0.00000000         31.25     -0.00      0.00
  -0.00000000   0.00021243   0.00000000         -0.00     31.25      0.00
   0.00000000   0.00000000   0.00021243          0.00      0.00     31.25


     Writing output data file silicon.save
 
     init_run     :      0.05s CPU      0.06s WALL (       1 calls)
     electrons    :      0.16s CPU      1.22s WALL (       1 calls)
     forces       :      0.01s CPU      0.01s WALL (       1 calls)
     stress       :      0.02s CPU      0.02s WALL (       1 calls)

     Called by init_run:
     wfcinit      :      0.01s CPU      0.01s WALL (       1 calls)
     potinit      :      0.00s CPU      0.00s WALL (       1 calls)

     Called by electrons:
     c_bands      :      0.09s CPU      0.10s WALL (       7 calls)
     sum_band     :      0.03s CPU      0.03s WALL (       7 calls)
     v_of_rho     :      0.02s CPU      0.01s WALL (       7 calls)
     newd         :      0.01s CPU      0.01s WALL (       7 calls)
     mix_rho      :      0.00s CPU      0.00s WALL (       7 calls)

     Called by c_bands:
     init_us_2    :      0.00s CPU      0.00s WALL (      51 calls)
     cegterg      :      0.07s CPU      0.07s WALL (      21 calls)

     Called by sum_band:
     sum_band:bec :      0.00s CPU      0.00s WALL (      21 calls)
     addusdens    :      0.02s CPU      0.02s WALL (       7 calls)

     Called by *egterg:
     h_psi        :      0.04s CPU      0.03s WALL (      75 calls)
     s_psi        :      0.00s CPU      0.00s WALL (      75 calls)
     g_psi        :      0.00s CPU      0.00s WALL (      51 calls)
     cdiaghg      :      0.02s CPU      0.04s WALL (      69 calls)

     Called by h_psi:
     add_vuspsi   :      0.00s CPU      0.00s WALL (      75 calls)

     General routines
     calbec       :      0.00s CPU      0.00s WALL (     111 calls)
     fft          :      0.01s CPU      0.01s WALL (     118 calls)
     fftw         :      0.04s CPU      0.03s WALL (     624 calls)
     davcio       :      0.00s CPU      0.00s WALL (       3 calls)
 
     Parallel routines
     fft_scatter  :      0.02s CPU      0.02s WALL (     742 calls)
 
     PWSCF        :     1.04s CPU         3.64s WALL

 
   This run was terminated on:  16: 5:51   9Apr2018            

=------------------------------------------------------------------------------=
   JOB DONE.
=------------------------------------------------------------------------------=
Application 30462618 resources: utime ~1416s, stime ~49s, Rss ~23140, inblocks ~3532935, outblocks ~2809206
