
     Program PWSCF v.5.4.0 starts on  9Apr2018 at 16: 4:38 

     This program is part of the open-source Quantum ESPRESSO suite
     for quantum simulation of materials; please cite
         "P. Giannozzi et al., J. Phys.:Condens. Matter 21 395502 (2009);
          URL http://www.quantum-espresso.org", 
     in publications or presentations arising from this work. More details at
     http://www.quantum-espresso.org/quote

     Parallel version (MPI & OpenMP), running on     384 processor cores
     Number of MPI processes:               384
     Threads/MPI process:                     1
     K-points division:     npool     =      24
     R & G space division:  proc/nbgrp/npool/nimage =      16
     Waiting for input...
     Reading input from standard input
     Message from routine read_cards :
     DEPRECATED: no units specified in ATOMIC_POSITIONS card
     Message from routine read_cards :
     ATOMIC_POSITIONS: units set to alat

     Current dimensions of program PWSCF are:
     Max number of different atomic species (ntypx) = 10
     Max number of k-points (npk) =  40000
     Max angular momentum in pseudopotentials (lmaxx) =  3

     Subspace diagonalization in iterative solution of the eigenvalue problem:
     one sub-group per band group will be used
     scalapack distributed-memory algorithm (size of sub-group:  2*  2 procs)

 
     Parallelization info
     --------------------
     sticks:   dense  smooth     PW     G-vecs:    dense   smooth      PW
     Min          23      23      7                  300      300      57
     Max          26      26      8                  301      301      61
     Sum         379     379    121                 4813     4813     941
 


     bravais-lattice index     =            2
     lattice parameter (alat)  =      10.2200  a.u.
     unit-cell volume          =     266.8657 (a.u.)^3
     number of atoms/cell      =            2
     number of atomic types    =            1
     number of electrons       =         8.00
     number of Kohn-Sham states=            4
     kinetic-energy cutoff     =      26.0000  Ry
     charge density cutoff     =     104.0000  Ry
     convergence threshold     =      1.0E-08
     mixing beta               =       0.7000
     number of iterations used =            8  plain     mixing
     Exchange-correlation      = SLA  PW   PBE  PBE ( 1  4  3  4 0 0)

     celldm(1)=  10.220000  celldm(2)=   0.000000  celldm(3)=   0.000000
     celldm(4)=   0.000000  celldm(5)=   0.000000  celldm(6)=   0.000000

     crystal axes: (cart. coord. in units of alat)
               a(1) = (  -0.500000   0.000000   0.500000 )  
               a(2) = (   0.000000   0.500000   0.500000 )  
               a(3) = (  -0.500000   0.500000   0.000000 )  

     reciprocal axes: (cart. coord. in units 2 pi/alat)
               b(1) = ( -1.000000 -1.000000  1.000000 )  
               b(2) = (  1.000000  1.000000  1.000000 )  
               b(3) = ( -1.000000  1.000000 -1.000000 )  


     PseudoPot. # 1 for Si read from file:
     ./si_pbe_v1.uspp.F.UPF.txt
     MD5 check sum: a056efeee980c13900f22a371efd63c1
     Pseudo is Ultrasoft + core correction, Zval =  4.0
     Generated by new atomic code, or converted to UPF format
     Using radial grid of  899 points,  6 beta functions with: 
                l(1) =   0
                l(2) =   0
                l(3) =   1
                l(4) =   1
                l(5) =   2
                l(6) =   2
     Q(r) pseudized with  8 coefficients,  rinner =    0.900   0.900   0.900
                                                       0.900   0.900

     atomic species   valence    mass     pseudopotential
        Si             4.00    28.08600     Si( 1.00)

     48 Sym. Ops., with inversion, found (24 have fractional translation)



   Cartesian axes

     site n.     atom                  positions (alat units)
         1           Si  tau(   1) = (   0.0000000   0.0000000   0.0000000  )
         2           Si  tau(   2) = (   0.2500000   0.2500000   0.2500000  )

     number of k points=    60
                       cart. coord. in units 2pi/alat
        k(    1) = (  -0.0625000   0.0625000   0.0625000), wk =   0.0078125
        k(    2) = (  -0.1875000   0.1875000  -0.0625000), wk =   0.0234375
        k(    3) = (  -0.3125000   0.3125000  -0.1875000), wk =   0.0234375
        k(    4) = (  -0.4375000   0.4375000  -0.3125000), wk =   0.0234375
        k(    5) = (   0.4375000  -0.4375000   0.5625000), wk =   0.0234375
        k(    6) = (   0.3125000  -0.3125000   0.4375000), wk =   0.0234375
        k(    7) = (   0.1875000  -0.1875000   0.3125000), wk =   0.0234375
        k(    8) = (   0.0625000  -0.0625000   0.1875000), wk =   0.0234375
        k(    9) = (  -0.0625000   0.3125000   0.0625000), wk =   0.0234375
        k(   10) = (  -0.1875000   0.4375000  -0.0625000), wk =   0.0468750
        k(   11) = (  -0.3125000   0.5625000  -0.1875000), wk =   0.0468750
        k(   12) = (   0.5625000  -0.3125000   0.6875000), wk =   0.0468750
        k(   13) = (   0.4375000  -0.1875000   0.5625000), wk =   0.0468750
        k(   14) = (   0.3125000  -0.0625000   0.4375000), wk =   0.0468750
        k(   15) = (   0.1875000   0.0625000   0.3125000), wk =   0.0468750
        k(   16) = (  -0.0625000   0.5625000   0.0625000), wk =   0.0234375
        k(   17) = (  -0.1875000   0.6875000  -0.0625000), wk =   0.0468750
        k(   18) = (   0.6875000  -0.1875000   0.8125000), wk =   0.0468750
        k(   19) = (   0.5625000  -0.0625000   0.6875000), wk =   0.0468750
        k(   20) = (   0.4375000   0.0625000   0.5625000), wk =   0.0468750
        k(   21) = (   0.3125000   0.1875000   0.4375000), wk =   0.0468750
        k(   22) = (  -0.0625000   0.8125000   0.0625000), wk =   0.0234375
        k(   23) = (   0.8125000  -0.0625000   0.9375000), wk =   0.0468750
        k(   24) = (   0.6875000   0.0625000   0.8125000), wk =   0.0468750
        k(   25) = (   0.5625000   0.1875000   0.6875000), wk =   0.0468750
        k(   26) = (   0.4375000   0.3125000   0.5625000), wk =   0.0468750
        k(   27) = (  -0.0625000  -0.9375000   0.0625000), wk =   0.0234375
        k(   28) = (  -0.1875000  -0.8125000  -0.0625000), wk =   0.0468750
        k(   29) = (  -0.3125000  -0.6875000  -0.1875000), wk =   0.0468750
        k(   30) = (  -0.0625000  -0.6875000   0.0625000), wk =   0.0234375
        k(   31) = (  -0.1875000  -0.5625000  -0.0625000), wk =   0.0468750
        k(   32) = (  -0.0625000  -0.4375000   0.0625000), wk =   0.0234375
        k(   33) = (  -0.1875000   0.1875000   0.1875000), wk =   0.0078125
        k(   34) = (  -0.3125000   0.3125000   0.0625000), wk =   0.0234375
        k(   35) = (  -0.4375000   0.4375000  -0.0625000), wk =   0.0234375
        k(   36) = (   0.4375000  -0.4375000   0.8125000), wk =   0.0234375
        k(   37) = (   0.3125000  -0.3125000   0.6875000), wk =   0.0234375
        k(   38) = (   0.1875000  -0.1875000   0.5625000), wk =   0.0234375
        k(   39) = (  -0.1875000   0.4375000   0.1875000), wk =   0.0234375
        k(   40) = (  -0.3125000   0.5625000   0.0625000), wk =   0.0468750
        k(   41) = (   0.5625000  -0.3125000   0.9375000), wk =   0.0468750
        k(   42) = (   0.4375000  -0.1875000   0.8125000), wk =   0.0468750
        k(   43) = (   0.3125000  -0.0625000   0.6875000), wk =   0.0468750
        k(   44) = (  -0.1875000   0.6875000   0.1875000), wk =   0.0234375
        k(   45) = (   0.6875000  -0.1875000   1.0625000), wk =   0.0468750
        k(   46) = (   0.5625000  -0.0625000   0.9375000), wk =   0.0468750
        k(   47) = (   0.4375000   0.0625000   0.8125000), wk =   0.0468750
        k(   48) = (  -0.1875000  -1.0625000   0.1875000), wk =   0.0234375
        k(   49) = (  -0.3125000  -0.9375000   0.0625000), wk =   0.0468750
        k(   50) = (  -0.1875000  -0.8125000   0.1875000), wk =   0.0234375
        k(   51) = (  -0.3125000   0.3125000   0.3125000), wk =   0.0078125
        k(   52) = (  -0.4375000   0.4375000   0.1875000), wk =   0.0234375
        k(   53) = (   0.4375000  -0.4375000   1.0625000), wk =   0.0234375
        k(   54) = (   0.3125000  -0.3125000   0.9375000), wk =   0.0234375
        k(   55) = (  -0.3125000   0.5625000   0.3125000), wk =   0.0234375
        k(   56) = (   0.5625000  -0.3125000   1.1875000), wk =   0.0468750
        k(   57) = (   0.4375000  -0.1875000   1.0625000), wk =   0.0468750
        k(   58) = (  -0.3125000  -1.1875000   0.3125000), wk =   0.0234375
        k(   59) = (  -0.4375000   0.4375000   0.4375000), wk =   0.0078125
        k(   60) = (   0.4375000  -0.4375000   1.3125000), wk =   0.0234375

     Dense  grid:     4813 G-vectors     FFT dimensions: (  24,  24,  24)

     Largest allocated arrays     est. size (Mb)     dimensions
        Kohn-Sham Wavefunctions         0.00 Mb     (      45,    4)
        NL pseudopotentials             0.02 Mb     (      45,   36)
        Each V/rho on FFT grid          0.02 Mb     (    1152)
        Each G-vector array             0.00 Mb     (     301)
        G-vector shells                 0.00 Mb     (      79)
     Largest temporary arrays     est. size (Mb)     dimensions
        Auxiliary wavefunctions         0.01 Mb     (      45,   16)
        Each subspace H/S matrix        0.00 Mb     (       8,    8)
        Each <psi_i|beta_j> matrix      0.00 Mb     (      36,    4)
        Arrays for rho mixing           0.14 Mb     (    1152,    8)

     Initial potential from superposition of free atoms

     starting charge    7.99866, renormalised to    8.00000
     Starting wfc are    8 randomized atomic wfcs

     total cpu time spent up to now is        0.2 secs

     per-process dynamical memory:     9.1 Mb

     Self-consistent Calculation

     iteration #  1     ecut=    26.00 Ry     beta=0.70
     Davidson diagonalization with overlap
     ethr =  1.00E-02,  avg # of iterations =  2.0

     Threshold (ethr) on eigenvalues was too large:
     Diagonalizing with lowered threshold

     Davidson diagonalization with overlap
     ethr =  7.15E-04,  avg # of iterations =  1.0

     total cpu time spent up to now is        0.3 secs

     total energy              =     -19.18999534 Ry
     Harris-Foulkes estimate   =     -19.20384259 Ry
     estimated scf accuracy    <       0.05664356 Ry

     iteration #  2     ecut=    26.00 Ry     beta=0.70
     Davidson diagonalization with overlap
     ethr =  7.08E-04,  avg # of iterations =  1.0

     total cpu time spent up to now is        0.3 secs

     total energy              =     -19.19200776 Ry
     Harris-Foulkes estimate   =     -19.19217203 Ry
     estimated scf accuracy    <       0.00243212 Ry

     iteration #  3     ecut=    26.00 Ry     beta=0.70
     Davidson diagonalization with overlap
     ethr =  3.04E-05,  avg # of iterations =  2.1

     total cpu time spent up to now is        0.3 secs

     total energy              =     -19.19237129 Ry
     Harris-Foulkes estimate   =     -19.19238653 Ry
     estimated scf accuracy    <       0.00004730 Ry

     iteration #  4     ecut=    26.00 Ry     beta=0.70
     Davidson diagonalization with overlap
     ethr =  5.91E-07,  avg # of iterations =  3.2

     total cpu time spent up to now is        0.3 secs

     total energy              =     -19.19240930 Ry
     Harris-Foulkes estimate   =     -19.19241052 Ry
     estimated scf accuracy    <       0.00000417 Ry

     iteration #  5     ecut=    26.00 Ry     beta=0.70
     Davidson diagonalization with overlap
     ethr =  5.21E-08,  avg # of iterations =  2.0

     total cpu time spent up to now is        0.3 secs

     total energy              =     -19.19240986 Ry
     Harris-Foulkes estimate   =     -19.19240986 Ry
     estimated scf accuracy    <       0.00000002 Ry

     iteration #  6     ecut=    26.00 Ry     beta=0.70
     Davidson diagonalization with overlap
     ethr =  1.96E-10,  avg # of iterations =  3.9

     total cpu time spent up to now is        0.4 secs

     End of self-consistent calculation

          k =-0.0625 0.0625 0.0625 (   600 PWs)   bands (ev):

    -5.6700   5.7933   6.2374   6.2374

          k =-0.1875 0.1875-0.0625 (   587 PWs)   bands (ev):

    -5.3959   4.2793   5.4079   6.1202

          k =-0.3125 0.3125-0.1875 (   594 PWs)   bands (ev):

    -4.7337   2.0112   4.9154   5.6485

          k =-0.4375 0.4375-0.3125 (   597 PWs)   bands (ev):

    -3.8054   0.0805   4.6996   5.2329

          k = 0.4375-0.4375 0.5625 (   595 PWs)   bands (ev):

    -3.3391  -0.6426   4.7539   5.0083

          k = 0.3125-0.3125 0.4375 (   604 PWs)   bands (ev):

    -4.1243   0.6530   5.0262   5.0475

          k = 0.1875-0.1875 0.3125 (   588 PWs)   bands (ev):

    -4.9935   2.7557   5.3051   5.5203

          k = 0.0625-0.0625 0.1875 (   584 PWs)   bands (ev):

    -5.5323   5.0438   5.7967   5.9701

          k =-0.0625 0.3125 0.0625 (   584 PWs)   bands (ev):

    -5.2581   4.1538   5.2239   5.3218

          k =-0.1875 0.4375-0.0625 (   593 PWs)   bands (ev):

    -4.7215   2.6297   4.2324   5.0552

          k =-0.3125 0.5625-0.1875 (   598 PWs)   bands (ev):

    -3.8545   0.7222   3.7401   4.6298

          k = 0.5625-0.3125 0.6875 (   596 PWs)   bands (ev):

    -3.0652  -0.5261   3.4490   4.5326

          k = 0.4375-0.1875 0.5625 (   596 PWs)   bands (ev):

    -3.5409   0.1875   3.3678   4.8273

          k = 0.3125-0.0625 0.4375 (   596 PWs)   bands (ev):

    -4.4672   1.9635   3.6621   5.3510

          k = 0.1875 0.0625 0.3125 (   589 PWs)   bands (ev):

    -5.1247   3.4576   4.8166   5.7356

          k =-0.0625 0.5625 0.0625 (   593 PWs)   bands (ev):

    -4.3122   2.1396   4.0868   4.2115

          k =-0.1875 0.6875-0.0625 (   601 PWs)   bands (ev):

    -3.5423   0.8786   3.2766   3.8540

          k = 0.6875-0.1875 0.8125 (   599 PWs)   bands (ev):

    -2.6165  -0.3545   2.4140   3.8223

          k = 0.5625-0.0625 0.6875 (   595 PWs)   bands (ev):

    -2.6876  -0.2597   2.0472   4.1772

          k = 0.4375 0.0625 0.5625 (   599 PWs)   bands (ev):

    -3.6106   0.7049   2.6742   4.7807

          k = 0.3125 0.1875 0.4375 (   597 PWs)   bands (ev):

    -4.3506   1.3289   4.3627   5.2506

          k =-0.0625 0.8125 0.0625 (   605 PWs)   bands (ev):

    -2.8746   0.0010   3.3792   3.6060

          k = 0.8125-0.0625 0.9375 (   604 PWs)   bands (ev):

    -1.9409  -1.0091   2.7997   3.3522

          k = 0.6875 0.0625 0.8125 (   603 PWs)   bands (ev):

    -2.0311  -0.8459   2.0440   3.6756

          k = 0.5625 0.1875 0.6875 (   596 PWs)   bands (ev):

    -2.8039  -0.4637   2.6374   4.2938

          k = 0.4375 0.3125 0.5625 (   597 PWs)   bands (ev):

    -3.4297  -0.3313   4.1920   4.9036

          k =-0.0625-0.9375 0.0625 (   604 PWs)   bands (ev):

    -1.9958  -1.0288   3.2381   3.4823

          k =-0.1875-0.8125-0.0625 (   597 PWs)   bands (ev):

    -2.7854  -0.0633   2.9631   3.5150

          k =-0.3125-0.6875-0.1875 (   602 PWs)   bands (ev):

    -3.2637   0.1738   3.0435   4.1308

          k =-0.0625-0.6875 0.0625 (   597 PWs)   bands (ev):

    -3.6508   1.0683   3.6618   3.8509

          k =-0.1875-0.5625-0.0625 (   601 PWs)   bands (ev):

    -4.1915   1.7781   3.7103   4.3807

          k =-0.0625-0.4375 0.0625 (   586 PWs)   bands (ev):

    -4.8500   3.1789   4.6503   4.6769

          k =-0.1875 0.1875 0.1875 (   582 PWs)   bands (ev):

    -5.2612   3.5369   5.7856   5.7856

          k =-0.3125 0.3125 0.0625 (   593 PWs)   bands (ev):

    -4.8597   2.6986   4.2292   5.8104

          k =-0.4375 0.4375-0.0625 (   599 PWs)   bands (ev):

    -4.0933   1.3120   3.1196   5.2910

          k = 0.4375-0.4375 0.8125 (   597 PWs)   bands (ev):

    -3.1698  -0.2249   2.9777   4.7441

          k = 0.3125-0.3125 0.6875 (   594 PWs)   bands (ev):

    -3.1543  -0.2533   3.2894   4.4158

          k = 0.1875-0.1875 0.5625 (   600 PWs)   bands (ev):

    -4.0769   1.3077   3.9148   4.3885

          k =-0.1875 0.4375 0.1875 (   600 PWs)   bands (ev):

    -4.5966   2.0151   4.7697   4.8173

          k =-0.3125 0.5625 0.0625 (   597 PWs)   bands (ev):

    -3.9544   1.2536   3.1776   4.6190

          k = 0.5625-0.3125 0.9375 (   594 PWs)   bands (ev):

    -3.0375   0.1358   2.3621   4.0290

          k = 0.4375-0.1875 0.8125 (   601 PWs)   bands (ev):

    -2.5321  -0.5009   2.3732   3.7044

          k = 0.3125-0.0625 0.6875 (   594 PWs)   bands (ev):

    -3.3323   0.5409   2.8013   3.8905

          k =-0.1875 0.6875 0.1875 (   602 PWs)   bands (ev):

    -3.4451   0.5925   3.1506   4.0501

          k = 0.6875-0.1875 1.0625 (   595 PWs)   bands (ev):

    -2.6197  -0.2073   2.5457   3.3348

          k = 0.5625-0.0625 0.9375 (   604 PWs)   bands (ev):

    -1.7862  -0.9757   2.2105   2.8148

          k = 0.4375 0.0625 0.8125 (   600 PWs)   bands (ev):

    -2.4054  -0.4225   2.2088   3.3064

          k =-0.1875-1.0625 0.1875 (   604 PWs)   bands (ev):

    -1.9574  -0.9604   2.3199   3.7000

          k =-0.3125-0.9375 0.0625 (   602 PWs)   bands (ev):

    -1.8548  -0.9862   2.4167   3.0415

          k =-0.1875-0.8125 0.1875 (   599 PWs)   bands (ev):

    -2.7203  -0.1733   2.5994   3.8179

          k =-0.3125 0.3125 0.3125 (   601 PWs)   bands (ev):

    -4.4855   1.2891   5.3652   5.3652

          k =-0.4375 0.4375 0.1875 (   600 PWs)   bands (ev):

    -3.9928   0.7075   3.8677   5.2771

          k = 0.4375-0.4375 1.0625 (   599 PWs)   bands (ev):

    -3.1782   0.1936   2.2806   4.6775

          k = 0.3125-0.3125 0.9375 (   602 PWs)   bands (ev):

    -2.3308  -0.5961   1.9237   4.1150

          k =-0.3125 0.5625 0.3125 (   596 PWs)   bands (ev):

    -3.6683   0.1336   4.2226   4.6946

          k = 0.5625-0.3125 1.1875 (   595 PWs)   bands (ev):

    -3.0301  -0.2170   2.8686   4.1994

          k = 0.4375-0.1875 1.0625 (   602 PWs)   bands (ev):

    -2.1900  -0.6563   2.0178   3.4619

          k =-0.3125-1.1875 0.3125 (   597 PWs)   bands (ev):

    -2.6596  -0.4958   2.4547   4.2175

          k =-0.4375 0.4375 0.4375 (   595 PWs)   bands (ev):

    -3.5658  -0.3999   5.1415   5.1415

          k = 0.4375-0.4375 1.3125 (   596 PWs)   bands (ev):

    -3.2030  -0.5751   3.8952   4.8636

     highest occupied level (ev):     6.2374

!    total energy              =     -19.19240990 Ry
     Harris-Foulkes estimate   =     -19.19240990 Ry
     estimated scf accuracy    <          1.1E-09 Ry

     The total energy is the sum of the following terms:

     one-electron contribution =       5.20557337 Ry
     hartree contribution      =       1.10490874 Ry
     xc contribution           =      -8.63620533 Ry
     ewald contribution        =     -16.86668667 Ry

     convergence has been achieved in   6 iterations

     Forces acting on atoms (Ry/au):

     atom    1 type  1   force =    -0.00000000   -0.00000000    0.00000000
     atom    2 type  1   force =     0.00000000    0.00000000   -0.00000000

     Total force =     0.000000     Total SCF correction =     0.000000


     entering subroutine stress ...

          total   stress  (Ry/bohr**3)                   (kbar)     P=   31.68
   0.00021538   0.00000000   0.00000000         31.68      0.00      0.00
   0.00000000   0.00021538  -0.00000000          0.00     31.68     -0.00
   0.00000000  -0.00000000   0.00021538          0.00     -0.00     31.68


     Writing output data file silicon.save
 
     init_run     :      0.04s CPU      0.05s WALL (       1 calls)
     electrons    :      0.13s CPU      1.20s WALL (       1 calls)
     forces       :      0.00s CPU      0.00s WALL (       1 calls)
     stress       :      0.01s CPU      0.01s WALL (       1 calls)

     Called by init_run:
     wfcinit      :      0.01s CPU      0.01s WALL (       1 calls)
     potinit      :      0.00s CPU      0.00s WALL (       1 calls)

     Called by electrons:
     c_bands      :      0.08s CPU      0.09s WALL (       7 calls)
     sum_band     :      0.02s CPU      0.02s WALL (       7 calls)
     v_of_rho     :      0.00s CPU      0.01s WALL (       7 calls)
     newd         :      0.01s CPU      0.01s WALL (       7 calls)
     mix_rho      :      0.00s CPU      0.00s WALL (       7 calls)

     Called by c_bands:
     init_us_2    :      0.00s CPU      0.00s WALL (      51 calls)
     cegterg      :      0.05s CPU      0.06s WALL (      21 calls)

     Called by sum_band:
     sum_band:bec :      0.00s CPU      0.00s WALL (      21 calls)
     addusdens    :      0.00s CPU      0.01s WALL (       7 calls)

     Called by *egterg:
     h_psi        :      0.01s CPU      0.02s WALL (      74 calls)
     s_psi        :      0.00s CPU      0.00s WALL (      74 calls)
     g_psi        :      0.00s CPU      0.00s WALL (      50 calls)
     cdiaghg      :      0.03s CPU      0.03s WALL (      68 calls)

     Called by h_psi:
     add_vuspsi   :      0.00s CPU      0.00s WALL (      74 calls)

     General routines
     calbec       :      0.00s CPU      0.00s WALL (     110 calls)
     fft          :      0.00s CPU      0.01s WALL (     118 calls)
     fftw         :      0.02s CPU      0.02s WALL (     618 calls)
     davcio       :      0.00s CPU      0.14s WALL (       3 calls)
 
     Parallel routines
     fft_scatter  :      0.01s CPU      0.02s WALL (     736 calls)
 
     PWSCF        :     0.60s CPU         7.36s WALL

 
   This run was terminated on:  16: 4:45   9Apr2018            

=------------------------------------------------------------------------------=
   JOB DONE.
=------------------------------------------------------------------------------=
Application 30462587 resources: utime ~2810s, stime ~48s, Rss ~21416, inblocks ~3530665, outblocks ~2803939
