
     Program PWSCF v.5.4.0 starts on  6Apr2018 at 23:49:27 

     This program is part of the open-source Quantum ESPRESSO suite
     for quantum simulation of materials; please cite
         "P. Giannozzi et al., J. Phys.:Condens. Matter 21 395502 (2009);
          URL http://www.quantum-espresso.org", 
     in publications or presentations arising from this work. More details at
     http://www.quantum-espresso.org/quote

     Parallel version (MPI & OpenMP), running on     192 processor cores
     Number of MPI processes:               192
     Threads/MPI process:                     1
     K-points division:     npool     =      24
     R & G space division:  proc/nbgrp/npool/nimage =       8
     Waiting for input...
     Reading input from standard input
     Message from routine read_cards :
     DEPRECATED: no units specified in ATOMIC_POSITIONS card
     Message from routine read_cards :
     ATOMIC_POSITIONS: units set to alat

     Current dimensions of program PWSCF are:
     Max number of different atomic species (ntypx) = 10
     Max number of k-points (npk) =  40000
     Max angular momentum in pseudopotentials (lmaxx) =  3

     Subspace diagonalization in iterative solution of the eigenvalue problem:
     one sub-group per band group will be used
     scalapack distributed-memory algorithm (size of sub-group:  2*  2 procs)

 
     Parallelization info
     --------------------
     sticks:   dense  smooth     PW     G-vecs:    dense   smooth      PW
     Min         119     119     36                 2416     2416     410
     Max         120     120     37                 2419     2419     412
     Sum         955     955    295                19339    19339    3287
 


     bravais-lattice index     =            2
     lattice parameter (alat)  =      10.2200  a.u.
     unit-cell volume          =     266.8657 (a.u.)^3
     number of atoms/cell      =            2
     number of atomic types    =            1
     number of electrons       =         8.00
     number of Kohn-Sham states=            4
     kinetic-energy cutoff     =      66.0000  Ry
     charge density cutoff     =     264.0000  Ry
     convergence threshold     =      1.0E-08
     mixing beta               =       0.7000
     number of iterations used =            8  plain     mixing
     Exchange-correlation      = SLA  PW   PBE  PBE ( 1  4  3  4 0 0)

     celldm(1)=  10.220000  celldm(2)=   0.000000  celldm(3)=   0.000000
     celldm(4)=   0.000000  celldm(5)=   0.000000  celldm(6)=   0.000000

     crystal axes: (cart. coord. in units of alat)
               a(1) = (  -0.500000   0.000000   0.500000 )  
               a(2) = (   0.000000   0.500000   0.500000 )  
               a(3) = (  -0.500000   0.500000   0.000000 )  

     reciprocal axes: (cart. coord. in units 2 pi/alat)
               b(1) = ( -1.000000 -1.000000  1.000000 )  
               b(2) = (  1.000000  1.000000  1.000000 )  
               b(3) = ( -1.000000  1.000000 -1.000000 )  


     PseudoPot. # 1 for Si read from file:
     ./si_pbe_v1.uspp.F.UPF.txt
     MD5 check sum: a056efeee980c13900f22a371efd63c1
     Pseudo is Ultrasoft + core correction, Zval =  4.0
     Generated by new atomic code, or converted to UPF format
     Using radial grid of  899 points,  6 beta functions with: 
                l(1) =   0
                l(2) =   0
                l(3) =   1
                l(4) =   1
                l(5) =   2
                l(6) =   2
     Q(r) pseudized with  8 coefficients,  rinner =    0.900   0.900   0.900
                                                       0.900   0.900

     atomic species   valence    mass     pseudopotential
        Si             4.00    28.08600     Si( 1.00)

     48 Sym. Ops., with inversion, found (24 have fractional translation)



   Cartesian axes

     site n.     atom                  positions (alat units)
         1           Si  tau(   1) = (   0.0000000   0.0000000   0.0000000  )
         2           Si  tau(   2) = (   0.2500000   0.2500000   0.2500000  )

     number of k points=    60
                       cart. coord. in units 2pi/alat
        k(    1) = (  -0.0625000   0.0625000   0.0625000), wk =   0.0078125
        k(    2) = (  -0.1875000   0.1875000  -0.0625000), wk =   0.0234375
        k(    3) = (  -0.3125000   0.3125000  -0.1875000), wk =   0.0234375
        k(    4) = (  -0.4375000   0.4375000  -0.3125000), wk =   0.0234375
        k(    5) = (   0.4375000  -0.4375000   0.5625000), wk =   0.0234375
        k(    6) = (   0.3125000  -0.3125000   0.4375000), wk =   0.0234375
        k(    7) = (   0.1875000  -0.1875000   0.3125000), wk =   0.0234375
        k(    8) = (   0.0625000  -0.0625000   0.1875000), wk =   0.0234375
        k(    9) = (  -0.0625000   0.3125000   0.0625000), wk =   0.0234375
        k(   10) = (  -0.1875000   0.4375000  -0.0625000), wk =   0.0468750
        k(   11) = (  -0.3125000   0.5625000  -0.1875000), wk =   0.0468750
        k(   12) = (   0.5625000  -0.3125000   0.6875000), wk =   0.0468750
        k(   13) = (   0.4375000  -0.1875000   0.5625000), wk =   0.0468750
        k(   14) = (   0.3125000  -0.0625000   0.4375000), wk =   0.0468750
        k(   15) = (   0.1875000   0.0625000   0.3125000), wk =   0.0468750
        k(   16) = (  -0.0625000   0.5625000   0.0625000), wk =   0.0234375
        k(   17) = (  -0.1875000   0.6875000  -0.0625000), wk =   0.0468750
        k(   18) = (   0.6875000  -0.1875000   0.8125000), wk =   0.0468750
        k(   19) = (   0.5625000  -0.0625000   0.6875000), wk =   0.0468750
        k(   20) = (   0.4375000   0.0625000   0.5625000), wk =   0.0468750
        k(   21) = (   0.3125000   0.1875000   0.4375000), wk =   0.0468750
        k(   22) = (  -0.0625000   0.8125000   0.0625000), wk =   0.0234375
        k(   23) = (   0.8125000  -0.0625000   0.9375000), wk =   0.0468750
        k(   24) = (   0.6875000   0.0625000   0.8125000), wk =   0.0468750
        k(   25) = (   0.5625000   0.1875000   0.6875000), wk =   0.0468750
        k(   26) = (   0.4375000   0.3125000   0.5625000), wk =   0.0468750
        k(   27) = (  -0.0625000  -0.9375000   0.0625000), wk =   0.0234375
        k(   28) = (  -0.1875000  -0.8125000  -0.0625000), wk =   0.0468750
        k(   29) = (  -0.3125000  -0.6875000  -0.1875000), wk =   0.0468750
        k(   30) = (  -0.0625000  -0.6875000   0.0625000), wk =   0.0234375
        k(   31) = (  -0.1875000  -0.5625000  -0.0625000), wk =   0.0468750
        k(   32) = (  -0.0625000  -0.4375000   0.0625000), wk =   0.0234375
        k(   33) = (  -0.1875000   0.1875000   0.1875000), wk =   0.0078125
        k(   34) = (  -0.3125000   0.3125000   0.0625000), wk =   0.0234375
        k(   35) = (  -0.4375000   0.4375000  -0.0625000), wk =   0.0234375
        k(   36) = (   0.4375000  -0.4375000   0.8125000), wk =   0.0234375
        k(   37) = (   0.3125000  -0.3125000   0.6875000), wk =   0.0234375
        k(   38) = (   0.1875000  -0.1875000   0.5625000), wk =   0.0234375
        k(   39) = (  -0.1875000   0.4375000   0.1875000), wk =   0.0234375
        k(   40) = (  -0.3125000   0.5625000   0.0625000), wk =   0.0468750
        k(   41) = (   0.5625000  -0.3125000   0.9375000), wk =   0.0468750
        k(   42) = (   0.4375000  -0.1875000   0.8125000), wk =   0.0468750
        k(   43) = (   0.3125000  -0.0625000   0.6875000), wk =   0.0468750
        k(   44) = (  -0.1875000   0.6875000   0.1875000), wk =   0.0234375
        k(   45) = (   0.6875000  -0.1875000   1.0625000), wk =   0.0468750
        k(   46) = (   0.5625000  -0.0625000   0.9375000), wk =   0.0468750
        k(   47) = (   0.4375000   0.0625000   0.8125000), wk =   0.0468750
        k(   48) = (  -0.1875000  -1.0625000   0.1875000), wk =   0.0234375
        k(   49) = (  -0.3125000  -0.9375000   0.0625000), wk =   0.0468750
        k(   50) = (  -0.1875000  -0.8125000   0.1875000), wk =   0.0234375
        k(   51) = (  -0.3125000   0.3125000   0.3125000), wk =   0.0078125
        k(   52) = (  -0.4375000   0.4375000   0.1875000), wk =   0.0234375
        k(   53) = (   0.4375000  -0.4375000   1.0625000), wk =   0.0234375
        k(   54) = (   0.3125000  -0.3125000   0.9375000), wk =   0.0234375
        k(   55) = (  -0.3125000   0.5625000   0.3125000), wk =   0.0234375
        k(   56) = (   0.5625000  -0.3125000   1.1875000), wk =   0.0468750
        k(   57) = (   0.4375000  -0.1875000   1.0625000), wk =   0.0468750
        k(   58) = (  -0.3125000  -1.1875000   0.3125000), wk =   0.0234375
        k(   59) = (  -0.4375000   0.4375000   0.4375000), wk =   0.0078125
        k(   60) = (   0.4375000  -0.4375000   1.3125000), wk =   0.0234375

     Dense  grid:    19339 G-vectors     FFT dimensions: (  40,  40,  40)

     Largest allocated arrays     est. size (Mb)     dimensions
        Kohn-Sham Wavefunctions         0.02 Mb     (     311,    4)
        NL pseudopotentials             0.17 Mb     (     311,   36)
        Each V/rho on FFT grid          0.12 Mb     (    8000)
        Each G-vector array             0.02 Mb     (    2417)
        G-vector shells                 0.00 Mb     (     234)
     Largest temporary arrays     est. size (Mb)     dimensions
        Auxiliary wavefunctions         0.08 Mb     (     311,   16)
        Each subspace H/S matrix        0.00 Mb     (       8,    8)
        Each <psi_i|beta_j> matrix      0.00 Mb     (      36,    4)
        Arrays for rho mixing           0.98 Mb     (    8000,    8)

     Initial potential from superposition of free atoms

     starting charge    7.99866, renormalised to    8.00000
     Starting wfc are    8 randomized atomic wfcs

     total cpu time spent up to now is        0.2 secs

     per-process dynamical memory:    11.5 Mb

     Self-consistent Calculation

     iteration #  1     ecut=    66.00 Ry     beta=0.70
     Davidson diagonalization with overlap
     ethr =  1.00E-02,  avg # of iterations =  2.0

     Threshold (ethr) on eigenvalues was too large:
     Diagonalizing with lowered threshold

     Davidson diagonalization with overlap
     ethr =  7.18E-04,  avg # of iterations =  1.0

     total cpu time spent up to now is        0.3 secs

     total energy              =     -19.19022172 Ry
     Harris-Foulkes estimate   =     -19.20404039 Ry
     estimated scf accuracy    <       0.05651774 Ry

     iteration #  2     ecut=    66.00 Ry     beta=0.70
     Davidson diagonalization with overlap
     ethr =  7.06E-04,  avg # of iterations =  1.0

     total cpu time spent up to now is        0.4 secs

     total energy              =     -19.19219370 Ry
     Harris-Foulkes estimate   =     -19.19236643 Ry
     estimated scf accuracy    <       0.00245389 Ry

     iteration #  3     ecut=    66.00 Ry     beta=0.70
     Davidson diagonalization with overlap
     ethr =  3.07E-05,  avg # of iterations =  2.0

     total cpu time spent up to now is        0.4 secs

     total energy              =     -19.19255486 Ry
     Harris-Foulkes estimate   =     -19.19256968 Ry
     estimated scf accuracy    <       0.00004675 Ry

     iteration #  4     ecut=    66.00 Ry     beta=0.70
     Davidson diagonalization with overlap
     ethr =  5.84E-07,  avg # of iterations =  3.6

     total cpu time spent up to now is        0.5 secs

     total energy              =     -19.19259922 Ry
     Harris-Foulkes estimate   =     -19.19260045 Ry
     estimated scf accuracy    <       0.00000428 Ry

     iteration #  5     ecut=    66.00 Ry     beta=0.70
     Davidson diagonalization with overlap
     ethr =  5.36E-08,  avg # of iterations =  2.0

     total cpu time spent up to now is        0.5 secs

     total energy              =     -19.19259976 Ry
     Harris-Foulkes estimate   =     -19.19259975 Ry
     estimated scf accuracy    <       0.00000001 Ry

     iteration #  6     ecut=    66.00 Ry     beta=0.70
     Davidson diagonalization with overlap
     ethr =  1.28E-10,  avg # of iterations =  4.0

     total cpu time spent up to now is        0.6 secs

     End of self-consistent calculation

          k =-0.0625 0.0625 0.0625 (  2427 PWs)   bands (ev):

    -5.6706   5.7925   6.2366   6.2366

          k =-0.1875 0.1875-0.0625 (  2427 PWs)   bands (ev):

    -5.3965   4.2785   5.4071   6.1194

          k =-0.3125 0.3125-0.1875 (  2424 PWs)   bands (ev):

    -4.7343   2.0104   4.9146   5.6477

          k =-0.4375 0.4375-0.3125 (  2426 PWs)   bands (ev):

    -3.8061   0.0798   4.6988   5.2321

          k = 0.4375-0.4375 0.5625 (  2419 PWs)   bands (ev):

    -3.3398  -0.6433   4.7531   5.0075

          k = 0.3125-0.3125 0.4375 (  2423 PWs)   bands (ev):

    -4.1250   0.6522   5.0254   5.0467

          k = 0.1875-0.1875 0.3125 (  2428 PWs)   bands (ev):

    -4.9941   2.7549   5.3043   5.5195

          k = 0.0625-0.0625 0.1875 (  2414 PWs)   bands (ev):

    -5.5329   5.0430   5.7959   5.9692

          k =-0.0625 0.3125 0.0625 (  2425 PWs)   bands (ev):

    -5.2587   4.1530   5.2231   5.3210

          k =-0.1875 0.4375-0.0625 (  2422 PWs)   bands (ev):

    -4.7221   2.6289   4.2316   5.0544

          k =-0.3125 0.5625-0.1875 (  2419 PWs)   bands (ev):

    -3.8551   0.7214   3.7394   4.6290

          k = 0.5625-0.3125 0.6875 (  2414 PWs)   bands (ev):

    -3.0658  -0.5269   3.4482   4.5318

          k = 0.4375-0.1875 0.5625 (  2416 PWs)   bands (ev):

    -3.5416   0.1868   3.3670   4.8265

          k = 0.3125-0.0625 0.4375 (  2424 PWs)   bands (ev):

    -4.4679   1.9627   3.6614   5.3502

          k = 0.1875 0.0625 0.3125 (  2424 PWs)   bands (ev):

    -5.1253   3.4568   4.8158   5.7348

          k =-0.0625 0.5625 0.0625 (  2424 PWs)   bands (ev):

    -4.3129   2.1388   4.0860   4.2107

          k =-0.1875 0.6875-0.0625 (  2413 PWs)   bands (ev):

    -3.5429   0.8779   3.2759   3.8532

          k = 0.6875-0.1875 0.8125 (  2411 PWs)   bands (ev):

    -2.6172  -0.3552   2.4132   3.8215

          k = 0.5625-0.0625 0.6875 (  2410 PWs)   bands (ev):

    -2.6883  -0.2605   2.0465   4.1764

          k = 0.4375 0.0625 0.5625 (  2415 PWs)   bands (ev):

    -3.6113   0.7042   2.6734   4.7799

          k = 0.3125 0.1875 0.4375 (  2423 PWs)   bands (ev):

    -4.3513   1.3282   4.3620   5.2498

          k =-0.0625 0.8125 0.0625 (  2420 PWs)   bands (ev):

    -2.8753   0.0003   3.3784   3.6052

          k = 0.8125-0.0625 0.9375 (  2413 PWs)   bands (ev):

    -1.9416  -1.0098   2.7990   3.3514

          k = 0.6875 0.0625 0.8125 (  2403 PWs)   bands (ev):

    -2.0318  -0.8467   2.0433   3.6748

          k = 0.5625 0.1875 0.6875 (  2414 PWs)   bands (ev):

    -2.8046  -0.4644   2.6366   4.2930

          k = 0.4375 0.3125 0.5625 (  2420 PWs)   bands (ev):

    -3.4304  -0.3320   4.1913   4.9028

          k =-0.0625-0.9375 0.0625 (  2417 PWs)   bands (ev):

    -1.9965  -1.0296   3.2373   3.4815

          k =-0.1875-0.8125-0.0625 (  2411 PWs)   bands (ev):

    -2.7861  -0.0640   2.9623   3.5143

          k =-0.3125-0.6875-0.1875 (  2419 PWs)   bands (ev):

    -3.2644   0.1730   3.0428   4.1300

          k =-0.0625-0.6875 0.0625 (  2415 PWs)   bands (ev):

    -3.6515   1.0675   3.6611   3.8501

          k =-0.1875-0.5625-0.0625 (  2419 PWs)   bands (ev):

    -4.1921   1.7773   3.7096   4.3799

          k =-0.0625-0.4375 0.0625 (  2426 PWs)   bands (ev):

    -4.8507   3.1781   4.6495   4.6761

          k =-0.1875 0.1875 0.1875 (  2418 PWs)   bands (ev):

    -5.2618   3.5361   5.7848   5.7848

          k =-0.3125 0.3125 0.0625 (  2426 PWs)   bands (ev):

    -4.8603   2.6979   4.2284   5.8096

          k =-0.4375 0.4375-0.0625 (  2414 PWs)   bands (ev):

    -4.0940   1.3112   3.1189   5.2902

          k = 0.4375-0.4375 0.8125 (  2405 PWs)   bands (ev):

    -3.1705  -0.2256   2.9770   4.7433

          k = 0.3125-0.3125 0.6875 (  2412 PWs)   bands (ev):

    -3.1550  -0.2540   3.2887   4.4150

          k = 0.1875-0.1875 0.5625 (  2417 PWs)   bands (ev):

    -4.0775   1.3069   3.9140   4.3878

          k =-0.1875 0.4375 0.1875 (  2418 PWs)   bands (ev):

    -4.5972   2.0143   4.7689   4.8165

          k =-0.3125 0.5625 0.0625 (  2412 PWs)   bands (ev):

    -3.9550   1.2528   3.1768   4.6182

          k = 0.5625-0.3125 0.9375 (  2420 PWs)   bands (ev):

    -3.0382   0.1350   2.3614   4.0283

          k = 0.4375-0.1875 0.8125 (  2413 PWs)   bands (ev):

    -2.5328  -0.5017   2.3725   3.7036

          k = 0.3125-0.0625 0.6875 (  2415 PWs)   bands (ev):

    -3.3330   0.5402   2.8006   3.8898

          k =-0.1875 0.6875 0.1875 (  2408 PWs)   bands (ev):

    -3.4457   0.5917   3.1498   4.0493

          k = 0.6875-0.1875 1.0625 (  2412 PWs)   bands (ev):

    -2.6204  -0.2081   2.5450   3.3341

          k = 0.5625-0.0625 0.9375 (  2415 PWs)   bands (ev):

    -1.7869  -0.9764   2.2098   2.8140

          k = 0.4375 0.0625 0.8125 (  2424 PWs)   bands (ev):

    -2.4061  -0.4233   2.2081   3.3057

          k =-0.1875-1.0625 0.1875 (  2413 PWs)   bands (ev):

    -1.9582  -0.9612   2.3192   3.6992

          k =-0.3125-0.9375 0.0625 (  2414 PWs)   bands (ev):

    -1.8556  -0.9870   2.4160   3.0407

          k =-0.1875-0.8125 0.1875 (  2418 PWs)   bands (ev):

    -2.7209  -0.1740   2.5986   3.8171

          k =-0.3125 0.3125 0.3125 (  2433 PWs)   bands (ev):

    -4.4861   1.2883   5.3644   5.3644

          k =-0.4375 0.4375 0.1875 (  2420 PWs)   bands (ev):

    -3.9934   0.7068   3.8670   5.2763

          k = 0.4375-0.4375 1.0625 (  2407 PWs)   bands (ev):

    -3.1789   0.1929   2.2799   4.6767

          k = 0.3125-0.3125 0.9375 (  2407 PWs)   bands (ev):

    -2.3315  -0.5969   1.9229   4.1142

          k =-0.3125 0.5625 0.3125 (  2417 PWs)   bands (ev):

    -3.6690   0.1328   4.2218   4.6938

          k = 0.5625-0.3125 1.1875 (  2417 PWs)   bands (ev):

    -3.0308  -0.2178   2.8679   4.1986

          k = 0.4375-0.1875 1.0625 (  2413 PWs)   bands (ev):

    -2.1907  -0.6570   2.0171   3.4612

          k =-0.3125-1.1875 0.3125 (  2407 PWs)   bands (ev):

    -2.6603  -0.4965   2.4540   4.2167

          k =-0.4375 0.4375 0.4375 (  2428 PWs)   bands (ev):

    -3.5664  -0.4006   5.1407   5.1407

          k = 0.4375-0.4375 1.3125 (  2418 PWs)   bands (ev):

    -3.2037  -0.5759   3.8945   4.8628

     highest occupied level (ev):     6.2366

!    total energy              =     -19.19259980 Ry
     Harris-Foulkes estimate   =     -19.19259980 Ry
     estimated scf accuracy    <          5.0E-10 Ry

     The total energy is the sum of the following terms:

     one-electron contribution =       5.20506150 Ry
     hartree contribution      =       1.10490282 Ry
     xc contribution           =      -8.63587748 Ry
     ewald contribution        =     -16.86668664 Ry

     convergence has been achieved in   6 iterations

     Forces acting on atoms (Ry/au):

     atom    1 type  1   force =     0.00000000    0.00000000    0.00000000
     atom    2 type  1   force =     0.00000000    0.00000000    0.00000000

     Total force =     0.000000     Total SCF correction =     0.000000


     entering subroutine stress ...

          total   stress  (Ry/bohr**3)                   (kbar)     P=   31.23
   0.00021227  -0.00000000  -0.00000000         31.23     -0.00     -0.00
  -0.00000000   0.00021227   0.00000000         -0.00     31.23      0.00
  -0.00000000   0.00000000   0.00021227         -0.00      0.00     31.23


     Writing output data file silicon.save
 
     init_run     :      0.09s CPU      0.11s WALL (       1 calls)
     electrons    :      0.31s CPU      0.52s WALL (       1 calls)
     forces       :      0.02s CPU      0.02s WALL (       1 calls)
     stress       :      0.07s CPU      0.07s WALL (       1 calls)

     Called by init_run:
     wfcinit      :      0.01s CPU      0.01s WALL (       1 calls)
     potinit      :      0.01s CPU      0.01s WALL (       1 calls)

     Called by electrons:
     c_bands      :      0.12s CPU      0.13s WALL (       7 calls)
     sum_band     :      0.11s CPU      0.13s WALL (       7 calls)
     v_of_rho     :      0.02s CPU      0.03s WALL (       7 calls)
     newd         :      0.05s CPU      0.06s WALL (       7 calls)
     mix_rho      :      0.00s CPU      0.00s WALL (       7 calls)

     Called by c_bands:
     init_us_2    :      0.00s CPU      0.00s WALL (      51 calls)
     cegterg      :      0.08s CPU      0.10s WALL (      21 calls)

     Called by sum_band:
     sum_band:bec :      0.00s CPU      0.00s WALL (      21 calls)
     addusdens    :      0.08s CPU      0.09s WALL (       7 calls)

     Called by *egterg:
     h_psi        :      0.04s CPU      0.06s WALL (      74 calls)
     s_psi        :      0.00s CPU      0.00s WALL (      74 calls)
     g_psi        :      0.00s CPU      0.00s WALL (      50 calls)
     cdiaghg      :      0.02s CPU      0.03s WALL (      68 calls)

     Called by h_psi:
     add_vuspsi   :      0.00s CPU      0.00s WALL (      74 calls)

     General routines
     calbec       :      0.00s CPU      0.01s WALL (     110 calls)
     fft          :      0.02s CPU      0.02s WALL (     118 calls)
     fftw         :      0.04s CPU      0.05s WALL (     628 calls)
     davcio       :      0.00s CPU      0.00s WALL (       3 calls)
 
     Parallel routines
     fft_scatter  :      0.02s CPU      0.03s WALL (     746 calls)
 
     PWSCF        :     0.71s CPU         1.69s WALL

 
   This run was terminated on:  23:49:28   6Apr2018            

=------------------------------------------------------------------------------=
   JOB DONE.
=------------------------------------------------------------------------------=
Application 30443785 resources: utime ~333s, stime ~25s, Rss ~31524, inblocks ~1759460, outblocks ~1420298
