
     Program PWSCF v.5.4.0 starts on  6Apr2018 at 23:48:33 

     This program is part of the open-source Quantum ESPRESSO suite
     for quantum simulation of materials; please cite
         "P. Giannozzi et al., J. Phys.:Condens. Matter 21 395502 (2009);
          URL http://www.quantum-espresso.org", 
     in publications or presentations arising from this work. More details at
     http://www.quantum-espresso.org/quote

     Parallel version (MPI & OpenMP), running on     192 processor cores
     Number of MPI processes:               192
     Threads/MPI process:                     1
     K-points division:     npool     =      24
     R & G space division:  proc/nbgrp/npool/nimage =       8
     Waiting for input...
     Reading input from standard input
     Message from routine read_cards :
     DEPRECATED: no units specified in ATOMIC_POSITIONS card
     Message from routine read_cards :
     ATOMIC_POSITIONS: units set to alat

     Current dimensions of program PWSCF are:
     Max number of different atomic species (ntypx) = 10
     Max number of k-points (npk) =  40000
     Max angular momentum in pseudopotentials (lmaxx) =  3

     Subspace diagonalization in iterative solution of the eigenvalue problem:
     one sub-group per band group will be used
     scalapack distributed-memory algorithm (size of sub-group:  2*  2 procs)

 
     Parallelization info
     --------------------
     sticks:   dense  smooth     PW     G-vecs:    dense   smooth      PW
     Min          82      82     26                 1398     1398     260
     Max          83      83     27                 1400     1400     262
     Sum         661     661    211                11191    11191    2085
 


     bravais-lattice index     =            2
     lattice parameter (alat)  =      10.2200  a.u.
     unit-cell volume          =     266.8657 (a.u.)^3
     number of atoms/cell      =            2
     number of atomic types    =            1
     number of electrons       =         8.00
     number of Kohn-Sham states=            4
     kinetic-energy cutoff     =      46.0000  Ry
     charge density cutoff     =     184.0000  Ry
     convergence threshold     =      1.0E-08
     mixing beta               =       0.7000
     number of iterations used =            8  plain     mixing
     Exchange-correlation      = SLA  PW   PBE  PBE ( 1  4  3  4 0 0)

     celldm(1)=  10.220000  celldm(2)=   0.000000  celldm(3)=   0.000000
     celldm(4)=   0.000000  celldm(5)=   0.000000  celldm(6)=   0.000000

     crystal axes: (cart. coord. in units of alat)
               a(1) = (  -0.500000   0.000000   0.500000 )  
               a(2) = (   0.000000   0.500000   0.500000 )  
               a(3) = (  -0.500000   0.500000   0.000000 )  

     reciprocal axes: (cart. coord. in units 2 pi/alat)
               b(1) = ( -1.000000 -1.000000  1.000000 )  
               b(2) = (  1.000000  1.000000  1.000000 )  
               b(3) = ( -1.000000  1.000000 -1.000000 )  


     PseudoPot. # 1 for Si read from file:
     ./si_pbe_v1.uspp.F.UPF.txt
     MD5 check sum: a056efeee980c13900f22a371efd63c1
     Pseudo is Ultrasoft + core correction, Zval =  4.0
     Generated by new atomic code, or converted to UPF format
     Using radial grid of  899 points,  6 beta functions with: 
                l(1) =   0
                l(2) =   0
                l(3) =   1
                l(4) =   1
                l(5) =   2
                l(6) =   2
     Q(r) pseudized with  8 coefficients,  rinner =    0.900   0.900   0.900
                                                       0.900   0.900

     atomic species   valence    mass     pseudopotential
        Si             4.00    28.08600     Si( 1.00)

     48 Sym. Ops., with inversion, found (24 have fractional translation)



   Cartesian axes

     site n.     atom                  positions (alat units)
         1           Si  tau(   1) = (   0.0000000   0.0000000   0.0000000  )
         2           Si  tau(   2) = (   0.2500000   0.2500000   0.2500000  )

     number of k points=    60
                       cart. coord. in units 2pi/alat
        k(    1) = (  -0.0625000   0.0625000   0.0625000), wk =   0.0078125
        k(    2) = (  -0.1875000   0.1875000  -0.0625000), wk =   0.0234375
        k(    3) = (  -0.3125000   0.3125000  -0.1875000), wk =   0.0234375
        k(    4) = (  -0.4375000   0.4375000  -0.3125000), wk =   0.0234375
        k(    5) = (   0.4375000  -0.4375000   0.5625000), wk =   0.0234375
        k(    6) = (   0.3125000  -0.3125000   0.4375000), wk =   0.0234375
        k(    7) = (   0.1875000  -0.1875000   0.3125000), wk =   0.0234375
        k(    8) = (   0.0625000  -0.0625000   0.1875000), wk =   0.0234375
        k(    9) = (  -0.0625000   0.3125000   0.0625000), wk =   0.0234375
        k(   10) = (  -0.1875000   0.4375000  -0.0625000), wk =   0.0468750
        k(   11) = (  -0.3125000   0.5625000  -0.1875000), wk =   0.0468750
        k(   12) = (   0.5625000  -0.3125000   0.6875000), wk =   0.0468750
        k(   13) = (   0.4375000  -0.1875000   0.5625000), wk =   0.0468750
        k(   14) = (   0.3125000  -0.0625000   0.4375000), wk =   0.0468750
        k(   15) = (   0.1875000   0.0625000   0.3125000), wk =   0.0468750
        k(   16) = (  -0.0625000   0.5625000   0.0625000), wk =   0.0234375
        k(   17) = (  -0.1875000   0.6875000  -0.0625000), wk =   0.0468750
        k(   18) = (   0.6875000  -0.1875000   0.8125000), wk =   0.0468750
        k(   19) = (   0.5625000  -0.0625000   0.6875000), wk =   0.0468750
        k(   20) = (   0.4375000   0.0625000   0.5625000), wk =   0.0468750
        k(   21) = (   0.3125000   0.1875000   0.4375000), wk =   0.0468750
        k(   22) = (  -0.0625000   0.8125000   0.0625000), wk =   0.0234375
        k(   23) = (   0.8125000  -0.0625000   0.9375000), wk =   0.0468750
        k(   24) = (   0.6875000   0.0625000   0.8125000), wk =   0.0468750
        k(   25) = (   0.5625000   0.1875000   0.6875000), wk =   0.0468750
        k(   26) = (   0.4375000   0.3125000   0.5625000), wk =   0.0468750
        k(   27) = (  -0.0625000  -0.9375000   0.0625000), wk =   0.0234375
        k(   28) = (  -0.1875000  -0.8125000  -0.0625000), wk =   0.0468750
        k(   29) = (  -0.3125000  -0.6875000  -0.1875000), wk =   0.0468750
        k(   30) = (  -0.0625000  -0.6875000   0.0625000), wk =   0.0234375
        k(   31) = (  -0.1875000  -0.5625000  -0.0625000), wk =   0.0468750
        k(   32) = (  -0.0625000  -0.4375000   0.0625000), wk =   0.0234375
        k(   33) = (  -0.1875000   0.1875000   0.1875000), wk =   0.0078125
        k(   34) = (  -0.3125000   0.3125000   0.0625000), wk =   0.0234375
        k(   35) = (  -0.4375000   0.4375000  -0.0625000), wk =   0.0234375
        k(   36) = (   0.4375000  -0.4375000   0.8125000), wk =   0.0234375
        k(   37) = (   0.3125000  -0.3125000   0.6875000), wk =   0.0234375
        k(   38) = (   0.1875000  -0.1875000   0.5625000), wk =   0.0234375
        k(   39) = (  -0.1875000   0.4375000   0.1875000), wk =   0.0234375
        k(   40) = (  -0.3125000   0.5625000   0.0625000), wk =   0.0468750
        k(   41) = (   0.5625000  -0.3125000   0.9375000), wk =   0.0468750
        k(   42) = (   0.4375000  -0.1875000   0.8125000), wk =   0.0468750
        k(   43) = (   0.3125000  -0.0625000   0.6875000), wk =   0.0468750
        k(   44) = (  -0.1875000   0.6875000   0.1875000), wk =   0.0234375
        k(   45) = (   0.6875000  -0.1875000   1.0625000), wk =   0.0468750
        k(   46) = (   0.5625000  -0.0625000   0.9375000), wk =   0.0468750
        k(   47) = (   0.4375000   0.0625000   0.8125000), wk =   0.0468750
        k(   48) = (  -0.1875000  -1.0625000   0.1875000), wk =   0.0234375
        k(   49) = (  -0.3125000  -0.9375000   0.0625000), wk =   0.0468750
        k(   50) = (  -0.1875000  -0.8125000   0.1875000), wk =   0.0234375
        k(   51) = (  -0.3125000   0.3125000   0.3125000), wk =   0.0078125
        k(   52) = (  -0.4375000   0.4375000   0.1875000), wk =   0.0234375
        k(   53) = (   0.4375000  -0.4375000   1.0625000), wk =   0.0234375
        k(   54) = (   0.3125000  -0.3125000   0.9375000), wk =   0.0234375
        k(   55) = (  -0.3125000   0.5625000   0.3125000), wk =   0.0234375
        k(   56) = (   0.5625000  -0.3125000   1.1875000), wk =   0.0468750
        k(   57) = (   0.4375000  -0.1875000   1.0625000), wk =   0.0468750
        k(   58) = (  -0.3125000  -1.1875000   0.3125000), wk =   0.0234375
        k(   59) = (  -0.4375000   0.4375000   0.4375000), wk =   0.0078125
        k(   60) = (   0.4375000  -0.4375000   1.3125000), wk =   0.0234375

     Dense  grid:    11191 G-vectors     FFT dimensions: (  32,  32,  32)

     Largest allocated arrays     est. size (Mb)     dimensions
        Kohn-Sham Wavefunctions         0.01 Mb     (     182,    4)
        NL pseudopotentials             0.10 Mb     (     182,   36)
        Each V/rho on FFT grid          0.06 Mb     (    4096)
        Each G-vector array             0.01 Mb     (    1398)
        G-vector shells                 0.00 Mb     (     162)
     Largest temporary arrays     est. size (Mb)     dimensions
        Auxiliary wavefunctions         0.04 Mb     (     182,   16)
        Each subspace H/S matrix        0.00 Mb     (       8,    8)
        Each <psi_i|beta_j> matrix      0.00 Mb     (      36,    4)
        Arrays for rho mixing           0.50 Mb     (    4096,    8)

     Initial potential from superposition of free atoms

     starting charge    7.99866, renormalised to    8.00000
     Starting wfc are    8 randomized atomic wfcs

     total cpu time spent up to now is        0.2 secs

     per-process dynamical memory:    10.2 Mb

     Self-consistent Calculation

     iteration #  1     ecut=    46.00 Ry     beta=0.70
     Davidson diagonalization with overlap
     ethr =  1.00E-02,  avg # of iterations =  2.0

     Threshold (ethr) on eigenvalues was too large:
     Diagonalizing with lowered threshold

     Davidson diagonalization with overlap
     ethr =  7.16E-04,  avg # of iterations =  1.0

     total cpu time spent up to now is        0.3 secs

     total energy              =     -19.19014779 Ry
     Harris-Foulkes estimate   =     -19.20398391 Ry
     estimated scf accuracy    <       0.05654868 Ry

     iteration #  2     ecut=    46.00 Ry     beta=0.70
     Davidson diagonalization with overlap
     ethr =  7.07E-04,  avg # of iterations =  1.0

     total cpu time spent up to now is        0.3 secs

     total energy              =     -19.19213662 Ry
     Harris-Foulkes estimate   =     -19.19230883 Ry
     estimated scf accuracy    <       0.00245048 Ry

     iteration #  3     ecut=    46.00 Ry     beta=0.70
     Davidson diagonalization with overlap
     ethr =  3.06E-05,  avg # of iterations =  2.1

     total cpu time spent up to now is        0.3 secs

     total energy              =     -19.19250496 Ry
     Harris-Foulkes estimate   =     -19.19251954 Ry
     estimated scf accuracy    <       0.00004633 Ry

     iteration #  4     ecut=    46.00 Ry     beta=0.70
     Davidson diagonalization with overlap
     ethr =  5.79E-07,  avg # of iterations =  3.6

     total cpu time spent up to now is        0.4 secs

     total energy              =     -19.19254773 Ry
     Harris-Foulkes estimate   =     -19.19254890 Ry
     estimated scf accuracy    <       0.00000412 Ry

     iteration #  5     ecut=    46.00 Ry     beta=0.70
     Davidson diagonalization with overlap
     ethr =  5.14E-08,  avg # of iterations =  2.0

     total cpu time spent up to now is        0.4 secs

     total energy              =     -19.19254826 Ry
     Harris-Foulkes estimate   =     -19.19254825 Ry
     estimated scf accuracy    <       0.00000001 Ry

     iteration #  6     ecut=    46.00 Ry     beta=0.70
     Davidson diagonalization with overlap
     ethr =  1.26E-10,  avg # of iterations =  4.0

     total cpu time spent up to now is        0.4 secs

     End of self-consistent calculation

          k =-0.0625 0.0625 0.0625 (  1417 PWs)   bands (ev):

    -5.6705   5.7926   6.2368   6.2368

          k =-0.1875 0.1875-0.0625 (  1408 PWs)   bands (ev):

    -5.3965   4.2786   5.4072   6.1195

          k =-0.3125 0.3125-0.1875 (  1400 PWs)   bands (ev):

    -4.7342   2.0105   4.9147   5.6478

          k =-0.4375 0.4375-0.3125 (  1412 PWs)   bands (ev):

    -3.8060   0.0799   4.6989   5.2322

          k = 0.4375-0.4375 0.5625 (  1416 PWs)   bands (ev):

    -3.3397  -0.6432   4.7533   5.0077

          k = 0.3125-0.3125 0.4375 (  1407 PWs)   bands (ev):

    -4.1249   0.6523   5.0256   5.0469

          k = 0.1875-0.1875 0.3125 (  1397 PWs)   bands (ev):

    -4.9941   2.7550   5.3044   5.5196

          k = 0.0625-0.0625 0.1875 (  1414 PWs)   bands (ev):

    -5.5328   5.0432   5.7961   5.9694

          k =-0.0625 0.3125 0.0625 (  1406 PWs)   bands (ev):

    -5.2586   4.1531   5.2233   5.3212

          k =-0.1875 0.4375-0.0625 (  1397 PWs)   bands (ev):

    -4.7221   2.6290   4.2318   5.0546

          k =-0.3125 0.5625-0.1875 (  1411 PWs)   bands (ev):

    -3.8551   0.7215   3.7395   4.6291

          k = 0.5625-0.3125 0.6875 (  1413 PWs)   bands (ev):

    -3.0658  -0.5268   3.4484   4.5320

          k = 0.4375-0.1875 0.5625 (  1410 PWs)   bands (ev):

    -3.5415   0.1869   3.3671   4.8267

          k = 0.3125-0.0625 0.4375 (  1396 PWs)   bands (ev):

    -4.4678   1.9628   3.6615   5.3504

          k = 0.1875 0.0625 0.3125 (  1396 PWs)   bands (ev):

    -5.1252   3.4569   4.8159   5.7349

          k =-0.0625 0.5625 0.0625 (  1399 PWs)   bands (ev):

    -4.3128   2.1389   4.0861   4.2109

          k =-0.1875 0.6875-0.0625 (  1404 PWs)   bands (ev):

    -3.5429   0.8780   3.2760   3.8534

          k = 0.6875-0.1875 0.8125 (  1410 PWs)   bands (ev):

    -2.6171  -0.3551   2.4134   3.8217

          k = 0.5625-0.0625 0.6875 (  1412 PWs)   bands (ev):

    -2.6882  -0.2604   2.0466   4.1765

          k = 0.4375 0.0625 0.5625 (  1406 PWs)   bands (ev):

    -3.6112   0.7043   2.6736   4.7800

          k = 0.3125 0.1875 0.4375 (  1404 PWs)   bands (ev):

    -4.3512   1.3283   4.3621   5.2499

          k =-0.0625 0.8125 0.0625 (  1398 PWs)   bands (ev):

    -2.8752   0.0004   3.3785   3.6053

          k = 0.8125-0.0625 0.9375 (  1402 PWs)   bands (ev):

    -1.9415  -1.0098   2.7991   3.3516

          k = 0.6875 0.0625 0.8125 (  1405 PWs)   bands (ev):

    -2.0317  -0.8466   2.0434   3.6750

          k = 0.5625 0.1875 0.6875 (  1408 PWs)   bands (ev):

    -2.8046  -0.4643   2.6368   4.2932

          k = 0.4375 0.3125 0.5625 (  1412 PWs)   bands (ev):

    -3.4303  -0.3319   4.1914   4.9029

          k =-0.0625-0.9375 0.0625 (  1396 PWs)   bands (ev):

    -1.9965  -1.0295   3.2374   3.4817

          k =-0.1875-0.8125-0.0625 (  1406 PWs)   bands (ev):

    -2.7861  -0.0639   2.9625   3.5144

          k =-0.3125-0.6875-0.1875 (  1407 PWs)   bands (ev):

    -3.2643   0.1731   3.0429   4.1301

          k =-0.0625-0.6875 0.0625 (  1401 PWs)   bands (ev):

    -3.6514   1.0676   3.6612   3.8502

          k =-0.1875-0.5625-0.0625 (  1401 PWs)   bands (ev):

    -4.1921   1.7774   3.7097   4.3801

          k =-0.0625-0.4375 0.0625 (  1393 PWs)   bands (ev):

    -4.8506   3.1782   4.6496   4.6762

          k =-0.1875 0.1875 0.1875 (  1411 PWs)   bands (ev):

    -5.2618   3.5362   5.7850   5.7850

          k =-0.3125 0.3125 0.0625 (  1387 PWs)   bands (ev):

    -4.8602   2.6980   4.2285   5.8097

          k =-0.4375 0.4375-0.0625 (  1404 PWs)   bands (ev):

    -4.0939   1.3113   3.1190   5.2903

          k = 0.4375-0.4375 0.8125 (  1407 PWs)   bands (ev):

    -3.1704  -0.2255   2.9771   4.7434

          k = 0.3125-0.3125 0.6875 (  1414 PWs)   bands (ev):

    -3.1549  -0.2540   3.2888   4.4151

          k = 0.1875-0.1875 0.5625 (  1412 PWs)   bands (ev):

    -4.0774   1.3070   3.9141   4.3879

          k =-0.1875 0.4375 0.1875 (  1404 PWs)   bands (ev):

    -4.5971   2.0144   4.7691   4.8167

          k =-0.3125 0.5625 0.0625 (  1403 PWs)   bands (ev):

    -3.9549   1.2529   3.1770   4.6184

          k = 0.5625-0.3125 0.9375 (  1406 PWs)   bands (ev):

    -3.0381   0.1351   2.3615   4.0284

          k = 0.4375-0.1875 0.8125 (  1409 PWs)   bands (ev):

    -2.5327  -0.5016   2.3726   3.7038

          k = 0.3125-0.0625 0.6875 (  1406 PWs)   bands (ev):

    -3.3329   0.5403   2.8007   3.8899

          k =-0.1875 0.6875 0.1875 (  1406 PWs)   bands (ev):

    -3.4457   0.5918   3.1499   4.0494

          k = 0.6875-0.1875 1.0625 (  1411 PWs)   bands (ev):

    -2.6203  -0.2080   2.5451   3.3342

          k = 0.5625-0.0625 0.9375 (  1414 PWs)   bands (ev):

    -1.7869  -0.9764   2.2100   2.8142

          k = 0.4375 0.0625 0.8125 (  1408 PWs)   bands (ev):

    -2.4060  -0.4232   2.2082   3.3058

          k =-0.1875-1.0625 0.1875 (  1403 PWs)   bands (ev):

    -1.9581  -0.9611   2.3193   3.6994

          k =-0.3125-0.9375 0.0625 (  1405 PWs)   bands (ev):

    -1.8555  -0.9869   2.4161   3.0408

          k =-0.1875-0.8125 0.1875 (  1400 PWs)   bands (ev):

    -2.7209  -0.1739   2.5988   3.8172

          k =-0.3125 0.3125 0.3125 (  1399 PWs)   bands (ev):

    -4.4861   1.2884   5.3646   5.3646

          k =-0.4375 0.4375 0.1875 (  1408 PWs)   bands (ev):

    -3.9933   0.7069   3.8671   5.2765

          k = 0.4375-0.4375 1.0625 (  1404 PWs)   bands (ev):

    -3.1788   0.1930   2.2800   4.6768

          k = 0.3125-0.3125 0.9375 (  1412 PWs)   bands (ev):

    -2.3314  -0.5968   1.9231   4.1144

          k =-0.3125 0.5625 0.3125 (  1420 PWs)   bands (ev):

    -3.6689   0.1329   4.2220   4.6940

          k = 0.5625-0.3125 1.1875 (  1409 PWs)   bands (ev):

    -3.0307  -0.2177   2.8680   4.1987

          k = 0.4375-0.1875 1.0625 (  1409 PWs)   bands (ev):

    -2.1907  -0.6569   2.0172   3.4613

          k =-0.3125-1.1875 0.3125 (  1412 PWs)   bands (ev):

    -2.6602  -0.4964   2.4541   4.2169

          k =-0.4375 0.4375 0.4375 (  1407 PWs)   bands (ev):

    -3.5664  -0.4005   5.1408   5.1408

          k = 0.4375-0.4375 1.3125 (  1409 PWs)   bands (ev):

    -3.2036  -0.5758   3.8946   4.8629

     highest occupied level (ev):     6.2368

!    total energy              =     -19.19254830 Ry
     Harris-Foulkes estimate   =     -19.19254830 Ry
     estimated scf accuracy    <          5.0E-10 Ry

     The total energy is the sum of the following terms:

     one-electron contribution =       5.20510121 Ry
     hartree contribution      =       1.10490312 Ry
     xc contribution           =      -8.63586596 Ry
     ewald contribution        =     -16.86668667 Ry

     convergence has been achieved in   6 iterations

     Forces acting on atoms (Ry/au):

     atom    1 type  1   force =    -0.00000000   -0.00000000    0.00000000
     atom    2 type  1   force =     0.00000000    0.00000000   -0.00000000

     Total force =     0.000000     Total SCF correction =     0.000000


     entering subroutine stress ...

          total   stress  (Ry/bohr**3)                   (kbar)     P=   31.26
   0.00021253   0.00000000   0.00000000         31.26      0.00      0.00
   0.00000000   0.00021253   0.00000000          0.00     31.26      0.00
   0.00000000   0.00000000   0.00021253          0.00      0.00     31.26


     Writing output data file silicon.save
 
     init_run     :      0.08s CPU      0.08s WALL (       1 calls)
     electrons    :      0.23s CPU      0.25s WALL (       1 calls)
     forces       :      0.01s CPU      0.01s WALL (       1 calls)
     stress       :      0.04s CPU      0.04s WALL (       1 calls)

     Called by init_run:
     wfcinit      :      0.01s CPU      0.01s WALL (       1 calls)
     potinit      :      0.00s CPU      0.01s WALL (       1 calls)

     Called by electrons:
     c_bands      :      0.10s CPU      0.10s WALL (       7 calls)
     sum_band     :      0.06s CPU      0.08s WALL (       7 calls)
     v_of_rho     :      0.01s CPU      0.01s WALL (       7 calls)
     newd         :      0.04s CPU      0.03s WALL (       7 calls)
     mix_rho      :      0.00s CPU      0.00s WALL (       7 calls)

     Called by c_bands:
     init_us_2    :      0.00s CPU      0.00s WALL (      51 calls)
     cegterg      :      0.08s CPU      0.08s WALL (      21 calls)

     Called by sum_band:
     sum_band:bec :      0.00s CPU      0.00s WALL (      21 calls)
     addusdens    :      0.05s CPU      0.05s WALL (       7 calls)

     Called by *egterg:
     h_psi        :      0.03s CPU      0.04s WALL (      77 calls)
     s_psi        :      0.00s CPU      0.00s WALL (      77 calls)
     g_psi        :      0.00s CPU      0.00s WALL (      53 calls)
     cdiaghg      :      0.04s CPU      0.03s WALL (      71 calls)

     Called by h_psi:
     add_vuspsi   :      0.00s CPU      0.00s WALL (      77 calls)

     General routines
     calbec       :      0.00s CPU      0.01s WALL (     113 calls)
     fft          :      0.01s CPU      0.01s WALL (     118 calls)
     fftw         :      0.03s CPU      0.03s WALL (     628 calls)
     davcio       :      0.00s CPU      0.00s WALL (       3 calls)
 
     Parallel routines
     fft_scatter  :      0.00s CPU      0.02s WALL (     746 calls)
 
     PWSCF        :     0.80s CPU         2.76s WALL

 
   This run was terminated on:  23:48:36   6Apr2018            

=------------------------------------------------------------------------------=
   JOB DONE.
=------------------------------------------------------------------------------=
Application 30443774 resources: utime ~538s, stime ~24s, Rss ~25696, inblocks ~1759233, outblocks ~1411695
