
     Program PWSCF v.5.4.0 starts on  6Apr2018 at 23:47:26 

     This program is part of the open-source Quantum ESPRESSO suite
     for quantum simulation of materials; please cite
         "P. Giannozzi et al., J. Phys.:Condens. Matter 21 395502 (2009);
          URL http://www.quantum-espresso.org", 
     in publications or presentations arising from this work. More details at
     http://www.quantum-espresso.org/quote

     Parallel version (MPI & OpenMP), running on     192 processor cores
     Number of MPI processes:               192
     Threads/MPI process:                     1
     K-points division:     npool     =      24
     R & G space division:  proc/nbgrp/npool/nimage =       8
     Waiting for input...
     Reading input from standard input
     Message from routine read_cards :
     DEPRECATED: no units specified in ATOMIC_POSITIONS card
     Message from routine read_cards :
     ATOMIC_POSITIONS: units set to alat

     Current dimensions of program PWSCF are:
     Max number of different atomic species (ntypx) = 10
     Max number of k-points (npk) =  40000
     Max angular momentum in pseudopotentials (lmaxx) =  3

     Subspace diagonalization in iterative solution of the eigenvalue problem:
     one sub-group per band group will be used
     scalapack distributed-memory algorithm (size of sub-group:  2*  2 procs)

 
     Parallelization info
     --------------------
     sticks:   dense  smooth     PW     G-vecs:    dense   smooth      PW
     Min          39      39     13                  464      464      92
     Max          40      40     14                  466      466      95
     Sum         313     313    109                 3719     3719     749
 


     bravais-lattice index     =            2
     lattice parameter (alat)  =      10.2200  a.u.
     unit-cell volume          =     266.8657 (a.u.)^3
     number of atoms/cell      =            2
     number of atomic types    =            1
     number of electrons       =         8.00
     number of Kohn-Sham states=            4
     kinetic-energy cutoff     =      22.0000  Ry
     charge density cutoff     =      88.0000  Ry
     convergence threshold     =      1.0E-08
     mixing beta               =       0.7000
     number of iterations used =            8  plain     mixing
     Exchange-correlation      = SLA  PW   PBE  PBE ( 1  4  3  4 0 0)

     celldm(1)=  10.220000  celldm(2)=   0.000000  celldm(3)=   0.000000
     celldm(4)=   0.000000  celldm(5)=   0.000000  celldm(6)=   0.000000

     crystal axes: (cart. coord. in units of alat)
               a(1) = (  -0.500000   0.000000   0.500000 )  
               a(2) = (   0.000000   0.500000   0.500000 )  
               a(3) = (  -0.500000   0.500000   0.000000 )  

     reciprocal axes: (cart. coord. in units 2 pi/alat)
               b(1) = ( -1.000000 -1.000000  1.000000 )  
               b(2) = (  1.000000  1.000000  1.000000 )  
               b(3) = ( -1.000000  1.000000 -1.000000 )  


     PseudoPot. # 1 for Si read from file:
     ./si_pbe_v1.uspp.F.UPF.txt
     MD5 check sum: a056efeee980c13900f22a371efd63c1
     Pseudo is Ultrasoft + core correction, Zval =  4.0
     Generated by new atomic code, or converted to UPF format
     Using radial grid of  899 points,  6 beta functions with: 
                l(1) =   0
                l(2) =   0
                l(3) =   1
                l(4) =   1
                l(5) =   2
                l(6) =   2
     Q(r) pseudized with  8 coefficients,  rinner =    0.900   0.900   0.900
                                                       0.900   0.900

     atomic species   valence    mass     pseudopotential
        Si             4.00    28.08600     Si( 1.00)

     48 Sym. Ops., with inversion, found (24 have fractional translation)



   Cartesian axes

     site n.     atom                  positions (alat units)
         1           Si  tau(   1) = (   0.0000000   0.0000000   0.0000000  )
         2           Si  tau(   2) = (   0.2500000   0.2500000   0.2500000  )

     number of k points=    60
                       cart. coord. in units 2pi/alat
        k(    1) = (  -0.0625000   0.0625000   0.0625000), wk =   0.0078125
        k(    2) = (  -0.1875000   0.1875000  -0.0625000), wk =   0.0234375
        k(    3) = (  -0.3125000   0.3125000  -0.1875000), wk =   0.0234375
        k(    4) = (  -0.4375000   0.4375000  -0.3125000), wk =   0.0234375
        k(    5) = (   0.4375000  -0.4375000   0.5625000), wk =   0.0234375
        k(    6) = (   0.3125000  -0.3125000   0.4375000), wk =   0.0234375
        k(    7) = (   0.1875000  -0.1875000   0.3125000), wk =   0.0234375
        k(    8) = (   0.0625000  -0.0625000   0.1875000), wk =   0.0234375
        k(    9) = (  -0.0625000   0.3125000   0.0625000), wk =   0.0234375
        k(   10) = (  -0.1875000   0.4375000  -0.0625000), wk =   0.0468750
        k(   11) = (  -0.3125000   0.5625000  -0.1875000), wk =   0.0468750
        k(   12) = (   0.5625000  -0.3125000   0.6875000), wk =   0.0468750
        k(   13) = (   0.4375000  -0.1875000   0.5625000), wk =   0.0468750
        k(   14) = (   0.3125000  -0.0625000   0.4375000), wk =   0.0468750
        k(   15) = (   0.1875000   0.0625000   0.3125000), wk =   0.0468750
        k(   16) = (  -0.0625000   0.5625000   0.0625000), wk =   0.0234375
        k(   17) = (  -0.1875000   0.6875000  -0.0625000), wk =   0.0468750
        k(   18) = (   0.6875000  -0.1875000   0.8125000), wk =   0.0468750
        k(   19) = (   0.5625000  -0.0625000   0.6875000), wk =   0.0468750
        k(   20) = (   0.4375000   0.0625000   0.5625000), wk =   0.0468750
        k(   21) = (   0.3125000   0.1875000   0.4375000), wk =   0.0468750
        k(   22) = (  -0.0625000   0.8125000   0.0625000), wk =   0.0234375
        k(   23) = (   0.8125000  -0.0625000   0.9375000), wk =   0.0468750
        k(   24) = (   0.6875000   0.0625000   0.8125000), wk =   0.0468750
        k(   25) = (   0.5625000   0.1875000   0.6875000), wk =   0.0468750
        k(   26) = (   0.4375000   0.3125000   0.5625000), wk =   0.0468750
        k(   27) = (  -0.0625000  -0.9375000   0.0625000), wk =   0.0234375
        k(   28) = (  -0.1875000  -0.8125000  -0.0625000), wk =   0.0468750
        k(   29) = (  -0.3125000  -0.6875000  -0.1875000), wk =   0.0468750
        k(   30) = (  -0.0625000  -0.6875000   0.0625000), wk =   0.0234375
        k(   31) = (  -0.1875000  -0.5625000  -0.0625000), wk =   0.0468750
        k(   32) = (  -0.0625000  -0.4375000   0.0625000), wk =   0.0234375
        k(   33) = (  -0.1875000   0.1875000   0.1875000), wk =   0.0078125
        k(   34) = (  -0.3125000   0.3125000   0.0625000), wk =   0.0234375
        k(   35) = (  -0.4375000   0.4375000  -0.0625000), wk =   0.0234375
        k(   36) = (   0.4375000  -0.4375000   0.8125000), wk =   0.0234375
        k(   37) = (   0.3125000  -0.3125000   0.6875000), wk =   0.0234375
        k(   38) = (   0.1875000  -0.1875000   0.5625000), wk =   0.0234375
        k(   39) = (  -0.1875000   0.4375000   0.1875000), wk =   0.0234375
        k(   40) = (  -0.3125000   0.5625000   0.0625000), wk =   0.0468750
        k(   41) = (   0.5625000  -0.3125000   0.9375000), wk =   0.0468750
        k(   42) = (   0.4375000  -0.1875000   0.8125000), wk =   0.0468750
        k(   43) = (   0.3125000  -0.0625000   0.6875000), wk =   0.0468750
        k(   44) = (  -0.1875000   0.6875000   0.1875000), wk =   0.0234375
        k(   45) = (   0.6875000  -0.1875000   1.0625000), wk =   0.0468750
        k(   46) = (   0.5625000  -0.0625000   0.9375000), wk =   0.0468750
        k(   47) = (   0.4375000   0.0625000   0.8125000), wk =   0.0468750
        k(   48) = (  -0.1875000  -1.0625000   0.1875000), wk =   0.0234375
        k(   49) = (  -0.3125000  -0.9375000   0.0625000), wk =   0.0468750
        k(   50) = (  -0.1875000  -0.8125000   0.1875000), wk =   0.0234375
        k(   51) = (  -0.3125000   0.3125000   0.3125000), wk =   0.0078125
        k(   52) = (  -0.4375000   0.4375000   0.1875000), wk =   0.0234375
        k(   53) = (   0.4375000  -0.4375000   1.0625000), wk =   0.0234375
        k(   54) = (   0.3125000  -0.3125000   0.9375000), wk =   0.0234375
        k(   55) = (  -0.3125000   0.5625000   0.3125000), wk =   0.0234375
        k(   56) = (   0.5625000  -0.3125000   1.1875000), wk =   0.0468750
        k(   57) = (   0.4375000  -0.1875000   1.0625000), wk =   0.0468750
        k(   58) = (  -0.3125000  -1.1875000   0.3125000), wk =   0.0234375
        k(   59) = (  -0.4375000   0.4375000   0.4375000), wk =   0.0078125
        k(   60) = (   0.4375000  -0.4375000   1.3125000), wk =   0.0234375

     Dense  grid:     3719 G-vectors     FFT dimensions: (  24,  24,  24)

     Largest allocated arrays     est. size (Mb)     dimensions
        Kohn-Sham Wavefunctions         0.00 Mb     (      67,    4)
        NL pseudopotentials             0.04 Mb     (      67,   36)
        Each V/rho on FFT grid          0.03 Mb     (    1728)
        Each G-vector array             0.00 Mb     (     464)
        G-vector shells                 0.00 Mb     (      75)
     Largest temporary arrays     est. size (Mb)     dimensions
        Auxiliary wavefunctions         0.02 Mb     (      67,   16)
        Each subspace H/S matrix        0.00 Mb     (       8,    8)
        Each <psi_i|beta_j> matrix      0.00 Mb     (      36,    4)
        Arrays for rho mixing           0.21 Mb     (    1728,    8)

     Check: negative/imaginary core charge=   -0.000004    0.000000

     Initial potential from superposition of free atoms

     starting charge    7.99866, renormalised to    8.00000
     Starting wfc are    8 randomized atomic wfcs

     total cpu time spent up to now is        0.3 secs

     per-process dynamical memory:     9.1 Mb

     Self-consistent Calculation

     iteration #  1     ecut=    22.00 Ry     beta=0.70
     Davidson diagonalization with overlap
     ethr =  1.00E-02,  avg # of iterations =  2.0

     Threshold (ethr) on eigenvalues was too large:
     Diagonalizing with lowered threshold

     Davidson diagonalization with overlap
     ethr =  7.15E-04,  avg # of iterations =  1.0

     total cpu time spent up to now is        0.3 secs

     total energy              =     -19.19040988 Ry
     Harris-Foulkes estimate   =     -19.20417152 Ry
     estimated scf accuracy    <       0.05674102 Ry

     iteration #  2     ecut=    22.00 Ry     beta=0.70
     Davidson diagonalization with overlap
     ethr =  7.09E-04,  avg # of iterations =  1.0

     total cpu time spent up to now is        0.4 secs

     total energy              =     -19.19239178 Ry
     Harris-Foulkes estimate   =     -19.19254846 Ry
     estimated scf accuracy    <       0.00244004 Ry

     iteration #  3     ecut=    22.00 Ry     beta=0.70
     Davidson diagonalization with overlap
     ethr =  3.05E-05,  avg # of iterations =  2.0

     total cpu time spent up to now is        0.4 secs

     total energy              =     -19.19273185 Ry
     Harris-Foulkes estimate   =     -19.19274690 Ry
     estimated scf accuracy    <       0.00004696 Ry

     iteration #  4     ecut=    22.00 Ry     beta=0.70
     Davidson diagonalization with overlap
     ethr =  5.87E-07,  avg # of iterations =  3.0

     total cpu time spent up to now is        0.4 secs

     total energy              =     -19.19276219 Ry
     Harris-Foulkes estimate   =     -19.19276329 Ry
     estimated scf accuracy    <       0.00000385 Ry

     iteration #  5     ecut=    22.00 Ry     beta=0.70
     Davidson diagonalization with overlap
     ethr =  4.81E-08,  avg # of iterations =  2.1

     total cpu time spent up to now is        0.4 secs

     total energy              =     -19.19276277 Ry
     Harris-Foulkes estimate   =     -19.19276276 Ry
     estimated scf accuracy    <       0.00000003 Ry

     iteration #  6     ecut=    22.00 Ry     beta=0.70
     Davidson diagonalization with overlap
     ethr =  3.21E-10,  avg # of iterations =  3.6

     total cpu time spent up to now is        0.4 secs

     End of self-consistent calculation

          k =-0.0625 0.0625 0.0625 (   477 PWs)   bands (ev):

    -5.6681   5.7942   6.2386   6.2386

          k =-0.1875 0.1875-0.0625 (   477 PWs)   bands (ev):

    -5.3941   4.2802   5.4092   6.1211

          k =-0.3125 0.3125-0.1875 (   473 PWs)   bands (ev):

    -4.7321   2.0126   4.9166   5.6493

          k =-0.4375 0.4375-0.3125 (   471 PWs)   bands (ev):

    -3.8042   0.0825   4.7007   5.2336

          k = 0.4375-0.4375 0.5625 (   468 PWs)   bands (ev):

    -3.3383  -0.6402   4.7550   5.0090

          k = 0.3125-0.3125 0.4375 (   466 PWs)   bands (ev):

    -4.1229   0.6548   5.0271   5.0486

          k = 0.1875-0.1875 0.3125 (   475 PWs)   bands (ev):

    -4.9918   2.7570   5.3060   5.5213

          k = 0.0625-0.0625 0.1875 (   482 PWs)   bands (ev):

    -5.5305   5.0446   5.7978   5.9710

          k =-0.0625 0.3125 0.0625 (   474 PWs)   bands (ev):

    -5.2563   4.1545   5.2251   5.3229

          k =-0.1875 0.4375-0.0625 (   473 PWs)   bands (ev):

    -4.7199   2.6305   4.2340   5.0562

          k =-0.3125 0.5625-0.1875 (   464 PWs)   bands (ev):

    -3.8531   0.7236   3.7418   4.6309

          k = 0.5625-0.3125 0.6875 (   459 PWs)   bands (ev):

    -3.0643  -0.5241   3.4509   4.5337

          k = 0.4375-0.1875 0.5625 (   463 PWs)   bands (ev):

    -3.5397   0.1892   3.3698   4.8284

          k = 0.3125-0.0625 0.4375 (   471 PWs)   bands (ev):

    -4.4657   1.9646   3.6642   5.3519

          k = 0.1875 0.0625 0.3125 (   472 PWs)   bands (ev):

    -5.1229   3.4585   4.8181   5.7365

          k =-0.0625 0.5625 0.0625 (   462 PWs)   bands (ev):

    -4.3106   2.1401   4.0882   4.2127

          k =-0.1875 0.6875-0.0625 (   463 PWs)   bands (ev):

    -3.5409   0.8792   3.2786   3.8554

          k = 0.6875-0.1875 0.8125 (   465 PWs)   bands (ev):

    -2.6156  -0.3535   2.4167   3.8237

          k = 0.5625-0.0625 0.6875 (   465 PWs)   bands (ev):

    -2.6867  -0.2587   2.0503   4.1785

          k = 0.4375 0.0625 0.5625 (   464 PWs)   bands (ev):

    -3.6093   0.7060   2.6767   4.7818

          k = 0.3125 0.1875 0.4375 (   467 PWs)   bands (ev):

    -4.3491   1.3304   4.3642   5.2514

          k =-0.0625 0.8125 0.0625 (   457 PWs)   bands (ev):

    -2.8733   0.0016   3.3807   3.6071

          k = 0.8125-0.0625 0.9375 (   461 PWs)   bands (ev):

    -1.9400  -1.0084   2.8020   3.3537

          k = 0.6875 0.0625 0.8125 (   462 PWs)   bands (ev):

    -2.0303  -0.8451   2.0471   3.6771

          k = 0.5625 0.1875 0.6875 (   466 PWs)   bands (ev):

    -2.8031  -0.4621   2.6398   4.2950

          k = 0.4375 0.3125 0.5625 (   462 PWs)   bands (ev):

    -3.4286  -0.3292   4.1935   4.9045

          k =-0.0625-0.9375 0.0625 (   462 PWs)   bands (ev):

    -1.9949  -1.0281   3.2396   3.4835

          k =-0.1875-0.8125-0.0625 (   464 PWs)   bands (ev):

    -2.7843  -0.0628   2.9653   3.5166

          k =-0.3125-0.6875-0.1875 (   462 PWs)   bands (ev):

    -3.2625   0.1750   3.0457   4.1321

          k =-0.0625-0.6875 0.0625 (   463 PWs)   bands (ev):

    -3.6494   1.0687   3.6633   3.8521

          k =-0.1875-0.5625-0.0625 (   461 PWs)   bands (ev):

    -4.1899   1.7788   3.7122   4.3820

          k =-0.0625-0.4375 0.0625 (   474 PWs)   bands (ev):

    -4.8483   3.1794   4.6515   4.6780

          k =-0.1875 0.1875 0.1875 (   483 PWs)   bands (ev):

    -5.2595   3.5380   5.7865   5.7865

          k =-0.3125 0.3125 0.0625 (   473 PWs)   bands (ev):

    -4.8580   2.6997   4.2310   5.8112

          k =-0.4375 0.4375-0.0625 (   463 PWs)   bands (ev):

    -4.0918   1.3132   3.1220   5.2918

          k = 0.4375-0.4375 0.8125 (   463 PWs)   bands (ev):

    -3.1688  -0.2231   2.9799   4.7450

          k = 0.3125-0.3125 0.6875 (   462 PWs)   bands (ev):

    -3.1533  -0.2516   3.2914   4.4168

          k = 0.1875-0.1875 0.5625 (   460 PWs)   bands (ev):

    -4.0754   1.3089   3.9165   4.3897

          k =-0.1875 0.4375 0.1875 (   468 PWs)   bands (ev):

    -4.5949   2.0164   4.7710   4.8184

          k =-0.3125 0.5625 0.0625 (   464 PWs)   bands (ev):

    -3.9529   1.2546   3.1798   4.6203

          k = 0.5625-0.3125 0.9375 (   467 PWs)   bands (ev):

    -3.0364   0.1367   2.3649   4.0307

          k = 0.4375-0.1875 0.8125 (   464 PWs)   bands (ev):

    -2.5313  -0.4997   2.3759   3.7063

          k = 0.3125-0.0625 0.6875 (   464 PWs)   bands (ev):

    -3.3311   0.5417   2.8038   3.8923

          k =-0.1875 0.6875 0.1875 (   461 PWs)   bands (ev):

    -3.4438   0.5933   3.1528   4.0512

          k = 0.6875-0.1875 1.0625 (   463 PWs)   bands (ev):

    -2.6186  -0.2068   2.5483   3.3369

          k = 0.5625-0.0625 0.9375 (   465 PWs)   bands (ev):

    -1.7856  -0.9750   2.2136   2.8174

          k = 0.4375 0.0625 0.8125 (   463 PWs)   bands (ev):

    -2.4045  -0.4218   2.2117   3.3086

          k =-0.1875-1.0625 0.1875 (   469 PWs)   bands (ev):

    -1.9567  -0.9597   2.3227   3.7011

          k =-0.3125-0.9375 0.0625 (   465 PWs)   bands (ev):

    -1.8541  -0.9856   2.4195   3.0436

          k =-0.1875-0.8125 0.1875 (   462 PWs)   bands (ev):

    -2.7192  -0.1726   2.6020   3.8190

          k =-0.3125 0.3125 0.3125 (   471 PWs)   bands (ev):

    -4.4840   1.2907   5.3661   5.3661

          k =-0.4375 0.4375 0.1875 (   463 PWs)   bands (ev):

    -3.9913   0.7092   3.8695   5.2780

          k = 0.4375-0.4375 1.0625 (   463 PWs)   bands (ev):

    -3.1770   0.1947   2.2834   4.6785

          k = 0.3125-0.3125 0.9375 (   463 PWs)   bands (ev):

    -2.3300  -0.5952   1.9269   4.1160

          k =-0.3125 0.5625 0.3125 (   464 PWs)   bands (ev):

    -3.6671   0.1354   4.2242   4.6956

          k = 0.5625-0.3125 1.1875 (   463 PWs)   bands (ev):

    -3.0291  -0.2155   2.8709   4.2008

          k = 0.4375-0.1875 1.0625 (   462 PWs)   bands (ev):

    -2.1893  -0.6554   2.0209   3.4640

          k =-0.3125-1.1875 0.3125 (   458 PWs)   bands (ev):

    -2.6587  -0.4943   2.4574   4.2186

          k =-0.4375 0.4375 0.4375 (   470 PWs)   bands (ev):

    -3.5648  -0.3976   5.1422   5.1422

          k = 0.4375-0.4375 1.3125 (   459 PWs)   bands (ev):

    -3.2021  -0.5729   3.8969   4.8644

     highest occupied level (ev):     6.2386

!    total energy              =     -19.19276280 Ry
     Harris-Foulkes estimate   =     -19.19276280 Ry
     estimated scf accuracy    <          2.9E-09 Ry

     The total energy is the sum of the following terms:

     one-electron contribution =       5.20526178 Ry
     hartree contribution      =       1.10586727 Ry
     xc contribution           =      -8.63720521 Ry
     ewald contribution        =     -16.86668664 Ry

     convergence has been achieved in   6 iterations

     Forces acting on atoms (Ry/au):

     atom    1 type  1   force =    -0.00000000   -0.00000000   -0.00000000
     atom    2 type  1   force =     0.00000000    0.00000000    0.00000000

     Total force =     0.000000     Total SCF correction =     0.000000


     entering subroutine stress ...

          total   stress  (Ry/bohr**3)                   (kbar)     P=   33.59
   0.00022834  -0.00000000  -0.00000000         33.59     -0.00     -0.00
  -0.00000000   0.00022834   0.00000000         -0.00     33.59      0.00
  -0.00000000   0.00000000   0.00022834         -0.00      0.00     33.59


     Writing output data file silicon.save
 
     init_run     :      0.05s CPU      0.06s WALL (       1 calls)
     electrons    :      0.12s CPU      0.16s WALL (       1 calls)
     forces       :      0.00s CPU      0.01s WALL (       1 calls)
     stress       :      0.01s CPU      0.01s WALL (       1 calls)

     Called by init_run:
     wfcinit      :      0.01s CPU      0.01s WALL (       1 calls)
     potinit      :      0.00s CPU      0.00s WALL (       1 calls)

     Called by electrons:
     c_bands      :      0.07s CPU      0.07s WALL (       7 calls)
     sum_band     :      0.02s CPU      0.02s WALL (       7 calls)
     v_of_rho     :      0.01s CPU      0.01s WALL (       7 calls)
     newd         :      0.00s CPU      0.01s WALL (       7 calls)
     mix_rho      :      0.00s CPU      0.00s WALL (       7 calls)

     Called by c_bands:
     init_us_2    :      0.00s CPU      0.00s WALL (      51 calls)
     cegterg      :      0.05s CPU      0.06s WALL (      21 calls)

     Called by sum_band:
     sum_band:bec :      0.00s CPU      0.00s WALL (      21 calls)
     addusdens    :      0.02s CPU      0.01s WALL (       7 calls)

     Called by *egterg:
     h_psi        :      0.02s CPU      0.02s WALL (      73 calls)
     s_psi        :      0.00s CPU      0.00s WALL (      73 calls)
     g_psi        :      0.00s CPU      0.00s WALL (      49 calls)
     cdiaghg      :      0.02s CPU      0.03s WALL (      67 calls)

     Called by h_psi:
     add_vuspsi   :      0.00s CPU      0.00s WALL (      73 calls)

     General routines
     calbec       :      0.00s CPU      0.00s WALL (     109 calls)
     fft          :      0.00s CPU      0.01s WALL (     118 calls)
     fftw         :      0.02s CPU      0.02s WALL (     612 calls)
     davcio       :      0.00s CPU      0.00s WALL (       3 calls)
 
     Parallel routines
     fft_scatter  :      0.01s CPU      0.01s WALL (     730 calls)
 
     PWSCF        :     0.45s CPU        17.56s WALL

 
   This run was terminated on:  23:47:43   6Apr2018            

=------------------------------------------------------------------------------=
   JOB DONE.
=------------------------------------------------------------------------------=
Application 30443762 resources: utime ~3366s, stime ~21s, Rss ~21464, inblocks ~1759037, outblocks ~1403890
