
     Program PWSCF v.5.4.0 starts on  7Apr2018 at  0:48: 0 

     This program is part of the open-source Quantum ESPRESSO suite
     for quantum simulation of materials; please cite
         "P. Giannozzi et al., J. Phys.:Condens. Matter 21 395502 (2009);
          URL http://www.quantum-espresso.org", 
     in publications or presentations arising from this work. More details at
     http://www.quantum-espresso.org/quote

     Parallel version (MPI & OpenMP), running on     192 processor cores
     Number of MPI processes:               192
     Threads/MPI process:                     1
     K-points division:     npool     =      24
     R & G space division:  proc/nbgrp/npool/nimage =       8
     Waiting for input...
     Reading input from standard input
     Message from routine read_cards :
     DEPRECATED: no units specified in ATOMIC_POSITIONS card
     Message from routine read_cards :
     ATOMIC_POSITIONS: units set to alat

     Current dimensions of program PWSCF are:
     Max number of different atomic species (ntypx) = 10
     Max number of k-points (npk) =  40000
     Max angular momentum in pseudopotentials (lmaxx) =  3

     Subspace diagonalization in iterative solution of the eigenvalue problem:
     one sub-group per band group will be used
     scalapack distributed-memory algorithm (size of sub-group:  2*  2 procs)

 
     Parallelization info
     --------------------
     sticks:   dense  smooth     PW     G-vecs:    dense   smooth      PW
     Min          31      31     11                  339      339      76
     Max          32      32     12                  343      343      77
     Sum         253     253     91                 2733     2733     609
 


     bravais-lattice index     =            2
     lattice parameter (alat)  =      10.2200  a.u.
     unit-cell volume          =     266.8657 (a.u.)^3
     number of atoms/cell      =            2
     number of atomic types    =            1
     number of electrons       =         8.00
     number of Kohn-Sham states=            4
     kinetic-energy cutoff     =      18.0000  Ry
     charge density cutoff     =      72.0000  Ry
     convergence threshold     =      1.0E-08
     mixing beta               =       0.7000
     number of iterations used =            8  plain     mixing
     Exchange-correlation      = SLA  PW   PBE  PBE ( 1  4  3  4 0 0)

     celldm(1)=  10.220000  celldm(2)=   0.000000  celldm(3)=   0.000000
     celldm(4)=   0.000000  celldm(5)=   0.000000  celldm(6)=   0.000000

     crystal axes: (cart. coord. in units of alat)
               a(1) = (  -0.500000   0.000000   0.500000 )  
               a(2) = (   0.000000   0.500000   0.500000 )  
               a(3) = (  -0.500000   0.500000   0.000000 )  

     reciprocal axes: (cart. coord. in units 2 pi/alat)
               b(1) = ( -1.000000 -1.000000  1.000000 )  
               b(2) = (  1.000000  1.000000  1.000000 )  
               b(3) = ( -1.000000  1.000000 -1.000000 )  


     PseudoPot. # 1 for Si read from file:
     ./si_pbe_v1.uspp.F.UPF.txt
     MD5 check sum: a056efeee980c13900f22a371efd63c1
     Pseudo is Ultrasoft + core correction, Zval =  4.0
     Generated by new atomic code, or converted to UPF format
     Using radial grid of  899 points,  6 beta functions with: 
                l(1) =   0
                l(2) =   0
                l(3) =   1
                l(4) =   1
                l(5) =   2
                l(6) =   2
     Q(r) pseudized with  8 coefficients,  rinner =    0.900   0.900   0.900
                                                       0.900   0.900

     atomic species   valence    mass     pseudopotential
        Si             4.00    28.08600     Si( 1.00)

     48 Sym. Ops., with inversion, found (24 have fractional translation)



   Cartesian axes

     site n.     atom                  positions (alat units)
         1           Si  tau(   1) = (   0.0000000   0.0000000   0.0000000  )
         2           Si  tau(   2) = (   0.2500000   0.2500000   0.2500000  )

     number of k points=    60
                       cart. coord. in units 2pi/alat
        k(    1) = (  -0.0625000   0.0625000   0.0625000), wk =   0.0078125
        k(    2) = (  -0.1875000   0.1875000  -0.0625000), wk =   0.0234375
        k(    3) = (  -0.3125000   0.3125000  -0.1875000), wk =   0.0234375
        k(    4) = (  -0.4375000   0.4375000  -0.3125000), wk =   0.0234375
        k(    5) = (   0.4375000  -0.4375000   0.5625000), wk =   0.0234375
        k(    6) = (   0.3125000  -0.3125000   0.4375000), wk =   0.0234375
        k(    7) = (   0.1875000  -0.1875000   0.3125000), wk =   0.0234375
        k(    8) = (   0.0625000  -0.0625000   0.1875000), wk =   0.0234375
        k(    9) = (  -0.0625000   0.3125000   0.0625000), wk =   0.0234375
        k(   10) = (  -0.1875000   0.4375000  -0.0625000), wk =   0.0468750
        k(   11) = (  -0.3125000   0.5625000  -0.1875000), wk =   0.0468750
        k(   12) = (   0.5625000  -0.3125000   0.6875000), wk =   0.0468750
        k(   13) = (   0.4375000  -0.1875000   0.5625000), wk =   0.0468750
        k(   14) = (   0.3125000  -0.0625000   0.4375000), wk =   0.0468750
        k(   15) = (   0.1875000   0.0625000   0.3125000), wk =   0.0468750
        k(   16) = (  -0.0625000   0.5625000   0.0625000), wk =   0.0234375
        k(   17) = (  -0.1875000   0.6875000  -0.0625000), wk =   0.0468750
        k(   18) = (   0.6875000  -0.1875000   0.8125000), wk =   0.0468750
        k(   19) = (   0.5625000  -0.0625000   0.6875000), wk =   0.0468750
        k(   20) = (   0.4375000   0.0625000   0.5625000), wk =   0.0468750
        k(   21) = (   0.3125000   0.1875000   0.4375000), wk =   0.0468750
        k(   22) = (  -0.0625000   0.8125000   0.0625000), wk =   0.0234375
        k(   23) = (   0.8125000  -0.0625000   0.9375000), wk =   0.0468750
        k(   24) = (   0.6875000   0.0625000   0.8125000), wk =   0.0468750
        k(   25) = (   0.5625000   0.1875000   0.6875000), wk =   0.0468750
        k(   26) = (   0.4375000   0.3125000   0.5625000), wk =   0.0468750
        k(   27) = (  -0.0625000  -0.9375000   0.0625000), wk =   0.0234375
        k(   28) = (  -0.1875000  -0.8125000  -0.0625000), wk =   0.0468750
        k(   29) = (  -0.3125000  -0.6875000  -0.1875000), wk =   0.0468750
        k(   30) = (  -0.0625000  -0.6875000   0.0625000), wk =   0.0234375
        k(   31) = (  -0.1875000  -0.5625000  -0.0625000), wk =   0.0468750
        k(   32) = (  -0.0625000  -0.4375000   0.0625000), wk =   0.0234375
        k(   33) = (  -0.1875000   0.1875000   0.1875000), wk =   0.0078125
        k(   34) = (  -0.3125000   0.3125000   0.0625000), wk =   0.0234375
        k(   35) = (  -0.4375000   0.4375000  -0.0625000), wk =   0.0234375
        k(   36) = (   0.4375000  -0.4375000   0.8125000), wk =   0.0234375
        k(   37) = (   0.3125000  -0.3125000   0.6875000), wk =   0.0234375
        k(   38) = (   0.1875000  -0.1875000   0.5625000), wk =   0.0234375
        k(   39) = (  -0.1875000   0.4375000   0.1875000), wk =   0.0234375
        k(   40) = (  -0.3125000   0.5625000   0.0625000), wk =   0.0468750
        k(   41) = (   0.5625000  -0.3125000   0.9375000), wk =   0.0468750
        k(   42) = (   0.4375000  -0.1875000   0.8125000), wk =   0.0468750
        k(   43) = (   0.3125000  -0.0625000   0.6875000), wk =   0.0468750
        k(   44) = (  -0.1875000   0.6875000   0.1875000), wk =   0.0234375
        k(   45) = (   0.6875000  -0.1875000   1.0625000), wk =   0.0468750
        k(   46) = (   0.5625000  -0.0625000   0.9375000), wk =   0.0468750
        k(   47) = (   0.4375000   0.0625000   0.8125000), wk =   0.0468750
        k(   48) = (  -0.1875000  -1.0625000   0.1875000), wk =   0.0234375
        k(   49) = (  -0.3125000  -0.9375000   0.0625000), wk =   0.0468750
        k(   50) = (  -0.1875000  -0.8125000   0.1875000), wk =   0.0234375
        k(   51) = (  -0.3125000   0.3125000   0.3125000), wk =   0.0078125
        k(   52) = (  -0.4375000   0.4375000   0.1875000), wk =   0.0234375
        k(   53) = (   0.4375000  -0.4375000   1.0625000), wk =   0.0234375
        k(   54) = (   0.3125000  -0.3125000   0.9375000), wk =   0.0234375
        k(   55) = (  -0.3125000   0.5625000   0.3125000), wk =   0.0234375
        k(   56) = (   0.5625000  -0.3125000   1.1875000), wk =   0.0468750
        k(   57) = (   0.4375000  -0.1875000   1.0625000), wk =   0.0468750
        k(   58) = (  -0.3125000  -1.1875000   0.3125000), wk =   0.0234375
        k(   59) = (  -0.4375000   0.4375000   0.4375000), wk =   0.0078125
        k(   60) = (   0.4375000  -0.4375000   1.3125000), wk =   0.0234375

     Dense  grid:     2733 G-vectors     FFT dimensions: (  20,  20,  20)

     Largest allocated arrays     est. size (Mb)     dimensions
        Kohn-Sham Wavefunctions         0.00 Mb     (      52,    4)
        NL pseudopotentials             0.03 Mb     (      52,   36)
        Each V/rho on FFT grid          0.02 Mb     (    1200)
        Each G-vector array             0.00 Mb     (     340)
        G-vector shells                 0.00 Mb     (      64)
     Largest temporary arrays     est. size (Mb)     dimensions
        Auxiliary wavefunctions         0.01 Mb     (      52,   16)
        Each subspace H/S matrix        0.00 Mb     (       8,    8)
        Each <psi_i|beta_j> matrix      0.00 Mb     (      36,    4)
        Arrays for rho mixing           0.15 Mb     (    1200,    8)

     Check: negative/imaginary core charge=   -0.000006    0.000000

     Initial potential from superposition of free atoms

     starting charge    7.99866, renormalised to    8.00000
     Starting wfc are    8 randomized atomic wfcs

     total cpu time spent up to now is        0.2 secs

     per-process dynamical memory:     8.9 Mb

     Self-consistent Calculation

     iteration #  1     ecut=    18.00 Ry     beta=0.70
     Davidson diagonalization with overlap
     ethr =  1.00E-02,  avg # of iterations =  2.0

     Threshold (ethr) on eigenvalues was too large:
     Diagonalizing with lowered threshold

     Davidson diagonalization with overlap
     ethr =  7.23E-04,  avg # of iterations =  1.0

     total cpu time spent up to now is        0.2 secs

     total energy              =     -19.19316612 Ry
     Harris-Foulkes estimate   =     -19.20680916 Ry
     estimated scf accuracy    <       0.05753518 Ry

     iteration #  2     ecut=    18.00 Ry     beta=0.70
     Davidson diagonalization with overlap
     ethr =  7.19E-04,  avg # of iterations =  1.0

     total cpu time spent up to now is        0.2 secs

     total energy              =     -19.19504712 Ry
     Harris-Foulkes estimate   =     -19.19522581 Ry
     estimated scf accuracy    <       0.00248770 Ry

     iteration #  3     ecut=    18.00 Ry     beta=0.70
     Davidson diagonalization with overlap
     ethr =  3.11E-05,  avg # of iterations =  2.0

     total cpu time spent up to now is        0.2 secs

     total energy              =     -19.19535911 Ry
     Harris-Foulkes estimate   =     -19.19537652 Ry
     estimated scf accuracy    <       0.00004805 Ry

     iteration #  4     ecut=    18.00 Ry     beta=0.70
     Davidson diagonalization with overlap
     ethr =  6.01E-07,  avg # of iterations =  2.4

     total cpu time spent up to now is        0.3 secs

     total energy              =     -19.19537970 Ry
     Harris-Foulkes estimate   =     -19.19538099 Ry
     estimated scf accuracy    <       0.00000399 Ry

     iteration #  5     ecut=    18.00 Ry     beta=0.70
     Davidson diagonalization with overlap
     ethr =  4.98E-08,  avg # of iterations =  2.0

     total cpu time spent up to now is        0.3 secs

     total energy              =     -19.19538040 Ry
     Harris-Foulkes estimate   =     -19.19538043 Ry
     estimated scf accuracy    <       0.00000007 Ry

     iteration #  6     ecut=    18.00 Ry     beta=0.70
     Davidson diagonalization with overlap
     ethr =  8.99E-10,  avg # of iterations =  2.7

     total cpu time spent up to now is        0.3 secs

     End of self-consistent calculation

          k =-0.0625 0.0625 0.0625 (   335 PWs)   bands (ev):

    -5.6642   5.7957   6.2399   6.2399

          k =-0.1875 0.1875-0.0625 (   337 PWs)   bands (ev):

    -5.3905   4.2821   5.4118   6.1219

          k =-0.3125 0.3125-0.1875 (   346 PWs)   bands (ev):

    -4.7295   2.0144   4.9190   5.6497

          k =-0.4375 0.4375-0.3125 (   350 PWs)   bands (ev):

    -3.8037   0.0869   4.7027   5.2340

          k = 0.4375-0.4375 0.5625 (   345 PWs)   bands (ev):

    -3.3381  -0.6338   4.7566   5.0096

          k = 0.3125-0.3125 0.4375 (   345 PWs)   bands (ev):

    -4.1215   0.6582   5.0283   5.0502

          k = 0.1875-0.1875 0.3125 (   341 PWs)   bands (ev):

    -4.9887   2.7588   5.3075   5.5227

          k = 0.0625-0.0625 0.1875 (   335 PWs)   bands (ev):

    -5.5266   5.0462   5.7995   5.9724

          k =-0.0625 0.3125 0.0625 (   340 PWs)   bands (ev):

    -5.2532   4.1547   5.2271   5.3247

          k =-0.1875 0.4375-0.0625 (   340 PWs)   bands (ev):

    -4.7171   2.6302   4.2382   5.0580

          k =-0.3125 0.5625-0.1875 (   341 PWs)   bands (ev):

    -3.8511   0.7259   3.7462   4.6330

          k = 0.5625-0.3125 0.6875 (   349 PWs)   bands (ev):

    -3.0645  -0.5198   3.4551   4.5359

          k = 0.4375-0.1875 0.5625 (   345 PWs)   bands (ev):

    -3.5384   0.1923   3.3747   4.8300

          k = 0.3125-0.0625 0.4375 (   338 PWs)   bands (ev):

    -4.4630   1.9650   3.6703   5.3531

          k = 0.1875 0.0625 0.3125 (   339 PWs)   bands (ev):

    -5.1196   3.4592   4.8215   5.7374

          k =-0.0625 0.5625 0.0625 (   343 PWs)   bands (ev):

    -4.3081   2.1374   4.0913   4.2148

          k =-0.1875 0.6875-0.0625 (   338 PWs)   bands (ev):

    -3.5386   0.8777   3.2848   3.8588

          k = 0.6875-0.1875 0.8125 (   348 PWs)   bands (ev):

    -2.6154  -0.3537   2.4251   3.8271

          k = 0.5625-0.0625 0.6875 (   347 PWs)   bands (ev):

    -2.6867  -0.2588   2.0601   4.1815

          k = 0.4375 0.0625 0.5625 (   344 PWs)   bands (ev):

    -3.6079   0.7063   2.6849   4.7837

          k = 0.3125 0.1875 0.4375 (   343 PWs)   bands (ev):

    -4.3468   1.3325   4.3675   5.2524

          k =-0.0625 0.8125 0.0625 (   339 PWs)   bands (ev):

    -2.8718   0.0005   3.3848   3.6096

          k = 0.8125-0.0625 0.9375 (   348 PWs)   bands (ev):

    -1.9403  -1.0093   2.8088   3.3577

          k = 0.6875 0.0625 0.8125 (   346 PWs)   bands (ev):

    -2.0310  -0.8459   2.0574   3.6806

          k = 0.5625 0.1875 0.6875 (   350 PWs)   bands (ev):

    -2.8033  -0.4595   2.6464   4.2978

          k = 0.4375 0.3125 0.5625 (   346 PWs)   bands (ev):

    -3.4285  -0.3241   4.1967   4.9056

          k =-0.0625-0.9375 0.0625 (   342 PWs)   bands (ev):

    -1.9944  -1.0287   3.2439   3.4860

          k =-0.1875-0.8125-0.0625 (   343 PWs)   bands (ev):

    -2.7833  -0.0644   2.9718   3.5205

          k =-0.3125-0.6875-0.1875 (   343 PWs)   bands (ev):

    -3.2614   0.1765   3.0518   4.1350

          k =-0.0625-0.6875 0.0625 (   335 PWs)   bands (ev):

    -3.6468   1.0671   3.6673   3.8545

          k =-0.1875-0.5625-0.0625 (   339 PWs)   bands (ev):

    -4.1874   1.7774   3.7174   4.3844

          k =-0.0625-0.4375 0.0625 (   346 PWs)   bands (ev):

    -4.8457   3.1775   4.6538   4.6801

          k =-0.1875 0.1875 0.1875 (   335 PWs)   bands (ev):

    -5.2560   3.5410   5.7878   5.7878

          k =-0.3125 0.3125 0.0625 (   339 PWs)   bands (ev):

    -4.8549   2.7004   4.2357   5.8116

          k =-0.4375 0.4375-0.0625 (   340 PWs)   bands (ev):

    -4.0898   1.3139   3.1292   5.2930

          k = 0.4375-0.4375 0.8125 (   348 PWs)   bands (ev):

    -3.1684  -0.2197   2.9856   4.7463

          k = 0.3125-0.3125 0.6875 (   347 PWs)   bands (ev):

    -3.1526  -0.2487   3.2964   4.4185

          k = 0.1875-0.1875 0.5625 (   341 PWs)   bands (ev):

    -4.0731   1.3095   3.9206   4.3916

          k =-0.1875 0.4375 0.1875 (   338 PWs)   bands (ev):

    -4.5921   2.0180   4.7738   4.8200

          k =-0.3125 0.5625 0.0625 (   341 PWs)   bands (ev):

    -3.9509   1.2543   3.1867   4.6229

          k = 0.5625-0.3125 0.9375 (   346 PWs)   bands (ev):

    -3.0358   0.1363   2.3737   4.0349

          k = 0.4375-0.1875 0.8125 (   348 PWs)   bands (ev):

    -2.5318  -0.4988   2.3840   3.7114

          k = 0.3125-0.0625 0.6875 (   341 PWs)   bands (ev):

    -3.3296   0.5410   2.8114   3.8968

          k =-0.1875 0.6875 0.1875 (   340 PWs)   bands (ev):

    -3.4419   0.5931   3.1592   4.0533

          k = 0.6875-0.1875 1.0625 (   345 PWs)   bands (ev):

    -2.6180  -0.2084   2.5567   3.3428

          k = 0.5625-0.0625 0.9375 (   348 PWs)   bands (ev):

    -1.7867  -0.9768   2.2233   2.8255

          k = 0.4375 0.0625 0.8125 (   348 PWs)   bands (ev):

    -2.4048  -0.4233   2.2211   3.3151

          k =-0.1875-1.0625 0.1875 (   349 PWs)   bands (ev):

    -1.9570  -0.9607   2.3319   3.7032

          k =-0.3125-0.9375 0.0625 (   349 PWs)   bands (ev):

    -1.8548  -0.9871   2.4284   3.0501

          k =-0.1875-0.8125 0.1875 (   344 PWs)   bands (ev):

    -2.7183  -0.1736   2.6103   3.8211

          k =-0.3125 0.3125 0.3125 (   344 PWs)   bands (ev):

    -4.4820   1.2935   5.3671   5.3671

          k =-0.4375 0.4375 0.1875 (   346 PWs)   bands (ev):

    -3.9900   0.7120   3.8737   5.2784

          k = 0.4375-0.4375 1.0625 (   343 PWs)   bands (ev):

    -3.1760   0.1953   2.2926   4.6799

          k = 0.3125-0.3125 0.9375 (   349 PWs)   bands (ev):

    -2.3307  -0.5955   1.9372   4.1179

          k =-0.3125 0.5625 0.3125 (   341 PWs)   bands (ev):

    -3.6656   0.1394   4.2273   4.6971

          k = 0.5625-0.3125 1.1875 (   347 PWs)   bands (ev):

    -3.0287  -0.2131   2.8771   4.2044

          k = 0.4375-0.1875 1.0625 (   350 PWs)   bands (ev):

    -2.1904  -0.6564   2.0310   3.4697

          k =-0.3125-1.1875 0.3125 (   353 PWs)   bands (ev):

    -2.6592  -0.4930   2.4648   4.2203

          k =-0.4375 0.4375 0.4375 (   347 PWs)   bands (ev):

    -3.5646  -0.3921   5.1425   5.1425

          k = 0.4375-0.4375 1.3125 (   347 PWs)   bands (ev):

    -3.2025  -0.5673   3.9005   4.8656

     highest occupied level (ev):     6.2399

!    total energy              =     -19.19538043 Ry
     Harris-Foulkes estimate   =     -19.19538043 Ry
     estimated scf accuracy    <          3.4E-09 Ry

     The total energy is the sum of the following terms:

     one-electron contribution =       5.20389135 Ry
     hartree contribution      =       1.11102784 Ry
     xc contribution           =      -8.64361289 Ry
     ewald contribution        =     -16.86668673 Ry

     convergence has been achieved in   6 iterations

     Forces acting on atoms (Ry/au):

     atom    1 type  1   force =     0.00000000   -0.00000000    0.00000000
     atom    2 type  1   force =    -0.00000000   -0.00000000   -0.00000000

     Total force =     0.000000     Total SCF correction =     0.000000


     entering subroutine stress ...

          total   stress  (Ry/bohr**3)                   (kbar)     P=   39.83
   0.00027077   0.00000000   0.00000000         39.83      0.00      0.00
   0.00000000   0.00027077  -0.00000000          0.00     39.83     -0.00
   0.00000000  -0.00000000   0.00027077          0.00     -0.00     39.83


     Writing output data file silicon.save
 
     init_run     :      0.04s CPU      0.05s WALL (       1 calls)
     electrons    :      0.10s CPU      0.13s WALL (       1 calls)
     forces       :      0.00s CPU      0.00s WALL (       1 calls)
     stress       :      0.01s CPU      0.01s WALL (       1 calls)

     Called by init_run:
     wfcinit      :      0.01s CPU      0.01s WALL (       1 calls)
     potinit      :      0.00s CPU      0.00s WALL (       1 calls)

     Called by electrons:
     c_bands      :      0.07s CPU      0.07s WALL (       7 calls)
     sum_band     :      0.02s CPU      0.02s WALL (       7 calls)
     v_of_rho     :      0.01s CPU      0.01s WALL (       7 calls)
     newd         :      0.00s CPU      0.01s WALL (       7 calls)
     mix_rho      :      0.00s CPU      0.00s WALL (       7 calls)

     Called by c_bands:
     init_us_2    :      0.00s CPU      0.00s WALL (      51 calls)
     cegterg      :      0.06s CPU      0.05s WALL (      21 calls)

     Called by sum_band:
     sum_band:bec :      0.00s CPU      0.00s WALL (      21 calls)
     addusdens    :      0.01s CPU      0.01s WALL (       7 calls)

     Called by *egterg:
     h_psi        :      0.01s CPU      0.02s WALL (      70 calls)
     s_psi        :      0.00s CPU      0.00s WALL (      70 calls)
     g_psi        :      0.00s CPU      0.00s WALL (      46 calls)
     cdiaghg      :      0.04s CPU      0.03s WALL (      64 calls)

     Called by h_psi:
     add_vuspsi   :      0.00s CPU      0.00s WALL (      70 calls)

     General routines
     calbec       :      0.00s CPU      0.00s WALL (     106 calls)
     fft          :      0.00s CPU      0.00s WALL (     118 calls)
     fftw         :      0.01s CPU      0.02s WALL (     600 calls)
     davcio       :      0.00s CPU      0.01s WALL (       3 calls)
 
     Parallel routines
     fft_scatter  :      0.01s CPU      0.01s WALL (     718 calls)
 
     PWSCF        :     0.46s CPU         2.20s WALL

 
   This run was terminated on:   0:48: 2   7Apr2018            

=------------------------------------------------------------------------------=
   JOB DONE.
=------------------------------------------------------------------------------=
Application 30443983 resources: utime ~434s, stime ~24s, Rss ~20844, inblocks ~1759008, outblocks ~1402846
