
     Program PWSCF v.5.4.0 starts on  9Apr2018 at 16:16:16 

     This program is part of the open-source Quantum ESPRESSO suite
     for quantum simulation of materials; please cite
         "P. Giannozzi et al., J. Phys.:Condens. Matter 21 395502 (2009);
          URL http://www.quantum-espresso.org", 
     in publications or presentations arising from this work. More details at
     http://www.quantum-espresso.org/quote

     Parallel version (MPI & OpenMP), running on     384 processor cores
     Number of MPI processes:               384
     Threads/MPI process:                     1
     K-points division:     npool     =      24
     R & G space division:  proc/nbgrp/npool/nimage =      16
     Waiting for input...
     Reading input from standard input
     Message from routine read_cards :
     DEPRECATED: no units specified in ATOMIC_POSITIONS card
     Message from routine read_cards :
     ATOMIC_POSITIONS: units set to alat

     Current dimensions of program PWSCF are:
     Max number of different atomic species (ntypx) = 10
     Max number of k-points (npk) =  40000
     Max angular momentum in pseudopotentials (lmaxx) =  3

     Subspace diagonalization in iterative solution of the eigenvalue problem:
     one sub-group per band group will be used
     scalapack distributed-memory algorithm (size of sub-group:  2*  2 procs)

 
     Parallelization info
     --------------------
     sticks:   dense  smooth     PW     G-vecs:    dense   smooth      PW
     Min          53      27      9                 1039      367      74
     Max          57      28     10                 1040      378      77
     Sum         859     433    151                16625     5961    1211
 


     bravais-lattice index     =            2
     lattice parameter (alat)  =      10.2200  a.u.
     unit-cell volume          =     266.8657 (a.u.)^3
     number of atoms/cell      =            2
     number of atomic types    =            1
     number of electrons       =         8.00
     number of Kohn-Sham states=            4
     kinetic-energy cutoff     =      30.0000  Ry
     charge density cutoff     =     240.0000  Ry
     convergence threshold     =      1.0E-08
     mixing beta               =       0.7000
     number of iterations used =            8  plain     mixing
     Exchange-correlation      = SLA  PW   PBE  PBE ( 1  4  3  4 0 0)

     celldm(1)=  10.220000  celldm(2)=   0.000000  celldm(3)=   0.000000
     celldm(4)=   0.000000  celldm(5)=   0.000000  celldm(6)=   0.000000

     crystal axes: (cart. coord. in units of alat)
               a(1) = (  -0.500000   0.000000   0.500000 )  
               a(2) = (   0.000000   0.500000   0.500000 )  
               a(3) = (  -0.500000   0.500000   0.000000 )  

     reciprocal axes: (cart. coord. in units 2 pi/alat)
               b(1) = ( -1.000000 -1.000000  1.000000 )  
               b(2) = (  1.000000  1.000000  1.000000 )  
               b(3) = ( -1.000000  1.000000 -1.000000 )  


     PseudoPot. # 1 for Si read from file:
     ./si_pbe_v1.uspp.F.UPF.txt
     MD5 check sum: a056efeee980c13900f22a371efd63c1
     Pseudo is Ultrasoft + core correction, Zval =  4.0
     Generated by new atomic code, or converted to UPF format
     Using radial grid of  899 points,  6 beta functions with: 
                l(1) =   0
                l(2) =   0
                l(3) =   1
                l(4) =   1
                l(5) =   2
                l(6) =   2
     Q(r) pseudized with  8 coefficients,  rinner =    0.900   0.900   0.900
                                                       0.900   0.900

     atomic species   valence    mass     pseudopotential
        Si             4.00    28.08600     Si( 1.00)

     48 Sym. Ops., with inversion, found (24 have fractional translation)



   Cartesian axes

     site n.     atom                  positions (alat units)
         1           Si  tau(   1) = (   0.0000000   0.0000000   0.0000000  )
         2           Si  tau(   2) = (   0.2500000   0.2500000   0.2500000  )

     number of k points=    60
                       cart. coord. in units 2pi/alat
        k(    1) = (  -0.0625000   0.0625000   0.0625000), wk =   0.0078125
        k(    2) = (  -0.1875000   0.1875000  -0.0625000), wk =   0.0234375
        k(    3) = (  -0.3125000   0.3125000  -0.1875000), wk =   0.0234375
        k(    4) = (  -0.4375000   0.4375000  -0.3125000), wk =   0.0234375
        k(    5) = (   0.4375000  -0.4375000   0.5625000), wk =   0.0234375
        k(    6) = (   0.3125000  -0.3125000   0.4375000), wk =   0.0234375
        k(    7) = (   0.1875000  -0.1875000   0.3125000), wk =   0.0234375
        k(    8) = (   0.0625000  -0.0625000   0.1875000), wk =   0.0234375
        k(    9) = (  -0.0625000   0.3125000   0.0625000), wk =   0.0234375
        k(   10) = (  -0.1875000   0.4375000  -0.0625000), wk =   0.0468750
        k(   11) = (  -0.3125000   0.5625000  -0.1875000), wk =   0.0468750
        k(   12) = (   0.5625000  -0.3125000   0.6875000), wk =   0.0468750
        k(   13) = (   0.4375000  -0.1875000   0.5625000), wk =   0.0468750
        k(   14) = (   0.3125000  -0.0625000   0.4375000), wk =   0.0468750
        k(   15) = (   0.1875000   0.0625000   0.3125000), wk =   0.0468750
        k(   16) = (  -0.0625000   0.5625000   0.0625000), wk =   0.0234375
        k(   17) = (  -0.1875000   0.6875000  -0.0625000), wk =   0.0468750
        k(   18) = (   0.6875000  -0.1875000   0.8125000), wk =   0.0468750
        k(   19) = (   0.5625000  -0.0625000   0.6875000), wk =   0.0468750
        k(   20) = (   0.4375000   0.0625000   0.5625000), wk =   0.0468750
        k(   21) = (   0.3125000   0.1875000   0.4375000), wk =   0.0468750
        k(   22) = (  -0.0625000   0.8125000   0.0625000), wk =   0.0234375
        k(   23) = (   0.8125000  -0.0625000   0.9375000), wk =   0.0468750
        k(   24) = (   0.6875000   0.0625000   0.8125000), wk =   0.0468750
        k(   25) = (   0.5625000   0.1875000   0.6875000), wk =   0.0468750
        k(   26) = (   0.4375000   0.3125000   0.5625000), wk =   0.0468750
        k(   27) = (  -0.0625000  -0.9375000   0.0625000), wk =   0.0234375
        k(   28) = (  -0.1875000  -0.8125000  -0.0625000), wk =   0.0468750
        k(   29) = (  -0.3125000  -0.6875000  -0.1875000), wk =   0.0468750
        k(   30) = (  -0.0625000  -0.6875000   0.0625000), wk =   0.0234375
        k(   31) = (  -0.1875000  -0.5625000  -0.0625000), wk =   0.0468750
        k(   32) = (  -0.0625000  -0.4375000   0.0625000), wk =   0.0234375
        k(   33) = (  -0.1875000   0.1875000   0.1875000), wk =   0.0078125
        k(   34) = (  -0.3125000   0.3125000   0.0625000), wk =   0.0234375
        k(   35) = (  -0.4375000   0.4375000  -0.0625000), wk =   0.0234375
        k(   36) = (   0.4375000  -0.4375000   0.8125000), wk =   0.0234375
        k(   37) = (   0.3125000  -0.3125000   0.6875000), wk =   0.0234375
        k(   38) = (   0.1875000  -0.1875000   0.5625000), wk =   0.0234375
        k(   39) = (  -0.1875000   0.4375000   0.1875000), wk =   0.0234375
        k(   40) = (  -0.3125000   0.5625000   0.0625000), wk =   0.0468750
        k(   41) = (   0.5625000  -0.3125000   0.9375000), wk =   0.0468750
        k(   42) = (   0.4375000  -0.1875000   0.8125000), wk =   0.0468750
        k(   43) = (   0.3125000  -0.0625000   0.6875000), wk =   0.0468750
        k(   44) = (  -0.1875000   0.6875000   0.1875000), wk =   0.0234375
        k(   45) = (   0.6875000  -0.1875000   1.0625000), wk =   0.0468750
        k(   46) = (   0.5625000  -0.0625000   0.9375000), wk =   0.0468750
        k(   47) = (   0.4375000   0.0625000   0.8125000), wk =   0.0468750
        k(   48) = (  -0.1875000  -1.0625000   0.1875000), wk =   0.0234375
        k(   49) = (  -0.3125000  -0.9375000   0.0625000), wk =   0.0468750
        k(   50) = (  -0.1875000  -0.8125000   0.1875000), wk =   0.0234375
        k(   51) = (  -0.3125000   0.3125000   0.3125000), wk =   0.0078125
        k(   52) = (  -0.4375000   0.4375000   0.1875000), wk =   0.0234375
        k(   53) = (   0.4375000  -0.4375000   1.0625000), wk =   0.0234375
        k(   54) = (   0.3125000  -0.3125000   0.9375000), wk =   0.0234375
        k(   55) = (  -0.3125000   0.5625000   0.3125000), wk =   0.0234375
        k(   56) = (   0.5625000  -0.3125000   1.1875000), wk =   0.0468750
        k(   57) = (   0.4375000  -0.1875000   1.0625000), wk =   0.0468750
        k(   58) = (  -0.3125000  -1.1875000   0.3125000), wk =   0.0234375
        k(   59) = (  -0.4375000   0.4375000   0.4375000), wk =   0.0078125
        k(   60) = (   0.4375000  -0.4375000   1.3125000), wk =   0.0234375

     Dense  grid:    16625 G-vectors     FFT dimensions: (  36,  36,  36)

     Smooth grid:     5961 G-vectors     FFT dimensions: (  25,  25,  25)

     Largest allocated arrays     est. size (Mb)     dimensions
        Kohn-Sham Wavefunctions         0.00 Mb     (      50,    4)
        NL pseudopotentials             0.03 Mb     (      50,   36)
        Each V/rho on FFT grid          0.06 Mb     (    3888)
        Each G-vector array             0.01 Mb     (    1040)
        G-vector shells                 0.00 Mb     (     194)
     Largest temporary arrays     est. size (Mb)     dimensions
        Auxiliary wavefunctions         0.01 Mb     (      50,   16)
        Each subspace H/S matrix        0.00 Mb     (       8,    8)
        Each <psi_i|beta_j> matrix      0.00 Mb     (      36,    4)
        Arrays for rho mixing           0.47 Mb     (    3888,    8)

     Initial potential from superposition of free atoms

     starting charge    7.99866, renormalised to    8.00000
     Starting wfc are    8 randomized atomic wfcs

     total cpu time spent up to now is        0.2 secs

     per-process dynamical memory:    10.3 Mb

     Self-consistent Calculation

     iteration #  1     ecut=    30.00 Ry     beta=0.70
     Davidson diagonalization with overlap
     ethr =  1.00E-02,  avg # of iterations =  2.0

     Threshold (ethr) on eigenvalues was too large:
     Diagonalizing with lowered threshold

     Davidson diagonalization with overlap
     ethr =  7.16E-04,  avg # of iterations =  1.0

     total cpu time spent up to now is        0.3 secs

     total energy              =     -19.19004346 Ry
     Harris-Foulkes estimate   =     -19.20388398 Ry
     estimated scf accuracy    <       0.05660588 Ry

     iteration #  2     ecut=    30.00 Ry     beta=0.70
     Davidson diagonalization with overlap
     ethr =  7.08E-04,  avg # of iterations =  1.0

     total cpu time spent up to now is        0.4 secs

     total energy              =     -19.19204154 Ry
     Harris-Foulkes estimate   =     -19.19220968 Ry
     estimated scf accuracy    <       0.00243914 Ry

     iteration #  3     ecut=    30.00 Ry     beta=0.70
     Davidson diagonalization with overlap
     ethr =  3.05E-05,  avg # of iterations =  2.0

     total cpu time spent up to now is        0.4 secs

     total energy              =     -19.19240719 Ry
     Harris-Foulkes estimate   =     -19.19242237 Ry
     estimated scf accuracy    <       0.00004731 Ry

     iteration #  4     ecut=    30.00 Ry     beta=0.70
     Davidson diagonalization with overlap
     ethr =  5.91E-07,  avg # of iterations =  3.3

     total cpu time spent up to now is        0.5 secs

     total energy              =     -19.19244832 Ry
     Harris-Foulkes estimate   =     -19.19244957 Ry
     estimated scf accuracy    <       0.00000428 Ry

     iteration #  5     ecut=    30.00 Ry     beta=0.70
     Davidson diagonalization with overlap
     ethr =  5.36E-08,  avg # of iterations =  2.0

     total cpu time spent up to now is        0.5 secs

     total energy              =     -19.19244889 Ry
     Harris-Foulkes estimate   =     -19.19244888 Ry
     estimated scf accuracy    <       0.00000001 Ry

     iteration #  6     ecut=    30.00 Ry     beta=0.70
     Davidson diagonalization with overlap
     ethr =  1.71E-10,  avg # of iterations =  3.9

     total cpu time spent up to now is        0.6 secs

     End of self-consistent calculation

          k =-0.0625 0.0625 0.0625 (   731 PWs)   bands (ev):

    -5.6702   5.7931   6.2372   6.2372

          k =-0.1875 0.1875-0.0625 (   738 PWs)   bands (ev):

    -5.3962   4.2790   5.4076   6.1199

          k =-0.3125 0.3125-0.1875 (   748 PWs)   bands (ev):

    -4.7339   2.0109   4.9151   5.6482

          k =-0.4375 0.4375-0.3125 (   747 PWs)   bands (ev):

    -3.8056   0.0803   4.6993   5.2326

          k = 0.4375-0.4375 0.5625 (   743 PWs)   bands (ev):

    -3.3393  -0.6429   4.7537   5.0080

          k = 0.3125-0.3125 0.4375 (   751 PWs)   bands (ev):

    -4.1245   0.6527   5.0259   5.0473

          k = 0.1875-0.1875 0.3125 (   742 PWs)   bands (ev):

    -4.9937   2.7554   5.3048   5.5200

          k = 0.0625-0.0625 0.1875 (   733 PWs)   bands (ev):

    -5.5325   5.0436   5.7964   5.9698

          k =-0.0625 0.3125 0.0625 (   744 PWs)   bands (ev):

    -5.2583   4.1536   5.2237   5.3216

          k =-0.1875 0.4375-0.0625 (   744 PWs)   bands (ev):

    -4.7217   2.6295   4.2321   5.0550

          k =-0.3125 0.5625-0.1875 (   742 PWs)   bands (ev):

    -3.8547   0.7219   3.7398   4.6295

          k = 0.5625-0.3125 0.6875 (   742 PWs)   bands (ev):

    -3.0654  -0.5264   3.4487   4.5324

          k = 0.4375-0.1875 0.5625 (   744 PWs)   bands (ev):

    -3.5411   0.1873   3.3675   4.8270

          k = 0.3125-0.0625 0.4375 (   743 PWs)   bands (ev):

    -4.4675   1.9633   3.6619   5.3508

          k = 0.1875 0.0625 0.3125 (   743 PWs)   bands (ev):

    -5.1249   3.4573   4.8163   5.7353

          k =-0.0625 0.5625 0.0625 (   734 PWs)   bands (ev):

    -4.3124   2.1394   4.0865   4.2113

          k =-0.1875 0.6875-0.0625 (   744 PWs)   bands (ev):

    -3.5425   0.8784   3.2763   3.8537

          k = 0.6875-0.1875 0.8125 (   735 PWs)   bands (ev):

    -2.6167  -0.3547   2.4137   3.8220

          k = 0.5625-0.0625 0.6875 (   733 PWs)   bands (ev):

    -2.6878  -0.2600   2.0469   4.1769

          k = 0.4375 0.0625 0.5625 (   744 PWs)   bands (ev):

    -3.6108   0.7047   2.6739   4.7804

          k = 0.3125 0.1875 0.4375 (   745 PWs)   bands (ev):

    -4.3508   1.3287   4.3625   5.2503

          k =-0.0625 0.8125 0.0625 (   744 PWs)   bands (ev):

    -2.8748   0.0008   3.3789   3.6057

          k = 0.8125-0.0625 0.9375 (   740 PWs)   bands (ev):

    -1.9411  -1.0093   2.7994   3.3519

          k = 0.6875 0.0625 0.8125 (   736 PWs)   bands (ev):

    -2.0313  -0.8462   2.0437   3.6753

          k = 0.5625 0.1875 0.6875 (   737 PWs)   bands (ev):

    -2.8042  -0.4639   2.6371   4.2935

          k = 0.4375 0.3125 0.5625 (   743 PWs)   bands (ev):

    -3.4299  -0.3316   4.1918   4.9033

          k =-0.0625-0.9375 0.0625 (   740 PWs)   bands (ev):

    -1.9960  -1.0290   3.2378   3.4820

          k =-0.1875-0.8125-0.0625 (   743 PWs)   bands (ev):

    -2.7857  -0.0635   2.9628   3.5148

          k =-0.3125-0.6875-0.1875 (   738 PWs)   bands (ev):

    -3.2639   0.1736   3.0433   4.1305

          k =-0.0625-0.6875 0.0625 (   740 PWs)   bands (ev):

    -3.6510   1.0681   3.6616   3.8506

          k =-0.1875-0.5625-0.0625 (   739 PWs)   bands (ev):

    -4.1917   1.7779   3.7101   4.3804

          k =-0.0625-0.4375 0.0625 (   738 PWs)   bands (ev):

    -4.8503   3.1786   4.6500   4.6766

          k =-0.1875 0.1875 0.1875 (   739 PWs)   bands (ev):

    -5.2614   3.5366   5.7854   5.7854

          k =-0.3125 0.3125 0.0625 (   742 PWs)   bands (ev):

    -4.8599   2.6984   4.2289   5.8101

          k =-0.4375 0.4375-0.0625 (   742 PWs)   bands (ev):

    -4.0935   1.3118   3.1194   5.2907

          k = 0.4375-0.4375 0.8125 (   739 PWs)   bands (ev):

    -3.1700  -0.2252   2.9775   4.7438

          k = 0.3125-0.3125 0.6875 (   740 PWs)   bands (ev):

    -3.1545  -0.2536   3.2892   4.4155

          k = 0.1875-0.1875 0.5625 (   747 PWs)   bands (ev):

    -4.0771   1.3075   3.9145   4.3883

          k =-0.1875 0.4375 0.1875 (   742 PWs)   bands (ev):

    -4.5968   2.0148   4.7694   4.8171

          k =-0.3125 0.5625 0.0625 (   743 PWs)   bands (ev):

    -3.9546   1.2534   3.1773   4.6187

          k = 0.5625-0.3125 0.9375 (   736 PWs)   bands (ev):

    -3.0377   0.1356   2.3618   4.0288

          k = 0.4375-0.1875 0.8125 (   734 PWs)   bands (ev):

    -2.5323  -0.5012   2.3729   3.7041

          k = 0.3125-0.0625 0.6875 (   742 PWs)   bands (ev):

    -3.3325   0.5407   2.8010   3.8902

          k =-0.1875 0.6875 0.1875 (   744 PWs)   bands (ev):

    -3.4453   0.5922   3.1503   4.0498

          k = 0.6875-0.1875 1.0625 (   739 PWs)   bands (ev):

    -2.6199  -0.2076   2.5454   3.3346

          k = 0.5625-0.0625 0.9375 (   736 PWs)   bands (ev):

    -1.7864  -0.9759   2.2102   2.8145

          k = 0.4375 0.0625 0.8125 (   738 PWs)   bands (ev):

    -2.4056  -0.4227   2.2085   3.3061

          k =-0.1875-1.0625 0.1875 (   739 PWs)   bands (ev):

    -1.9576  -0.9606   2.3196   3.6997

          k =-0.3125-0.9375 0.0625 (   736 PWs)   bands (ev):

    -1.8551  -0.9864   2.4164   3.0412

          k =-0.1875-0.8125 0.1875 (   743 PWs)   bands (ev):

    -2.7205  -0.1735   2.5991   3.8176

          k =-0.3125 0.3125 0.3125 (   751 PWs)   bands (ev):

    -4.4857   1.2888   5.3650   5.3650

          k =-0.4375 0.4375 0.1875 (   744 PWs)   bands (ev):

    -3.9930   0.7073   3.8675   5.2769

          k = 0.4375-0.4375 1.0625 (   740 PWs)   bands (ev):

    -3.1784   0.1934   2.2803   4.6772

          k = 0.3125-0.3125 0.9375 (   732 PWs)   bands (ev):

    -2.3310  -0.5964   1.9234   4.1147

          k =-0.3125 0.5625 0.3125 (   744 PWs)   bands (ev):

    -3.6685   0.1333   4.2223   4.6943

          k = 0.5625-0.3125 1.1875 (   740 PWs)   bands (ev):

    -3.0303  -0.2173   2.8683   4.1991

          k = 0.4375-0.1875 1.0625 (   734 PWs)   bands (ev):

    -2.1902  -0.6565   2.0175   3.4616

          k =-0.3125-1.1875 0.3125 (   741 PWs)   bands (ev):

    -2.6598  -0.4960   2.4544   4.2172

          k =-0.4375 0.4375 0.4375 (   751 PWs)   bands (ev):

    -3.5660  -0.4001   5.1412   5.1412

          k = 0.4375-0.4375 1.3125 (   747 PWs)   bands (ev):

    -3.2032  -0.5754   3.8950   4.8633

     highest occupied level (ev):     6.2372

!    total energy              =     -19.19244893 Ry
     Harris-Foulkes estimate   =     -19.19244893 Ry
     estimated scf accuracy    <          8.3E-10 Ry

     The total energy is the sum of the following terms:

     one-electron contribution =       5.20548866 Ry
     hartree contribution      =       1.10486041 Ry
     xc contribution           =      -8.63611137 Ry
     ewald contribution        =     -16.86668664 Ry

     convergence has been achieved in   6 iterations

     Forces acting on atoms (Ry/au):

     atom    1 type  1   force =     0.00000000    0.00000000   -0.00000000
     atom    2 type  1   force =     0.00000000   -0.00000000    0.00000000

     Total force =     0.000000     Total SCF correction =     0.000000


     entering subroutine stress ...

          total   stress  (Ry/bohr**3)                   (kbar)     P=   31.28
   0.00021265  -0.00000000   0.00000000         31.28     -0.00      0.00
  -0.00000000   0.00021265   0.00000000         -0.00     31.28      0.00
   0.00000000   0.00000000   0.00021265          0.00      0.00     31.28


     Writing output data file silicon.save
 
     init_run     :      0.06s CPU      0.09s WALL (       1 calls)
     electrons    :      0.33s CPU      0.37s WALL (       1 calls)
     forces       :      0.02s CPU      0.01s WALL (       1 calls)
     stress       :      0.04s CPU      0.04s WALL (       1 calls)

     Called by init_run:
     wfcinit      :      0.01s CPU      0.03s WALL (       1 calls)
     potinit      :      0.00s CPU      0.01s WALL (       1 calls)

     Called by electrons:
     c_bands      :      0.17s CPU      0.17s WALL (       7 calls)
     sum_band     :      0.06s CPU      0.06s WALL (       7 calls)
     v_of_rho     :      0.02s CPU      0.02s WALL (       7 calls)
     newd         :      0.02s CPU      0.03s WALL (       7 calls)
     mix_rho      :      0.00s CPU      0.00s WALL (       7 calls)

     Called by c_bands:
     init_us_2    :      0.00s CPU      0.00s WALL (      51 calls)
     cegterg      :      0.05s CPU      0.07s WALL (      21 calls)

     Called by sum_band:
     sum_band:bec :      0.00s CPU      0.00s WALL (      21 calls)
     addusdens    :      0.02s CPU      0.04s WALL (       7 calls)

     Called by *egterg:
     h_psi        :      0.03s CPU      0.03s WALL (      76 calls)
     s_psi        :      0.01s CPU      0.00s WALL (      76 calls)
     g_psi        :      0.00s CPU      0.00s WALL (      52 calls)
     cdiaghg      :      0.01s CPU      0.04s WALL (      70 calls)

     Called by h_psi:
     add_vuspsi   :      0.00s CPU      0.00s WALL (      76 calls)

     General routines
     calbec       :      0.00s CPU      0.00s WALL (     112 calls)
     fft          :      0.01s CPU      0.02s WALL (     137 calls)
     ffts         :      0.00s CPU      0.00s WALL (      14 calls)
     fftw         :      0.02s CPU      0.02s WALL (     622 calls)
     interpolate  :      0.00s CPU      0.00s WALL (      14 calls)
     davcio       :      0.00s CPU      0.01s WALL (       3 calls)
 
     Parallel routines
     fft_scatter  :      0.02s CPU      0.02s WALL (     773 calls)
 
     PWSCF        :     1.71s CPU         5.43s WALL

 
   This run was terminated on:  16:16:21   9Apr2018            

=------------------------------------------------------------------------------=
   JOB DONE.
=------------------------------------------------------------------------------=
Application 30462876 resources: utime ~2078s, stime ~49s, Rss ~24972, inblocks ~3539511, outblocks ~2806482
