
     Program PWSCF v.5.4.0 starts on  7Apr2018 at  0:47:51 

     This program is part of the open-source Quantum ESPRESSO suite
     for quantum simulation of materials; please cite
         "P. Giannozzi et al., J. Phys.:Condens. Matter 21 395502 (2009);
          URL http://www.quantum-espresso.org", 
     in publications or presentations arising from this work. More details at
     http://www.quantum-espresso.org/quote

     Parallel version (MPI & OpenMP), running on     192 processor cores
     Number of MPI processes:               192
     Threads/MPI process:                     1
     K-points division:     npool     =      24
     R & G space division:  proc/nbgrp/npool/nimage =       8
     Waiting for input...
     Reading input from standard input
     Message from routine read_cards :
     DEPRECATED: no units specified in ATOMIC_POSITIONS card
     Message from routine read_cards :
     ATOMIC_POSITIONS: units set to alat

     Current dimensions of program PWSCF are:
     Max number of different atomic species (ntypx) = 10
     Max number of k-points (npk) =  40000
     Max angular momentum in pseudopotentials (lmaxx) =  3

     Subspace diagonalization in iterative solution of the eigenvalue problem:
     one sub-group per band group will be used
     scalapack distributed-memory algorithm (size of sub-group:  2*  2 procs)

 
     Parallelization info
     --------------------
     sticks:   dense  smooth     PW     G-vecs:    dense   smooth      PW
     Min          31      31     11                  339      339      76
     Max          32      32     12                  343      343      77
     Sum         253     253     91                 2733     2733     609
 


     bravais-lattice index     =            2
     lattice parameter (alat)  =      10.2200  a.u.
     unit-cell volume          =     266.8657 (a.u.)^3
     number of atoms/cell      =            2
     number of atomic types    =            1
     number of electrons       =         8.00
     number of Kohn-Sham states=            4
     kinetic-energy cutoff     =      18.0000  Ry
     charge density cutoff     =      72.0000  Ry
     convergence threshold     =      1.0E-08
     mixing beta               =       0.7000
     number of iterations used =            8  plain     mixing
     Exchange-correlation      = SLA  PW   PBE  PBE ( 1  4  3  4 0 0)

     celldm(1)=  10.220000  celldm(2)=   0.000000  celldm(3)=   0.000000
     celldm(4)=   0.000000  celldm(5)=   0.000000  celldm(6)=   0.000000

     crystal axes: (cart. coord. in units of alat)
               a(1) = (  -0.500000   0.000000   0.500000 )  
               a(2) = (   0.000000   0.500000   0.500000 )  
               a(3) = (  -0.500000   0.500000   0.000000 )  

     reciprocal axes: (cart. coord. in units 2 pi/alat)
               b(1) = ( -1.000000 -1.000000  1.000000 )  
               b(2) = (  1.000000  1.000000  1.000000 )  
               b(3) = ( -1.000000  1.000000 -1.000000 )  


     PseudoPot. # 1 for Si read from file:
     ./si_pbe_v1.uspp.F.UPF.txt
     MD5 check sum: a056efeee980c13900f22a371efd63c1
     Pseudo is Ultrasoft + core correction, Zval =  4.0
     Generated by new atomic code, or converted to UPF format
     Using radial grid of  899 points,  6 beta functions with: 
                l(1) =   0
                l(2) =   0
                l(3) =   1
                l(4) =   1
                l(5) =   2
                l(6) =   2
     Q(r) pseudized with  8 coefficients,  rinner =    0.900   0.900   0.900
                                                       0.900   0.900

     atomic species   valence    mass     pseudopotential
        Si             4.00    28.08600     Si( 1.00)

     48 Sym. Ops., with inversion, found (24 have fractional translation)



   Cartesian axes

     site n.     atom                  positions (alat units)
         1           Si  tau(   1) = (   0.0000000   0.0000000   0.0000000  )
         2           Si  tau(   2) = (   0.2500000   0.2500000   0.2500000  )

     number of k points=    44
                       cart. coord. in units 2pi/alat
        k(    1) = (  -0.0714286   0.0714286   0.0714286), wk =   0.0116618
        k(    2) = (  -0.2142857   0.2142857  -0.0714286), wk =   0.0349854
        k(    3) = (  -0.3571429   0.3571429  -0.2142857), wk =   0.0349854
        k(    4) = (   0.5000000  -0.5000000   0.6428571), wk =   0.0349854
        k(    5) = (   0.3571429  -0.3571429   0.5000000), wk =   0.0349854
        k(    6) = (   0.2142857  -0.2142857   0.3571429), wk =   0.0349854
        k(    7) = (   0.0714286  -0.0714286   0.2142857), wk =   0.0349854
        k(    8) = (  -0.0714286   0.3571429   0.0714286), wk =   0.0349854
        k(    9) = (  -0.2142857   0.5000000  -0.0714286), wk =   0.0699708
        k(   10) = (   0.6428571  -0.3571429   0.7857143), wk =   0.0699708
        k(   11) = (   0.5000000  -0.2142857   0.6428571), wk =   0.0699708
        k(   12) = (   0.3571429  -0.0714286   0.5000000), wk =   0.0699708
        k(   13) = (   0.2142857   0.0714286   0.3571429), wk =   0.0699708
        k(   14) = (  -0.0714286   0.6428571   0.0714286), wk =   0.0349854
        k(   15) = (   0.7857143  -0.2142857   0.9285714), wk =   0.0699708
        k(   16) = (   0.6428571  -0.0714286   0.7857143), wk =   0.0699708
        k(   17) = (   0.5000000   0.0714286   0.6428571), wk =   0.0699708
        k(   18) = (   0.3571429   0.2142857   0.5000000), wk =   0.0699708
        k(   19) = (  -0.0714286  -1.0714286   0.0714286), wk =   0.0349854
        k(   20) = (  -0.2142857  -0.9285714  -0.0714286), wk =   0.0699708
        k(   21) = (  -0.3571429  -0.7857143  -0.2142857), wk =   0.0699708
        k(   22) = (  -0.5000000  -0.6428571  -0.3571429), wk =   0.0349854
        k(   23) = (  -0.0714286  -0.7857143   0.0714286), wk =   0.0349854
        k(   24) = (  -0.2142857  -0.6428571  -0.0714286), wk =   0.0699708
        k(   25) = (  -0.0714286  -0.5000000   0.0714286), wk =   0.0349854
        k(   26) = (  -0.2142857   0.2142857   0.2142857), wk =   0.0116618
        k(   27) = (  -0.3571429   0.3571429   0.0714286), wk =   0.0349854
        k(   28) = (   0.5000000  -0.5000000   0.9285714), wk =   0.0349854
        k(   29) = (   0.3571429  -0.3571429   0.7857143), wk =   0.0349854
        k(   30) = (   0.2142857  -0.2142857   0.6428571), wk =   0.0349854
        k(   31) = (  -0.2142857   0.5000000   0.2142857), wk =   0.0349854
        k(   32) = (   0.6428571  -0.3571429   1.0714286), wk =   0.0699708
        k(   33) = (   0.5000000  -0.2142857   0.9285714), wk =   0.0699708
        k(   34) = (   0.3571429  -0.0714286   0.7857143), wk =   0.0699708
        k(   35) = (  -0.2142857  -1.2142857   0.2142857), wk =   0.0349854
        k(   36) = (  -0.3571429  -1.0714286   0.0714286), wk =   0.0699708
        k(   37) = (  -0.5000000  -0.9285714  -0.0714286), wk =   0.0349854
        k(   38) = (  -0.2142857  -0.9285714   0.2142857), wk =   0.0349854
        k(   39) = (  -0.3571429   0.3571429   0.3571429), wk =   0.0116618
        k(   40) = (   0.5000000  -0.5000000   1.2142857), wk =   0.0349854
        k(   41) = (   0.3571429  -0.3571429   1.0714286), wk =   0.0349854
        k(   42) = (  -0.3571429  -1.3571429   0.3571429), wk =   0.0349854
        k(   43) = (  -0.5000000  -1.2142857   0.2142857), wk =   0.0349854
        k(   44) = (   0.5000000  -0.5000000  -0.5000000), wk =   0.0058309

     Dense  grid:     2733 G-vectors     FFT dimensions: (  20,  20,  20)

     Largest allocated arrays     est. size (Mb)     dimensions
        Kohn-Sham Wavefunctions         0.00 Mb     (      53,    4)
        NL pseudopotentials             0.03 Mb     (      53,   36)
        Each V/rho on FFT grid          0.02 Mb     (    1200)
        Each G-vector array             0.00 Mb     (     340)
        G-vector shells                 0.00 Mb     (      64)
     Largest temporary arrays     est. size (Mb)     dimensions
        Auxiliary wavefunctions         0.01 Mb     (      53,   16)
        Each subspace H/S matrix        0.00 Mb     (       8,    8)
        Each <psi_i|beta_j> matrix      0.00 Mb     (      36,    4)
        Arrays for rho mixing           0.15 Mb     (    1200,    8)

     Check: negative/imaginary core charge=   -0.000006    0.000000

     Initial potential from superposition of free atoms

     starting charge    7.99866, renormalised to    8.00000
     Starting wfc are    8 randomized atomic wfcs

     total cpu time spent up to now is        0.2 secs

     per-process dynamical memory:     8.9 Mb

     Self-consistent Calculation

     iteration #  1     ecut=    18.00 Ry     beta=0.70
     Davidson diagonalization with overlap
     ethr =  1.00E-02,  avg # of iterations =  2.0

     Threshold (ethr) on eigenvalues was too large:
     Diagonalizing with lowered threshold

     Davidson diagonalization with overlap
     ethr =  7.24E-04,  avg # of iterations =  1.0

     total cpu time spent up to now is        0.2 secs

     total energy              =     -19.19315753 Ry
     Harris-Foulkes estimate   =     -19.20681780 Ry
     estimated scf accuracy    <       0.05758128 Ry

     iteration #  2     ecut=    18.00 Ry     beta=0.70
     Davidson diagonalization with overlap
     ethr =  7.20E-04,  avg # of iterations =  1.0

     total cpu time spent up to now is        0.2 secs

     total energy              =     -19.19505199 Ry
     Harris-Foulkes estimate   =     -19.19522903 Ry
     estimated scf accuracy    <       0.00248448 Ry

     iteration #  3     ecut=    18.00 Ry     beta=0.70
     Davidson diagonalization with overlap
     ethr =  3.11E-05,  avg # of iterations =  2.0

     total cpu time spent up to now is        0.2 secs

     total energy              =     -19.19536910 Ry
     Harris-Foulkes estimate   =     -19.19538653 Ry
     estimated scf accuracy    <       0.00004797 Ry

     iteration #  4     ecut=    18.00 Ry     beta=0.70
     Davidson diagonalization with overlap
     ethr =  6.00E-07,  avg # of iterations =  2.4

     total cpu time spent up to now is        0.3 secs

     total energy              =     -19.19538994 Ry
     Harris-Foulkes estimate   =     -19.19539123 Ry
     estimated scf accuracy    <       0.00000403 Ry

     iteration #  5     ecut=    18.00 Ry     beta=0.70
     Davidson diagonalization with overlap
     ethr =  5.04E-08,  avg # of iterations =  2.0

     total cpu time spent up to now is        0.3 secs

     total energy              =     -19.19539065 Ry
     Harris-Foulkes estimate   =     -19.19539068 Ry
     estimated scf accuracy    <       0.00000008 Ry

     iteration #  6     ecut=    18.00 Ry     beta=0.70
     Davidson diagonalization with overlap
     ethr =  9.44E-10,  avg # of iterations =  2.7

     total cpu time spent up to now is        0.3 secs

     End of self-consistent calculation

          k =-0.0714 0.0714 0.0714 (   335 PWs)   bands (ev):

    -5.6483   5.6600   6.2157   6.2157

          k =-0.2143 0.2143-0.0714 (   337 PWs)   bands (ev):

    -5.2921   3.8905   5.2055   6.0614

          k =-0.3571 0.3571-0.2143 (   344 PWs)   bands (ev):

    -4.4451   1.3631   4.7058   5.5100

          k = 0.5000-0.5000 0.6429 (   345 PWs)   bands (ev):

    -3.4242  -0.4814   4.5890   5.0881

          k = 0.3571-0.3571 0.5000 (   344 PWs)   bands (ev):

    -3.7230  -0.0169   4.8184   4.9525

          k = 0.2143-0.2143 0.3571 (   341 PWs)   bands (ev):

    -4.7735   2.1727   5.1591   5.3209

          k = 0.0714-0.0714 0.2143 (   335 PWs)   bands (ev):

    -5.4689   4.7704   5.6812   5.8708

          k =-0.0714 0.3571 0.0714 (   341 PWs)   bands (ev):

    -5.1126   3.7414   5.0293   5.0930

          k =-0.2143 0.5000-0.0714 (   341 PWs)   bands (ev):

    -4.4206   2.0554   3.8815   4.7734

          k = 0.6429-0.3571 0.7857 (   345 PWs)   bands (ev):

    -3.3703   0.0892   3.3400   4.3828

          k = 0.5000-0.2143 0.6429 (   349 PWs)   bands (ev):

    -3.0754  -0.3425   3.0766   4.5137

          k = 0.3571-0.0714 0.5000 (   342 PWs)   bands (ev):

    -4.1013   1.3569   3.2569   5.0655

          k = 0.2143 0.0714 0.3571 (   342 PWs)   bands (ev):

    -4.9408   2.9692   4.5251   5.5747

          k =-0.0714 0.6429 0.0714 (   337 PWs)   bands (ev):

    -3.8877   1.4302   3.7662   3.9778

          k = 0.7857-0.2143 0.9286 (   343 PWs)   bands (ev):

    -2.9193   0.1017   2.9113   3.5699

          k = 0.6429-0.0714 0.7857 (   350 PWs)   bands (ev):

    -2.1736  -0.7151   2.0023   3.7578

          k = 0.5000 0.0714 0.6429 (   346 PWs)   bands (ev):

    -3.0636   0.0911   2.3060   4.3824

          k = 0.3571 0.2143 0.5000 (   344 PWs)   bands (ev):

    -3.9678   0.6628   4.0835   5.0280

          k =-0.0714-1.0714 0.0714 (   344 PWs)   bands (ev):

    -2.0555  -0.9559   3.1916   3.4991

          k =-0.2143-0.9286-0.0714 (   347 PWs)   bands (ev):

    -1.9850  -0.9381   2.6854   3.3414

          k =-0.3571-0.7857-0.2143 (   347 PWs)   bands (ev):

    -2.7145  -0.3715   2.5435   3.9560

          k =-0.5000-0.6429-0.3571 (   348 PWs)   bands (ev):

    -3.1798  -0.6062   3.9783   4.7781

          k =-0.0714-0.7857 0.0714 (   339 PWs)   bands (ev):

    -3.0397   0.2204   3.3824   3.6601

          k =-0.2143-0.6429-0.0714 (   341 PWs)   bands (ev):

    -3.7410   1.1102   3.3297   4.0512

          k =-0.0714-0.5000 0.0714 (   346 PWs)   bands (ev):

    -4.5832   2.6197   4.3438   4.4418

          k =-0.2143 0.2143 0.2143 (   338 PWs)   bands (ev):

    -5.1180   3.0365   5.6853   5.6853

          k =-0.3571 0.3571 0.0714 (   339 PWs)   bands (ev):

    -4.6006   2.1403   3.8611   5.6423

          k = 0.5000-0.5000 0.9286 (   341 PWs)   bands (ev):

    -3.6398   0.6892   2.7026   4.9898

          k = 0.3571-0.3571 0.7857 (   351 PWs)   bands (ev):

    -2.8272  -0.5083   2.7674   4.4297

          k = 0.2143-0.2143 0.6429 (   339 PWs)   bands (ev):

    -3.6103   0.6497   3.4089   4.2260

          k =-0.2143 0.5000 0.2143 (   336 PWs)   bands (ev):

    -4.2660   1.3849   4.3947   4.6472

          k = 0.6429-0.3571 1.0714 (   341 PWs)   bands (ev):

    -3.4577   0.6133   2.7812   4.2069

          k = 0.5000-0.2143 0.9286 (   350 PWs)   bands (ev):

    -2.4231  -0.4465   2.1227   3.5379

          k = 0.3571-0.0714 0.7857 (   346 PWs)   bands (ev):

    -2.6979  -0.1399   2.4617   3.4449

          k =-0.2143-1.2143 0.2143 (   346 PWs)   bands (ev):

    -2.8357  -0.0998   2.6192   3.9318

          k =-0.3571-1.0714 0.0714 (   349 PWs)   bands (ev):

    -1.8848  -0.9261   2.3075   3.0072

          k =-0.5000-0.9286-0.0714 (   348 PWs)   bands (ev):

    -1.8347  -0.9254   2.1783   2.8523

          k =-0.2143-0.9286 0.2143 (   349 PWs)   bands (ev):

    -2.0288  -0.8764   2.1926   3.7812

          k =-0.3571 0.3571 0.3571 (   344 PWs)   bands (ev):

    -4.1438   0.5949   5.2618   5.2618

          k = 0.5000-0.5000 1.2143 (   346 PWs)   bands (ev):

    -3.5519   0.0642   3.5873   5.0324

          k = 0.3571-0.3571 1.0714 (   351 PWs)   bands (ev):

    -2.6074  -0.3658   2.0174   4.3091

          k =-0.3571-1.3571 0.3571 (   347 PWs)   bands (ev):

    -3.2444  -0.4074   3.8121   4.6557

          k =-0.5000-1.2143 0.2143 (   350 PWs)   bands (ev):

    -2.6530  -0.4997   2.5562   3.8875

          k = 0.5000-0.5000-0.5000 (   344 PWs)   bands (ev):

    -3.3588  -0.6939   5.1143   5.1143

     highest occupied level (ev):     6.2157

!    total energy              =     -19.19539068 Ry
     Harris-Foulkes estimate   =     -19.19539068 Ry
     estimated scf accuracy    <          3.8E-09 Ry

     The total energy is the sum of the following terms:

     one-electron contribution =       5.20387659 Ry
     hartree contribution      =       1.11103871 Ry
     xc contribution           =      -8.64361926 Ry
     ewald contribution        =     -16.86668673 Ry

     convergence has been achieved in   6 iterations

     Forces acting on atoms (Ry/au):

     atom    1 type  1   force =    -0.00000000   -0.00000000    0.00000000
     atom    2 type  1   force =    -0.00000000    0.00000000   -0.00000000

     Total force =     0.000000     Total SCF correction =     0.000000


     entering subroutine stress ...

          total   stress  (Ry/bohr**3)                   (kbar)     P=   39.85
   0.00027093  -0.00000000  -0.00000000         39.85     -0.00     -0.00
  -0.00000000   0.00027093   0.00000000         -0.00     39.85      0.00
  -0.00000000   0.00000000   0.00027093         -0.00      0.00     39.85


     Writing output data file silicon.save
 
     init_run     :      0.04s CPU      0.05s WALL (       1 calls)
     electrons    :      0.08s CPU      0.12s WALL (       1 calls)
     forces       :      0.00s CPU      0.00s WALL (       1 calls)
     stress       :      0.01s CPU      0.01s WALL (       1 calls)

     Called by init_run:
     wfcinit      :      0.01s CPU      0.01s WALL (       1 calls)
     potinit      :      0.00s CPU      0.00s WALL (       1 calls)

     Called by electrons:
     c_bands      :      0.04s CPU      0.04s WALL (       7 calls)
     sum_band     :      0.01s CPU      0.02s WALL (       7 calls)
     v_of_rho     :      0.00s CPU      0.01s WALL (       7 calls)
     newd         :      0.01s CPU      0.01s WALL (       7 calls)
     mix_rho      :      0.00s CPU      0.00s WALL (       7 calls)

     Called by c_bands:
     init_us_2    :      0.00s CPU      0.00s WALL (      34 calls)
     cegterg      :      0.03s CPU      0.04s WALL (      14 calls)

     Called by sum_band:
     sum_band:bec :      0.00s CPU      0.00s WALL (      14 calls)
     addusdens    :      0.00s CPU      0.01s WALL (       7 calls)

     Called by *egterg:
     h_psi        :      0.00s CPU      0.01s WALL (      48 calls)
     s_psi        :      0.00s CPU      0.00s WALL (      48 calls)
     g_psi        :      0.00s CPU      0.00s WALL (      32 calls)
     cdiaghg      :      0.01s CPU      0.02s WALL (      44 calls)

     Called by h_psi:
     add_vuspsi   :      0.00s CPU      0.00s WALL (      48 calls)

     General routines
     calbec       :      0.00s CPU      0.00s WALL (      72 calls)
     fft          :      0.00s CPU      0.00s WALL (     118 calls)
     fftw         :      0.00s CPU      0.01s WALL (     402 calls)
     davcio       :      0.00s CPU      0.00s WALL (       2 calls)
 
     Parallel routines
     fft_scatter  :      0.00s CPU      0.01s WALL (     520 calls)
 
     PWSCF        :     0.31s CPU         1.86s WALL

 
   This run was terminated on:   0:47:53   7Apr2018            

=------------------------------------------------------------------------------=
   JOB DONE.
=------------------------------------------------------------------------------=
Application 30443982 resources: utime ~367s, stime ~25s, Rss ~20792, inblocks ~1759014, outblocks ~1400943
