
     Program PWSCF v.5.4.0 starts on  7Apr2018 at  0:48:10 

     This program is part of the open-source Quantum ESPRESSO suite
     for quantum simulation of materials; please cite
         "P. Giannozzi et al., J. Phys.:Condens. Matter 21 395502 (2009);
          URL http://www.quantum-espresso.org", 
     in publications or presentations arising from this work. More details at
     http://www.quantum-espresso.org/quote

     Parallel version (MPI & OpenMP), running on     192 processor cores
     Number of MPI processes:               192
     Threads/MPI process:                     1
     K-points division:     npool     =      24
     R & G space division:  proc/nbgrp/npool/nimage =       8
     Waiting for input...
     Reading input from standard input
     Message from routine read_cards :
     DEPRECATED: no units specified in ATOMIC_POSITIONS card
     Message from routine read_cards :
     ATOMIC_POSITIONS: units set to alat

     Current dimensions of program PWSCF are:
     Max number of different atomic species (ntypx) = 10
     Max number of k-points (npk) =  40000
     Max angular momentum in pseudopotentials (lmaxx) =  3

     Subspace diagonalization in iterative solution of the eigenvalue problem:
     one sub-group per band group will be used
     scalapack distributed-memory algorithm (size of sub-group:  2*  2 procs)

 
     Parallelization info
     --------------------
     sticks:   dense  smooth     PW     G-vecs:    dense   smooth      PW
     Min          31      31     11                  339      339      76
     Max          32      32     12                  343      343      77
     Sum         253     253     91                 2733     2733     609
 


     bravais-lattice index     =            2
     lattice parameter (alat)  =      10.2200  a.u.
     unit-cell volume          =     266.8657 (a.u.)^3
     number of atoms/cell      =            2
     number of atomic types    =            1
     number of electrons       =         8.00
     number of Kohn-Sham states=            4
     kinetic-energy cutoff     =      18.0000  Ry
     charge density cutoff     =      72.0000  Ry
     convergence threshold     =      1.0E-08
     mixing beta               =       0.7000
     number of iterations used =            8  plain     mixing
     Exchange-correlation      = SLA  PW   PBE  PBE ( 1  4  3  4 0 0)

     celldm(1)=  10.220000  celldm(2)=   0.000000  celldm(3)=   0.000000
     celldm(4)=   0.000000  celldm(5)=   0.000000  celldm(6)=   0.000000

     crystal axes: (cart. coord. in units of alat)
               a(1) = (  -0.500000   0.000000   0.500000 )  
               a(2) = (   0.000000   0.500000   0.500000 )  
               a(3) = (  -0.500000   0.500000   0.000000 )  

     reciprocal axes: (cart. coord. in units 2 pi/alat)
               b(1) = ( -1.000000 -1.000000  1.000000 )  
               b(2) = (  1.000000  1.000000  1.000000 )  
               b(3) = ( -1.000000  1.000000 -1.000000 )  


     PseudoPot. # 1 for Si read from file:
     ./si_pbe_v1.uspp.F.UPF.txt
     MD5 check sum: a056efeee980c13900f22a371efd63c1
     Pseudo is Ultrasoft + core correction, Zval =  4.0
     Generated by new atomic code, or converted to UPF format
     Using radial grid of  899 points,  6 beta functions with: 
                l(1) =   0
                l(2) =   0
                l(3) =   1
                l(4) =   1
                l(5) =   2
                l(6) =   2
     Q(r) pseudized with  8 coefficients,  rinner =    0.900   0.900   0.900
                                                       0.900   0.900

     atomic species   valence    mass     pseudopotential
        Si             4.00    28.08600     Si( 1.00)

     48 Sym. Ops., with inversion, found (24 have fractional translation)



   Cartesian axes

     site n.     atom                  positions (alat units)
         1           Si  tau(   1) = (   0.0000000   0.0000000   0.0000000  )
         2           Si  tau(   2) = (   0.2500000   0.2500000   0.2500000  )

     number of k points=    85
                       cart. coord. in units 2pi/alat
        k(    1) = (  -0.0555556   0.0555556   0.0555556), wk =   0.0054870
        k(    2) = (  -0.1666667   0.1666667  -0.0555556), wk =   0.0164609
        k(    3) = (  -0.2777778   0.2777778  -0.1666667), wk =   0.0164609
        k(    4) = (  -0.3888889   0.3888889  -0.2777778), wk =   0.0164609
        k(    5) = (   0.5000000  -0.5000000   0.6111111), wk =   0.0164609
        k(    6) = (   0.3888889  -0.3888889   0.5000000), wk =   0.0164609
        k(    7) = (   0.2777778  -0.2777778   0.3888889), wk =   0.0164609
        k(    8) = (   0.1666667  -0.1666667   0.2777778), wk =   0.0164609
        k(    9) = (   0.0555556  -0.0555556   0.1666667), wk =   0.0164609
        k(   10) = (  -0.0555556   0.2777778   0.0555556), wk =   0.0164609
        k(   11) = (  -0.1666667   0.3888889  -0.0555556), wk =   0.0329218
        k(   12) = (  -0.2777778   0.5000000  -0.1666667), wk =   0.0329218
        k(   13) = (   0.6111111  -0.3888889   0.7222222), wk =   0.0329218
        k(   14) = (   0.5000000  -0.2777778   0.6111111), wk =   0.0329218
        k(   15) = (   0.3888889  -0.1666667   0.5000000), wk =   0.0329218
        k(   16) = (   0.2777778  -0.0555556   0.3888889), wk =   0.0329218
        k(   17) = (   0.1666667   0.0555556   0.2777778), wk =   0.0329218
        k(   18) = (  -0.0555556   0.5000000   0.0555556), wk =   0.0164609
        k(   19) = (  -0.1666667   0.6111111  -0.0555556), wk =   0.0329218
        k(   20) = (   0.7222222  -0.2777778   0.8333333), wk =   0.0329218
        k(   21) = (   0.6111111  -0.1666667   0.7222222), wk =   0.0329218
        k(   22) = (   0.5000000  -0.0555556   0.6111111), wk =   0.0329218
        k(   23) = (   0.3888889   0.0555556   0.5000000), wk =   0.0329218
        k(   24) = (   0.2777778   0.1666667   0.3888889), wk =   0.0329218
        k(   25) = (  -0.0555556   0.7222222   0.0555556), wk =   0.0164609
        k(   26) = (   0.8333333  -0.1666667   0.9444444), wk =   0.0329218
        k(   27) = (   0.7222222  -0.0555556   0.8333333), wk =   0.0329218
        k(   28) = (   0.6111111   0.0555556   0.7222222), wk =   0.0329218
        k(   29) = (   0.5000000   0.1666667   0.6111111), wk =   0.0329218
        k(   30) = (   0.3888889   0.2777778   0.5000000), wk =   0.0329218
        k(   31) = (  -0.0555556  -1.0555556   0.0555556), wk =   0.0164609
        k(   32) = (  -0.1666667  -0.9444444  -0.0555556), wk =   0.0329218
        k(   33) = (  -0.2777778  -0.8333333  -0.1666667), wk =   0.0329218
        k(   34) = (  -0.3888889  -0.7222222  -0.2777778), wk =   0.0329218
        k(   35) = (  -0.5000000  -0.6111111  -0.3888889), wk =   0.0164609
        k(   36) = (  -0.0555556  -0.8333333   0.0555556), wk =   0.0164609
        k(   37) = (  -0.1666667  -0.7222222  -0.0555556), wk =   0.0329218
        k(   38) = (  -0.2777778  -0.6111111  -0.1666667), wk =   0.0329218
        k(   39) = (  -0.0555556  -0.6111111   0.0555556), wk =   0.0164609
        k(   40) = (  -0.1666667  -0.5000000  -0.0555556), wk =   0.0329218
        k(   41) = (  -0.0555556  -0.3888889   0.0555556), wk =   0.0164609
        k(   42) = (  -0.1666667   0.1666667   0.1666667), wk =   0.0054870
        k(   43) = (  -0.2777778   0.2777778   0.0555556), wk =   0.0164609
        k(   44) = (  -0.3888889   0.3888889  -0.0555556), wk =   0.0164609
        k(   45) = (   0.5000000  -0.5000000   0.8333333), wk =   0.0164609
        k(   46) = (   0.3888889  -0.3888889   0.7222222), wk =   0.0164609
        k(   47) = (   0.2777778  -0.2777778   0.6111111), wk =   0.0164609
        k(   48) = (   0.1666667  -0.1666667   0.5000000), wk =   0.0164609
        k(   49) = (  -0.1666667   0.3888889   0.1666667), wk =   0.0164609
        k(   50) = (  -0.2777778   0.5000000   0.0555556), wk =   0.0329218
        k(   51) = (   0.6111111  -0.3888889   0.9444444), wk =   0.0329218
        k(   52) = (   0.5000000  -0.2777778   0.8333333), wk =   0.0329218
        k(   53) = (   0.3888889  -0.1666667   0.7222222), wk =   0.0329218
        k(   54) = (   0.2777778  -0.0555556   0.6111111), wk =   0.0329218
        k(   55) = (  -0.1666667   0.6111111   0.1666667), wk =   0.0164609
        k(   56) = (   0.7222222  -0.2777778   1.0555556), wk =   0.0329218
        k(   57) = (   0.6111111  -0.1666667   0.9444444), wk =   0.0329218
        k(   58) = (   0.5000000  -0.0555556   0.8333333), wk =   0.0329218
        k(   59) = (   0.3888889   0.0555556   0.7222222), wk =   0.0329218
        k(   60) = (  -0.1666667  -1.1666667   0.1666667), wk =   0.0164609
        k(   61) = (  -0.2777778  -1.0555556   0.0555556), wk =   0.0329218
        k(   62) = (  -0.3888889  -0.9444444  -0.0555556), wk =   0.0329218
        k(   63) = (  -0.5000000  -0.8333333  -0.1666667), wk =   0.0164609
        k(   64) = (  -0.1666667  -0.9444444   0.1666667), wk =   0.0164609
        k(   65) = (  -0.2777778  -0.8333333   0.0555556), wk =   0.0329218
        k(   66) = (  -0.1666667  -0.7222222   0.1666667), wk =   0.0164609
        k(   67) = (  -0.2777778   0.2777778   0.2777778), wk =   0.0054870
        k(   68) = (  -0.3888889   0.3888889   0.1666667), wk =   0.0164609
        k(   69) = (   0.5000000  -0.5000000   1.0555556), wk =   0.0164609
        k(   70) = (   0.3888889  -0.3888889   0.9444444), wk =   0.0164609
        k(   71) = (   0.2777778  -0.2777778   0.8333333), wk =   0.0164609
        k(   72) = (  -0.2777778   0.5000000   0.2777778), wk =   0.0164609
        k(   73) = (   0.6111111  -0.3888889   1.1666667), wk =   0.0329218
        k(   74) = (   0.5000000  -0.2777778   1.0555556), wk =   0.0329218
        k(   75) = (   0.3888889  -0.1666667   0.9444444), wk =   0.0329218
        k(   76) = (  -0.2777778  -1.2777778   0.2777778), wk =   0.0164609
        k(   77) = (  -0.3888889  -1.1666667   0.1666667), wk =   0.0329218
        k(   78) = (  -0.5000000  -1.0555556   0.0555556), wk =   0.0164609
        k(   79) = (  -0.2777778  -1.0555556   0.2777778), wk =   0.0164609
        k(   80) = (  -0.3888889   0.3888889   0.3888889), wk =   0.0054870
        k(   81) = (   0.5000000  -0.5000000   1.2777778), wk =   0.0164609
        k(   82) = (   0.3888889  -0.3888889   1.1666667), wk =   0.0164609
        k(   83) = (  -0.3888889  -1.3888889   0.3888889), wk =   0.0164609
        k(   84) = (  -0.5000000  -1.2777778   0.2777778), wk =   0.0164609
        k(   85) = (   0.5000000  -0.5000000  -0.5000000), wk =   0.0027435

     Dense  grid:     2733 G-vectors     FFT dimensions: (  20,  20,  20)

     Largest allocated arrays     est. size (Mb)     dimensions
        Kohn-Sham Wavefunctions         0.00 Mb     (      53,    4)
        NL pseudopotentials             0.03 Mb     (      53,   36)
        Each V/rho on FFT grid          0.02 Mb     (    1200)
        Each G-vector array             0.00 Mb     (     340)
        G-vector shells                 0.00 Mb     (      64)
     Largest temporary arrays     est. size (Mb)     dimensions
        Auxiliary wavefunctions         0.01 Mb     (      53,   16)
        Each subspace H/S matrix        0.00 Mb     (       8,    8)
        Each <psi_i|beta_j> matrix      0.00 Mb     (      36,    4)
        Arrays for rho mixing           0.15 Mb     (    1200,    8)

     Check: negative/imaginary core charge=   -0.000006    0.000000

     Initial potential from superposition of free atoms

     starting charge    7.99866, renormalised to    8.00000
     Starting wfc are    8 randomized atomic wfcs

     total cpu time spent up to now is        0.2 secs

     per-process dynamical memory:     8.9 Mb

     Self-consistent Calculation

     iteration #  1     ecut=    18.00 Ry     beta=0.70
     Davidson diagonalization with overlap
     ethr =  1.00E-02,  avg # of iterations =  2.0

     Threshold (ethr) on eigenvalues was too large:
     Diagonalizing with lowered threshold

     Davidson diagonalization with overlap
     ethr =  7.24E-04,  avg # of iterations =  1.0

     total cpu time spent up to now is        0.2 secs

     total energy              =     -19.19316553 Ry
     Harris-Foulkes estimate   =     -19.20681339 Ry
     estimated scf accuracy    <       0.05754427 Ry

     iteration #  2     ecut=    18.00 Ry     beta=0.70
     Davidson diagonalization with overlap
     ethr =  7.19E-04,  avg # of iterations =  1.0

     total cpu time spent up to now is        0.2 secs

     total energy              =     -19.19505130 Ry
     Harris-Foulkes estimate   =     -19.19522933 Ry
     estimated scf accuracy    <       0.00248695 Ry

     iteration #  3     ecut=    18.00 Ry     beta=0.70
     Davidson diagonalization with overlap
     ethr =  3.11E-05,  avg # of iterations =  2.0

     total cpu time spent up to now is        0.2 secs

     total energy              =     -19.19536486 Ry
     Harris-Foulkes estimate   =     -19.19538229 Ry
     estimated scf accuracy    <       0.00004797 Ry

     iteration #  4     ecut=    18.00 Ry     beta=0.70
     Davidson diagonalization with overlap
     ethr =  6.00E-07,  avg # of iterations =  2.4

     total cpu time spent up to now is        0.3 secs

     total energy              =     -19.19538567 Ry
     Harris-Foulkes estimate   =     -19.19538697 Ry
     estimated scf accuracy    <       0.00000405 Ry

     iteration #  5     ecut=    18.00 Ry     beta=0.70
     Davidson diagonalization with overlap
     ethr =  5.06E-08,  avg # of iterations =  2.0

     total cpu time spent up to now is        0.3 secs

     total energy              =     -19.19538637 Ry
     Harris-Foulkes estimate   =     -19.19538640 Ry
     estimated scf accuracy    <       0.00000007 Ry

     iteration #  6     ecut=    18.00 Ry     beta=0.70
     Davidson diagonalization with overlap
     ethr =  9.24E-10,  avg # of iterations =  2.7

     total cpu time spent up to now is        0.3 secs

     End of self-consistent calculation

          k =-0.0556 0.0556 0.0556 (   335 PWs)   bands (ev):

    -5.6750   5.8945   6.2570   6.2570

          k =-0.1667 0.1667-0.0556 (   336 PWs)   bands (ev):

    -5.4583   4.5863   5.5677   6.1638

          k =-0.2778 0.2778-0.1667 (   343 PWs)   bands (ev):

    -4.9302   2.5481   5.0993   5.7566

          k =-0.3889 0.3889-0.2778 (   346 PWs)   bands (ev):

    -4.1492   0.6897   4.8318   5.3611

          k = 0.5000-0.5000 0.6111 (   345 PWs)   bands (ev):

    -3.4003  -0.5632   4.7759   5.0979

          k = 0.3889-0.3889 0.5000 (   345 PWs)   bands (ev):

    -3.6003  -0.2623   4.9192   5.0115

          k = 0.2778-0.2778 0.3889 (   345 PWs)   bands (ev):

    -4.4290   1.2680   5.1237   5.2352

          k = 0.1667-0.1667 0.2778 (   340 PWs)   bands (ev):

    -5.1385   3.2289   5.4354   5.6709

          k = 0.0556-0.0556 0.1667 (   335 PWs)   bands (ev):

    -5.5662   5.2556   5.8892   6.0437

          k =-0.0556 0.2778 0.0556 (   338 PWs)   bands (ev):

    -5.3497   4.4757   5.3854   5.4975

          k =-0.1667 0.3889-0.0556 (   340 PWs)   bands (ev):

    -4.9232   3.0946   4.5247   5.2722

          k =-0.2778 0.5000-0.1667 (   339 PWs)   bands (ev):

    -4.2151   1.3053   4.0677   4.8648

          k = 0.6111-0.3889 0.7222 (   344 PWs)   bands (ev):

    -3.3851  -0.1723   3.7859   4.6397

          k = 0.5000-0.2778 0.6111 (   350 PWs)   bands (ev):

    -3.1865  -0.4638   3.6264   4.7335

          k = 0.3889-0.1667 0.5000 (   345 PWs)   bands (ev):

    -3.9395   0.7605   3.6639   5.0860

          k = 0.2778-0.0556 0.3889 (   339 PWs)   bands (ev):

    -4.7179   2.4699   4.0169   5.5561

          k = 0.1667 0.0556 0.2778 (   339 PWs)   bands (ev):

    -5.2434   3.8483   5.0529   5.8527

          k =-0.0556 0.5000 0.0556 (   346 PWs)   bands (ev):

    -4.5994   2.6929   4.3658   4.4309

          k =-0.1667 0.6111-0.0556 (   338 PWs)   bands (ev):

    -3.9789   1.5092   3.6133   4.1338

          k = 0.7222-0.2778 0.8333 (   341 PWs)   bands (ev):

    -3.1514   0.1928   2.8794   3.9732

          k = 0.6111-0.1667 0.7222 (   354 PWs)   bands (ev):

    -2.6159  -0.5124   2.3888   4.1317

          k = 0.5000-0.0556 0.6111 (   343 PWs)   bands (ev):

    -3.2009   0.2565   2.3231   4.5482

          k = 0.3889 0.0556 0.5000 (   343 PWs)   bands (ev):

    -4.0169   1.2576   3.0604   5.0915

          k = 0.2778 0.1667 0.3889 (   342 PWs)   bands (ev):

    -4.6206   1.9025   4.6056   5.4292

          k =-0.0556 0.7222 0.0556 (   335 PWs)   bands (ev):

    -3.4479   0.7764   3.6077   3.7690

          k = 0.8333-0.1667 0.9444 (   341 PWs)   bands (ev):

    -2.6692  -0.2087   3.0311   3.4934

          k = 0.7222-0.0556 0.8333 (   349 PWs)   bands (ev):

    -1.9426  -0.9406   2.1530   3.6284

          k = 0.6111 0.0556 0.7222 (   349 PWs)   bands (ev):

    -2.4156  -0.4986   1.9535   4.0350

          k = 0.5000 0.1667 0.6111 (   347 PWs)   bands (ev):

    -3.1860  -0.1028   2.8776   4.6115

          k = 0.3889 0.2778 0.5000 (   346 PWs)   bands (ev):

    -3.7935   0.2030   4.3891   5.0580

          k =-0.0556-1.0556 0.0556 (   342 PWs)   bands (ev):

    -1.9460  -1.0855   3.2818   3.4769

          k =-0.1667-0.9444-0.0556 (   348 PWs)   bands (ev):

    -1.9031  -1.0671   2.9081   3.3712

          k =-0.2778-0.8333-0.1667 (   347 PWs)   bands (ev):

    -2.5319  -0.3816   2.4074   3.7409

          k =-0.3889-0.7222-0.2778 (   349 PWs)   bands (ev):

    -2.9679  -0.4163   3.0640   4.3289

          k =-0.5000-0.6111-0.3889 (   348 PWs)   bands (ev):

    -3.2505  -0.6385   4.3337   4.9096

          k =-0.0556-0.8333 0.0556 (   341 PWs)   bands (ev):

    -2.7368  -0.1723   3.3904   3.5748

          k =-0.1667-0.7222-0.0556 (   338 PWs)   bands (ev):

    -3.3656   0.6602   3.2710   3.7441

          k =-0.2778-0.6111-0.1667 (   343 PWs)   bands (ev):

    -3.7212   0.7447   3.4744   4.3441

          k =-0.0556-0.6111 0.0556 (   339 PWs)   bands (ev):

    -4.0713   1.7394   3.9334   4.0564

          k =-0.1667-0.5000-0.0556 (   341 PWs)   bands (ev):

    -4.5003   2.3199   4.0372   4.6591

          k =-0.0556-0.3889 0.0556 (   340 PWs)   bands (ev):

    -5.0265   3.6139   4.8816   4.8988

          k =-0.1667 0.1667 0.1667 (   338 PWs)   bands (ev):

    -5.3514   3.9367   5.8697   5.8697

          k =-0.2778 0.2778 0.0556 (   337 PWs)   bands (ev):

    -5.0319   3.1546   4.5379   5.9268

          k =-0.3889 0.3889-0.0556 (   339 PWs)   bands (ev):

    -4.4141   1.8495   3.5084   5.5157

          k = 0.5000-0.5000 0.8333 (   347 PWs)   bands (ev):

    -3.5893   0.2840   3.2535   5.0146

          k = 0.3889-0.3889 0.7222 (   347 PWs)   bands (ev):

    -3.0348  -0.5521   3.3683   4.6404

          k = 0.2778-0.2778 0.6111 (   343 PWs)   bands (ev):

    -3.5764   0.2580   3.7479   4.4782

          k = 0.1667-0.1667 0.5000 (   335 PWs)   bands (ev):

    -4.4042   1.8708   4.3191   4.5600

          k =-0.1667 0.3889 0.1667 (   339 PWs)   bands (ev):

    -4.8215   2.5398   4.9793   5.0567

          k =-0.2778 0.5000 0.0556 (   340 PWs)   bands (ev):

    -4.3048   1.8004   3.5482   4.9353

          k = 0.6111-0.3889 0.9444 (   343 PWs)   bands (ev):

    -3.5342   0.6919   2.7027   4.4405

          k = 0.5000-0.2778 0.8333 (   349 PWs)   bands (ev):

    -2.7699  -0.3852   2.5510   4.0421

          k = 0.3889-0.1667 0.7222 (   348 PWs)   bands (ev):

    -2.9654  -0.1279   2.7295   3.9710

          k = 0.2778-0.0556 0.6111 (   341 PWs)   bands (ev):

    -3.7977   1.1298   3.1567   4.2746

          k =-0.1667 0.6111 0.1667 (   341 PWs)   bands (ev):

    -3.8915   1.1960   3.6168   4.2052

          k = 0.7222-0.2778 1.0556 (   342 PWs)   bands (ev):

    -3.2058   0.4352   2.8545   3.7048

          k = 0.6111-0.1667 0.9444 (   347 PWs)   bands (ev):

    -2.3732  -0.4386   2.3229   3.1945

          k = 0.5000-0.0556 0.8333 (   351 PWs)   bands (ev):

    -2.1925  -0.6206   2.1000   3.2506

          k = 0.3889 0.0556 0.7222 (   345 PWs)   bands (ev):

    -2.9793   0.1340   2.4531   3.7613

          k =-0.1667-1.1667 0.1667 (   346 PWs)   bands (ev):

    -2.6181  -0.2694   2.6568   3.7437

          k =-0.2778-1.0556 0.0556 (   347 PWs)   bands (ev):

    -1.8315  -1.0409   2.5441   3.0960

          k =-0.3889-0.9444-0.0556 (   346 PWs)   bands (ev):

    -1.7612  -1.0219   2.2993   2.8471

          k =-0.5000-0.8333-0.1667 (   346 PWs)   bands (ev):

    -2.4075  -0.5542   2.2791   3.5344

          k =-0.1667-0.9444 0.1667 (   351 PWs)   bands (ev):

    -1.9076  -1.0276   2.4640   3.6493

          k =-0.2778-0.8333 0.0556 (   345 PWs)   bands (ev):

    -2.5422  -0.2949   2.6486   3.3012

          k =-0.1667-0.7222 0.1667 (   340 PWs)   bands (ev):

    -3.2916   0.4859   3.0456   3.9305

          k =-0.2778 0.2778 0.2778 (   350 PWs)   bands (ev):

    -4.7279   1.8827   5.4666   5.4666

          k =-0.3889 0.3889 0.1667 (   344 PWs)   bands (ev):

    -4.3243   1.3000   4.1380   5.4657

          k = 0.5000-0.5000 1.0556 (   341 PWs)   bands (ev):

    -3.6446   0.7383   2.6403   4.9874

          k = 0.3889-0.3889 0.9444 (   348 PWs)   bands (ev):

    -2.8177  -0.1451   2.0613   4.4465

          k = 0.2778-0.2778 0.8333 (   350 PWs)   bands (ev):

    -2.5410  -0.4896   2.3202   4.0678

          k =-0.2778 0.5000 0.2778 (   343 PWs)   bands (ev):

    -4.0409   0.7252   4.5600   4.7818

          k = 0.6111-0.3889 1.1667 (   343 PWs)   bands (ev):

    -3.4786   0.2878   3.1965   4.5082

          k = 0.5000-0.2778 1.0556 (   346 PWs)   bands (ev):

    -2.7063  -0.1918   2.1352   3.9041

          k = 0.3889-0.1667 0.9444 (   349 PWs)   bands (ev):

    -2.0379  -0.8003   2.0310   3.4333

          k =-0.2778-1.2778 0.2778 (   348 PWs)   bands (ev):

    -3.0600  -0.1423   2.9612   4.2357

          k =-0.3889-1.1667 0.1667 (   348 PWs)   bands (ev):

    -2.4453  -0.5013   2.3008   3.6066

          k =-0.5000-1.0556 0.0556 (   354 PWs)   bands (ev):

    -1.7316  -1.0167   2.2152   2.7490

          k =-0.2778-1.0556 0.2778 (   347 PWs)   bands (ev):

    -2.1474  -0.7542   1.9512   3.9823

          k =-0.3889 0.3889 0.3889 (   353 PWs)   bands (ev):

    -3.9008   0.1526   5.2035   5.2035

          k = 0.5000-0.5000 1.2778 (   344 PWs)   bands (ev):

    -3.4946  -0.2075   4.0469   5.0579

          k = 0.3889-0.3889 1.1667 (   351 PWs)   bands (ev):

    -2.8800  -0.3810   2.5926   4.5132

          k =-0.3889-1.3889 0.3889 (   344 PWs)   bands (ev):

    -3.2913  -0.5122   4.2010   4.8139

          k =-0.5000-1.2778 0.2778 (   348 PWs)   bands (ev):

    -2.9278  -0.5222   3.1132   4.3304

          k = 0.5000-0.5000-0.5000 (   344 PWs)   bands (ev):

    -3.3588  -0.6939   5.1143   5.1143

     highest occupied level (ev):     6.2570

!    total energy              =     -19.19538641 Ry
     Harris-Foulkes estimate   =     -19.19538641 Ry
     estimated scf accuracy    <          3.6E-09 Ry

     The total energy is the sum of the following terms:

     one-electron contribution =       5.20388418 Ry
     hartree contribution      =       1.11103170 Ry
     xc contribution           =      -8.64361556 Ry
     ewald contribution        =     -16.86668673 Ry

     convergence has been achieved in   6 iterations

     Forces acting on atoms (Ry/au):

     atom    1 type  1   force =     0.00000000    0.00000000   -0.00000000
     atom    2 type  1   force =     0.00000000    0.00000000    0.00000000

     Total force =     0.000000     Total SCF correction =     0.000000


     entering subroutine stress ...

          total   stress  (Ry/bohr**3)                   (kbar)     P=   39.85
   0.00027086   0.00000000   0.00000000         39.85      0.00      0.00
   0.00000000   0.00027086  -0.00000000          0.00     39.85     -0.00
   0.00000000  -0.00000000   0.00027086          0.00     -0.00     39.85


     Writing output data file silicon.save
 
     init_run     :      0.04s CPU      0.05s WALL (       1 calls)
     electrons    :      0.12s CPU      0.23s WALL (       1 calls)
     forces       :      0.00s CPU      0.00s WALL (       1 calls)
     stress       :      0.01s CPU      0.01s WALL (       1 calls)

     Called by init_run:
     wfcinit      :      0.01s CPU      0.01s WALL (       1 calls)
     potinit      :      0.00s CPU      0.00s WALL (       1 calls)

     Called by electrons:
     c_bands      :      0.08s CPU      0.09s WALL (       7 calls)
     sum_band     :      0.02s CPU      0.02s WALL (       7 calls)
     v_of_rho     :      0.01s CPU      0.01s WALL (       7 calls)
     newd         :      0.00s CPU      0.01s WALL (       7 calls)
     mix_rho      :      0.00s CPU      0.00s WALL (       7 calls)

     Called by c_bands:
     init_us_2    :      0.00s CPU      0.00s WALL (      68 calls)
     cegterg      :      0.07s CPU      0.07s WALL (      28 calls)

     Called by sum_band:
     sum_band:bec :      0.00s CPU      0.00s WALL (      28 calls)
     addusdens    :      0.01s CPU      0.01s WALL (       7 calls)

     Called by *egterg:
     h_psi        :      0.03s CPU      0.02s WALL (      93 calls)
     s_psi        :      0.00s CPU      0.00s WALL (      93 calls)
     g_psi        :      0.00s CPU      0.00s WALL (      61 calls)
     cdiaghg      :      0.03s CPU      0.04s WALL (      85 calls)

     Called by h_psi:
     add_vuspsi   :      0.00s CPU      0.00s WALL (      93 calls)

     General routines
     calbec       :      0.00s CPU      0.00s WALL (     141 calls)
     fft          :      0.01s CPU      0.00s WALL (     118 calls)
     fftw         :      0.03s CPU      0.02s WALL (     796 calls)
     davcio       :      0.00s CPU      0.00s WALL (       4 calls)
 
     Parallel routines
     fft_scatter  :      0.02s CPU      0.01s WALL (     914 calls)
 
     PWSCF        :     0.84s CPU         2.75s WALL

 
   This run was terminated on:   0:48:12   7Apr2018            

=------------------------------------------------------------------------------=
   JOB DONE.
=------------------------------------------------------------------------------=
Application 30443984 resources: utime ~534s, stime ~24s, Rss ~20812, inblocks ~1759008, outblocks ~1405823
