
     Program PWSCF v.5.4.0 starts on  9Apr2018 at 16:15:59 

     This program is part of the open-source Quantum ESPRESSO suite
     for quantum simulation of materials; please cite
         "P. Giannozzi et al., J. Phys.:Condens. Matter 21 395502 (2009);
          URL http://www.quantum-espresso.org", 
     in publications or presentations arising from this work. More details at
     http://www.quantum-espresso.org/quote

     Parallel version (MPI & OpenMP), running on     384 processor cores
     Number of MPI processes:               384
     Threads/MPI process:                     1
     K-points division:     npool     =      24
     R & G space division:  proc/nbgrp/npool/nimage =      16
     Waiting for input...
     Reading input from standard input
     Message from routine read_cards :
     DEPRECATED: no units specified in ATOMIC_POSITIONS card
     Message from routine read_cards :
     ATOMIC_POSITIONS: units set to alat

     Current dimensions of program PWSCF are:
     Max number of different atomic species (ntypx) = 10
     Max number of k-points (npk) =  40000
     Max angular momentum in pseudopotentials (lmaxx) =  3

     Subspace diagonalization in iterative solution of the eigenvalue problem:
     one sub-group per band group will be used
     scalapack distributed-memory algorithm (size of sub-group:  2*  2 procs)

 
     Parallelization info
     --------------------
     sticks:   dense  smooth     PW     G-vecs:    dense   smooth      PW
     Min          53      27      9                 1039      367      74
     Max          57      28     10                 1040      378      77
     Sum         859     433    151                16625     5961    1211
 


     bravais-lattice index     =            2
     lattice parameter (alat)  =      10.2200  a.u.
     unit-cell volume          =     266.8657 (a.u.)^3
     number of atoms/cell      =            2
     number of atomic types    =            1
     number of electrons       =         8.00
     number of Kohn-Sham states=            4
     kinetic-energy cutoff     =      30.0000  Ry
     charge density cutoff     =     240.0000  Ry
     convergence threshold     =      1.0E-08
     mixing beta               =       0.7000
     number of iterations used =            8  plain     mixing
     Exchange-correlation      = SLA  PW   PBE  PBE ( 1  4  3  4 0 0)

     celldm(1)=  10.220000  celldm(2)=   0.000000  celldm(3)=   0.000000
     celldm(4)=   0.000000  celldm(5)=   0.000000  celldm(6)=   0.000000

     crystal axes: (cart. coord. in units of alat)
               a(1) = (  -0.500000   0.000000   0.500000 )  
               a(2) = (   0.000000   0.500000   0.500000 )  
               a(3) = (  -0.500000   0.500000   0.000000 )  

     reciprocal axes: (cart. coord. in units 2 pi/alat)
               b(1) = ( -1.000000 -1.000000  1.000000 )  
               b(2) = (  1.000000  1.000000  1.000000 )  
               b(3) = ( -1.000000  1.000000 -1.000000 )  


     PseudoPot. # 1 for Si read from file:
     ./si_pbe_v1.uspp.F.UPF.txt
     MD5 check sum: a056efeee980c13900f22a371efd63c1
     Pseudo is Ultrasoft + core correction, Zval =  4.0
     Generated by new atomic code, or converted to UPF format
     Using radial grid of  899 points,  6 beta functions with: 
                l(1) =   0
                l(2) =   0
                l(3) =   1
                l(4) =   1
                l(5) =   2
                l(6) =   2
     Q(r) pseudized with  8 coefficients,  rinner =    0.900   0.900   0.900
                                                       0.900   0.900

     atomic species   valence    mass     pseudopotential
        Si             4.00    28.08600     Si( 1.00)

     48 Sym. Ops., with inversion, found (24 have fractional translation)



   Cartesian axes

     site n.     atom                  positions (alat units)
         1           Si  tau(   1) = (   0.0000000   0.0000000   0.0000000  )
         2           Si  tau(   2) = (   0.2500000   0.2500000   0.2500000  )

     number of k points=    44
                       cart. coord. in units 2pi/alat
        k(    1) = (  -0.0714286   0.0714286   0.0714286), wk =   0.0116618
        k(    2) = (  -0.2142857   0.2142857  -0.0714286), wk =   0.0349854
        k(    3) = (  -0.3571429   0.3571429  -0.2142857), wk =   0.0349854
        k(    4) = (   0.5000000  -0.5000000   0.6428571), wk =   0.0349854
        k(    5) = (   0.3571429  -0.3571429   0.5000000), wk =   0.0349854
        k(    6) = (   0.2142857  -0.2142857   0.3571429), wk =   0.0349854
        k(    7) = (   0.0714286  -0.0714286   0.2142857), wk =   0.0349854
        k(    8) = (  -0.0714286   0.3571429   0.0714286), wk =   0.0349854
        k(    9) = (  -0.2142857   0.5000000  -0.0714286), wk =   0.0699708
        k(   10) = (   0.6428571  -0.3571429   0.7857143), wk =   0.0699708
        k(   11) = (   0.5000000  -0.2142857   0.6428571), wk =   0.0699708
        k(   12) = (   0.3571429  -0.0714286   0.5000000), wk =   0.0699708
        k(   13) = (   0.2142857   0.0714286   0.3571429), wk =   0.0699708
        k(   14) = (  -0.0714286   0.6428571   0.0714286), wk =   0.0349854
        k(   15) = (   0.7857143  -0.2142857   0.9285714), wk =   0.0699708
        k(   16) = (   0.6428571  -0.0714286   0.7857143), wk =   0.0699708
        k(   17) = (   0.5000000   0.0714286   0.6428571), wk =   0.0699708
        k(   18) = (   0.3571429   0.2142857   0.5000000), wk =   0.0699708
        k(   19) = (  -0.0714286  -1.0714286   0.0714286), wk =   0.0349854
        k(   20) = (  -0.2142857  -0.9285714  -0.0714286), wk =   0.0699708
        k(   21) = (  -0.3571429  -0.7857143  -0.2142857), wk =   0.0699708
        k(   22) = (  -0.5000000  -0.6428571  -0.3571429), wk =   0.0349854
        k(   23) = (  -0.0714286  -0.7857143   0.0714286), wk =   0.0349854
        k(   24) = (  -0.2142857  -0.6428571  -0.0714286), wk =   0.0699708
        k(   25) = (  -0.0714286  -0.5000000   0.0714286), wk =   0.0349854
        k(   26) = (  -0.2142857   0.2142857   0.2142857), wk =   0.0116618
        k(   27) = (  -0.3571429   0.3571429   0.0714286), wk =   0.0349854
        k(   28) = (   0.5000000  -0.5000000   0.9285714), wk =   0.0349854
        k(   29) = (   0.3571429  -0.3571429   0.7857143), wk =   0.0349854
        k(   30) = (   0.2142857  -0.2142857   0.6428571), wk =   0.0349854
        k(   31) = (  -0.2142857   0.5000000   0.2142857), wk =   0.0349854
        k(   32) = (   0.6428571  -0.3571429   1.0714286), wk =   0.0699708
        k(   33) = (   0.5000000  -0.2142857   0.9285714), wk =   0.0699708
        k(   34) = (   0.3571429  -0.0714286   0.7857143), wk =   0.0699708
        k(   35) = (  -0.2142857  -1.2142857   0.2142857), wk =   0.0349854
        k(   36) = (  -0.3571429  -1.0714286   0.0714286), wk =   0.0699708
        k(   37) = (  -0.5000000  -0.9285714  -0.0714286), wk =   0.0349854
        k(   38) = (  -0.2142857  -0.9285714   0.2142857), wk =   0.0349854
        k(   39) = (  -0.3571429   0.3571429   0.3571429), wk =   0.0116618
        k(   40) = (   0.5000000  -0.5000000   1.2142857), wk =   0.0349854
        k(   41) = (   0.3571429  -0.3571429   1.0714286), wk =   0.0349854
        k(   42) = (  -0.3571429  -1.3571429   0.3571429), wk =   0.0349854
        k(   43) = (  -0.5000000  -1.2142857   0.2142857), wk =   0.0349854
        k(   44) = (   0.5000000  -0.5000000  -0.5000000), wk =   0.0058309

     Dense  grid:    16625 G-vectors     FFT dimensions: (  36,  36,  36)

     Smooth grid:     5961 G-vectors     FFT dimensions: (  25,  25,  25)

     Largest allocated arrays     est. size (Mb)     dimensions
        Kohn-Sham Wavefunctions         0.00 Mb     (      51,    4)
        NL pseudopotentials             0.03 Mb     (      51,   36)
        Each V/rho on FFT grid          0.06 Mb     (    3888)
        Each G-vector array             0.01 Mb     (    1040)
        G-vector shells                 0.00 Mb     (     194)
     Largest temporary arrays     est. size (Mb)     dimensions
        Auxiliary wavefunctions         0.01 Mb     (      51,   16)
        Each subspace H/S matrix        0.00 Mb     (       8,    8)
        Each <psi_i|beta_j> matrix      0.00 Mb     (      36,    4)
        Arrays for rho mixing           0.47 Mb     (    3888,    8)

     Initial potential from superposition of free atoms

     starting charge    7.99866, renormalised to    8.00000
     Starting wfc are    8 randomized atomic wfcs

     total cpu time spent up to now is        1.6 secs

     per-process dynamical memory:    10.3 Mb

     Self-consistent Calculation

     iteration #  1     ecut=    30.00 Ry     beta=0.70
     Davidson diagonalization with overlap
     ethr =  1.00E-02,  avg # of iterations =  2.0

     Threshold (ethr) on eigenvalues was too large:
     Diagonalizing with lowered threshold

     Davidson diagonalization with overlap
     ethr =  7.14E-04,  avg # of iterations =  1.0

     total cpu time spent up to now is        1.7 secs

     total energy              =     -19.19005066 Ry
     Harris-Foulkes estimate   =     -19.20388534 Ry
     estimated scf accuracy    <       0.05659352 Ry

     iteration #  2     ecut=    30.00 Ry     beta=0.70
     Davidson diagonalization with overlap
     ethr =  7.07E-04,  avg # of iterations =  1.0

     total cpu time spent up to now is        1.7 secs

     total energy              =     -19.19204302 Ry
     Harris-Foulkes estimate   =     -19.19221168 Ry
     estimated scf accuracy    <       0.00243992 Ry

     iteration #  3     ecut=    30.00 Ry     beta=0.70
     Davidson diagonalization with overlap
     ethr =  3.05E-05,  avg # of iterations =  2.1

     total cpu time spent up to now is        1.7 secs

     total energy              =     -19.19240582 Ry
     Harris-Foulkes estimate   =     -19.19242091 Ry
     estimated scf accuracy    <       0.00004727 Ry

     iteration #  4     ecut=    30.00 Ry     beta=0.70
     Davidson diagonalization with overlap
     ethr =  5.91E-07,  avg # of iterations =  3.3

     total cpu time spent up to now is        1.8 secs

     total energy              =     -19.19244744 Ry
     Harris-Foulkes estimate   =     -19.19244869 Ry
     estimated scf accuracy    <       0.00000427 Ry

     iteration #  5     ecut=    30.00 Ry     beta=0.70
     Davidson diagonalization with overlap
     ethr =  5.34E-08,  avg # of iterations =  2.0

     total cpu time spent up to now is        1.8 secs

     total energy              =     -19.19244801 Ry
     Harris-Foulkes estimate   =     -19.19244801 Ry
     estimated scf accuracy    <       0.00000001 Ry

     iteration #  6     ecut=    30.00 Ry     beta=0.70
     Davidson diagonalization with overlap
     ethr =  1.72E-10,  avg # of iterations =  3.8

     total cpu time spent up to now is        1.9 secs

     End of self-consistent calculation

          k =-0.0714 0.0714 0.0714 (   731 PWs)   bands (ev):

    -5.6544   5.6573   6.2130   6.2130

          k =-0.2143 0.2143-0.0714 (   744 PWs)   bands (ev):

    -5.2975   3.8872   5.2010   6.0594

          k =-0.3571 0.3571-0.2143 (   748 PWs)   bands (ev):

    -4.4491   1.3587   4.7019   5.5085

          k = 0.5000-0.5000 0.6429 (   745 PWs)   bands (ev):

    -3.4257  -0.4897   4.5855   5.0866

          k = 0.3571-0.3571 0.5000 (   746 PWs)   bands (ev):

    -3.7254  -0.0239   4.8151   4.9503

          k = 0.2143-0.2143 0.3571 (   747 PWs)   bands (ev):

    -4.7783   2.1687   5.1564   5.3180

          k = 0.0714-0.0714 0.2143 (   736 PWs)   bands (ev):

    -5.4748   4.7676   5.6781   5.8681

          k =-0.0714 0.3571 0.0714 (   744 PWs)   bands (ev):

    -5.1177   3.7410   5.0258   5.0894

          k =-0.2143 0.5000-0.0714 (   740 PWs)   bands (ev):

    -4.4248   2.0551   3.8745   4.7699

          k = 0.6429-0.3571 0.7857 (   737 PWs)   bands (ev):

    -3.3726   0.0848   3.3327   4.3786

          k = 0.5000-0.2143 0.6429 (   741 PWs)   bands (ev):

    -3.0766  -0.3481   3.0688   4.5100

          k = 0.3571-0.0714 0.5000 (   745 PWs)   bands (ev):

    -4.1052   1.3554   3.2477   5.0628

          k = 0.2143 0.0714 0.3571 (   745 PWs)   bands (ev):

    -4.9456   2.9677   4.5194   5.5726

          k =-0.0714 0.6429 0.0714 (   740 PWs)   bands (ev):

    -3.8922   1.4317   3.7602   3.9741

          k = 0.7857-0.2143 0.9286 (   742 PWs)   bands (ev):

    -2.9218   0.1026   2.9017   3.5639

          k = 0.6429-0.0714 0.7857 (   733 PWs)   bands (ev):

    -2.1737  -0.7154   1.9887   3.7523

          k = 0.5000 0.0714 0.6429 (   742 PWs)   bands (ev):

    -3.0654   0.0894   2.2939   4.3779

          k = 0.3571 0.2143 0.5000 (   747 PWs)   bands (ev):

    -3.9712   0.6579   4.0780   5.0256

          k =-0.0714-1.0714 0.0714 (   740 PWs)   bands (ev):

    -2.0572  -0.9560   3.1851   3.4952

          k =-0.2143-0.9286-0.0714 (   738 PWs)   bands (ev):

    -1.9858  -0.9380   2.6751   3.3351

          k =-0.3571-0.7857-0.2143 (   735 PWs)   bands (ev):

    -2.7159  -0.3739   2.5331   3.9509

          k =-0.5000-0.6429-0.3571 (   742 PWs)   bands (ev):

    -3.1805  -0.6144   3.9731   4.7755

          k =-0.0714-0.7857 0.0714 (   743 PWs)   bands (ev):

    -3.0429   0.2209   3.3760   3.6563

          k =-0.2143-0.6429-0.0714 (   745 PWs)   bands (ev):

    -3.7448   1.1108   3.3213   4.0463

          k =-0.0714-0.5000 0.0714 (   735 PWs)   bands (ev):

    -4.5876   2.6217   4.3392   4.4383

          k =-0.2143 0.2143 0.2143 (   745 PWs)   bands (ev):

    -5.1233   3.0317   5.6829   5.6829

          k =-0.3571 0.3571 0.0714 (   743 PWs)   bands (ev):

    -4.6053   2.1383   3.8532   5.6410

          k = 0.5000-0.5000 0.9286 (   746 PWs)   bands (ev):

    -3.6430   0.6868   2.6918   4.9873

          k = 0.3571-0.3571 0.7857 (   737 PWs)   bands (ev):

    -2.8281  -0.5131   2.7588   4.4268

          k = 0.2143-0.2143 0.6429 (   749 PWs)   bands (ev):

    -3.6137   0.6472   3.4011   4.2227

          k =-0.2143 0.5000 0.2143 (   740 PWs)   bands (ev):

    -4.2702   1.3810   4.3895   4.6440

          k = 0.6429-0.3571 1.0714 (   742 PWs)   bands (ev):

    -3.4607   0.6121   2.7707   4.2012

          k = 0.5000-0.2143 0.9286 (   734 PWs)   bands (ev):

    -2.4237  -0.4466   2.1099   3.5300

          k = 0.3571-0.0714 0.7857 (   740 PWs)   bands (ev):

    -2.6997  -0.1394   2.4501   3.4367

          k =-0.2143-1.2143 0.2143 (   742 PWs)   bands (ev):

    -2.8375  -0.1002   2.6081   3.9283

          k =-0.3571-1.0714 0.0714 (   737 PWs)   bands (ev):

    -1.8848  -0.9252   2.2950   2.9976

          k =-0.5000-0.9286-0.0714 (   734 PWs)   bands (ev):

    -1.8341  -0.9249   2.1651   2.8412

          k =-0.2143-0.9286 0.2143 (   741 PWs)   bands (ev):

    -2.0290  -0.8766   2.1795   3.7776

          k =-0.3571 0.3571 0.3571 (   751 PWs)   bands (ev):

    -4.1468   0.5891   5.2599   5.2599

          k = 0.5000-0.5000 1.2143 (   742 PWs)   bands (ev):

    -3.5540   0.0583   3.5806   5.0301

          k = 0.3571-0.3571 1.0714 (   729 PWs)   bands (ev):

    -2.6083  -0.3668   2.0044   4.3061

          k =-0.3571-1.3571 0.3571 (   744 PWs)   bands (ev):

    -3.2455  -0.4145   3.8060   4.6530

          k =-0.5000-1.2143 0.2143 (   734 PWs)   bands (ev):

    -2.6538  -0.5034   2.5465   3.8810

          k = 0.5000-0.5000-0.5000 (   754 PWs)   bands (ev):

    -3.3601  -0.7034   5.1130   5.1130

     highest occupied level (ev):     6.2130

!    total energy              =     -19.19244805 Ry
     Harris-Foulkes estimate   =     -19.19244805 Ry
     estimated scf accuracy    <          1.0E-09 Ry

     The total energy is the sum of the following terms:

     one-electron contribution =       5.20548558 Ry
     hartree contribution      =       1.10486729 Ry
     xc contribution           =      -8.63611428 Ry
     ewald contribution        =     -16.86668664 Ry

     convergence has been achieved in   6 iterations

     Forces acting on atoms (Ry/au):

     atom    1 type  1   force =    -0.00000000   -0.00000000   -0.00000000
     atom    2 type  1   force =     0.00000000    0.00000000    0.00000000

     Total force =     0.000000     Total SCF correction =     0.000000


     entering subroutine stress ...

          total   stress  (Ry/bohr**3)                   (kbar)     P=   31.28
   0.00021264  -0.00000000  -0.00000000         31.28     -0.00     -0.00
  -0.00000000   0.00021264   0.00000000         -0.00     31.28      0.00
  -0.00000000   0.00000000   0.00021264         -0.00      0.00     31.28


     Writing output data file silicon.save
 
     init_run     :      0.06s CPU      0.08s WALL (       1 calls)
     electrons    :      0.27s CPU      0.29s WALL (       1 calls)
     forces       :      0.01s CPU      0.01s WALL (       1 calls)
     stress       :      0.03s CPU      0.04s WALL (       1 calls)

     Called by init_run:
     wfcinit      :      0.00s CPU      0.01s WALL (       1 calls)
     potinit      :      0.00s CPU      0.01s WALL (       1 calls)

     Called by electrons:
     c_bands      :      0.12s CPU      0.12s WALL (       7 calls)
     sum_band     :      0.06s CPU      0.06s WALL (       7 calls)
     v_of_rho     :      0.02s CPU      0.02s WALL (       7 calls)
     newd         :      0.03s CPU      0.03s WALL (       7 calls)
     mix_rho      :      0.00s CPU      0.00s WALL (       7 calls)

     Called by c_bands:
     init_us_2    :      0.00s CPU      0.00s WALL (      34 calls)
     cegterg      :      0.06s CPU      0.05s WALL (      14 calls)

     Called by sum_band:
     sum_band:bec :      0.00s CPU      0.00s WALL (      14 calls)
     addusdens    :      0.04s CPU      0.04s WALL (       7 calls)

     Called by *egterg:
     h_psi        :      0.02s CPU      0.02s WALL (      50 calls)
     s_psi        :      0.00s CPU      0.00s WALL (      50 calls)
     g_psi        :      0.00s CPU      0.00s WALL (      34 calls)
     cdiaghg      :      0.04s CPU      0.02s WALL (      46 calls)

     Called by h_psi:
     add_vuspsi   :      0.00s CPU      0.00s WALL (      50 calls)

     General routines
     calbec       :      0.00s CPU      0.00s WALL (      74 calls)
     fft          :      0.02s CPU      0.02s WALL (     137 calls)
     ffts         :      0.00s CPU      0.00s WALL (      14 calls)
     fftw         :      0.02s CPU      0.02s WALL (     418 calls)
     interpolate  :      0.00s CPU      0.00s WALL (      14 calls)
     davcio       :      0.00s CPU      0.00s WALL (       2 calls)
 
     Parallel routines
     fft_scatter  :      0.01s CPU      0.02s WALL (     569 calls)
 
     PWSCF        :     2.06s CPU         6.41s WALL

 
   This run was terminated on:  16:16: 5   9Apr2018            

=------------------------------------------------------------------------------=
   JOB DONE.
=------------------------------------------------------------------------------=
Application 30462862 resources: utime ~2450s, stime ~50s, Rss ~24848, inblocks ~3539498, outblocks ~2802771
