
     Program PWSCF v.5.4.0 starts on  7Apr2018 at  0:54:43 

     This program is part of the open-source Quantum ESPRESSO suite
     for quantum simulation of materials; please cite
         "P. Giannozzi et al., J. Phys.:Condens. Matter 21 395502 (2009);
          URL http://www.quantum-espresso.org", 
     in publications or presentations arising from this work. More details at
     http://www.quantum-espresso.org/quote

     Parallel version (MPI & OpenMP), running on     192 processor cores
     Number of MPI processes:               192
     Threads/MPI process:                     1
     K-points division:     npool     =      24
     R & G space division:  proc/nbgrp/npool/nimage =       8
     Waiting for input...
     Reading input from standard input
     Message from routine read_cards :
     DEPRECATED: no units specified in ATOMIC_POSITIONS card
     Message from routine read_cards :
     ATOMIC_POSITIONS: units set to alat

     Current dimensions of program PWSCF are:
     Max number of different atomic species (ntypx) = 10
     Max number of k-points (npk) =  40000
     Max angular momentum in pseudopotentials (lmaxx) =  3

     Subspace diagonalization in iterative solution of the eigenvalue problem:
     one sub-group per band group will be used
     scalapack distributed-memory algorithm (size of sub-group:  2*  2 procs)

 
     Parallelization info
     --------------------
     sticks:   dense  smooth     PW     G-vecs:    dense   smooth      PW
     Min          31      31     12                  339      339      80
     Max          32      32     13                  343      343      81
     Sum         253     253     97                 2733     2733     645
 


     bravais-lattice index     =            2
     lattice parameter (alat)  =      10.2200  a.u.
     unit-cell volume          =     266.8657 (a.u.)^3
     number of atoms/cell      =            2
     number of atomic types    =            1
     number of electrons       =         8.00
     number of Kohn-Sham states=            4
     kinetic-energy cutoff     =      18.0000  Ry
     charge density cutoff     =      72.0000  Ry
     convergence threshold     =      1.0E-08
     mixing beta               =       0.7000
     number of iterations used =            8  plain     mixing
     Exchange-correlation      = SLA  PW   PBE  PBE ( 1  4  3  4 0 0)

     celldm(1)=  10.220000  celldm(2)=   0.000000  celldm(3)=   0.000000
     celldm(4)=   0.000000  celldm(5)=   0.000000  celldm(6)=   0.000000

     crystal axes: (cart. coord. in units of alat)
               a(1) = (  -0.500000   0.000000   0.500000 )  
               a(2) = (   0.000000   0.500000   0.500000 )  
               a(3) = (  -0.500000   0.500000   0.000000 )  

     reciprocal axes: (cart. coord. in units 2 pi/alat)
               b(1) = ( -1.000000 -1.000000  1.000000 )  
               b(2) = (  1.000000  1.000000  1.000000 )  
               b(3) = ( -1.000000  1.000000 -1.000000 )  


     PseudoPot. # 1 for Si read from file:
     ./si_pbe_v1.uspp.F.UPF.txt
     MD5 check sum: a056efeee980c13900f22a371efd63c1
     Pseudo is Ultrasoft + core correction, Zval =  4.0
     Generated by new atomic code, or converted to UPF format
     Using radial grid of  899 points,  6 beta functions with: 
                l(1) =   0
                l(2) =   0
                l(3) =   1
                l(4) =   1
                l(5) =   2
                l(6) =   2
     Q(r) pseudized with  8 coefficients,  rinner =    0.900   0.900   0.900
                                                       0.900   0.900

     atomic species   valence    mass     pseudopotential
        Si             4.00    28.08600     Si( 1.00)

     48 Sym. Ops., with inversion, found (24 have fractional translation)



   Cartesian axes

     site n.     atom                  positions (alat units)
         1           Si  tau(   1) = (   0.0000000   0.0000000   0.0000000  )
         2           Si  tau(   2) = (   0.2500000   0.2500000   0.2500000  )

     number of k points=  1300

     Number of k-points >= 100: set verbosity='high' to print them.

     Dense  grid:     2733 G-vectors     FFT dimensions: (  20,  20,  20)

     Largest allocated arrays     est. size (Mb)     dimensions
        Kohn-Sham Wavefunctions         0.00 Mb     (      52,    4)
        NL pseudopotentials             0.03 Mb     (      52,   36)
        Each V/rho on FFT grid          0.02 Mb     (    1200)
        Each G-vector array             0.00 Mb     (     340)
        G-vector shells                 0.00 Mb     (      63)
     Largest temporary arrays     est. size (Mb)     dimensions
        Auxiliary wavefunctions         0.01 Mb     (      52,   16)
        Each subspace H/S matrix        0.00 Mb     (       8,    8)
        Each <psi_i|beta_j> matrix      0.00 Mb     (      36,    4)
        Arrays for rho mixing           0.15 Mb     (    1200,    8)

     Check: negative/imaginary core charge=   -0.000006    0.000000

     Initial potential from superposition of free atoms

     starting charge    7.99866, renormalised to    8.00000
     Starting wfc are    8 randomized atomic wfcs

     total cpu time spent up to now is        0.3 secs

     per-process dynamical memory:     9.0 Mb

     Self-consistent Calculation

     iteration #  1     ecut=    18.00 Ry     beta=0.70
     Davidson diagonalization with overlap
     ethr =  1.00E-02,  avg # of iterations =  2.0

     Threshold (ethr) on eigenvalues was too large:
     Diagonalizing with lowered threshold

     Davidson diagonalization with overlap
     ethr =  7.24E-04,  avg # of iterations =  1.0

     total cpu time spent up to now is        0.6 secs

     total energy              =     -19.19316149 Ry
     Harris-Foulkes estimate   =     -19.20681124 Ry
     estimated scf accuracy    <       0.05755762 Ry

     iteration #  2     ecut=    18.00 Ry     beta=0.70
     Davidson diagonalization with overlap
     ethr =  7.19E-04,  avg # of iterations =  1.0

     total cpu time spent up to now is        0.7 secs

     total energy              =     -19.19504738 Ry
     Harris-Foulkes estimate   =     -19.19522522 Ry
     estimated scf accuracy    <       0.00248461 Ry

     iteration #  3     ecut=    18.00 Ry     beta=0.70
     Davidson diagonalization with overlap
     ethr =  3.11E-05,  avg # of iterations =  2.0

     total cpu time spent up to now is        0.8 secs

     total energy              =     -19.19536185 Ry
     Harris-Foulkes estimate   =     -19.19537946 Ry
     estimated scf accuracy    <       0.00004824 Ry

     iteration #  4     ecut=    18.00 Ry     beta=0.70
     Davidson diagonalization with overlap
     ethr =  6.03E-07,  avg # of iterations =  2.4

     total cpu time spent up to now is        1.1 secs

     total energy              =     -19.19538199 Ry
     Harris-Foulkes estimate   =     -19.19538335 Ry
     estimated scf accuracy    <       0.00000422 Ry

     iteration #  5     ecut=    18.00 Ry     beta=0.70
     Davidson diagonalization with overlap
     ethr =  5.28E-08,  avg # of iterations =  2.1

     total cpu time spent up to now is        1.3 secs

     total energy              =     -19.19538272 Ry
     Harris-Foulkes estimate   =     -19.19538275 Ry
     estimated scf accuracy    <       0.00000007 Ry

     iteration #  6     ecut=    18.00 Ry     beta=0.70
     Davidson diagonalization with overlap
     ethr =  9.36E-10,  avg # of iterations =  2.7

     total cpu time spent up to now is        1.6 secs

     End of self-consistent calculation

     Number of k-points >= 100: set verbosity='high' to print the bands.

     highest occupied level (ev):     6.3157

!    total energy              =     -19.19538276 Ry
     Harris-Foulkes estimate   =     -19.19538276 Ry
     estimated scf accuracy    <          3.6E-09 Ry

     The total energy is the sum of the following terms:

     one-electron contribution =       5.20388852 Ry
     hartree contribution      =       1.11102929 Ry
     xc contribution           =      -8.64361384 Ry
     ewald contribution        =     -16.86668673 Ry

     convergence has been achieved in   6 iterations

     Forces acting on atoms (Ry/au):

     atom    1 type  1   force =    -0.00000000   -0.00000000    0.00000000
     atom    2 type  1   force =     0.00000000    0.00000000   -0.00000000

     Total force =     0.000000     Total SCF correction =     0.000000


     entering subroutine stress ...

          total   stress  (Ry/bohr**3)                   (kbar)     P=   39.84
   0.00027081   0.00000000   0.00000000         39.84      0.00      0.00
   0.00000000   0.00027081   0.00000000          0.00     39.84      0.00
   0.00000000   0.00000000   0.00027081          0.00      0.00     39.84


     Writing output data file silicon.save
 
     init_run     :      0.11s CPU      0.11s WALL (       1 calls)
     electrons    :      1.16s CPU      1.31s WALL (       1 calls)
     forces       :      0.01s CPU      0.02s WALL (       1 calls)
     stress       :      0.03s CPU      0.03s WALL (       1 calls)

     Called by init_run:
     wfcinit      :      0.06s CPU      0.06s WALL (       1 calls)
     potinit      :      0.00s CPU      0.00s WALL (       1 calls)

     Called by electrons:
     c_bands      :      1.06s CPU      1.18s WALL (       7 calls)
     sum_band     :      0.08s CPU      0.08s WALL (       7 calls)
     v_of_rho     :      0.00s CPU      0.01s WALL (       7 calls)
     newd         :      0.01s CPU      0.01s WALL (       7 calls)
     mix_rho      :      0.00s CPU      0.00s WALL (       7 calls)

     Called by c_bands:
     init_us_2    :      0.02s CPU      0.02s WALL (     935 calls)
     cegterg      :      0.88s CPU      0.93s WALL (     385 calls)

     Called by sum_band:
     sum_band:bec :      0.00s CPU      0.00s WALL (     385 calls)
     addusdens    :      0.02s CPU      0.01s WALL (       7 calls)

     Called by *egterg:
     h_psi        :      0.24s CPU      0.32s WALL (    1255 calls)
     s_psi        :      0.02s CPU      0.01s WALL (    1255 calls)
     g_psi        :      0.00s CPU      0.00s WALL (     815 calls)
     cdiaghg      :      0.52s CPU      0.52s WALL (    1145 calls)

     Called by h_psi:
     add_vuspsi   :      0.00s CPU      0.02s WALL (    1255 calls)

     General routines
     calbec       :      0.04s CPU      0.05s WALL (    1915 calls)
     fft          :      0.00s CPU      0.00s WALL (     118 calls)
     fftw         :      0.21s CPU      0.27s WALL (   10886 calls)
     davcio       :      0.00s CPU      0.02s WALL (      55 calls)
 
     Parallel routines
     fft_scatter  :      0.10s CPU      0.14s WALL (   11004 calls)
 
     PWSCF        :     2.93s CPU        42.53s WALL

 
   This run was terminated on:   0:55:26   7Apr2018            

=------------------------------------------------------------------------------=
   JOB DONE.
=------------------------------------------------------------------------------=
Application 30444005 resources: utime ~8079s, stime ~33s, Rss ~21152, inblocks ~1759014, outblocks ~1461519
