
     Program PWSCF v.5.4.0 starts on  7Apr2018 at  0:47:43 

     This program is part of the open-source Quantum ESPRESSO suite
     for quantum simulation of materials; please cite
         "P. Giannozzi et al., J. Phys.:Condens. Matter 21 395502 (2009);
          URL http://www.quantum-espresso.org", 
     in publications or presentations arising from this work. More details at
     http://www.quantum-espresso.org/quote

     Parallel version (MPI & OpenMP), running on     192 processor cores
     Number of MPI processes:               192
     Threads/MPI process:                     1
     K-points division:     npool     =      24
     R & G space division:  proc/nbgrp/npool/nimage =       8
     Waiting for input...
     Reading input from standard input
     Message from routine read_cards :
     DEPRECATED: no units specified in ATOMIC_POSITIONS card
     Message from routine read_cards :
     ATOMIC_POSITIONS: units set to alat

     Current dimensions of program PWSCF are:
     Max number of different atomic species (ntypx) = 10
     Max number of k-points (npk) =  40000
     Max angular momentum in pseudopotentials (lmaxx) =  3

     Subspace diagonalization in iterative solution of the eigenvalue problem:
     one sub-group per band group will be used
     scalapack distributed-memory algorithm (size of sub-group:  2*  2 procs)

 
     Parallelization info
     --------------------
     sticks:   dense  smooth     PW     G-vecs:    dense   smooth      PW
     Min          31      31     11                  339      339      76
     Max          32      32     12                  343      343      77
     Sum         253     253     91                 2733     2733     609
 


     bravais-lattice index     =            2
     lattice parameter (alat)  =      10.2200  a.u.
     unit-cell volume          =     266.8657 (a.u.)^3
     number of atoms/cell      =            2
     number of atomic types    =            1
     number of electrons       =         8.00
     number of Kohn-Sham states=            4
     kinetic-energy cutoff     =      18.0000  Ry
     charge density cutoff     =      72.0000  Ry
     convergence threshold     =      1.0E-08
     mixing beta               =       0.7000
     number of iterations used =            8  plain     mixing
     Exchange-correlation      = SLA  PW   PBE  PBE ( 1  4  3  4 0 0)

     celldm(1)=  10.220000  celldm(2)=   0.000000  celldm(3)=   0.000000
     celldm(4)=   0.000000  celldm(5)=   0.000000  celldm(6)=   0.000000

     crystal axes: (cart. coord. in units of alat)
               a(1) = (  -0.500000   0.000000   0.500000 )  
               a(2) = (   0.000000   0.500000   0.500000 )  
               a(3) = (  -0.500000   0.500000   0.000000 )  

     reciprocal axes: (cart. coord. in units 2 pi/alat)
               b(1) = ( -1.000000 -1.000000  1.000000 )  
               b(2) = (  1.000000  1.000000  1.000000 )  
               b(3) = ( -1.000000  1.000000 -1.000000 )  


     PseudoPot. # 1 for Si read from file:
     ./si_pbe_v1.uspp.F.UPF.txt
     MD5 check sum: a056efeee980c13900f22a371efd63c1
     Pseudo is Ultrasoft + core correction, Zval =  4.0
     Generated by new atomic code, or converted to UPF format
     Using radial grid of  899 points,  6 beta functions with: 
                l(1) =   0
                l(2) =   0
                l(3) =   1
                l(4) =   1
                l(5) =   2
                l(6) =   2
     Q(r) pseudized with  8 coefficients,  rinner =    0.900   0.900   0.900
                                                       0.900   0.900

     atomic species   valence    mass     pseudopotential
        Si             4.00    28.08600     Si( 1.00)

     48 Sym. Ops., with inversion, found (24 have fractional translation)



   Cartesian axes

     site n.     atom                  positions (alat units)
         1           Si  tau(   1) = (   0.0000000   0.0000000   0.0000000  )
         2           Si  tau(   2) = (   0.2500000   0.2500000   0.2500000  )

     number of k points=    28
                       cart. coord. in units 2pi/alat
        k(    1) = (  -0.0833333   0.0833333   0.0833333), wk =   0.0185185
        k(    2) = (  -0.2500000   0.2500000  -0.0833333), wk =   0.0555556
        k(    3) = (  -0.4166667   0.4166667  -0.2500000), wk =   0.0555556
        k(    4) = (   0.4166667  -0.4166667   0.5833333), wk =   0.0555556
        k(    5) = (   0.2500000  -0.2500000   0.4166667), wk =   0.0555556
        k(    6) = (   0.0833333  -0.0833333   0.2500000), wk =   0.0555556
        k(    7) = (  -0.0833333   0.4166667   0.0833333), wk =   0.0555556
        k(    8) = (  -0.2500000   0.5833333  -0.0833333), wk =   0.1111111
        k(    9) = (   0.5833333  -0.2500000   0.7500000), wk =   0.1111111
        k(   10) = (   0.4166667  -0.0833333   0.5833333), wk =   0.1111111
        k(   11) = (   0.2500000   0.0833333   0.4166667), wk =   0.1111111
        k(   12) = (  -0.0833333   0.7500000   0.0833333), wk =   0.0555556
        k(   13) = (   0.7500000  -0.0833333   0.9166667), wk =   0.1111111
        k(   14) = (   0.5833333   0.0833333   0.7500000), wk =   0.1111111
        k(   15) = (   0.4166667   0.2500000   0.5833333), wk =   0.1111111
        k(   16) = (  -0.0833333  -0.9166667   0.0833333), wk =   0.0555556
        k(   17) = (  -0.2500000  -0.7500000  -0.0833333), wk =   0.1111111
        k(   18) = (  -0.0833333  -0.5833333   0.0833333), wk =   0.0555556
        k(   19) = (  -0.2500000   0.2500000   0.2500000), wk =   0.0185185
        k(   20) = (  -0.4166667   0.4166667   0.0833333), wk =   0.0555556
        k(   21) = (   0.4166667  -0.4166667   0.9166667), wk =   0.0555556
        k(   22) = (   0.2500000  -0.2500000   0.7500000), wk =   0.0555556
        k(   23) = (  -0.2500000   0.5833333   0.2500000), wk =   0.0555556
        k(   24) = (   0.5833333  -0.2500000   1.0833333), wk =   0.1111111
        k(   25) = (   0.4166667  -0.0833333   0.9166667), wk =   0.1111111
        k(   26) = (  -0.2500000  -1.0833333   0.2500000), wk =   0.0555556
        k(   27) = (  -0.4166667   0.4166667   0.4166667), wk =   0.0185185
        k(   28) = (   0.4166667  -0.4166667   1.2500000), wk =   0.0555556

     Dense  grid:     2733 G-vectors     FFT dimensions: (  20,  20,  20)

     Largest allocated arrays     est. size (Mb)     dimensions
        Kohn-Sham Wavefunctions         0.00 Mb     (      49,    4)
        NL pseudopotentials             0.03 Mb     (      49,   36)
        Each V/rho on FFT grid          0.02 Mb     (    1200)
        Each G-vector array             0.00 Mb     (     340)
        G-vector shells                 0.00 Mb     (      64)
     Largest temporary arrays     est. size (Mb)     dimensions
        Auxiliary wavefunctions         0.01 Mb     (      49,   16)
        Each subspace H/S matrix        0.00 Mb     (       8,    8)
        Each <psi_i|beta_j> matrix      0.00 Mb     (      36,    4)
        Arrays for rho mixing           0.15 Mb     (    1200,    8)

     Check: negative/imaginary core charge=   -0.000006    0.000000

     Initial potential from superposition of free atoms

     starting charge    7.99866, renormalised to    8.00000
     Starting wfc are    8 randomized atomic wfcs

     total cpu time spent up to now is        0.2 secs

     per-process dynamical memory:     8.9 Mb

     Self-consistent Calculation

     iteration #  1     ecut=    18.00 Ry     beta=0.70
     Davidson diagonalization with overlap
     ethr =  1.00E-02,  avg # of iterations =  2.0

     Threshold (ethr) on eigenvalues was too large:
     Diagonalizing with lowered threshold

     Davidson diagonalization with overlap
     ethr =  7.23E-04,  avg # of iterations =  1.0

     total cpu time spent up to now is        0.2 secs

     total energy              =     -19.19315434 Ry
     Harris-Foulkes estimate   =     -19.20680146 Ry
     estimated scf accuracy    <       0.05753785 Ry

     iteration #  2     ecut=    18.00 Ry     beta=0.70
     Davidson diagonalization with overlap
     ethr =  7.19E-04,  avg # of iterations =  1.0

     total cpu time spent up to now is        0.2 secs

     total energy              =     -19.19504017 Ry
     Harris-Foulkes estimate   =     -19.19521861 Ry
     estimated scf accuracy    <       0.00248896 Ry

     iteration #  3     ecut=    18.00 Ry     beta=0.70
     Davidson diagonalization with overlap
     ethr =  3.11E-05,  avg # of iterations =  2.0

     total cpu time spent up to now is        0.2 secs

     total energy              =     -19.19535208 Ry
     Harris-Foulkes estimate   =     -19.19536924 Ry
     estimated scf accuracy    <       0.00004764 Ry

     iteration #  4     ecut=    18.00 Ry     beta=0.70
     Davidson diagonalization with overlap
     ethr =  5.96E-07,  avg # of iterations =  2.5

     total cpu time spent up to now is        0.2 secs

     total energy              =     -19.19537301 Ry
     Harris-Foulkes estimate   =     -19.19537424 Ry
     estimated scf accuracy    <       0.00000387 Ry

     iteration #  5     ecut=    18.00 Ry     beta=0.70
     Davidson diagonalization with overlap
     ethr =  4.84E-08,  avg # of iterations =  2.1

     total cpu time spent up to now is        0.3 secs

     total energy              =     -19.19537368 Ry
     Harris-Foulkes estimate   =     -19.19537371 Ry
     estimated scf accuracy    <       0.00000007 Ry

     iteration #  6     ecut=    18.00 Ry     beta=0.70
     Davidson diagonalization with overlap
     ethr =  9.07E-10,  avg # of iterations =  2.6

     total cpu time spent up to now is        0.3 secs

     End of self-consistent calculation

          k =-0.0833 0.0833 0.0833 (   335 PWs)   bands (ev):

    -5.6240   5.4668   6.1800   6.1800

          k =-0.2500 0.2500-0.0833 (   339 PWs)   bands (ev):

    -5.1414   3.3723   4.9264   5.9686

          k =-0.4167 0.4167-0.2500 (   346 PWs)   bands (ev):

    -4.0338   0.5738   4.4611   5.3220

          k = 0.4167-0.4167 0.5833 (   344 PWs)   bands (ev):

    -3.3216  -0.5887   4.5317   4.9352

          k = 0.2500-0.2500 0.4167 (   344 PWs)   bands (ev):

    -4.4517   1.4316   4.9938   5.0380

          k = 0.0833-0.0833 0.2500 (   339 PWs)   bands (ev):

    -5.3805   4.3958   5.5216   5.7194

          k =-0.0833 0.4167 0.0833 (   340 PWs)   bands (ev):

    -4.8973   3.1954   4.7724   4.7804

          k =-0.2500 0.5833-0.0833 (   340 PWs)   bands (ev):

    -3.9742   1.3350   3.4325   4.3901

          k = 0.5833-0.2500 0.7500 (   349 PWs)   bands (ev):

    -2.8382  -0.4478   2.8283   4.1578

          k = 0.4167-0.0833 0.5833 (   345 PWs)   bands (ev):

    -3.5734   0.6304   2.7803   4.6535

          k = 0.2500 0.0833 0.4167 (   338 PWs)   bands (ev):

    -4.6686   2.3414   4.1397   5.3355

          k =-0.0833 0.7500 0.0833 (   337 PWs)   bands (ev):

    -3.2533   0.5068   3.3916   3.7375

          k = 0.7500-0.0833 0.9167 (   349 PWs)   bands (ev):

    -2.0406  -0.8503   2.5347   3.3235

          k = 0.5833 0.0833 0.7500 (   351 PWs)   bands (ev):

    -2.4133  -0.5177   2.0469   3.8778

          k = 0.4167 0.2500 0.5833 (   345 PWs)   bands (ev):

    -3.4583  -0.0751   3.7442   4.7535

          k =-0.0833-0.9167 0.0833 (   342 PWs)   bands (ev):

    -2.1347  -0.8591   3.1177   3.5194

          k =-0.2500-0.7500-0.0833 (   341 PWs)   bands (ev):

    -3.0819   0.2789   2.8648   3.6685

          k =-0.0833-0.5833 0.0833 (   339 PWs)   bands (ev):

    -4.1828   1.8867   3.9465   4.1653

          k =-0.2500 0.2500 0.2500 (   344 PWs)   bands (ev):

    -4.9087   2.3778   5.5572   5.5572

          k =-0.4167 0.4167 0.0833 (   341 PWs)   bands (ev):

    -4.2203   1.4433   3.3970   5.3868

          k = 0.4167-0.4167 0.9167 (   344 PWs)   bands (ev):

    -3.0226  -0.0104   2.2719   4.5869

          k = 0.2500-0.2500 0.7500 (   346 PWs)   bands (ev):

    -2.9708  -0.0907   2.7601   4.0966

          k =-0.2500 0.5833 0.2500 (   340 PWs)   bands (ev):

    -3.7896   0.6227   3.8766   4.4753

          k = 0.5833-0.2500 1.0833 (   346 PWs)   bands (ev):

    -2.7729  -0.1191   2.3720   3.6655

          k = 0.4167-0.0833 0.9167 (   349 PWs)   bands (ev):

    -1.9297  -0.8587   2.2001   2.9870

          k =-0.2500-1.0833 0.2500 (   347 PWs)   bands (ev):

    -2.1425  -0.7671   2.0724   3.8993

          k =-0.4167 0.4167 0.4167 (   347 PWs)   bands (ev):

    -3.6985  -0.1827   5.1645   5.1645

          k = 0.4167-0.4167 1.2500 (   348 PWs)   bands (ev):

    -3.0832  -0.4842   3.3123   4.7162

     highest occupied level (ev):     6.1800

!    total energy              =     -19.19537371 Ry
     Harris-Foulkes estimate   =     -19.19537371 Ry
     estimated scf accuracy    <          3.7E-09 Ry

     The total energy is the sum of the following terms:

     one-electron contribution =       5.20388182 Ry
     hartree contribution      =       1.11105582 Ry
     xc contribution           =      -8.64362462 Ry
     ewald contribution        =     -16.86668673 Ry

     convergence has been achieved in   6 iterations

     Forces acting on atoms (Ry/au):

     atom    1 type  1   force =     0.00000000    0.00000000    0.00000000
     atom    2 type  1   force =    -0.00000000   -0.00000000   -0.00000000

     Total force =     0.000000     Total SCF correction =     0.000000


     entering subroutine stress ...

          total   stress  (Ry/bohr**3)                   (kbar)     P=   39.82
   0.00027071  -0.00000000   0.00000000         39.82     -0.00      0.00
  -0.00000000   0.00027071  -0.00000000         -0.00     39.82     -0.00
   0.00000000  -0.00000000   0.00027071          0.00     -0.00     39.82


     Writing output data file silicon.save
 
     init_run     :      0.05s CPU      0.05s WALL (       1 calls)
     electrons    :      0.08s CPU      0.13s WALL (       1 calls)
     forces       :      0.00s CPU      0.00s WALL (       1 calls)
     stress       :      0.01s CPU      0.01s WALL (       1 calls)

     Called by init_run:
     wfcinit      :      0.00s CPU      0.01s WALL (       1 calls)
     potinit      :      0.00s CPU      0.00s WALL (       1 calls)

     Called by electrons:
     c_bands      :      0.04s CPU      0.04s WALL (       7 calls)
     sum_band     :      0.01s CPU      0.02s WALL (       7 calls)
     v_of_rho     :      0.01s CPU      0.01s WALL (       7 calls)
     newd         :      0.01s CPU      0.01s WALL (       7 calls)
     mix_rho      :      0.00s CPU      0.00s WALL (       7 calls)

     Called by c_bands:
     init_us_2    :      0.00s CPU      0.00s WALL (      34 calls)
     cegterg      :      0.03s CPU      0.04s WALL (      14 calls)

     Called by sum_band:
     sum_band:bec :      0.00s CPU      0.00s WALL (      14 calls)
     addusdens    :      0.00s CPU      0.01s WALL (       7 calls)

     Called by *egterg:
     h_psi        :      0.02s CPU      0.01s WALL (      46 calls)
     s_psi        :      0.00s CPU      0.00s WALL (      46 calls)
     g_psi        :      0.00s CPU      0.00s WALL (      30 calls)
     cdiaghg      :      0.00s CPU      0.02s WALL (      42 calls)

     Called by h_psi:
     add_vuspsi   :      0.00s CPU      0.00s WALL (      46 calls)

     General routines
     calbec       :      0.00s CPU      0.00s WALL (      70 calls)
     fft          :      0.00s CPU      0.00s WALL (     118 calls)
     fftw         :      0.02s CPU      0.01s WALL (     394 calls)
     davcio       :      0.00s CPU      0.05s WALL (       2 calls)
 
     Parallel routines
     fft_scatter  :      0.02s CPU      0.01s WALL (     512 calls)
 
     PWSCF        :     0.52s CPU         1.87s WALL

 
   This run was terminated on:   0:47:45   7Apr2018            

=------------------------------------------------------------------------------=
   JOB DONE.
=------------------------------------------------------------------------------=
Application 30443981 resources: utime ~365s, stime ~24s, Rss ~20780, inblocks ~1759010, outblocks ~1399031
