
     Program PWSCF v.5.4.0 starts on  9Apr2018 at 16:16:31 

     This program is part of the open-source Quantum ESPRESSO suite
     for quantum simulation of materials; please cite
         "P. Giannozzi et al., J. Phys.:Condens. Matter 21 395502 (2009);
          URL http://www.quantum-espresso.org", 
     in publications or presentations arising from this work. More details at
     http://www.quantum-espresso.org/quote

     Parallel version (MPI & OpenMP), running on     384 processor cores
     Number of MPI processes:               384
     Threads/MPI process:                     1
     K-points division:     npool     =      24
     R & G space division:  proc/nbgrp/npool/nimage =      16
     Waiting for input...
     Reading input from standard input
     Message from routine read_cards :
     DEPRECATED: no units specified in ATOMIC_POSITIONS card
     Message from routine read_cards :
     ATOMIC_POSITIONS: units set to alat

     Current dimensions of program PWSCF are:
     Max number of different atomic species (ntypx) = 10
     Max number of k-points (npk) =  40000
     Max angular momentum in pseudopotentials (lmaxx) =  3

     Subspace diagonalization in iterative solution of the eigenvalue problem:
     one sub-group per band group will be used
     scalapack distributed-memory algorithm (size of sub-group:  2*  2 procs)

 
     Parallelization info
     --------------------
     sticks:   dense  smooth     PW     G-vecs:    dense   smooth      PW
     Min          53      27      9                 1039      366      76
     Max          57      28     10                 1040      382      79
     Sum         859     433    151                16625     5961    1243
 


     bravais-lattice index     =            2
     lattice parameter (alat)  =      10.2200  a.u.
     unit-cell volume          =     266.8657 (a.u.)^3
     number of atoms/cell      =            2
     number of atomic types    =            1
     number of electrons       =         8.00
     number of Kohn-Sham states=            4
     kinetic-energy cutoff     =      30.0000  Ry
     charge density cutoff     =     240.0000  Ry
     convergence threshold     =      1.0E-08
     mixing beta               =       0.7000
     number of iterations used =            8  plain     mixing
     Exchange-correlation      = SLA  PW   PBE  PBE ( 1  4  3  4 0 0)

     celldm(1)=  10.220000  celldm(2)=   0.000000  celldm(3)=   0.000000
     celldm(4)=   0.000000  celldm(5)=   0.000000  celldm(6)=   0.000000

     crystal axes: (cart. coord. in units of alat)
               a(1) = (  -0.500000   0.000000   0.500000 )  
               a(2) = (   0.000000   0.500000   0.500000 )  
               a(3) = (  -0.500000   0.500000   0.000000 )  

     reciprocal axes: (cart. coord. in units 2 pi/alat)
               b(1) = ( -1.000000 -1.000000  1.000000 )  
               b(2) = (  1.000000  1.000000  1.000000 )  
               b(3) = ( -1.000000  1.000000 -1.000000 )  


     PseudoPot. # 1 for Si read from file:
     ./si_pbe_v1.uspp.F.UPF.txt
     MD5 check sum: a056efeee980c13900f22a371efd63c1
     Pseudo is Ultrasoft + core correction, Zval =  4.0
     Generated by new atomic code, or converted to UPF format
     Using radial grid of  899 points,  6 beta functions with: 
                l(1) =   0
                l(2) =   0
                l(3) =   1
                l(4) =   1
                l(5) =   2
                l(6) =   2
     Q(r) pseudized with  8 coefficients,  rinner =    0.900   0.900   0.900
                                                       0.900   0.900

     atomic species   valence    mass     pseudopotential
        Si             4.00    28.08600     Si( 1.00)

     48 Sym. Ops., with inversion, found (24 have fractional translation)



   Cartesian axes

     site n.     atom                  positions (alat units)
         1           Si  tau(   1) = (   0.0000000   0.0000000   0.0000000  )
         2           Si  tau(   2) = (   0.2500000   0.2500000   0.2500000  )

     number of k points=    85
                       cart. coord. in units 2pi/alat
        k(    1) = (  -0.0555556   0.0555556   0.0555556), wk =   0.0054870
        k(    2) = (  -0.1666667   0.1666667  -0.0555556), wk =   0.0164609
        k(    3) = (  -0.2777778   0.2777778  -0.1666667), wk =   0.0164609
        k(    4) = (  -0.3888889   0.3888889  -0.2777778), wk =   0.0164609
        k(    5) = (   0.5000000  -0.5000000   0.6111111), wk =   0.0164609
        k(    6) = (   0.3888889  -0.3888889   0.5000000), wk =   0.0164609
        k(    7) = (   0.2777778  -0.2777778   0.3888889), wk =   0.0164609
        k(    8) = (   0.1666667  -0.1666667   0.2777778), wk =   0.0164609
        k(    9) = (   0.0555556  -0.0555556   0.1666667), wk =   0.0164609
        k(   10) = (  -0.0555556   0.2777778   0.0555556), wk =   0.0164609
        k(   11) = (  -0.1666667   0.3888889  -0.0555556), wk =   0.0329218
        k(   12) = (  -0.2777778   0.5000000  -0.1666667), wk =   0.0329218
        k(   13) = (   0.6111111  -0.3888889   0.7222222), wk =   0.0329218
        k(   14) = (   0.5000000  -0.2777778   0.6111111), wk =   0.0329218
        k(   15) = (   0.3888889  -0.1666667   0.5000000), wk =   0.0329218
        k(   16) = (   0.2777778  -0.0555556   0.3888889), wk =   0.0329218
        k(   17) = (   0.1666667   0.0555556   0.2777778), wk =   0.0329218
        k(   18) = (  -0.0555556   0.5000000   0.0555556), wk =   0.0164609
        k(   19) = (  -0.1666667   0.6111111  -0.0555556), wk =   0.0329218
        k(   20) = (   0.7222222  -0.2777778   0.8333333), wk =   0.0329218
        k(   21) = (   0.6111111  -0.1666667   0.7222222), wk =   0.0329218
        k(   22) = (   0.5000000  -0.0555556   0.6111111), wk =   0.0329218
        k(   23) = (   0.3888889   0.0555556   0.5000000), wk =   0.0329218
        k(   24) = (   0.2777778   0.1666667   0.3888889), wk =   0.0329218
        k(   25) = (  -0.0555556   0.7222222   0.0555556), wk =   0.0164609
        k(   26) = (   0.8333333  -0.1666667   0.9444444), wk =   0.0329218
        k(   27) = (   0.7222222  -0.0555556   0.8333333), wk =   0.0329218
        k(   28) = (   0.6111111   0.0555556   0.7222222), wk =   0.0329218
        k(   29) = (   0.5000000   0.1666667   0.6111111), wk =   0.0329218
        k(   30) = (   0.3888889   0.2777778   0.5000000), wk =   0.0329218
        k(   31) = (  -0.0555556  -1.0555556   0.0555556), wk =   0.0164609
        k(   32) = (  -0.1666667  -0.9444444  -0.0555556), wk =   0.0329218
        k(   33) = (  -0.2777778  -0.8333333  -0.1666667), wk =   0.0329218
        k(   34) = (  -0.3888889  -0.7222222  -0.2777778), wk =   0.0329218
        k(   35) = (  -0.5000000  -0.6111111  -0.3888889), wk =   0.0164609
        k(   36) = (  -0.0555556  -0.8333333   0.0555556), wk =   0.0164609
        k(   37) = (  -0.1666667  -0.7222222  -0.0555556), wk =   0.0329218
        k(   38) = (  -0.2777778  -0.6111111  -0.1666667), wk =   0.0329218
        k(   39) = (  -0.0555556  -0.6111111   0.0555556), wk =   0.0164609
        k(   40) = (  -0.1666667  -0.5000000  -0.0555556), wk =   0.0329218
        k(   41) = (  -0.0555556  -0.3888889   0.0555556), wk =   0.0164609
        k(   42) = (  -0.1666667   0.1666667   0.1666667), wk =   0.0054870
        k(   43) = (  -0.2777778   0.2777778   0.0555556), wk =   0.0164609
        k(   44) = (  -0.3888889   0.3888889  -0.0555556), wk =   0.0164609
        k(   45) = (   0.5000000  -0.5000000   0.8333333), wk =   0.0164609
        k(   46) = (   0.3888889  -0.3888889   0.7222222), wk =   0.0164609
        k(   47) = (   0.2777778  -0.2777778   0.6111111), wk =   0.0164609
        k(   48) = (   0.1666667  -0.1666667   0.5000000), wk =   0.0164609
        k(   49) = (  -0.1666667   0.3888889   0.1666667), wk =   0.0164609
        k(   50) = (  -0.2777778   0.5000000   0.0555556), wk =   0.0329218
        k(   51) = (   0.6111111  -0.3888889   0.9444444), wk =   0.0329218
        k(   52) = (   0.5000000  -0.2777778   0.8333333), wk =   0.0329218
        k(   53) = (   0.3888889  -0.1666667   0.7222222), wk =   0.0329218
        k(   54) = (   0.2777778  -0.0555556   0.6111111), wk =   0.0329218
        k(   55) = (  -0.1666667   0.6111111   0.1666667), wk =   0.0164609
        k(   56) = (   0.7222222  -0.2777778   1.0555556), wk =   0.0329218
        k(   57) = (   0.6111111  -0.1666667   0.9444444), wk =   0.0329218
        k(   58) = (   0.5000000  -0.0555556   0.8333333), wk =   0.0329218
        k(   59) = (   0.3888889   0.0555556   0.7222222), wk =   0.0329218
        k(   60) = (  -0.1666667  -1.1666667   0.1666667), wk =   0.0164609
        k(   61) = (  -0.2777778  -1.0555556   0.0555556), wk =   0.0329218
        k(   62) = (  -0.3888889  -0.9444444  -0.0555556), wk =   0.0329218
        k(   63) = (  -0.5000000  -0.8333333  -0.1666667), wk =   0.0164609
        k(   64) = (  -0.1666667  -0.9444444   0.1666667), wk =   0.0164609
        k(   65) = (  -0.2777778  -0.8333333   0.0555556), wk =   0.0329218
        k(   66) = (  -0.1666667  -0.7222222   0.1666667), wk =   0.0164609
        k(   67) = (  -0.2777778   0.2777778   0.2777778), wk =   0.0054870
        k(   68) = (  -0.3888889   0.3888889   0.1666667), wk =   0.0164609
        k(   69) = (   0.5000000  -0.5000000   1.0555556), wk =   0.0164609
        k(   70) = (   0.3888889  -0.3888889   0.9444444), wk =   0.0164609
        k(   71) = (   0.2777778  -0.2777778   0.8333333), wk =   0.0164609
        k(   72) = (  -0.2777778   0.5000000   0.2777778), wk =   0.0164609
        k(   73) = (   0.6111111  -0.3888889   1.1666667), wk =   0.0329218
        k(   74) = (   0.5000000  -0.2777778   1.0555556), wk =   0.0329218
        k(   75) = (   0.3888889  -0.1666667   0.9444444), wk =   0.0329218
        k(   76) = (  -0.2777778  -1.2777778   0.2777778), wk =   0.0164609
        k(   77) = (  -0.3888889  -1.1666667   0.1666667), wk =   0.0329218
        k(   78) = (  -0.5000000  -1.0555556   0.0555556), wk =   0.0164609
        k(   79) = (  -0.2777778  -1.0555556   0.2777778), wk =   0.0164609
        k(   80) = (  -0.3888889   0.3888889   0.3888889), wk =   0.0054870
        k(   81) = (   0.5000000  -0.5000000   1.2777778), wk =   0.0164609
        k(   82) = (   0.3888889  -0.3888889   1.1666667), wk =   0.0164609
        k(   83) = (  -0.3888889  -1.3888889   0.3888889), wk =   0.0164609
        k(   84) = (  -0.5000000  -1.2777778   0.2777778), wk =   0.0164609
        k(   85) = (   0.5000000  -0.5000000  -0.5000000), wk =   0.0027435

     Dense  grid:    16625 G-vectors     FFT dimensions: (  36,  36,  36)

     Smooth grid:     5961 G-vectors     FFT dimensions: (  25,  25,  25)

     Largest allocated arrays     est. size (Mb)     dimensions
        Kohn-Sham Wavefunctions         0.00 Mb     (      51,    4)
        NL pseudopotentials             0.03 Mb     (      51,   36)
        Each V/rho on FFT grid          0.06 Mb     (    3888)
        Each G-vector array             0.01 Mb     (    1040)
        G-vector shells                 0.00 Mb     (     202)
     Largest temporary arrays     est. size (Mb)     dimensions
        Auxiliary wavefunctions         0.01 Mb     (      51,   16)
        Each subspace H/S matrix        0.00 Mb     (       8,    8)
        Each <psi_i|beta_j> matrix      0.00 Mb     (      36,    4)
        Arrays for rho mixing           0.47 Mb     (    3888,    8)

     Initial potential from superposition of free atoms

     starting charge    7.99866, renormalised to    8.00000
     Starting wfc are    8 randomized atomic wfcs

     total cpu time spent up to now is        0.3 secs

     per-process dynamical memory:    10.3 Mb

     Self-consistent Calculation

     iteration #  1     ecut=    30.00 Ry     beta=0.70
     Davidson diagonalization with overlap
     ethr =  1.00E-02,  avg # of iterations =  2.0

     Threshold (ethr) on eigenvalues was too large:
     Diagonalizing with lowered threshold

     Davidson diagonalization with overlap
     ethr =  7.15E-04,  avg # of iterations =  1.0

     total cpu time spent up to now is        0.3 secs

     total energy              =     -19.19004618 Ry
     Harris-Foulkes estimate   =     -19.20388746 Ry
     estimated scf accuracy    <       0.05661414 Ry

     iteration #  2     ecut=    30.00 Ry     beta=0.70
     Davidson diagonalization with overlap
     ethr =  7.08E-04,  avg # of iterations =  1.0

     total cpu time spent up to now is        0.4 secs

     total energy              =     -19.19204304 Ry
     Harris-Foulkes estimate   =     -19.19221097 Ry
     estimated scf accuracy    <       0.00243723 Ry

     iteration #  3     ecut=    30.00 Ry     beta=0.70
     Davidson diagonalization with overlap
     ethr =  3.05E-05,  avg # of iterations =  2.1

     total cpu time spent up to now is        0.5 secs

     total energy              =     -19.19240691 Ry
     Harris-Foulkes estimate   =     -19.19242209 Ry
     estimated scf accuracy    <       0.00004740 Ry

     iteration #  4     ecut=    30.00 Ry     beta=0.70
     Davidson diagonalization with overlap
     ethr =  5.93E-07,  avg # of iterations =  3.3

     total cpu time spent up to now is        0.5 secs

     total energy              =     -19.19244857 Ry
     Harris-Foulkes estimate   =     -19.19244984 Ry
     estimated scf accuracy    <       0.00000433 Ry

     iteration #  5     ecut=    30.00 Ry     beta=0.70
     Davidson diagonalization with overlap
     ethr =  5.42E-08,  avg # of iterations =  2.0

     total cpu time spent up to now is        0.6 secs

     total energy              =     -19.19244912 Ry
     Harris-Foulkes estimate   =     -19.19244912 Ry
     estimated scf accuracy    <       0.00000001 Ry

     iteration #  6     ecut=    30.00 Ry     beta=0.70
     Davidson diagonalization with overlap
     ethr =  1.55E-10,  avg # of iterations =  4.0

     total cpu time spent up to now is        0.7 secs

     End of self-consistent calculation

          k =-0.0556 0.0556 0.0556 (   731 PWs)   bands (ev):

    -5.6811   5.8919   6.2543   6.2543

          k =-0.1667 0.1667-0.0556 (   735 PWs)   bands (ev):

    -5.4641   4.5834   5.5639   6.1617

          k =-0.2778 0.2778-0.1667 (   745 PWs)   bands (ev):

    -4.9349   2.5448   5.0956   5.7549

          k =-0.3889 0.3889-0.2778 (   753 PWs)   bands (ev):

    -4.1523   0.6843   4.8285   5.3596

          k = 0.5000-0.5000 0.6111 (   747 PWs)   bands (ev):

    -3.4016  -0.5719   4.7731   5.0965

          k = 0.3889-0.3889 0.5000 (   746 PWs)   bands (ev):

    -3.6021  -0.2700   4.9166   5.0095

          k = 0.2778-0.2778 0.3889 (   754 PWs)   bands (ev):

    -4.4328   1.2633   5.1212   5.2329

          k = 0.1667-0.1667 0.2778 (   743 PWs)   bands (ev):

    -5.1438   3.2255   5.4326   5.6682

          k = 0.0556-0.0556 0.1667 (   733 PWs)   bands (ev):

    -5.5722   5.2531   5.8862   6.0411

          k =-0.0556 0.2778 0.0556 (   739 PWs)   bands (ev):

    -5.3551   4.4740   5.3821   5.4946

          k =-0.1667 0.3889-0.0556 (   744 PWs)   bands (ev):

    -4.9281   3.0937   4.5192   5.2696

          k =-0.2778 0.5000-0.1667 (   743 PWs)   bands (ev):

    -4.2191   1.3016   4.0619   4.8617

          k = 0.6111-0.3889 0.7222 (   740 PWs)   bands (ev):

    -3.3871  -0.1786   3.7801   4.6364

          k = 0.5000-0.2778 0.6111 (   744 PWs)   bands (ev):

    -3.1874  -0.4709   3.6205   4.7307

          k = 0.3889-0.1667 0.5000 (   748 PWs)   bands (ev):

    -3.9427   0.7564   3.6570   5.0835

          k = 0.2778-0.0556 0.3889 (   746 PWs)   bands (ev):

    -4.7227   2.4684   4.0094   5.5541

          k = 0.1667 0.0556 0.2778 (   740 PWs)   bands (ev):

    -5.2488   3.8462   5.0481   5.8507

          k =-0.0556 0.5000 0.0556 (   737 PWs)   bands (ev):

    -4.6038   2.6952   4.3616   4.4274

          k =-0.1667 0.6111-0.0556 (   743 PWs)   bands (ev):

    -3.9832   1.5102   3.6059   4.1294

          k = 0.7222-0.2778 0.8333 (   743 PWs)   bands (ev):

    -3.1541   0.1913   2.8696   3.9686

          k = 0.6111-0.1667 0.7222 (   739 PWs)   bands (ev):

    -2.6161  -0.5153   2.3782   4.1274

          k = 0.5000-0.0556 0.6111 (   743 PWs)   bands (ev):

    -3.2033   0.2549   2.3108   4.5444

          k = 0.3889 0.0556 0.5000 (   744 PWs)   bands (ev):

    -4.0206   1.2561   3.0504   5.0890

          k = 0.2778 0.1667 0.3889 (   744 PWs)   bands (ev):

    -4.6251   1.8990   4.6010   5.4272

          k =-0.0556 0.7222 0.0556 (   738 PWs)   bands (ev):

    -3.4520   0.7775   3.6023   3.7652

          k = 0.8333-0.1667 0.9444 (   742 PWs)   bands (ev):

    -2.6716  -0.2081   3.0225   3.4880

          k = 0.7222-0.0556 0.8333 (   735 PWs)   bands (ev):

    -1.9428  -0.9405   2.1398   3.6233

          k = 0.6111 0.0556 0.7222 (   731 PWs)   bands (ev):

    -2.4160  -0.4992   1.9398   4.0304

          k = 0.5000 0.1667 0.6111 (   742 PWs)   bands (ev):

    -3.1878  -0.1074   2.8689   4.6082

          k = 0.3889 0.2778 0.5000 (   747 PWs)   bands (ev):

    -3.7960   0.1968   4.3848   5.0559

          k =-0.0556-1.0556 0.0556 (   740 PWs)   bands (ev):

    -1.9476  -1.0859   3.2761   3.4730

          k =-0.1667-0.9444-0.0556 (   742 PWs)   bands (ev):

    -1.9041  -1.0670   2.8994   3.3658

          k =-0.2778-0.8333-0.1667 (   736 PWs)   bands (ev):

    -2.5330  -0.3819   2.3955   3.7360

          k =-0.3889-0.7222-0.2778 (   736 PWs)   bands (ev):

    -2.9691  -0.4214   3.0560   4.3250

          k =-0.5000-0.6111-0.3889 (   740 PWs)   bands (ev):

    -3.2512  -0.6471   4.3296   4.9075

          k =-0.0556-0.8333 0.0556 (   746 PWs)   bands (ev):

    -2.7396  -0.1720   3.3848   3.5709

          k =-0.1667-0.7222-0.0556 (   743 PWs)   bands (ev):

    -3.3693   0.6611   3.2629   3.7391

          k =-0.2778-0.6111-0.1667 (   746 PWs)   bands (ev):

    -3.7244   0.7420   3.4671   4.3402

          k =-0.0556-0.6111 0.0556 (   734 PWs)   bands (ev):

    -4.0757   1.7412   3.9283   4.0527

          k =-0.1667-0.5000-0.0556 (   739 PWs)   bands (ev):

    -4.5048   2.3203   4.0309   4.6556

          k =-0.0556-0.3889 0.0556 (   738 PWs)   bands (ev):

    -5.0315   3.6141   4.8781   4.8949

          k =-0.1667 0.1667 0.1667 (   730 PWs)   bands (ev):

    -5.3570   3.9328   5.8673   5.8673

          k =-0.2778 0.2778 0.0556 (   749 PWs)   bands (ev):

    -5.0373   3.1526   4.5315   5.9251

          k =-0.3889 0.3889-0.0556 (   741 PWs)   bands (ev):

    -4.4184   1.8478   3.4994   5.5140

          k = 0.5000-0.5000 0.8333 (   745 PWs)   bands (ev):

    -3.5917   0.2792   3.2457   5.0124

          k = 0.3889-0.3889 0.7222 (   743 PWs)   bands (ev):

    -3.0357  -0.5590   3.3611   4.6377

          k = 0.2778-0.2778 0.6111 (   737 PWs)   bands (ev):

    -3.5793   0.2535   3.7416   4.4752

          k = 0.1667-0.1667 0.5000 (   742 PWs)   bands (ev):

    -4.4086   1.8685   4.3134   4.5564

          k =-0.1667 0.3889 0.1667 (   746 PWs)   bands (ev):

    -4.8265   2.5371   4.9761   5.0528

          k =-0.2778 0.5000 0.0556 (   744 PWs)   bands (ev):

    -4.3089   1.7995   3.5397   4.9320

          k = 0.6111-0.3889 0.9444 (   743 PWs)   bands (ev):

    -3.5373   0.6910   2.6917   4.4358

          k = 0.5000-0.2778 0.8333 (   734 PWs)   bands (ev):

    -2.7706  -0.3889   2.5411   4.0363

          k = 0.3889-0.1667 0.7222 (   737 PWs)   bands (ev):

    -2.9673  -0.1303   2.7200   3.9650

          k = 0.2778-0.0556 0.6111 (   743 PWs)   bands (ev):

    -3.8014   1.1298   3.1473   4.2695

          k =-0.1667 0.6111 0.1667 (   745 PWs)   bands (ev):

    -3.8953   1.1952   3.6095   4.2018

          k = 0.7222-0.2778 1.0556 (   742 PWs)   bands (ev):

    -3.2088   0.4358   2.8444   3.6980

          k = 0.6111-0.1667 0.9444 (   741 PWs)   bands (ev):

    -2.3742  -0.4378   2.3105   3.1851

          k = 0.5000-0.0556 0.8333 (   733 PWs)   bands (ev):

    -2.1925  -0.6201   2.0869   3.2413

          k = 0.3889 0.0556 0.7222 (   738 PWs)   bands (ev):

    -2.9816   0.1342   2.4414   3.7540

          k =-0.1667-1.1667 0.1667 (   737 PWs)   bands (ev):

    -2.6201  -0.2690   2.6459   3.7402

          k =-0.2778-1.0556 0.0556 (   737 PWs)   bands (ev):

    -1.8319  -1.0404   2.5329   3.0875

          k =-0.3889-0.9444-0.0556 (   738 PWs)   bands (ev):

    -1.7611  -1.0212   2.2865   2.8365

          k =-0.5000-0.8333-0.1667 (   734 PWs)   bands (ev):

    -2.4081  -0.5561   2.2673   3.5263

          k =-0.1667-0.9444 0.1667 (   737 PWs)   bands (ev):

    -1.9081  -1.0274   2.4526   3.6458

          k =-0.2778-0.8333 0.0556 (   738 PWs)   bands (ev):

    -2.5438  -0.2941   2.6379   3.2932

          k =-0.1667-0.7222 0.1667 (   741 PWs)   bands (ev):

    -3.2947   0.4858   3.0360   3.9270

          k =-0.2778 0.2778 0.2778 (   757 PWs)   bands (ev):

    -4.7321   1.8791   5.4648   5.4648

          k =-0.3889 0.3889 0.1667 (   742 PWs)   bands (ev):

    -4.3281   1.2962   4.1322   5.4642

          k = 0.5000-0.5000 1.0556 (   744 PWs)   bands (ev):

    -3.6478   0.7365   2.6290   4.9849

          k = 0.3889-0.3889 0.9444 (   732 PWs)   bands (ev):

    -2.8193  -0.1463   2.0481   4.4436

          k = 0.2778-0.2778 0.8333 (   735 PWs)   bands (ev):

    -2.5419  -0.4911   2.3086   4.0646

          k =-0.2778 0.5000 0.2778 (   742 PWs)   bands (ev):

    -4.0443   0.7202   4.5558   4.7790

          k = 0.6111-0.3889 1.1667 (   740 PWs)   bands (ev):

    -3.4815   0.2839   3.1885   4.5040

          k = 0.5000-0.2778 1.0556 (   737 PWs)   bands (ev):

    -2.7074  -0.1926   2.1223   3.8974

          k = 0.3889-0.1667 0.9444 (   733 PWs)   bands (ev):

    -2.0379  -0.8000   2.0174   3.4257

          k =-0.2778-1.2778 0.2778 (   739 PWs)   bands (ev):

    -3.0618  -0.1454   2.9524   4.2325

          k =-0.3889-1.1667 0.1667 (   736 PWs)   bands (ev):

    -2.4460  -0.5024   2.2890   3.5994

          k =-0.5000-1.0556 0.0556 (   734 PWs)   bands (ev):

    -1.7307  -1.0152   2.2022   2.7378

          k =-0.2778-1.0556 0.2778 (   733 PWs)   bands (ev):

    -2.1475  -0.7549   1.9371   3.9790

          k =-0.3889 0.3889 0.3889 (   751 PWs)   bands (ev):

    -3.9027   0.1460   5.2021   5.2021

          k = 0.5000-0.5000 1.2778 (   743 PWs)   bands (ev):

    -3.4968  -0.2148   4.0414   5.0562

          k = 0.3889-0.3889 1.1667 (   739 PWs)   bands (ev):

    -2.8806  -0.3854   2.5827   4.5105

          k =-0.3889-1.3889 0.3889 (   745 PWs)   bands (ev):

    -3.2925  -0.5203   4.1963   4.8115

          k =-0.5000-1.2778 0.2778 (   742 PWs)   bands (ev):

    -2.9287  -0.5281   3.1059   4.3259

          k = 0.5000-0.5000-0.5000 (   754 PWs)   bands (ev):

    -3.3601  -0.7034   5.1130   5.1130

     highest occupied level (ev):     6.2543

!    total energy              =     -19.19244916 Ry
     Harris-Foulkes estimate   =     -19.19244916 Ry
     estimated scf accuracy    <          6.6E-10 Ry

     The total energy is the sum of the following terms:

     one-electron contribution =       5.20548981 Ry
     hartree contribution      =       1.10485753 Ry
     xc contribution           =      -8.63610986 Ry
     ewald contribution        =     -16.86668664 Ry

     convergence has been achieved in   6 iterations

     Forces acting on atoms (Ry/au):

     atom    1 type  1   force =     0.00000000    0.00000000   -0.00000000
     atom    2 type  1   force =    -0.00000000   -0.00000000    0.00000000

     Total force =     0.000000     Total SCF correction =     0.000000


     entering subroutine stress ...

          total   stress  (Ry/bohr**3)                   (kbar)     P=   31.28
   0.00021264  -0.00000000  -0.00000000         31.28     -0.00     -0.00
  -0.00000000   0.00021264   0.00000000         -0.00     31.28      0.00
  -0.00000000   0.00000000   0.00021264         -0.00      0.00     31.28


     Writing output data file silicon.save
 
     init_run     :      0.07s CPU      0.08s WALL (       1 calls)
     electrons    :      0.40s CPU      0.43s WALL (       1 calls)
     forces       :      0.02s CPU      0.01s WALL (       1 calls)
     stress       :      0.04s CPU      0.04s WALL (       1 calls)

     Called by init_run:
     wfcinit      :      0.01s CPU      0.01s WALL (       1 calls)
     potinit      :      0.01s CPU      0.01s WALL (       1 calls)

     Called by electrons:
     c_bands      :      0.24s CPU      0.25s WALL (       7 calls)
     sum_band     :      0.07s CPU      0.07s WALL (       7 calls)
     v_of_rho     :      0.02s CPU      0.02s WALL (       7 calls)
     newd         :      0.02s CPU      0.03s WALL (       7 calls)
     mix_rho      :      0.00s CPU      0.00s WALL (       7 calls)

     Called by c_bands:
     init_us_2    :      0.00s CPU      0.00s WALL (      68 calls)
     cegterg      :      0.07s CPU      0.09s WALL (      28 calls)

     Called by sum_band:
     sum_band:bec :      0.00s CPU      0.00s WALL (      28 calls)
     addusdens    :      0.03s CPU      0.04s WALL (       7 calls)

     Called by *egterg:
     h_psi        :      0.04s CPU      0.03s WALL (      99 calls)
     s_psi        :      0.00s CPU      0.00s WALL (      99 calls)
     g_psi        :      0.00s CPU      0.00s WALL (      67 calls)
     cdiaghg      :      0.03s CPU      0.05s WALL (      91 calls)

     Called by h_psi:
     add_vuspsi   :      0.00s CPU      0.00s WALL (      99 calls)

     General routines
     calbec       :      0.01s CPU      0.01s WALL (     147 calls)
     fft          :      0.02s CPU      0.01s WALL (     137 calls)
     ffts         :      0.00s CPU      0.00s WALL (      14 calls)
     fftw         :      0.02s CPU      0.03s WALL (     834 calls)
     interpolate  :      0.00s CPU      0.00s WALL (      14 calls)
     davcio       :      0.00s CPU      0.65s WALL (       4 calls)
 
     Parallel routines
     fft_scatter  :      0.02s CPU      0.03s WALL (     985 calls)
 
     PWSCF        :     1.70s CPU         6.19s WALL

 
   This run was terminated on:  16:16:37   9Apr2018            

=------------------------------------------------------------------------------=
   JOB DONE.
=------------------------------------------------------------------------------=
Application 30462879 resources: utime ~2374s, stime ~48s, Rss ~24872, inblocks ~3539744, outblocks ~2812607
