
     Program PWSCF v.6.1 (svn rev. 13369) starts on 10Nov2017 at 10: 3:13 

     This program is part of the open-source Quantum ESPRESSO suite
     for quantum simulation of materials; please cite
         "P. Giannozzi et al., J. Phys.:Condens. Matter 21 395502 (2009);
          URL http://www.quantum-espresso.org", 
     in publications or presentations arising from this work. More details at
     http://www.quantum-espresso.org/quote

     Parallel version (MPI), running on     4 processors
     R & G space division:  proc/nbgrp/npool/nimage =       4
     Waiting for input...
     Reading input from standard input
     Message from routine read_cards :
     DEPRECATED: no units specified in ATOMIC_POSITIONS card
     Message from routine read_cards :
     ATOMIC_POSITIONS: units set to alat

     Current dimensions of program PWSCF are:
     Max number of different atomic species (ntypx) = 10
     Max number of k-points (npk) =  40000
     Max angular momentum in pseudopotentials (lmaxx) =  3

     Subspace diagonalization in iterative solution of the eigenvalue problem:
     a serial algorithm will be used


     Parallelization info
     --------------------
     sticks:   dense  smooth     PW     G-vecs:    dense   smooth      PW
     Min         133      66     22                 2024      722     152
     Max         134      67     23                 2025      724     153
     Sum         535     265     91                 8099     2891     609



     bravais-lattice index     =            2
     lattice parameter (alat)  =      10.3920  a.u.
     unit-cell volume          =     280.5675 (a.u.)^3
     number of atoms/cell      =            2
     number of atomic types    =            1
     number of electrons       =         8.00
     number of Kohn-Sham states=            4
     kinetic-energy cutoff     =      18.0000  Ry
     charge density cutoff     =     144.0000  Ry
     convergence threshold     =      1.0E-08
     mixing beta               =       0.7000
     number of iterations used =            8  plain     mixing
     Exchange-correlation      = SLA  PW   PBE  PBE ( 1  4  3  4 0 0)

     celldm(1)=  10.392000  celldm(2)=   0.000000  celldm(3)=   0.000000
     celldm(4)=   0.000000  celldm(5)=   0.000000  celldm(6)=   0.000000

     crystal axes: (cart. coord. in units of alat)
               a(1) = (  -0.500000   0.000000   0.500000 )  
               a(2) = (   0.000000   0.500000   0.500000 )  
               a(3) = (  -0.500000   0.500000   0.000000 )  

     reciprocal axes: (cart. coord. in units 2 pi/alat)
               b(1) = ( -1.000000 -1.000000  1.000000 )  
               b(2) = (  1.000000  1.000000  1.000000 )  
               b(3) = ( -1.000000  1.000000 -1.000000 )  


     PseudoPot. # 1 for Si read from file:
     /home/max/quantum_espresso/qe-6.1/pseudo/si_pbe_v1.uspp.F.UPF.txt
     MD5 check sum: a056efeee980c13900f22a371efd63c1
     Pseudo is Ultrasoft + core correction, Zval =  4.0
     Generated by new atomic code, or converted to UPF format
     Using radial grid of  899 points,  6 beta functions with: 
                l(1) =   0
                l(2) =   0
                l(3) =   1
                l(4) =   1
                l(5) =   2
                l(6) =   2
     Q(r) pseudized with  8 coefficients,  rinner =    0.900   0.900   0.900
                                                       0.900   0.900

     atomic species   valence    mass     pseudopotential
        Si             4.00    28.08600     Si( 1.00)

     24 Sym. Ops. (no inversion) found
          (note: 24 additional sym.ops. were found but ignored
           their fractional translations are incommensurate with FFT grid)


   Cartesian axes

     site n.     atom                  positions (alat units)
         1           Si  tau(   1) = (   0.0000000   0.0000000   0.0000000  )
         2           Si  tau(   2) = (   0.2500000   0.2500000   0.2500000  )

     number of k points=    60
                       cart. coord. in units 2pi/alat
        k(    1) = (  -0.0625000   0.0625000   0.0625000), wk =   0.0078125
        k(    2) = (  -0.1875000   0.1875000  -0.0625000), wk =   0.0234375
        k(    3) = (  -0.3125000   0.3125000  -0.1875000), wk =   0.0234375
        k(    4) = (  -0.4375000   0.4375000  -0.3125000), wk =   0.0234375
        k(    5) = (   0.4375000  -0.4375000   0.5625000), wk =   0.0234375
        k(    6) = (   0.3125000  -0.3125000   0.4375000), wk =   0.0234375
        k(    7) = (   0.1875000  -0.1875000   0.3125000), wk =   0.0234375
        k(    8) = (   0.0625000  -0.0625000   0.1875000), wk =   0.0234375
        k(    9) = (  -0.0625000   0.3125000   0.0625000), wk =   0.0234375
        k(   10) = (  -0.1875000   0.4375000  -0.0625000), wk =   0.0468750
        k(   11) = (  -0.3125000   0.5625000  -0.1875000), wk =   0.0468750
        k(   12) = (   0.5625000  -0.3125000   0.6875000), wk =   0.0468750
        k(   13) = (   0.4375000  -0.1875000   0.5625000), wk =   0.0468750
        k(   14) = (   0.3125000  -0.0625000   0.4375000), wk =   0.0468750
        k(   15) = (   0.1875000   0.0625000   0.3125000), wk =   0.0468750
        k(   16) = (  -0.0625000   0.5625000   0.0625000), wk =   0.0234375
        k(   17) = (  -0.1875000   0.6875000  -0.0625000), wk =   0.0468750
        k(   18) = (   0.6875000  -0.1875000   0.8125000), wk =   0.0468750
        k(   19) = (   0.5625000  -0.0625000   0.6875000), wk =   0.0468750
        k(   20) = (   0.4375000   0.0625000   0.5625000), wk =   0.0468750
        k(   21) = (   0.3125000   0.1875000   0.4375000), wk =   0.0468750
        k(   22) = (  -0.0625000   0.8125000   0.0625000), wk =   0.0234375
        k(   23) = (   0.8125000  -0.0625000   0.9375000), wk =   0.0468750
        k(   24) = (   0.6875000   0.0625000   0.8125000), wk =   0.0468750
        k(   25) = (   0.5625000   0.1875000   0.6875000), wk =   0.0468750
        k(   26) = (   0.4375000   0.3125000   0.5625000), wk =   0.0468750
        k(   27) = (  -0.0625000  -0.9375000   0.0625000), wk =   0.0234375
        k(   28) = (  -0.1875000  -0.8125000  -0.0625000), wk =   0.0468750
        k(   29) = (  -0.3125000  -0.6875000  -0.1875000), wk =   0.0468750
        k(   30) = (  -0.0625000  -0.6875000   0.0625000), wk =   0.0234375
        k(   31) = (  -0.1875000  -0.5625000  -0.0625000), wk =   0.0468750
        k(   32) = (  -0.0625000  -0.4375000   0.0625000), wk =   0.0234375
        k(   33) = (  -0.1875000   0.1875000   0.1875000), wk =   0.0078125
        k(   34) = (  -0.3125000   0.3125000   0.0625000), wk =   0.0234375
        k(   35) = (  -0.4375000   0.4375000  -0.0625000), wk =   0.0234375
        k(   36) = (   0.4375000  -0.4375000   0.8125000), wk =   0.0234375
        k(   37) = (   0.3125000  -0.3125000   0.6875000), wk =   0.0234375
        k(   38) = (   0.1875000  -0.1875000   0.5625000), wk =   0.0234375
        k(   39) = (  -0.1875000   0.4375000   0.1875000), wk =   0.0234375
        k(   40) = (  -0.3125000   0.5625000   0.0625000), wk =   0.0468750
        k(   41) = (   0.5625000  -0.3125000   0.9375000), wk =   0.0468750
        k(   42) = (   0.4375000  -0.1875000   0.8125000), wk =   0.0468750
        k(   43) = (   0.3125000  -0.0625000   0.6875000), wk =   0.0468750
        k(   44) = (  -0.1875000   0.6875000   0.1875000), wk =   0.0234375
        k(   45) = (   0.6875000  -0.1875000   1.0625000), wk =   0.0468750
        k(   46) = (   0.5625000  -0.0625000   0.9375000), wk =   0.0468750
        k(   47) = (   0.4375000   0.0625000   0.8125000), wk =   0.0468750
        k(   48) = (  -0.1875000  -1.0625000   0.1875000), wk =   0.0234375
        k(   49) = (  -0.3125000  -0.9375000   0.0625000), wk =   0.0468750
        k(   50) = (  -0.1875000  -0.8125000   0.1875000), wk =   0.0234375
        k(   51) = (  -0.3125000   0.3125000   0.3125000), wk =   0.0078125
        k(   52) = (  -0.4375000   0.4375000   0.1875000), wk =   0.0234375
        k(   53) = (   0.4375000  -0.4375000   1.0625000), wk =   0.0234375
        k(   54) = (   0.3125000  -0.3125000   0.9375000), wk =   0.0234375
        k(   55) = (  -0.3125000   0.5625000   0.3125000), wk =   0.0234375
        k(   56) = (   0.5625000  -0.3125000   1.1875000), wk =   0.0468750
        k(   57) = (   0.4375000  -0.1875000   1.0625000), wk =   0.0468750
        k(   58) = (  -0.3125000  -1.1875000   0.3125000), wk =   0.0234375
        k(   59) = (  -0.4375000   0.4375000   0.4375000), wk =   0.0078125
        k(   60) = (   0.4375000  -0.4375000   1.3125000), wk =   0.0234375

     Dense  grid:     8099 G-vectors     FFT dimensions: (  30,  30,  30)

     Smooth grid:     2891 G-vectors     FFT dimensions: (  20,  20,  20)

     Estimated max dynamical RAM per process >       1.73MB

     Estimated total allocated dynamical RAM >       6.94MB

     Initial potential from superposition of free atoms

     starting charge    7.99866, renormalised to    8.00000
     Starting wfc are    8 randomized atomic wfcs

     total cpu time spent up to now is        0.4 secs

     per-process dynamical memory:     8.6 Mb

     Self-consistent Calculation

     iteration #  1     ecut=    18.00 Ry     beta=0.70
     Davidson diagonalization with overlap
     ethr =  1.00E-02,  avg # of iterations =  2.0

     Threshold (ethr) on eigenvalues was too large:
     Diagonalizing with lowered threshold

     Davidson diagonalization with overlap
     ethr =  6.56E-04,  avg # of iterations =  1.0

     total cpu time spent up to now is        1.0 secs

     total energy              =     -19.18917056 Ry
     Harris-Foulkes estimate   =     -19.20089685 Ry
     estimated scf accuracy    <       0.05227241 Ry

     iteration #  2     ecut=    18.00 Ry     beta=0.70
     Davidson diagonalization with overlap
     ethr =  6.53E-04,  avg # of iterations =  1.0

     total cpu time spent up to now is        1.4 secs

     total energy              =     -19.19078474 Ry
     Harris-Foulkes estimate   =     -19.19095428 Ry
     estimated scf accuracy    <       0.00245341 Ry

     iteration #  3     ecut=    18.00 Ry     beta=0.70
     Davidson diagonalization with overlap
     ethr =  3.07E-05,  avg # of iterations =  1.9

     total cpu time spent up to now is        1.6 secs

     total energy              =     -19.19105165 Ry
     Harris-Foulkes estimate   =     -19.19106404 Ry
     estimated scf accuracy    <       0.00003905 Ry

     iteration #  4     ecut=    18.00 Ry     beta=0.70
     Davidson diagonalization with overlap
     ethr =  4.88E-07,  avg # of iterations =  2.8

     total cpu time spent up to now is        1.8 secs

     total energy              =     -19.19107540 Ry
     Harris-Foulkes estimate   =     -19.19107589 Ry
     estimated scf accuracy    <       0.00000213 Ry

     iteration #  5     ecut=    18.00 Ry     beta=0.70
     Davidson diagonalization with overlap
     ethr =  2.67E-08,  avg # of iterations =  2.2

     total cpu time spent up to now is        2.1 secs

     total energy              =     -19.19107585 Ry
     Harris-Foulkes estimate   =     -19.19107586 Ry
     estimated scf accuracy    <       0.00000005 Ry

     iteration #  6     ecut=    18.00 Ry     beta=0.70
     Davidson diagonalization with overlap
     ethr =  6.41E-10,  avg # of iterations =  2.7

     total cpu time spent up to now is        2.3 secs

     End of self-consistent calculation

          k =-0.0625 0.0625 0.0625 (   338 PWs)   bands (ev):

    -5.8451   5.2760   5.7275   5.7275

          k =-0.1875 0.1875-0.0625 (   353 PWs)   bands (ev):

    -5.5834   3.7809   4.9395   5.6099

          k =-0.3125 0.3125-0.1875 (   356 PWs)   bands (ev):

    -4.9506   1.5951   4.4576   5.1562

          k =-0.4375 0.4375-0.3125 (   360 PWs)   bands (ev):

    -4.0713  -0.2509   4.2422   4.7569

          k = 0.4375-0.4375 0.5625 (   360 PWs)   bands (ev):

    -3.6372  -0.9326   4.2892   4.5440

          k = 0.3125-0.3125 0.4375 (   357 PWs)   bands (ev):

    -4.3718   0.2942   4.5659   4.5698

          k = 0.1875-0.1875 0.3125 (   357 PWs)   bands (ev):

    -5.1986   2.3109   4.8388   5.0261

          k = 0.0625-0.0625 0.1875 (   344 PWs)   bands (ev):

    -5.7133   4.5250   5.3121   5.4623

          k =-0.0625 0.3125 0.0625 (   354 PWs)   bands (ev):

    -5.4509   3.6299   4.7664   4.8421

          k =-0.1875 0.4375-0.0625 (   357 PWs)   bands (ev):

    -4.9380   2.1515   3.8164   4.5889

          k =-0.3125 0.5625-0.1875 (   361 PWs)   bands (ev):

    -4.1133   0.3362   3.3235   4.1896

          k = 0.5625-0.3125 0.6875 (   365 PWs)   bands (ev):

    -3.3738  -0.8416   3.0376   4.0992

          k = 0.4375-0.1875 0.5625 (   363 PWs)   bands (ev):

    -3.8178  -0.1705   2.9697   4.3764

          k = 0.3125-0.0625 0.4375 (   359 PWs)   bands (ev):

    -4.6959   1.5157   3.2732   4.8718

          k = 0.1875 0.0625 0.3125 (   355 PWs)   bands (ev):

    -5.3236   2.9713   4.3749   5.2365

          k =-0.0625 0.5625 0.0625 (   355 PWs)   bands (ev):

    -4.5457   1.6428   3.6775   3.7962

          k =-0.1875 0.6875-0.0625 (   357 PWs)   bands (ev):

    -3.8105   0.4291   2.9100   3.4581

          k = 0.6875-0.1875 0.8125 (   365 PWs)   bands (ev):

    -2.9360  -0.7395   2.0892   3.4268

          k = 0.5625-0.0625 0.6875 (   367 PWs)   bands (ev):

    -3.0068  -0.6471   1.7468   3.7625

          k = 0.4375 0.0625 0.5625 (   362 PWs)   bands (ev):

    -3.8809   0.2921   2.3339   4.3339

          k = 0.3125 0.1875 0.4375 (   358 PWs)   bands (ev):

    -4.5856   0.9322   3.9235   4.7740

          k =-0.0625 0.8125 0.0625 (   362 PWs)   bands (ev):

    -3.1701  -0.4194   3.0042   3.2142

          k = 0.8125-0.0625 0.9375 (   363 PWs)   bands (ev):

    -2.2812  -1.3894   2.4631   2.9782

          k = 0.6875 0.0625 0.8125 (   368 PWs)   bands (ev):

    -2.3814  -1.2241   1.7542   3.2863

          k = 0.5625 0.1875 0.6875 (   365 PWs)   bands (ev):

    -3.1228  -0.8061   2.2809   3.8735

          k = 0.4375 0.3125 0.5625 (   365 PWs)   bands (ev):

    -3.7178  -0.6465   3.7479   4.4464

          k =-0.0625-0.9375 0.0625 (   358 PWs)   bands (ev):

    -2.3298  -1.4050   2.8694   3.0952

          k =-0.1875-0.8125-0.0625 (   359 PWs)   bands (ev):

    -3.0873  -0.4818   2.6161   3.1348

          k =-0.3125-0.6875-0.1875 (   364 PWs)   bands (ev):

    -3.5511  -0.2105   2.6677   3.7202

          k =-0.0625-0.6875 0.0625 (   358 PWs)   bands (ev):

    -3.9130   0.6068   3.2740   3.4497

          k =-0.1875-0.5625-0.0625 (   356 PWs)   bands (ev):

    -4.4311   1.3095   3.3192   3.9546

          k =-0.0625-0.4375 0.0625 (   351 PWs)   bands (ev):

    -5.0603   2.6608   4.2094   4.2429

          k =-0.1875 0.1875 0.1875 (   359 PWs)   bands (ev):

    -5.4545   3.0706   5.2947   5.2947

          k =-0.3125 0.3125 0.0625 (   360 PWs)   bands (ev):

    -5.0708   2.2351   3.8144   5.3096

          k =-0.4375 0.4375-0.0625 (   361 PWs)   bands (ev):

    -4.3401   0.8858   2.7564   4.8153

          k = 0.4375-0.4375 0.8125 (   367 PWs)   bands (ev):

    -3.4685  -0.5668   2.5998   4.2960

          k = 0.3125-0.3125 0.6875 (   365 PWs)   bands (ev):

    -3.4532  -0.5946   2.8908   3.9857

          k = 0.1875-0.1875 0.5625 (   358 PWs)   bands (ev):

    -4.3230   0.8825   3.4928   3.9634

          k =-0.1875 0.4375 0.1875 (   362 PWs)   bands (ev):

    -4.8196   1.5832   4.3000   4.3736

          k =-0.3125 0.5625 0.0625 (   360 PWs)   bands (ev):

    -4.2063   0.8159   2.8120   4.1811

          k = 0.5625-0.3125 0.9375 (   364 PWs)   bands (ev):

    -3.3359  -0.2693   2.0414   3.6279

          k = 0.4375-0.1875 0.8125 (   368 PWs)   bands (ev):

    -2.8614  -0.8673   2.0413   3.3233

          k = 0.3125-0.0625 0.6875 (   362 PWs)   bands (ev):

    -3.6132   0.1127   2.4573   3.4977

          k =-0.1875 0.6875 0.1875 (   360 PWs)   bands (ev):

    -3.7198   0.1715   2.7821   3.6391

          k = 0.6875-0.1875 1.0625 (   360 PWs)   bands (ev):

    -2.9333  -0.6192   2.2212   2.9742

          k = 0.5625-0.0625 0.9375 (   370 PWs)   bands (ev):

    -2.1455  -1.3623   1.9130   2.4857

          k = 0.4375 0.0625 0.8125 (   367 PWs)   bands (ev):

    -2.7349  -0.8214   1.9028   2.9499

          k =-0.1875-1.0625 0.1875 (   364 PWs)   bands (ev):

    -2.3036  -1.3389   2.0145   3.3031

          k =-0.3125-0.9375 0.0625 (   366 PWs)   bands (ev):

    -2.2052  -1.3706   2.1062   2.6938

          k =-0.1875-0.8125 0.1875 (   362 PWs)   bands (ev):

    -3.0285  -0.5804   2.2728   3.4163

          k =-0.3125 0.3125 0.3125 (   359 PWs)   bands (ev):

    -4.7148   0.9064   4.8875   4.8875

          k =-0.4375 0.4375 0.1875 (   360 PWs)   bands (ev):

    -4.2459   0.3351   3.4489   4.8007

          k = 0.4375-0.4375 1.0625 (   367 PWs)   bands (ev):

    -3.4716  -0.2025   1.9627   4.2335

          k = 0.3125-0.3125 0.9375 (   364 PWs)   bands (ev):

    -2.6696  -0.9737   1.6359   3.6989

          k =-0.3125 0.5625 0.3125 (   366 PWs)   bands (ev):

    -3.9399  -0.2110   3.7734   4.2508

          k = 0.5625-0.3125 1.1875 (   367 PWs)   bands (ev):

    -3.3341  -0.5723   2.4965   3.7885

          k = 0.4375-0.1875 1.0625 (   370 PWs)   bands (ev):

    -2.5342  -1.0415   1.7259   3.0925

          k =-0.3125-1.1875 0.3125 (   363 PWs)   bands (ev):

    -2.9839  -0.8495   2.1166   3.7967

          k =-0.4375 0.4375 0.4375 (   356 PWs)   bands (ev):

    -3.8482  -0.7025   4.6697   4.6697

          k = 0.4375-0.4375 1.3125 (   365 PWs)   bands (ev):

    -3.5062  -0.8779   3.4641   4.4080

     highest occupied level (ev):     5.7275

!    total energy              =     -19.19107587 Ry
     Harris-Foulkes estimate   =     -19.19107587 Ry
     estimated scf accuracy    <          8.0E-09 Ry

     The total energy is the sum of the following terms:

     one-electron contribution =       4.82387095 Ry
     hartree contribution      =       1.14826859 Ry
     xc contribution           =      -8.57569252 Ry
     ewald contribution        =     -16.58752288 Ry

     convergence has been achieved in   6 iterations

     Writing output data file silicon.10.392.save

     init_run     :      0.25s CPU      0.29s WALL (       1 calls)
     electrons    :      1.20s CPU      1.89s WALL (       1 calls)

     Called by init_run:
     wfcinit      :      0.07s CPU      0.08s WALL (       1 calls)
     potinit      :      0.02s CPU      0.02s WALL (       1 calls)

     Called by electrons:
     c_bands      :      0.87s CPU      1.36s WALL (       7 calls)
     sum_band     :      0.20s CPU      0.33s WALL (       7 calls)
     v_of_rho     :      0.06s CPU      0.07s WALL (       7 calls)
     newd         :      0.06s CPU      0.11s WALL (       7 calls)
     mix_rho      :      0.00s CPU      0.01s WALL (       7 calls)

     Called by c_bands:
     init_us_2    :      0.05s CPU      0.07s WALL (     900 calls)
     cegterg      :      0.73s CPU      1.16s WALL (     420 calls)

     Called by sum_band:
     sum_band:bec :      0.00s CPU      0.01s WALL (     420 calls)
     addusdens    :      0.07s CPU      0.08s WALL (       7 calls)

     Called by *egterg:
     h_psi        :      0.51s CPU      0.80s WALL (    1296 calls)
     s_psi        :      0.06s CPU      0.06s WALL (    1296 calls)
     g_psi        :      0.00s CPU      0.00s WALL (     816 calls)
     cdiaghg      :      0.09s CPU      0.13s WALL (    1176 calls)

     Called by h_psi:
     h_psi:pot    :      0.51s CPU      0.79s WALL (    1296 calls)
     h_psi:calbec :      0.08s CPU      0.14s WALL (    1296 calls)
     vloc_psi     :      0.37s CPU      0.58s WALL (    1296 calls)
     add_vuspsi   :      0.06s CPU      0.08s WALL (    1296 calls)

     General routines
     calbec       :      0.11s CPU      0.22s WALL (    1716 calls)
     fft          :      0.05s CPU      0.07s WALL (     112 calls)
     ffts         :      0.00s CPU      0.00s WALL (      14 calls)
     fftw         :      0.34s CPU      0.59s WALL (   11606 calls)
     interpolate  :      0.01s CPU      0.02s WALL (      14 calls)
     davcio       :      0.00s CPU      0.00s WALL (      60 calls)

     Parallel routines
     fft_scatter  :      0.19s CPU      0.44s WALL (   11732 calls)

     PWSCF        :     1.71s CPU         2.47s WALL


   This run was terminated on:  10: 3:15  10Nov2017            

=------------------------------------------------------------------------------=
   JOB DONE.
=------------------------------------------------------------------------------=
