
     Program PWSCF v.6.1 (svn rev. 13369) starts on 10Nov2017 at 12: 7:49 

     This program is part of the open-source Quantum ESPRESSO suite
     for quantum simulation of materials; please cite
         "P. Giannozzi et al., J. Phys.:Condens. Matter 21 395502 (2009);
          URL http://www.quantum-espresso.org", 
     in publications or presentations arising from this work. More details at
     http://www.quantum-espresso.org/quote

     Parallel version (MPI), running on     4 processors
     R & G space division:  proc/nbgrp/npool/nimage =       4
     Waiting for input...
     Reading input from standard input
     Message from routine read_cards :
     DEPRECATED: no units specified in ATOMIC_POSITIONS card
     Message from routine read_cards :
     ATOMIC_POSITIONS: units set to alat

     Current dimensions of program PWSCF are:
     Max number of different atomic species (ntypx) = 10
     Max number of k-points (npk) =  40000
     Max angular momentum in pseudopotentials (lmaxx) =  3

     Subspace diagonalization in iterative solution of the eigenvalue problem:
     a serial algorithm will be used


     Parallelization info
     --------------------
     sticks:   dense  smooth     PW     G-vecs:    dense   smooth      PW
     Min          37      18      9                  309      102      34
     Max          38      19     10                  312      103      35
     Sum         151      73     37                 1243      411     137



     bravais-lattice index     =            2
     lattice parameter (alat)  =      10.3330  a.u.
     unit-cell volume          =     275.8159 (a.u.)^3
     number of atoms/cell      =            2
     number of atomic types    =            1
     number of electrons       =         8.00
     number of Kohn-Sham states=            4
     kinetic-energy cutoff     =       5.0000  Ry
     charge density cutoff     =      40.0000  Ry
     convergence threshold     =      1.0E-08
     mixing beta               =       0.7000
     number of iterations used =            8  plain     mixing
     Exchange-correlation      = SLA  PW   PBE  PBE ( 1  4  3  4 0 0)

     celldm(1)=  10.333000  celldm(2)=   0.000000  celldm(3)=   0.000000
     celldm(4)=   0.000000  celldm(5)=   0.000000  celldm(6)=   0.000000

     crystal axes: (cart. coord. in units of alat)
               a(1) = (  -0.500000   0.000000   0.500000 )  
               a(2) = (   0.000000   0.500000   0.500000 )  
               a(3) = (  -0.500000   0.500000   0.000000 )  

     reciprocal axes: (cart. coord. in units 2 pi/alat)
               b(1) = ( -1.000000 -1.000000  1.000000 )  
               b(2) = (  1.000000  1.000000  1.000000 )  
               b(3) = ( -1.000000  1.000000 -1.000000 )  


     PseudoPot. # 1 for Si read from file:
     /home/max/quantum_espresso/qe-6.1/pseudo/si_pbe_v1.uspp.F.UPF.txt
     MD5 check sum: a056efeee980c13900f22a371efd63c1
     Pseudo is Ultrasoft + core correction, Zval =  4.0
     Generated by new atomic code, or converted to UPF format
     Using radial grid of  899 points,  6 beta functions with: 
                l(1) =   0
                l(2) =   0
                l(3) =   1
                l(4) =   1
                l(5) =   2
                l(6) =   2
     Q(r) pseudized with  8 coefficients,  rinner =    0.900   0.900   0.900
                                                       0.900   0.900

     atomic species   valence    mass     pseudopotential
        Si             4.00    28.08600     Si( 1.00)

     24 Sym. Ops. (no inversion) found
          (note: 24 additional sym.ops. were found but ignored
           their fractional translations are incommensurate with FFT grid)


   Cartesian axes

     site n.     atom                  positions (alat units)
         1           Si  tau(   1) = (   0.0000000   0.0000000   0.0000000  )
         2           Si  tau(   2) = (   0.2500000   0.2500000   0.2500000  )

     number of k points=    28
                       cart. coord. in units 2pi/alat
        k(    1) = (  -0.0833333   0.0833333   0.0833333), wk =   0.0185185
        k(    2) = (  -0.2500000   0.2500000  -0.0833333), wk =   0.0555556
        k(    3) = (  -0.4166667   0.4166667  -0.2500000), wk =   0.0555556
        k(    4) = (   0.4166667  -0.4166667   0.5833333), wk =   0.0555556
        k(    5) = (   0.2500000  -0.2500000   0.4166667), wk =   0.0555556
        k(    6) = (   0.0833333  -0.0833333   0.2500000), wk =   0.0555556
        k(    7) = (  -0.0833333   0.4166667   0.0833333), wk =   0.0555556
        k(    8) = (  -0.2500000   0.5833333  -0.0833333), wk =   0.1111111
        k(    9) = (   0.5833333  -0.2500000   0.7500000), wk =   0.1111111
        k(   10) = (   0.4166667  -0.0833333   0.5833333), wk =   0.1111111
        k(   11) = (   0.2500000   0.0833333   0.4166667), wk =   0.1111111
        k(   12) = (  -0.0833333   0.7500000   0.0833333), wk =   0.0555556
        k(   13) = (   0.7500000  -0.0833333   0.9166667), wk =   0.1111111
        k(   14) = (   0.5833333   0.0833333   0.7500000), wk =   0.1111111
        k(   15) = (   0.4166667   0.2500000   0.5833333), wk =   0.1111111
        k(   16) = (  -0.0833333  -0.9166667   0.0833333), wk =   0.0555556
        k(   17) = (  -0.2500000  -0.7500000  -0.0833333), wk =   0.1111111
        k(   18) = (  -0.0833333  -0.5833333   0.0833333), wk =   0.0555556
        k(   19) = (  -0.2500000   0.2500000   0.2500000), wk =   0.0185185
        k(   20) = (  -0.4166667   0.4166667   0.0833333), wk =   0.0555556
        k(   21) = (   0.4166667  -0.4166667   0.9166667), wk =   0.0555556
        k(   22) = (   0.2500000  -0.2500000   0.7500000), wk =   0.0555556
        k(   23) = (  -0.2500000   0.5833333   0.2500000), wk =   0.0555556
        k(   24) = (   0.5833333  -0.2500000   1.0833333), wk =   0.1111111
        k(   25) = (   0.4166667  -0.0833333   0.9166667), wk =   0.1111111
        k(   26) = (  -0.2500000  -1.0833333   0.2500000), wk =   0.0555556
        k(   27) = (  -0.4166667   0.4166667   0.4166667), wk =   0.0185185
        k(   28) = (   0.4166667  -0.4166667   1.2500000), wk =   0.0555556

     Dense  grid:     1243 G-vectors     FFT dimensions: (  15,  15,  15)

     Smooth grid:      411 G-vectors     FFT dimensions: (  12,  12,  12)

     Estimated max dynamical RAM per process >       0.23MB

     Estimated total allocated dynamical RAM >       0.93MB

     Check: negative/imaginary core charge=   -0.000056    0.000000

     Initial potential from superposition of free atoms

     starting charge    7.99866, renormalised to    8.00000
     Starting wfc are    8 randomized atomic wfcs

     total cpu time spent up to now is        0.2 secs

     per-process dynamical memory:     6.2 Mb

     Self-consistent Calculation

     iteration #  1     ecut=     5.00 Ry     beta=0.70
     Davidson diagonalization with overlap
     ethr =  1.00E-02,  avg # of iterations =  2.0

     Threshold (ethr) on eigenvalues was too large:
     Diagonalizing with lowered threshold

     Davidson diagonalization with overlap
     ethr =  6.66E-04,  avg # of iterations =  1.0

     total cpu time spent up to now is        0.2 secs

     total energy              =     -19.08008904 Ry
     Harris-Foulkes estimate   =     -19.08398257 Ry
     estimated scf accuracy    <       0.05387796 Ry

     iteration #  2     ecut=     5.00 Ry     beta=0.70
     Davidson diagonalization with overlap
     ethr =  6.73E-04,  avg # of iterations =  1.0

     total cpu time spent up to now is        0.3 secs

     total energy              =     -19.08103509 Ry
     Harris-Foulkes estimate   =     -19.08111484 Ry
     estimated scf accuracy    <       0.00335405 Ry

     iteration #  3     ecut=     5.00 Ry     beta=0.70
     Davidson diagonalization with overlap
     ethr =  4.19E-05,  avg # of iterations =  1.2

     total cpu time spent up to now is        0.3 secs

     total energy              =     -19.08120080 Ry
     Harris-Foulkes estimate   =     -19.08121657 Ry
     estimated scf accuracy    <       0.00004800 Ry

     iteration #  4     ecut=     5.00 Ry     beta=0.70
     Davidson diagonalization with overlap
     ethr =  6.00E-07,  avg # of iterations =  2.5

     total cpu time spent up to now is        0.3 secs

     total energy              =     -19.08122019 Ry
     Harris-Foulkes estimate   =     -19.08122138 Ry
     estimated scf accuracy    <       0.00000333 Ry

     iteration #  5     ecut=     5.00 Ry     beta=0.70
     Davidson diagonalization with overlap
     ethr =  4.17E-08,  avg # of iterations =  2.0

     total cpu time spent up to now is        0.4 secs

     total energy              =     -19.08122086 Ry
     Harris-Foulkes estimate   =     -19.08122087 Ry
     estimated scf accuracy    <       0.00000010 Ry

     iteration #  6     ecut=     5.00 Ry     beta=0.70
     Davidson diagonalization with overlap
     ethr =  1.23E-09,  avg # of iterations =  2.2

     total cpu time spent up to now is        0.4 secs

     total energy              =     -19.08122089 Ry
     Harris-Foulkes estimate   =     -19.08122089 Ry
     estimated scf accuracy    <       0.00000002 Ry

     iteration #  7     ecut=     5.00 Ry     beta=0.70
     Davidson diagonalization with overlap
     ethr =  2.06E-10,  avg # of iterations =  1.2

     total cpu time spent up to now is        0.4 secs

     End of self-consistent calculation

          k =-0.0833 0.0833 0.0833 (    59 PWs)   bands (ev):

    -5.5713   5.1953   5.8774   5.8774

          k =-0.2500 0.2500-0.0833 (    57 PWs)   bands (ev):

    -5.0970   3.1867   4.6829   5.6558

          k =-0.4167 0.4167-0.2500 (    52 PWs)   bands (ev):

    -4.0305   0.4783   4.2585   5.0476

          k = 0.4167-0.4167 0.5833 (    52 PWs)   bands (ev):

    -3.3535  -0.6598   4.3248   4.7047

          k = 0.2500-0.2500 0.4167 (    52 PWs)   bands (ev):

    -4.4280   1.3282   4.7328   4.8186

          k = 0.0833-0.0833 0.2500 (    58 PWs)   bands (ev):

    -5.3318   4.1742   5.2430   5.4333

          k =-0.0833 0.4167 0.0833 (    54 PWs)   bands (ev):

    -4.8667   3.0556   4.5300   4.5381

          k =-0.2500 0.5833-0.0833 (    50 PWs)   bands (ev):

    -3.9605   1.2439   3.2531   4.1683

          k = 0.5833-0.2500 0.7500 (    54 PWs)   bands (ev):

    -2.8674  -0.5215   2.6486   3.9336

          k = 0.4167-0.0833 0.5833 (    53 PWs)   bands (ev):

    -3.5836   0.5378   2.6127   4.4097

          k = 0.2500 0.0833 0.4167 (    55 PWs)   bands (ev):

    -4.6436   2.1972   3.9229   5.0613

          k =-0.0833 0.7500 0.0833 (    50 PWs)   bands (ev):

    -3.2590   0.4235   3.2054   3.4992

          k = 0.7500-0.0833 0.9167 (    51 PWs)   bands (ev):

    -2.0742  -0.9047   2.3622   3.1350

          k = 0.5833 0.0833 0.7500 (    51 PWs)   bands (ev):

    -2.4413  -0.5751   1.9090   3.6606

          k = 0.4167 0.2500 0.5833 (    52 PWs)   bands (ev):

    -3.4700  -0.1467   3.5519   4.5133

          k =-0.0833-0.9167 0.0833 (    50 PWs)   bands (ev):

    -2.1624  -0.9174   2.9367   3.3140

          k =-0.2500-0.7500-0.0833 (    50 PWs)   bands (ev):

    -3.0917   0.2038   2.6931   3.4680

          k =-0.0833-0.5833 0.0833 (    52 PWs)   bands (ev):

    -4.1689   1.7811   3.7339   3.9201

          k =-0.2500 0.2500 0.2500 (    55 PWs)   bands (ev):

    -4.8649   2.2323   5.2649   5.2649

          k =-0.4167 0.4167 0.0833 (    55 PWs)   bands (ev):

    -4.2179   1.3167   3.2123   5.1010

          k = 0.4167-0.4167 0.9167 (    52 PWs)   bands (ev):

    -3.0410  -0.0771   2.1098   4.3379

          k = 0.2500-0.2500 0.7500 (    50 PWs)   bands (ev):

    -2.9832  -0.1605   2.6012   3.8751

          k =-0.2500 0.5833 0.2500 (    49 PWs)   bands (ev):

    -3.7788   0.5452   3.6928   4.2495

          k = 0.5833-0.2500 1.0833 (    52 PWs)   bands (ev):

    -2.8022  -0.1868   2.2183   3.4785

          k = 0.4167-0.0833 0.9167 (    52 PWs)   bands (ev):

    -1.9646  -0.9125   2.0463   2.8100

          k =-0.2500-1.0833 0.2500 (    52 PWs)   bands (ev):

    -2.1771  -0.8280   1.9241   3.6452

          k =-0.4167 0.4167 0.4167 (    49 PWs)   bands (ev):

    -3.7159  -0.2442   4.9256   4.9256

          k = 0.4167-0.4167 1.2500 (    50 PWs)   bands (ev):

    -3.0958  -0.5346   3.1282   4.5012

     highest occupied level (ev):     5.8774

!    total energy              =     -19.08122089 Ry
     Harris-Foulkes estimate   =     -19.08122089 Ry
     estimated scf accuracy    <          2.6E-09 Ry

     The total energy is the sum of the following terms:

     one-electron contribution =       5.12420437 Ry
     hartree contribution      =       1.10198170 Ry
     xc contribution           =      -8.62517165 Ry
     ewald contribution        =     -16.68223531 Ry

     convergence has been achieved in   7 iterations


     Computing stress (Cartesian axis) and pressure

          total   stress  (Ry/bohr**3)                   (kbar)     P=  -73.19
  -0.00049753  -0.00000000   0.00000000        -73.19     -0.00      0.00
  -0.00000000  -0.00049753   0.00000000         -0.00    -73.19      0.00
   0.00000000   0.00000000  -0.00049753          0.00      0.00    -73.19


     Writing output data file silicon.5.save

     init_run     :      0.09s CPU      0.10s WALL (       1 calls)
     electrons    :      0.18s CPU      0.23s WALL (       1 calls)
     stress       :      0.03s CPU      0.03s WALL (       1 calls)

     Called by init_run:
     wfcinit      :      0.01s CPU      0.01s WALL (       1 calls)
     potinit      :      0.00s CPU      0.00s WALL (       1 calls)

     Called by electrons:
     c_bands      :      0.13s CPU      0.16s WALL (       8 calls)
     sum_band     :      0.03s CPU      0.04s WALL (       8 calls)
     v_of_rho     :      0.01s CPU      0.01s WALL (       8 calls)
     newd         :      0.01s CPU      0.02s WALL (       8 calls)
     mix_rho      :      0.00s CPU      0.00s WALL (       8 calls)

     Called by c_bands:
     init_us_2    :      0.01s CPU      0.01s WALL (     504 calls)
     cegterg      :      0.11s CPU      0.14s WALL (     224 calls)

     Called by sum_band:
     sum_band:bec :      0.00s CPU      0.00s WALL (     224 calls)
     addusdens    :      0.01s CPU      0.01s WALL (       8 calls)

     Called by *egterg:
     h_psi        :      0.07s CPU      0.09s WALL (     621 calls)
     s_psi        :      0.01s CPU      0.01s WALL (     621 calls)
     g_psi        :      0.00s CPU      0.00s WALL (     369 calls)
     cdiaghg      :      0.03s CPU      0.03s WALL (     565 calls)

     Called by h_psi:
     h_psi:pot    :      0.07s CPU      0.09s WALL (     621 calls)
     h_psi:calbec :      0.01s CPU      0.01s WALL (     621 calls)
     vloc_psi     :      0.05s CPU      0.06s WALL (     621 calls)
     add_vuspsi   :      0.01s CPU      0.01s WALL (     621 calls)

     General routines
     calbec       :      0.01s CPU      0.02s WALL (     873 calls)
     fft          :      0.00s CPU      0.00s WALL (     142 calls)
     ffts         :      0.00s CPU      0.00s WALL (      16 calls)
     fftw         :      0.05s CPU      0.06s WALL (    5866 calls)
     interpolate  :      0.00s CPU      0.00s WALL (      16 calls)
     davcio       :      0.00s CPU      0.00s WALL (      28 calls)

     Parallel routines
     fft_scatter  :      0.03s CPU      0.04s WALL (    6024 calls)

     PWSCF        :     0.49s CPU         0.57s WALL


   This run was terminated on:  12: 7:50  10Nov2017            

=------------------------------------------------------------------------------=
   JOB DONE.
=------------------------------------------------------------------------------=
