
     Program PHONON v.6.1 (svn rev. 13369) starts on 10Nov2017 at 15:53:12 

     This program is part of the open-source Quantum ESPRESSO suite
     for quantum simulation of materials; please cite
         "P. Giannozzi et al., J. Phys.:Condens. Matter 21 395502 (2009);
          URL http://www.quantum-espresso.org", 
     in publications or presentations arising from this work. More details at
     http://www.quantum-espresso.org/quote

     Parallel version (MPI), running on     4 processors
     R & G space division:  proc/nbgrp/npool/nimage =       4

     Reading data from directory:
     ./silicon.10.372.save

   Info: using nr1, nr2, nr3 values from input

   Info: using nr1, nr2, nr3 values from input

     IMPORTANT: XC functional enforced from input :
     Exchange-correlation      = SLA  PW   PBE  PBE ( 1  4  3  4 0 0)
     Any further DFT definition will be discarded
     Please, verify this is what you really want


     Parallelization info
     --------------------
     sticks:   dense  smooth     PW     G-vecs:    dense   smooth      PW
     Min         222     109     37                 4369     1545     284
     Max         223     110     38                 4370     1546     285
     Sum         889     439    151                17477     6183    1139



     Dynamical matrices for ( 4, 4, 4)  uniform grid of q-points
     (   8q-points):
       N         xq(1)         xq(2)         xq(3) 
       1   0.000000000   0.000000000   0.000000000
       2  -0.250000000   0.250000000  -0.250000000
       3   0.500000000  -0.500000000   0.500000000
       4   0.000000000   0.500000000   0.000000000
       5   0.750000000  -0.250000000   0.750000000
       6   0.500000000   0.000000000   0.500000000
       7   0.000000000  -1.000000000   0.000000000
       8  -0.500000000  -1.000000000   0.000000000

     Calculation of q =    0.0000000   0.0000000   0.0000000

                                                                                

     bravais-lattice index     =            2
     lattice parameter (alat)  =      10.3720  a.u.
     unit-cell volume          =     278.9507 (a.u.)^3
     number of atoms/cell      =            2
     number of atomic types    =            1
     kinetic-energy cut-off    =      30.0000  Ry
     charge density cut-off    =     240.0000  Ry
     convergence threshold     =      1.0E-12
     beta                      =       0.7000
     number of iterations used =            4
     Exchange-correlation      = SLA  PW   PBE  PBE ( 1  4  3  4 0 0)


     celldm(1)=   10.37200  celldm(2)=    0.00000  celldm(3)=    0.00000
     celldm(4)=    0.00000  celldm(5)=    0.00000  celldm(6)=    0.00000

     crystal axes: (cart. coord. in units of alat)
               a(1) = ( -0.5000  0.0000  0.5000 )  
               a(2) = (  0.0000  0.5000  0.5000 )  
               a(3) = ( -0.5000  0.5000  0.0000 )  

     reciprocal axes: (cart. coord. in units 2 pi/alat)
               b(1) = ( -1.0000 -1.0000  1.0000 )  
               b(2) = (  1.0000  1.0000  1.0000 )  
               b(3) = ( -1.0000  1.0000 -1.0000 )  


     Atoms inside the unit cell: 

     Cartesian axes

     site n.  atom      mass           positions (alat units)
        1     Si  28.0860   tau(    1) = (    0.00000    0.00000    0.00000  )
        2     Si  28.0860   tau(    2) = (    0.25000    0.25000    0.25000  )

     Computing dynamical matrix for 
                    q = (   0.0000000   0.0000000   0.0000000 )

     49 Sym.Ops. (with q -> -q+G )


     G cutoff =  653.9982  (   4369 G-vectors)     FFT grid: ( 40, 40, 40)
     G cutoff =  326.9991  (   1546 G-vectors)  smooth grid: ( 25, 25, 25)
     number of k points=    10

     PseudoPot. # 1 for Si read from file:
     /home/s1333534/quantum_espresso/qe-6.1/pseudo/si_pbe_v1.uspp.F.UPF.txt
     MD5 check sum: a056efeee980c13900f22a371efd63c1
     Pseudo is Ultrasoft + core correction, Zval =  4.0
     Generated by new atomic code, or converted to UPF format
     Using radial grid of  899 points,  6 beta functions with: 
                l(1) =   0
                l(2) =   0
                l(3) =   1
                l(4) =   1
                l(5) =   2
                l(6) =   2
     Q(r) pseudized with  8 coefficients,  rinner =    0.900   0.900   0.900
                                                       0.900   0.900

     Mode symmetry, O_h (m-3m)  point group:


     Electric field:
     Dielectric constant
     Born effective charges in two ways 


     Atomic displacements:
     There are   2 irreducible representations

     Representation     1      3 modes -T_2g G_25' G_5+  To be done

     Representation     2      3 modes -T_1u G_15  G_4-  To be done



     Alpha used in Ewald sum =   2.5000
     PHONON       :     0.97s CPU         1.30s WALL


     Electric Fields Calculation

      iter #   1 total cpu time :     2.3 secs   av.it.:   5.7
      thresh= 1.000E-02 alpha_mix =  0.700 |ddv_scf|^2 =  9.658E-08

      iter #   2 total cpu time :     3.1 secs   av.it.:  11.9
      thresh= 3.108E-05 alpha_mix =  0.700 |ddv_scf|^2 =  5.784E-09

      iter #   3 total cpu time :     3.9 secs   av.it.:  11.7
      thresh= 7.606E-06 alpha_mix =  0.700 |ddv_scf|^2 =  3.920E-10

      iter #   4 total cpu time :     4.8 secs   av.it.:  10.6
      thresh= 1.980E-06 alpha_mix =  0.700 |ddv_scf|^2 =  2.648E-12

      iter #   5 total cpu time :     5.4 secs   av.it.:  11.2
      thresh= 1.627E-07 alpha_mix =  0.700 |ddv_scf|^2 =  2.658E-15

     End of electric fields calculation

          Dielectric constant in cartesian axis 

          (      14.048874223       0.000000000       0.000000000 )
          (       0.000000000      14.048874223       0.000000000 )
          (       0.000000000       0.000000000      14.048874223 )

          Effective charges (d Force / dE) in cartesian axis

           atom      1   Si 
      Ex  (       -0.03787        0.00000        0.00000 )
      Ey  (        0.00000       -0.03787       -0.00000 )
      Ez  (        0.00000       -0.00000       -0.03787 )
           atom      2   Si 
      Ex  (       -0.03787        0.00000       -0.00000 )
      Ey  (        0.00000       -0.03787       -0.00000 )
      Ez  (        0.00000       -0.00000       -0.03787 )


     Representation #  1 modes #   1  2  3

     Self-consistent Calculation

      iter #   1 total cpu time :     6.9 secs   av.it.:   5.1
      thresh= 1.000E-02 alpha_mix =  0.700 |ddv_scf|^2 =  1.711E-08

      iter #   2 total cpu time :     7.8 secs   av.it.:  11.8
      thresh= 1.308E-05 alpha_mix =  0.700 |ddv_scf|^2 =  6.987E-10

      iter #   3 total cpu time :     8.6 secs   av.it.:  11.2
      thresh= 2.643E-06 alpha_mix =  0.700 |ddv_scf|^2 =  4.750E-11

      iter #   4 total cpu time :     9.3 secs   av.it.:  10.4
      thresh= 6.892E-07 alpha_mix =  0.700 |ddv_scf|^2 =  1.183E-13

     End of self-consistent calculation

     Convergence has been achieved 


     Representation #  2 modes #   4  5  6

     Self-consistent Calculation

      iter #   1 total cpu time :    10.3 secs   av.it.:   5.2
      thresh= 1.000E-02 alpha_mix =  0.700 |ddv_scf|^2 =  1.348E-08

      iter #   2 total cpu time :    11.1 secs   av.it.:  11.8
      thresh= 1.161E-05 alpha_mix =  0.700 |ddv_scf|^2 =  7.908E-10

      iter #   3 total cpu time :    12.0 secs   av.it.:  11.4
      thresh= 2.812E-06 alpha_mix =  0.700 |ddv_scf|^2 =  4.918E-11

      iter #   4 total cpu time :    12.7 secs   av.it.:  11.5
      thresh= 7.013E-07 alpha_mix =  0.700 |ddv_scf|^2 =  1.934E-13

     End of self-consistent calculation

     Convergence has been achieved 

     Number of q in the star =    1
     List of q in the star:
          1   0.000000000   0.000000000   0.000000000

          Dielectric constant in cartesian axis 

          (      14.048874223       0.000000000       0.000000000 )
          (       0.000000000      14.048874223       0.000000000 )
          (       0.000000000       0.000000000      14.048874223 )

          Effective charges (d Force / dE) in cartesian axis

           atom      1   Si 
      Ex  (       -0.03787        0.00000        0.00000 )
      Ey  (        0.00000       -0.03787       -0.00000 )
      Ez  (        0.00000       -0.00000       -0.03787 )
           atom      2   Si 
      Ex  (       -0.03787        0.00000       -0.00000 )
      Ey  (        0.00000       -0.03787       -0.00000 )
      Ez  (        0.00000       -0.00000       -0.03787 )

          Effective charges (d P / du) in cartesian axis 

           atom      1   Si 
      Px  (       -0.07307        0.00000        0.00000 )
      Py  (        0.00000       -0.07307        0.00000 )
      Pz  (       -0.00000        0.00000       -0.07307 )
           atom      2   Si 
      Px  (       -0.07307       -0.00000       -0.00000 )
      Py  (       -0.00000       -0.07307        0.00000 )
      Pz  (       -0.00000        0.00000       -0.07307 )

     Diagonalizing the dynamical matrix

     q = (    0.000000000   0.000000000   0.000000000 ) 

 **************************************************************************
     freq (    1) =      -0.478164 [THz] =     -15.949819 [cm-1]
     freq (    2) =      -0.478164 [THz] =     -15.949819 [cm-1]
     freq (    3) =      -0.478164 [THz] =     -15.949819 [cm-1]
     freq (    4) =      14.903199 [THz] =     497.117224 [cm-1]
     freq (    5) =      14.903199 [THz] =     497.117224 [cm-1]
     freq (    6) =      14.903199 [THz] =     497.117224 [cm-1]
 **************************************************************************

     Mode symmetry, O_h (m-3m)  point group:

     freq (  1 -  3) =        -15.9  [cm-1]   --> T_1u G_15  G_4- I  
     freq (  4 -  6) =        497.1  [cm-1]   --> T_2g G_25' G_5+ R  

     Calculation of q =   -0.2500000   0.2500000  -0.2500000

   Info: using nr1, nr2, nr3 values from input

   Info: using nr1, nr2, nr3 values from input

     Parallelization info
     --------------------
     sticks:   dense  smooth     PW     G-vecs:    dense   smooth      PW
     Min         222     109     37                 4369     1545     309
     Max         223     110     38                 4370     1546     312
     Sum         889     439    151                17477     6183    1243



     bravais-lattice index     =            2
     lattice parameter (alat)  =      10.3720  a.u.
     unit-cell volume          =     278.9507 (a.u.)^3
     number of atoms/cell      =            2
     number of atomic types    =            1
     number of electrons       =         8.00
     number of Kohn-Sham states=            4
     kinetic-energy cutoff     =      30.0000  Ry
     charge density cutoff     =     240.0000  Ry
     Exchange-correlation      = SLA  PW   PBE  PBE ( 1  4  3  4 0 0)

     celldm(1)=  10.372000  celldm(2)=   0.000000  celldm(3)=   0.000000
     celldm(4)=   0.000000  celldm(5)=   0.000000  celldm(6)=   0.000000

     crystal axes: (cart. coord. in units of alat)
               a(1) = (  -0.500000   0.000000   0.500000 )  
               a(2) = (   0.000000   0.500000   0.500000 )  
               a(3) = (  -0.500000   0.500000   0.000000 )  

     reciprocal axes: (cart. coord. in units 2 pi/alat)
               b(1) = ( -1.000000 -1.000000  1.000000 )  
               b(2) = (  1.000000  1.000000  1.000000 )  
               b(3) = ( -1.000000  1.000000 -1.000000 )  


     PseudoPot. # 1 for Si read from file:
     /home/s1333534/quantum_espresso/qe-6.1/pseudo/si_pbe_v1.uspp.F.UPF.txt
     MD5 check sum: a056efeee980c13900f22a371efd63c1
     Pseudo is Ultrasoft + core correction, Zval =  4.0
     Generated by new atomic code, or converted to UPF format
     Using radial grid of  899 points,  6 beta functions with: 
                l(1) =   0
                l(2) =   0
                l(3) =   1
                l(4) =   1
                l(5) =   2
                l(6) =   2
     Q(r) pseudized with  8 coefficients,  rinner =    0.900   0.900   0.900
                                                       0.900   0.900

     atomic species   valence    mass     pseudopotential
        Si             4.00    28.08600     Si( 1.00)

     48 Sym. Ops., with inversion, found



   Cartesian axes

     site n.     atom                  positions (alat units)
         1           Si  tau(   1) = (   0.0000000   0.0000000   0.0000000  )
         2           Si  tau(   2) = (   0.2500000   0.2500000   0.2500000  )

     number of k points=   120

     Number of k-points >= 100: set verbosity='high' to print them.

     Dense  grid:    17477 G-vectors     FFT dimensions: (  40,  40,  40)

     Smooth grid:     6183 G-vectors     FFT dimensions: (  25,  25,  25)

     Estimated max dynamical RAM per process >       1.79MB

     Estimated total allocated dynamical RAM >       7.17MB

     The potential is recalculated from file :
     ./_ph0/silicon.10.372.save/charge-density.dat

     Starting wfc are    8 atomic wfcs

     Band Structure Calculation
     Davidson diagonalization with overlap

     ethr =  1.25E-10,  avg # of iterations = 12.2

     total cpu time spent up to now is        1.4 secs

     End of band structure calculation

     Number of k-points >= 100: set verbosity='high' to print the bands.

     highest occupied level (ev):     5.5859

     Writing output data file silicon.10.372.save

                                                                                

     bravais-lattice index     =            2
     lattice parameter (alat)  =      10.3720  a.u.
     unit-cell volume          =     278.9507 (a.u.)^3
     number of atoms/cell      =            2
     number of atomic types    =            1
     kinetic-energy cut-off    =      30.0000  Ry
     charge density cut-off    =     240.0000  Ry
     convergence threshold     =      1.0E-12
     beta                      =       0.7000
     number of iterations used =            4
     Exchange-correlation      = SLA  PW   PBE  PBE ( 1  4  3  4 0 0)


     celldm(1)=   10.37200  celldm(2)=    0.00000  celldm(3)=    0.00000
     celldm(4)=    0.00000  celldm(5)=    0.00000  celldm(6)=    0.00000

     crystal axes: (cart. coord. in units of alat)
               a(1) = ( -0.5000  0.0000  0.5000 )  
               a(2) = (  0.0000  0.5000  0.5000 )  
               a(3) = ( -0.5000  0.5000  0.0000 )  

     reciprocal axes: (cart. coord. in units 2 pi/alat)
               b(1) = ( -1.0000 -1.0000  1.0000 )  
               b(2) = (  1.0000  1.0000  1.0000 )  
               b(3) = ( -1.0000  1.0000 -1.0000 )  


     Atoms inside the unit cell: 

     Cartesian axes

     site n.  atom      mass           positions (alat units)
        1     Si  28.0860   tau(    1) = (    0.00000    0.00000    0.00000  )
        2     Si  28.0860   tau(    2) = (    0.25000    0.25000    0.25000  )

     Computing dynamical matrix for 
                    q = (  -0.2500000   0.2500000  -0.2500000 )

      6 Sym.Ops. (no q -> -q+G )


     G cutoff =  653.9982  (   4369 G-vectors)     FFT grid: ( 40, 40, 40)
     G cutoff =  326.9991  (   1546 G-vectors)  smooth grid: ( 25, 25, 25)
     number of k points=   120

     PseudoPot. # 1 for Si read from file:
     /home/s1333534/quantum_espresso/qe-6.1/pseudo/si_pbe_v1.uspp.F.UPF.txt
     MD5 check sum: a056efeee980c13900f22a371efd63c1
     Pseudo is Ultrasoft + core correction, Zval =  4.0
     Generated by new atomic code, or converted to UPF format
     Using radial grid of  899 points,  6 beta functions with: 
                l(1) =   0
                l(2) =   0
                l(3) =   1
                l(4) =   1
                l(5) =   2
                l(6) =   2
     Q(r) pseudized with  8 coefficients,  rinner =    0.900   0.900   0.900
                                                       0.900   0.900

     Mode symmetry, C_3v (3m)   point group:


     Atomic displacements:
     There are   4 irreducible representations

     Representation     1      1 modes -A_1  L_1  To be done

     Representation     2      1 modes -A_1  L_1  To be done

     Representation     3      2 modes -E    L_3  To be done

     Representation     4      2 modes -E    L_3  To be done



     Alpha used in Ewald sum =   2.5000
     PHONON       :    12.13s CPU        16.13s WALL



     Representation #  1 mode #   1

     Self-consistent Calculation

      iter #   1 total cpu time :    16.6 secs   av.it.:   5.9
      thresh= 1.000E-02 alpha_mix =  0.700 |ddv_scf|^2 =  3.074E-04

      iter #   2 total cpu time :    17.3 secs   av.it.:   9.2
      thresh= 1.753E-03 alpha_mix =  0.700 |ddv_scf|^2 =  4.706E-03

      iter #   3 total cpu time :    17.8 secs   av.it.:   7.1
      thresh= 6.860E-03 alpha_mix =  0.700 |ddv_scf|^2 =  1.950E-07

      iter #   4 total cpu time :    18.5 secs   av.it.:   9.7
      thresh= 4.416E-05 alpha_mix =  0.700 |ddv_scf|^2 =  1.311E-08

      iter #   5 total cpu time :    19.1 secs   av.it.:   9.8
      thresh= 1.145E-05 alpha_mix =  0.700 |ddv_scf|^2 =  2.264E-10

      iter #   6 total cpu time :    19.8 secs   av.it.:   9.9
      thresh= 1.505E-06 alpha_mix =  0.700 |ddv_scf|^2 =  3.935E-10

      iter #   7 total cpu time :    20.4 secs   av.it.:   8.0
      thresh= 1.984E-06 alpha_mix =  0.700 |ddv_scf|^2 =  5.539E-11

      iter #   8 total cpu time :    21.0 secs   av.it.:   9.2
      thresh= 7.442E-07 alpha_mix =  0.700 |ddv_scf|^2 =  4.057E-13

     End of self-consistent calculation

     Convergence has been achieved 


     Representation #  2 mode #   2

     Self-consistent Calculation

      iter #   1 total cpu time :    21.6 secs   av.it.:   5.9
      thresh= 1.000E-02 alpha_mix =  0.700 |ddv_scf|^2 =  3.074E-04

      iter #   2 total cpu time :    22.3 secs   av.it.:   9.2
      thresh= 1.753E-03 alpha_mix =  0.700 |ddv_scf|^2 =  4.706E-03

      iter #   3 total cpu time :    22.8 secs   av.it.:   7.1
      thresh= 6.860E-03 alpha_mix =  0.700 |ddv_scf|^2 =  1.950E-07

      iter #   4 total cpu time :    23.5 secs   av.it.:   9.7
      thresh= 4.416E-05 alpha_mix =  0.700 |ddv_scf|^2 =  1.311E-08

      iter #   5 total cpu time :    24.1 secs   av.it.:   9.8
      thresh= 1.145E-05 alpha_mix =  0.700 |ddv_scf|^2 =  2.264E-10

      iter #   6 total cpu time :    24.8 secs   av.it.:   9.9
      thresh= 1.505E-06 alpha_mix =  0.700 |ddv_scf|^2 =  3.935E-10

      iter #   7 total cpu time :    25.4 secs   av.it.:   8.0
      thresh= 1.984E-06 alpha_mix =  0.700 |ddv_scf|^2 =  5.539E-11

      iter #   8 total cpu time :    26.0 secs   av.it.:   9.2
      thresh= 7.442E-07 alpha_mix =  0.700 |ddv_scf|^2 =  4.057E-13

     End of self-consistent calculation

     Convergence has been achieved 


     Representation #  3 modes #   3  4

     Self-consistent Calculation

      iter #   1 total cpu time :    26.9 secs   av.it.:   5.2
      thresh= 1.000E-02 alpha_mix =  0.700 |ddv_scf|^2 =  4.806E-08

      iter #   2 total cpu time :    28.6 secs   av.it.:  11.7
      thresh= 2.192E-05 alpha_mix =  0.700 |ddv_scf|^2 =  3.088E-09

      iter #   3 total cpu time :    30.0 secs   av.it.:  11.2
      thresh= 5.557E-06 alpha_mix =  0.700 |ddv_scf|^2 =  1.629E-10

      iter #   4 total cpu time :    31.2 secs   av.it.:  11.1
      thresh= 1.276E-06 alpha_mix =  0.700 |ddv_scf|^2 =  6.326E-13

     End of self-consistent calculation

     Convergence has been achieved 


     Representation #  4 modes #   5  6

     Self-consistent Calculation

      iter #   1 total cpu time :    32.2 secs   av.it.:   5.2
      thresh= 1.000E-02 alpha_mix =  0.700 |ddv_scf|^2 =  4.807E-08

      iter #   2 total cpu time :    33.6 secs   av.it.:  11.7
      thresh= 2.192E-05 alpha_mix =  0.700 |ddv_scf|^2 =  3.089E-09

      iter #   3 total cpu time :    35.1 secs   av.it.:  11.4
      thresh= 5.558E-06 alpha_mix =  0.700 |ddv_scf|^2 =  1.629E-10

      iter #   4 total cpu time :    36.3 secs   av.it.:  11.2
      thresh= 1.276E-06 alpha_mix =  0.700 |ddv_scf|^2 =  6.353E-13

     End of self-consistent calculation

     Convergence has been achieved 

     Number of q in the star =    8
     List of q in the star:
          1  -0.250000000   0.250000000  -0.250000000
          2   0.250000000  -0.250000000  -0.250000000
          3   0.250000000  -0.250000000   0.250000000
          4   0.250000000   0.250000000   0.250000000
          5  -0.250000000  -0.250000000  -0.250000000
          6  -0.250000000  -0.250000000   0.250000000
          7  -0.250000000   0.250000000   0.250000000
          8   0.250000000   0.250000000  -0.250000000

     Diagonalizing the dynamical matrix

     q = (   -0.250000000   0.250000000  -0.250000000 ) 

 **************************************************************************
     freq (    1) =       2.805244 [THz] =      93.572884 [cm-1]
     freq (    2) =       2.805244 [THz] =      93.572884 [cm-1]
     freq (    3) =       6.652510 [THz] =     221.903851 [cm-1]
     freq (    4) =      14.059526 [THz] =     468.975319 [cm-1]
     freq (    5) =      14.311312 [THz] =     477.373973 [cm-1]
     freq (    6) =      14.311312 [THz] =     477.373973 [cm-1]
 **************************************************************************

     Mode symmetry, C_3v (3m)   point group:

     freq (  1 -  2) =         93.6  [cm-1]   --> E    L_3           
     freq (  3 -  3) =        221.9  [cm-1]   --> A_1  L_1           
     freq (  4 -  4) =        469.0  [cm-1]   --> A_1  L_1           
     freq (  5 -  6) =        477.4  [cm-1]   --> E    L_3           

     Calculation of q =    0.5000000  -0.5000000   0.5000000

   Info: using nr1, nr2, nr3 values from input

   Info: using nr1, nr2, nr3 values from input

     Parallelization info
     --------------------
     sticks:   dense  smooth     PW     G-vecs:    dense   smooth      PW
     Min         222     109     40                 4369     1545     351
     Max         223     110     41                 4370     1546     354
     Sum         889     439    163                17477     6183    1411



     bravais-lattice index     =            2
     lattice parameter (alat)  =      10.3720  a.u.
     unit-cell volume          =     278.9507 (a.u.)^3
     number of atoms/cell      =            2
     number of atomic types    =            1
     number of electrons       =         8.00
     number of Kohn-Sham states=            4
     kinetic-energy cutoff     =      30.0000  Ry
     charge density cutoff     =     240.0000  Ry
     Exchange-correlation      = SLA  PW   PBE  PBE ( 1  4  3  4 0 0)

     celldm(1)=  10.372000  celldm(2)=   0.000000  celldm(3)=   0.000000
     celldm(4)=   0.000000  celldm(5)=   0.000000  celldm(6)=   0.000000

     crystal axes: (cart. coord. in units of alat)
               a(1) = (  -0.500000   0.000000   0.500000 )  
               a(2) = (   0.000000   0.500000   0.500000 )  
               a(3) = (  -0.500000   0.500000   0.000000 )  

     reciprocal axes: (cart. coord. in units 2 pi/alat)
               b(1) = ( -1.000000 -1.000000  1.000000 )  
               b(2) = (  1.000000  1.000000  1.000000 )  
               b(3) = ( -1.000000  1.000000 -1.000000 )  


     PseudoPot. # 1 for Si read from file:
     /home/s1333534/quantum_espresso/qe-6.1/pseudo/si_pbe_v1.uspp.F.UPF.txt
     MD5 check sum: a056efeee980c13900f22a371efd63c1
     Pseudo is Ultrasoft + core correction, Zval =  4.0
     Generated by new atomic code, or converted to UPF format
     Using radial grid of  899 points,  6 beta functions with: 
                l(1) =   0
                l(2) =   0
                l(3) =   1
                l(4) =   1
                l(5) =   2
                l(6) =   2
     Q(r) pseudized with  8 coefficients,  rinner =    0.900   0.900   0.900
                                                       0.900   0.900

     atomic species   valence    mass     pseudopotential
        Si             4.00    28.08600     Si( 1.00)

     48 Sym. Ops., with inversion, found



   Cartesian axes

     site n.     atom                  positions (alat units)
         1           Si  tau(   1) = (   0.0000000   0.0000000   0.0000000  )
         2           Si  tau(   2) = (   0.2500000   0.2500000   0.2500000  )

     number of k points=    60
                       cart. coord. in units 2pi/alat
        k(    1) = (  -0.1250000   0.1250000   0.1250000), wk =   0.0468750
        k(    2) = (   0.3750000  -0.3750000   0.6250000), wk =   0.0000000
        k(    3) = (  -0.3750000   0.3750000  -0.1250000), wk =   0.0468750
        k(    4) = (   0.1250000  -0.1250000   0.3750000), wk =   0.0000000
        k(    5) = (   0.3750000  -0.3750000   0.6250000), wk =   0.0468750
        k(    6) = (   0.8750000  -0.8750000   1.1250000), wk =   0.0000000
        k(    7) = (   0.1250000  -0.1250000   0.3750000), wk =   0.0468750
        k(    8) = (   0.6250000  -0.6250000   0.8750000), wk =   0.0000000
        k(    9) = (  -0.1250000   0.6250000   0.1250000), wk =   0.0937500
        k(   10) = (   0.3750000   0.1250000   0.6250000), wk =   0.0000000
        k(   11) = (   0.6250000  -0.1250000   0.8750000), wk =   0.0937500
        k(   12) = (   1.1250000  -0.6250000   1.3750000), wk =   0.0000000
        k(   13) = (   0.3750000   0.1250000   0.6250000), wk =   0.0937500
        k(   14) = (   0.8750000  -0.3750000   1.1250000), wk =   0.0000000
        k(   15) = (  -0.1250000  -0.8750000   0.1250000), wk =   0.0937500
        k(   16) = (   0.3750000  -1.3750000   0.6250000), wk =   0.0000000
        k(   17) = (  -0.3750000   0.3750000   0.3750000), wk =   0.0468750
        k(   18) = (   0.1250000  -0.1250000   0.8750000), wk =   0.0000000
        k(   19) = (   0.3750000  -0.3750000   1.1250000), wk =   0.0468750
        k(   20) = (   0.8750000  -0.8750000   1.6250000), wk =   0.0000000
        k(   21) = (   0.1250000  -0.1250000   0.1250000), wk =   0.0156250
        k(   22) = (   0.6250000  -0.6250000   0.6250000), wk =   0.0000000
        k(   23) = (  -0.3750000  -0.3750000  -0.1250000), wk =   0.0937500
        k(   24) = (   0.1250000  -0.8750000   0.3750000), wk =   0.0000000
        k(   25) = (  -0.1250000  -0.3750000   0.3750000), wk =   0.0468750
        k(   26) = (   0.3750000  -0.8750000   0.8750000), wk =   0.0000000
        k(   27) = (   0.3750000   0.3750000   0.6250000), wk =   0.0937500
        k(   28) = (   0.8750000  -0.1250000   1.1250000), wk =   0.0000000
        k(   29) = (   0.6250000   0.3750000  -0.3750000), wk =   0.0468750
        k(   30) = (   1.1250000  -0.1250000   0.1250000), wk =   0.0000000
        k(   31) = (   0.1250000   0.1250000   0.3750000), wk =   0.0937500
        k(   32) = (   0.6250000  -0.3750000   0.8750000), wk =   0.0000000
        k(   33) = (   0.3750000   0.1250000  -0.1250000), wk =   0.0468750
        k(   34) = (   0.8750000  -0.3750000   0.3750000), wk =   0.0000000
        k(   35) = (  -0.1250000  -0.6250000  -0.1250000), wk =   0.0468750
        k(   36) = (   0.3750000  -1.1250000   0.3750000), wk =   0.0000000
        k(   37) = (   0.1250000  -0.6250000   0.1250000), wk =   0.0468750
        k(   38) = (   0.6250000  -1.1250000   0.6250000), wk =   0.0000000
        k(   39) = (   0.6250000   0.1250000   0.8750000), wk =   0.0937500
        k(   40) = (   1.1250000  -0.3750000   1.3750000), wk =   0.0000000
        k(   41) = (  -0.8750000   0.1250000   0.6250000), wk =   0.0937500
        k(   42) = (  -0.3750000  -0.3750000   1.1250000), wk =   0.0000000
        k(   43) = (   0.8750000   0.1250000  -0.6250000), wk =   0.0937500
        k(   44) = (   1.3750000  -0.3750000  -0.1250000), wk =   0.0000000
        k(   45) = (   0.3750000  -0.1250000   0.6250000), wk =   0.0937500
        k(   46) = (   0.8750000  -0.6250000   1.1250000), wk =   0.0000000
        k(   47) = (  -0.6250000  -0.1250000   0.3750000), wk =   0.0937500
        k(   48) = (  -0.1250000  -0.6250000   0.8750000), wk =   0.0000000
        k(   49) = (   0.6250000  -0.1250000  -0.3750000), wk =   0.0937500
        k(   50) = (   1.1250000  -0.6250000   0.1250000), wk =   0.0000000
        k(   51) = (  -0.1250000   0.8750000  -0.1250000), wk =   0.0468750
        k(   52) = (   0.3750000   0.3750000   0.3750000), wk =   0.0000000
        k(   53) = (   0.1250000   0.8750000   0.1250000), wk =   0.0468750
        k(   54) = (   0.6250000   0.3750000   0.6250000), wk =   0.0000000
        k(   55) = (   0.3750000  -0.3750000   0.3750000), wk =   0.0156250
        k(   56) = (   0.8750000  -0.8750000   0.8750000), wk =   0.0000000
        k(   57) = (   0.3750000   0.3750000   1.1250000), wk =   0.0937500
        k(   58) = (   0.8750000  -0.1250000   1.6250000), wk =   0.0000000
        k(   59) = (   1.1250000   0.3750000  -0.3750000), wk =   0.0468750
        k(   60) = (   1.6250000  -0.1250000   0.1250000), wk =   0.0000000

     Dense  grid:    17477 G-vectors     FFT dimensions: (  40,  40,  40)

     Smooth grid:     6183 G-vectors     FFT dimensions: (  25,  25,  25)

     Estimated max dynamical RAM per process >       1.79MB

     Estimated total allocated dynamical RAM >       7.17MB

     The potential is recalculated from file :
     ./_ph0/silicon.10.372.save/charge-density.dat

     Starting wfc are    8 atomic wfcs

     Band Structure Calculation
     Davidson diagonalization with overlap

     ethr =  1.25E-10,  avg # of iterations = 12.2

     total cpu time spent up to now is        2.4 secs

     End of band structure calculation

          k =-0.1250 0.1250 0.1250 (   779 PWs)   bands (ev):

    -5.6784   4.2760   5.5859   5.5859

          k = 0.3750-0.3750 0.6250 (   776 PWs)   bands (ev):

    -3.5389  -0.7501   3.6352   4.3468

          k =-0.3750 0.3750-0.1250 (   781 PWs)   bands (ev):

    -4.6628   1.3028   3.6198   5.1088

          k = 0.1250-0.1250 0.3750 (   785 PWs)   bands (ev):

    -5.1560   2.6652   4.5901   4.6476

          k = 0.3750-0.3750 0.6250 (   776 PWs)   bands (ev):

    -3.5389  -0.7501   3.6352   4.3468

          k = 0.8750-0.8750 1.1250 (   779 PWs)   bands (ev):

    -5.6784   4.2760   5.5859   5.5859

          k = 0.1250-0.1250 0.3750 (   785 PWs)   bands (ev):

    -5.1560   2.6652   4.5901   4.6476

          k = 0.6250-0.6250 0.8750 (   781 PWs)   bands (ev):

    -4.6628   1.3028   3.6198   5.1088

          k =-0.1250 0.6250 0.1250 (   777 PWs)   bands (ev):

    -4.1354   0.9589   3.2775   3.7250

          k = 0.3750 0.1250 0.6250 (   775 PWs)   bands (ev):

    -3.7256   0.1010   2.6406   3.9970

          k = 0.6250-0.1250 0.8750 (   764 PWs)   bands (ev):

    -2.5160  -0.9859   1.9427   3.0061

          k = 1.1250-0.6250 1.3750 (   781 PWs)   bands (ev):

    -4.6628   1.3028   3.6198   5.1088

          k = 0.3750 0.1250 0.6250 (   775 PWs)   bands (ev):

    -3.7256   0.1010   2.6406   3.9970

          k = 0.8750-0.3750 1.1250 (   777 PWs)   bands (ev):

    -4.1354   0.9589   3.2775   3.7250

          k =-0.1250-0.8750 0.1250 (   766 PWs)   bands (ev):

    -2.6792  -0.8910   2.5445   3.2626

          k = 0.3750-1.3750 0.6250 (   776 PWs)   bands (ev):

    -3.5389  -0.7501   3.6352   4.3468

          k =-0.3750 0.3750 0.3750 (   775 PWs)   bands (ev):

    -4.2356   0.0305   4.8052   4.8052

          k = 0.1250-0.1250 0.8750 (   766 PWs)   bands (ev):

    -2.6792  -0.8910   2.5445   3.2626

          k = 0.3750-0.3750 1.1250 (   773 PWs)   bands (ev):

    -3.0481  -0.6775   1.9961   4.0338

          k = 0.8750-0.8750 1.6250 (   777 PWs)   bands (ev):

    -4.1354   0.9589   3.2775   3.7250

          k = 0.1250-0.1250 0.1250 (   779 PWs)   bands (ev):

    -5.6784   4.2760   5.5859   5.5859

          k = 0.6250-0.6250 0.6250 (   775 PWs)   bands (ev):

    -4.2356   0.0305   4.8052   4.8052

          k =-0.3750-0.3750-0.1250 (   781 PWs)   bands (ev):

    -4.6628   1.3028   3.6198   5.1088

          k = 0.1250-0.8750 0.3750 (   764 PWs)   bands (ev):

    -2.5160  -0.9859   1.9427   3.0061

          k =-0.1250-0.3750 0.3750 (   781 PWs)   bands (ev):

    -4.6628   1.3028   3.6198   5.1088

          k = 0.3750-0.8750 0.8750 (   777 PWs)   bands (ev):

    -4.1354   0.9589   3.2775   3.7250

          k = 0.3750 0.3750 0.6250 (   776 PWs)   bands (ev):

    -3.5389  -0.7501   3.6352   4.3468

          k = 0.8750-0.1250 1.1250 (   766 PWs)   bands (ev):

    -2.6792  -0.8910   2.5445   3.2626

          k = 0.6250 0.3750-0.3750 (   776 PWs)   bands (ev):

    -3.5389  -0.7501   3.6352   4.3468

          k = 1.1250-0.1250 0.1250 (   766 PWs)   bands (ev):

    -2.6792  -0.8910   2.5445   3.2626

          k = 0.1250 0.1250 0.3750 (   785 PWs)   bands (ev):

    -5.1560   2.6652   4.5901   4.6476

          k = 0.6250-0.3750 0.8750 (   775 PWs)   bands (ev):

    -3.7256   0.1010   2.6406   3.9970

          k = 0.3750 0.1250-0.1250 (   785 PWs)   bands (ev):

    -5.1560   2.6652   4.5901   4.6476

          k = 0.8750-0.3750 0.3750 (   773 PWs)   bands (ev):

    -3.0481  -0.6775   1.9961   4.0338

          k =-0.1250-0.6250-0.1250 (   777 PWs)   bands (ev):

    -4.1354   0.9589   3.2775   3.7250

          k = 0.3750-1.1250 0.3750 (   773 PWs)   bands (ev):

    -3.0481  -0.6775   1.9961   4.0338

          k = 0.1250-0.6250 0.1250 (   777 PWs)   bands (ev):

    -4.1354   0.9589   3.2775   3.7250

          k = 0.6250-1.1250 0.6250 (   781 PWs)   bands (ev):

    -4.6628   1.3028   3.6198   5.1088

          k = 0.6250 0.1250 0.8750 (   764 PWs)   bands (ev):

    -2.5160  -0.9859   1.9427   3.0061

          k = 1.1250-0.3750 1.3750 (   775 PWs)   bands (ev):

    -3.7256   0.1010   2.6406   3.9970

          k =-0.8750 0.1250 0.6250 (   764 PWs)   bands (ev):

    -2.5160  -0.9859   1.9427   3.0061

          k =-0.3750-0.3750 1.1250 (   773 PWs)   bands (ev):

    -3.0481  -0.6775   1.9961   4.0338

          k = 0.8750 0.1250-0.6250 (   764 PWs)   bands (ev):

    -2.5160  -0.9859   1.9427   3.0061

          k = 1.3750-0.3750-0.1250 (   775 PWs)   bands (ev):

    -3.7256   0.1010   2.6406   3.9970

          k = 0.3750-0.1250 0.6250 (   775 PWs)   bands (ev):

    -3.7256   0.1010   2.6406   3.9970

          k = 0.8750-0.6250 1.1250 (   785 PWs)   bands (ev):

    -5.1560   2.6652   4.5901   4.6476

          k =-0.6250-0.1250 0.3750 (   775 PWs)   bands (ev):

    -3.7256   0.1010   2.6406   3.9970

          k =-0.1250-0.6250 0.8750 (   764 PWs)   bands (ev):

    -2.5160  -0.9859   1.9427   3.0061

          k = 0.6250-0.1250-0.3750 (   775 PWs)   bands (ev):

    -3.7256   0.1010   2.6406   3.9970

          k = 1.1250-0.6250 0.1250 (   764 PWs)   bands (ev):

    -2.5160  -0.9859   1.9427   3.0061

          k =-0.1250 0.8750-0.1250 (   766 PWs)   bands (ev):

    -2.6792  -0.8910   2.5445   3.2626

          k = 0.3750 0.3750 0.3750 (   775 PWs)   bands (ev):

    -4.2356   0.0305   4.8052   4.8052

          k = 0.1250 0.8750 0.1250 (   766 PWs)   bands (ev):

    -2.6792  -0.8910   2.5445   3.2626

          k = 0.6250 0.3750 0.6250 (   776 PWs)   bands (ev):

    -3.5389  -0.7501   3.6352   4.3468

          k = 0.3750-0.3750 0.3750 (   775 PWs)   bands (ev):

    -4.2356   0.0305   4.8052   4.8052

          k = 0.8750-0.8750 0.8750 (   779 PWs)   bands (ev):

    -5.6784   4.2760   5.5859   5.5859

          k = 0.3750 0.3750 1.1250 (   773 PWs)   bands (ev):

    -3.0481  -0.6775   1.9961   4.0338

          k = 0.8750-0.1250 1.6250 (   764 PWs)   bands (ev):

    -2.5160  -0.9859   1.9427   3.0061

          k = 1.1250 0.3750-0.3750 (   773 PWs)   bands (ev):

    -3.0481  -0.6775   1.9961   4.0338

          k = 1.6250-0.1250 0.1250 (   785 PWs)   bands (ev):

    -5.1560   2.6652   4.5901   4.6476

     highest occupied level (ev):     5.5859

     Writing output data file silicon.10.372.save

                                                                                

     bravais-lattice index     =            2
     lattice parameter (alat)  =      10.3720  a.u.
     unit-cell volume          =     278.9507 (a.u.)^3
     number of atoms/cell      =            2
     number of atomic types    =            1
     kinetic-energy cut-off    =      30.0000  Ry
     charge density cut-off    =     240.0000  Ry
     convergence threshold     =      1.0E-12
     beta                      =       0.7000
     number of iterations used =            4
     Exchange-correlation      = SLA  PW   PBE  PBE ( 1  4  3  4 0 0)


     celldm(1)=   10.37200  celldm(2)=    0.00000  celldm(3)=    0.00000
     celldm(4)=    0.00000  celldm(5)=    0.00000  celldm(6)=    0.00000

     crystal axes: (cart. coord. in units of alat)
               a(1) = ( -0.5000  0.0000  0.5000 )  
               a(2) = (  0.0000  0.5000  0.5000 )  
               a(3) = ( -0.5000  0.5000  0.0000 )  

     reciprocal axes: (cart. coord. in units 2 pi/alat)
               b(1) = ( -1.0000 -1.0000  1.0000 )  
               b(2) = (  1.0000  1.0000  1.0000 )  
               b(3) = ( -1.0000  1.0000 -1.0000 )  


     Atoms inside the unit cell: 

     Cartesian axes

     site n.  atom      mass           positions (alat units)
        1     Si  28.0860   tau(    1) = (    0.00000    0.00000    0.00000  )
        2     Si  28.0860   tau(    2) = (    0.25000    0.25000    0.25000  )

     Computing dynamical matrix for 
                    q = (   0.5000000  -0.5000000   0.5000000 )

     13 Sym.Ops. (with q -> -q+G )


     G cutoff =  653.9982  (   4369 G-vectors)     FFT grid: ( 40, 40, 40)
     G cutoff =  326.9991  (   1546 G-vectors)  smooth grid: ( 25, 25, 25)
     number of k points=    60

     PseudoPot. # 1 for Si read from file:
     /home/s1333534/quantum_espresso/qe-6.1/pseudo/si_pbe_v1.uspp.F.UPF.txt
     MD5 check sum: a056efeee980c13900f22a371efd63c1
     Pseudo is Ultrasoft + core correction, Zval =  4.0
     Generated by new atomic code, or converted to UPF format
     Using radial grid of  899 points,  6 beta functions with: 
                l(1) =   0
                l(2) =   0
                l(3) =   1
                l(4) =   1
                l(5) =   2
                l(6) =   2
     Q(r) pseudized with  8 coefficients,  rinner =    0.900   0.900   0.900
                                                       0.900   0.900


     Atomic displacements:
     There are   4 irreducible representations

     Representation     1      1 modes -  To be done

     Representation     2      1 modes -  To be done

     Representation     3      2 modes -  To be done

     Representation     4      2 modes -  To be done



     Alpha used in Ewald sum =   2.5000
     PHONON       :    29.85s CPU        38.70s WALL



     Representation #  1 mode #   1

     Self-consistent Calculation

      iter #   1 total cpu time :    39.0 secs   av.it.:   5.0
      thresh= 1.000E-02 alpha_mix =  0.700 |ddv_scf|^2 =  3.015E-06

      iter #   2 total cpu time :    39.5 secs   av.it.:  10.1
      thresh= 1.736E-04 alpha_mix =  0.700 |ddv_scf|^2 =  2.796E-06

      iter #   3 total cpu time :    39.9 secs   av.it.:   9.4
      thresh= 1.672E-04 alpha_mix =  0.700 |ddv_scf|^2 =  1.648E-09

      iter #   4 total cpu time :    40.4 secs   av.it.:   9.6
      thresh= 4.060E-06 alpha_mix =  0.700 |ddv_scf|^2 =  1.566E-11

      iter #   5 total cpu time :    40.7 secs   av.it.:   9.5
      thresh= 3.958E-07 alpha_mix =  0.700 |ddv_scf|^2 =  2.278E-13

     End of self-consistent calculation

     Convergence has been achieved 


     Representation #  2 mode #   2

     Self-consistent Calculation

      iter #   1 total cpu time :    41.2 secs   av.it.:   6.0
      thresh= 1.000E-02 alpha_mix =  0.700 |ddv_scf|^2 =  4.284E-05

      iter #   2 total cpu time :    41.6 secs   av.it.:  10.0
      thresh= 6.545E-04 alpha_mix =  0.700 |ddv_scf|^2 =  1.337E-04

      iter #   3 total cpu time :    42.0 secs   av.it.:   8.9
      thresh= 1.156E-03 alpha_mix =  0.700 |ddv_scf|^2 =  1.032E-08

      iter #   4 total cpu time :    42.5 secs   av.it.:  10.1
      thresh= 1.016E-05 alpha_mix =  0.700 |ddv_scf|^2 =  5.213E-10

      iter #   5 total cpu time :    42.9 secs   av.it.:  10.4
      thresh= 2.283E-06 alpha_mix =  0.700 |ddv_scf|^2 =  1.528E-11

      iter #   6 total cpu time :    43.3 secs   av.it.:   9.9
      thresh= 3.909E-07 alpha_mix =  0.700 |ddv_scf|^2 =  1.128E-13

     End of self-consistent calculation

     Convergence has been achieved 


     Representation #  3 modes #   3  4

     Self-consistent Calculation

      iter #   1 total cpu time :    44.1 secs   av.it.:   5.1
      thresh= 1.000E-02 alpha_mix =  0.700 |ddv_scf|^2 =  1.948E-08

      iter #   2 total cpu time :    44.9 secs   av.it.:  11.1
      thresh= 1.396E-05 alpha_mix =  0.700 |ddv_scf|^2 =  1.145E-09

      iter #   3 total cpu time :    45.7 secs   av.it.:  10.9
      thresh= 3.383E-06 alpha_mix =  0.700 |ddv_scf|^2 =  3.892E-11

      iter #   4 total cpu time :    46.5 secs   av.it.:  10.8
      thresh= 6.238E-07 alpha_mix =  0.700 |ddv_scf|^2 =  3.181E-13

     End of self-consistent calculation

     Convergence has been achieved 


     Representation #  4 modes #   5  6

     Self-consistent Calculation

      iter #   1 total cpu time :    47.3 secs   av.it.:   5.1
      thresh= 1.000E-02 alpha_mix =  0.700 |ddv_scf|^2 =  1.001E-07

      iter #   2 total cpu time :    48.1 secs   av.it.:  11.3
      thresh= 3.164E-05 alpha_mix =  0.700 |ddv_scf|^2 =  8.057E-09

      iter #   3 total cpu time :    49.0 secs   av.it.:  11.2
      thresh= 8.976E-06 alpha_mix =  0.700 |ddv_scf|^2 =  2.108E-10

      iter #   4 total cpu time :    49.7 secs   av.it.:  10.1
      thresh= 1.452E-06 alpha_mix =  0.700 |ddv_scf|^2 =  3.903E-13

     End of self-consistent calculation

     Convergence has been achieved 

     Number of q in the star =    4
     List of q in the star:
          1   0.500000000  -0.500000000   0.500000000
          2   0.500000000   0.500000000   0.500000000
          3  -0.500000000   0.500000000   0.500000000
          4   0.500000000   0.500000000  -0.500000000

     Diagonalizing the dynamical matrix

     q = (    0.500000000  -0.500000000   0.500000000 ) 

 **************************************************************************
     freq (    1) =       3.357001 [THz] =     111.977516 [cm-1]
     freq (    2) =       3.357001 [THz] =     111.977516 [cm-1]
     freq (    3) =      11.051364 [THz] =     368.633839 [cm-1]
     freq (    4) =      11.749957 [THz] =     391.936371 [cm-1]
     freq (    5) =      14.085916 [THz] =     469.855585 [cm-1]
     freq (    6) =      14.085916 [THz] =     469.855585 [cm-1]
 **************************************************************************

     Calculation of q =    0.0000000   0.5000000   0.0000000

   Info: using nr1, nr2, nr3 values from input

   Info: using nr1, nr2, nr3 values from input

     Parallelization info
     --------------------
     sticks:   dense  smooth     PW     G-vecs:    dense   smooth      PW
     Min         222     109     40                 4369     1545     322
     Max         223     110     42                 4370     1547     323
     Sum         889     439    163                17477     6183    1291



     bravais-lattice index     =            2
     lattice parameter (alat)  =      10.3720  a.u.
     unit-cell volume          =     278.9507 (a.u.)^3
     number of atoms/cell      =            2
     number of atomic types    =            1
     number of electrons       =         8.00
     number of Kohn-Sham states=            4
     kinetic-energy cutoff     =      30.0000  Ry
     charge density cutoff     =     240.0000  Ry
     Exchange-correlation      = SLA  PW   PBE  PBE ( 1  4  3  4 0 0)

     celldm(1)=  10.372000  celldm(2)=   0.000000  celldm(3)=   0.000000
     celldm(4)=   0.000000  celldm(5)=   0.000000  celldm(6)=   0.000000

     crystal axes: (cart. coord. in units of alat)
               a(1) = (  -0.500000   0.000000   0.500000 )  
               a(2) = (   0.000000   0.500000   0.500000 )  
               a(3) = (  -0.500000   0.500000   0.000000 )  

     reciprocal axes: (cart. coord. in units 2 pi/alat)
               b(1) = ( -1.000000 -1.000000  1.000000 )  
               b(2) = (  1.000000  1.000000  1.000000 )  
               b(3) = ( -1.000000  1.000000 -1.000000 )  


     PseudoPot. # 1 for Si read from file:
     /home/s1333534/quantum_espresso/qe-6.1/pseudo/si_pbe_v1.uspp.F.UPF.txt
     MD5 check sum: a056efeee980c13900f22a371efd63c1
     Pseudo is Ultrasoft + core correction, Zval =  4.0
     Generated by new atomic code, or converted to UPF format
     Using radial grid of  899 points,  6 beta functions with: 
                l(1) =   0
                l(2) =   0
                l(3) =   1
                l(4) =   1
                l(5) =   2
                l(6) =   2
     Q(r) pseudized with  8 coefficients,  rinner =    0.900   0.900   0.900
                                                       0.900   0.900

     atomic species   valence    mass     pseudopotential
        Si             4.00    28.08600     Si( 1.00)

     48 Sym. Ops., with inversion, found



   Cartesian axes

     site n.     atom                  positions (alat units)
         1           Si  tau(   1) = (   0.0000000   0.0000000   0.0000000  )
         2           Si  tau(   2) = (   0.2500000   0.2500000   0.2500000  )

     number of k points=    80
                       cart. coord. in units 2pi/alat
        k(    1) = (  -0.1250000   0.1250000   0.1250000), wk =   0.0312500
        k(    2) = (  -0.1250000   0.6250000   0.1250000), wk =   0.0000000
        k(    3) = (  -0.3750000   0.3750000  -0.1250000), wk =   0.0625000
        k(    4) = (  -0.3750000   0.8750000  -0.1250000), wk =   0.0000000
        k(    5) = (   0.3750000  -0.3750000   0.6250000), wk =   0.0625000
        k(    6) = (   0.3750000   0.1250000   0.6250000), wk =   0.0000000
        k(    7) = (   0.1250000  -0.1250000   0.3750000), wk =   0.0625000
        k(    8) = (   0.1250000   0.3750000   0.3750000), wk =   0.0000000
        k(    9) = (  -0.1250000   0.6250000   0.1250000), wk =   0.0312500
        k(   10) = (  -0.1250000   1.1250000   0.1250000), wk =   0.0000000
        k(   11) = (   0.6250000  -0.1250000   0.8750000), wk =   0.0625000
        k(   12) = (   0.6250000   0.3750000   0.8750000), wk =   0.0000000
        k(   13) = (   0.3750000   0.1250000   0.6250000), wk =   0.0625000
        k(   14) = (   0.3750000   0.6250000   0.6250000), wk =   0.0000000
        k(   15) = (  -0.1250000  -0.8750000   0.1250000), wk =   0.0312500
        k(   16) = (  -0.1250000  -0.3750000   0.1250000), wk =   0.0000000
        k(   17) = (  -0.3750000   0.3750000   0.3750000), wk =   0.0312500
        k(   18) = (  -0.3750000   0.8750000   0.3750000), wk =   0.0000000
        k(   19) = (   0.3750000  -0.3750000   1.1250000), wk =   0.0625000
        k(   20) = (   0.3750000   0.1250000   1.1250000), wk =   0.0000000
        k(   21) = (  -0.1250000  -0.1250000   0.1250000), wk =   0.0312500
        k(   22) = (  -0.1250000   0.3750000   0.1250000), wk =   0.0000000
        k(   23) = (   0.1250000  -0.3750000   0.3750000), wk =   0.0625000
        k(   24) = (   0.1250000   0.1250000   0.3750000), wk =   0.0000000
        k(   25) = (   0.3750000  -0.1250000   0.3750000), wk =   0.0312500
        k(   26) = (   0.3750000   0.3750000   0.3750000), wk =   0.0000000
        k(   27) = (   0.3750000   0.1250000   0.3750000), wk =   0.0312500
        k(   28) = (   0.3750000   0.6250000   0.3750000), wk =   0.0000000
        k(   29) = (  -0.6250000   0.3750000  -0.3750000), wk =   0.0625000
        k(   30) = (  -0.6250000   0.8750000  -0.3750000), wk =   0.0000000
        k(   31) = (  -0.3750000   0.6250000  -0.3750000), wk =   0.0312500
        k(   32) = (  -0.3750000   1.1250000  -0.3750000), wk =   0.0000000
        k(   33) = (  -0.3750000  -0.6250000  -0.3750000), wk =   0.0312500
        k(   34) = (  -0.3750000  -0.1250000  -0.3750000), wk =   0.0000000
        k(   35) = (  -0.3750000   0.1250000  -0.1250000), wk =   0.0625000
        k(   36) = (  -0.3750000   0.6250000  -0.1250000), wk =   0.0000000
        k(   37) = (  -0.1250000   0.3750000  -0.1250000), wk =   0.0312500
        k(   38) = (  -0.1250000   0.8750000  -0.1250000), wk =   0.0000000
        k(   39) = (  -0.1250000  -0.3750000  -0.1250000), wk =   0.0312500
        k(   40) = (  -0.1250000   0.1250000  -0.1250000), wk =   0.0000000
        k(   41) = (  -0.1250000  -0.6250000   0.1250000), wk =   0.0312500
        k(   42) = (  -0.1250000  -0.1250000   0.1250000), wk =   0.0000000
        k(   43) = (   0.6250000  -0.1250000  -0.1250000), wk =   0.0625000
        k(   44) = (   0.6250000   0.3750000  -0.1250000), wk =   0.0000000
        k(   45) = (   0.6250000   0.1250000   0.1250000), wk =   0.0625000
        k(   46) = (   0.6250000   0.6250000   0.1250000), wk =   0.0000000
        k(   47) = (  -0.8750000   0.1250000  -0.6250000), wk =   0.0625000
        k(   48) = (  -0.8750000   0.6250000  -0.6250000), wk =   0.0000000
        k(   49) = (  -0.1250000   0.6250000  -0.8750000), wk =   0.0625000
        k(   50) = (  -0.1250000   1.1250000  -0.8750000), wk =   0.0000000
        k(   51) = (  -0.1250000   0.8750000  -0.6250000), wk =   0.0625000
        k(   52) = (  -0.1250000   1.3750000  -0.6250000), wk =   0.0000000
        k(   53) = (  -0.1250000  -0.8750000  -0.6250000), wk =   0.0625000
        k(   54) = (  -0.1250000  -0.3750000  -0.6250000), wk =   0.0000000
        k(   55) = (   0.8750000  -0.6250000   0.1250000), wk =   0.0625000
        k(   56) = (   0.8750000  -0.1250000   0.1250000), wk =   0.0000000
        k(   57) = (  -0.6250000  -0.1250000  -0.3750000), wk =   0.0625000
        k(   58) = (  -0.6250000   0.3750000  -0.3750000), wk =   0.0000000
        k(   59) = (   0.1250000   0.3750000  -0.6250000), wk =   0.0625000
        k(   60) = (   0.1250000   0.8750000  -0.6250000), wk =   0.0000000
        k(   61) = (   0.1250000   0.6250000  -0.3750000), wk =   0.0625000
        k(   62) = (   0.1250000   1.1250000  -0.3750000), wk =   0.0000000
        k(   63) = (   0.1250000  -0.6250000  -0.3750000), wk =   0.0625000
        k(   64) = (   0.1250000  -0.1250000  -0.3750000), wk =   0.0000000
        k(   65) = (   0.6250000  -0.3750000  -0.1250000), wk =   0.0625000
        k(   66) = (   0.6250000   0.1250000  -0.1250000), wk =   0.0000000
        k(   67) = (  -0.1250000   0.8750000   0.1250000), wk =   0.0312500
        k(   68) = (  -0.1250000   1.3750000   0.1250000), wk =   0.0000000
        k(   69) = (  -0.8750000  -0.1250000  -0.1250000), wk =   0.0625000
        k(   70) = (  -0.8750000   0.3750000  -0.1250000), wk =   0.0000000
        k(   71) = (  -0.8750000   0.1250000   0.1250000), wk =   0.0625000
        k(   72) = (  -0.8750000   0.6250000   0.1250000), wk =   0.0000000
        k(   73) = (  -0.3750000  -0.3750000   0.3750000), wk =   0.0312500
        k(   74) = (  -0.3750000   0.1250000   0.3750000), wk =   0.0000000
        k(   75) = (  -1.1250000   0.3750000  -0.3750000), wk =   0.0625000
        k(   76) = (  -1.1250000   0.8750000  -0.3750000), wk =   0.0000000
        k(   77) = (  -0.3750000   1.1250000  -0.3750000), wk =   0.0312500
        k(   78) = (  -0.3750000   1.6250000  -0.3750000), wk =   0.0000000
        k(   79) = (  -0.3750000  -1.1250000  -0.3750000), wk =   0.0312500
        k(   80) = (  -0.3750000  -0.6250000  -0.3750000), wk =   0.0000000

     Dense  grid:    17477 G-vectors     FFT dimensions: (  40,  40,  40)

     Smooth grid:     6183 G-vectors     FFT dimensions: (  25,  25,  25)

     Estimated max dynamical RAM per process >       1.79MB

     Estimated total allocated dynamical RAM >       7.17MB

     The potential is recalculated from file :
     ./_ph0/silicon.10.372.save/charge-density.dat

     Starting wfc are    8 atomic wfcs

     Band Structure Calculation
     Davidson diagonalization with overlap

     ethr =  1.25E-10,  avg # of iterations = 12.2

     total cpu time spent up to now is        3.6 secs

     End of band structure calculation

          k =-0.1250 0.1250 0.1250 (   779 PWs)   bands (ev):

    -5.6784   4.2760   5.5859   5.5859

          k =-0.1250 0.6250 0.1250 (   777 PWs)   bands (ev):

    -4.1354   0.9589   3.2775   3.7250

          k =-0.3750 0.3750-0.1250 (   781 PWs)   bands (ev):

    -4.6628   1.3028   3.6198   5.1088

          k =-0.3750 0.8750-0.1250 (   764 PWs)   bands (ev):

    -2.5160  -0.9859   1.9427   3.0061

          k = 0.3750-0.3750 0.6250 (   776 PWs)   bands (ev):

    -3.5389  -0.7501   3.6352   4.3468

          k = 0.3750 0.1250 0.6250 (   775 PWs)   bands (ev):

    -3.7256   0.1010   2.6406   3.9970

          k = 0.1250-0.1250 0.3750 (   785 PWs)   bands (ev):

    -5.1560   2.6652   4.5901   4.6476

          k = 0.1250 0.3750 0.3750 (   781 PWs)   bands (ev):

    -4.6628   1.3028   3.6198   5.1088

          k =-0.1250 0.6250 0.1250 (   777 PWs)   bands (ev):

    -4.1354   0.9589   3.2775   3.7250

          k =-0.1250 1.1250 0.1250 (   766 PWs)   bands (ev):

    -2.6792  -0.8910   2.5445   3.2626

          k = 0.6250-0.1250 0.8750 (   764 PWs)   bands (ev):

    -2.5160  -0.9859   1.9427   3.0061

          k = 0.6250 0.3750 0.8750 (   775 PWs)   bands (ev):

    -3.7256   0.1010   2.6406   3.9970

          k = 0.3750 0.1250 0.6250 (   775 PWs)   bands (ev):

    -3.7256   0.1010   2.6406   3.9970

          k = 0.3750 0.6250 0.6250 (   776 PWs)   bands (ev):

    -3.5389  -0.7501   3.6352   4.3468

          k =-0.1250-0.8750 0.1250 (   766 PWs)   bands (ev):

    -2.6792  -0.8910   2.5445   3.2626

          k =-0.1250-0.3750 0.1250 (   785 PWs)   bands (ev):

    -5.1560   2.6652   4.5901   4.6476

          k =-0.3750 0.3750 0.3750 (   775 PWs)   bands (ev):

    -4.2356   0.0305   4.8052   4.8052

          k =-0.3750 0.8750 0.3750 (   773 PWs)   bands (ev):

    -3.0481  -0.6775   1.9961   4.0338

          k = 0.3750-0.3750 1.1250 (   773 PWs)   bands (ev):

    -3.0481  -0.6775   1.9961   4.0338

          k = 0.3750 0.1250 1.1250 (   764 PWs)   bands (ev):

    -2.5160  -0.9859   1.9427   3.0061

          k =-0.1250-0.1250 0.1250 (   779 PWs)   bands (ev):

    -5.6784   4.2760   5.5859   5.5859

          k =-0.1250 0.3750 0.1250 (   785 PWs)   bands (ev):

    -5.1560   2.6652   4.5901   4.6476

          k = 0.1250-0.3750 0.3750 (   781 PWs)   bands (ev):

    -4.6628   1.3028   3.6198   5.1088

          k = 0.1250 0.1250 0.3750 (   785 PWs)   bands (ev):

    -5.1560   2.6652   4.5901   4.6476

          k = 0.3750-0.1250 0.3750 (   781 PWs)   bands (ev):

    -4.6628   1.3028   3.6198   5.1088

          k = 0.3750 0.3750 0.3750 (   775 PWs)   bands (ev):

    -4.2356   0.0305   4.8052   4.8052

          k = 0.3750 0.1250 0.3750 (   781 PWs)   bands (ev):

    -4.6628   1.3028   3.6198   5.1088

          k = 0.3750 0.6250 0.3750 (   776 PWs)   bands (ev):

    -3.5389  -0.7501   3.6352   4.3468

          k =-0.6250 0.3750-0.3750 (   776 PWs)   bands (ev):

    -3.5389  -0.7501   3.6352   4.3468

          k =-0.6250 0.8750-0.3750 (   775 PWs)   bands (ev):

    -3.7256   0.1010   2.6406   3.9970

          k =-0.3750 0.6250-0.3750 (   776 PWs)   bands (ev):

    -3.5389  -0.7501   3.6352   4.3468

          k =-0.3750 1.1250-0.3750 (   773 PWs)   bands (ev):

    -3.0481  -0.6775   1.9961   4.0338

          k =-0.3750-0.6250-0.3750 (   776 PWs)   bands (ev):

    -3.5389  -0.7501   3.6352   4.3468

          k =-0.3750-0.1250-0.3750 (   781 PWs)   bands (ev):

    -4.6628   1.3028   3.6198   5.1088

          k =-0.3750 0.1250-0.1250 (   785 PWs)   bands (ev):

    -5.1560   2.6652   4.5901   4.6476

          k =-0.3750 0.6250-0.1250 (   775 PWs)   bands (ev):

    -3.7256   0.1010   2.6406   3.9970

          k =-0.1250 0.3750-0.1250 (   785 PWs)   bands (ev):

    -5.1560   2.6652   4.5901   4.6476

          k =-0.1250 0.8750-0.1250 (   766 PWs)   bands (ev):

    -2.6792  -0.8910   2.5445   3.2626

          k =-0.1250-0.3750-0.1250 (   785 PWs)   bands (ev):

    -5.1560   2.6652   4.5901   4.6476

          k =-0.1250 0.1250-0.1250 (   779 PWs)   bands (ev):

    -5.6784   4.2760   5.5859   5.5859

          k =-0.1250-0.6250 0.1250 (   777 PWs)   bands (ev):

    -4.1354   0.9589   3.2775   3.7250

          k =-0.1250-0.1250 0.1250 (   779 PWs)   bands (ev):

    -5.6784   4.2760   5.5859   5.5859

          k = 0.6250-0.1250-0.1250 (   777 PWs)   bands (ev):

    -4.1354   0.9589   3.2775   3.7250

          k = 0.6250 0.3750-0.1250 (   775 PWs)   bands (ev):

    -3.7256   0.1010   2.6406   3.9970

          k = 0.6250 0.1250 0.1250 (   777 PWs)   bands (ev):

    -4.1354   0.9589   3.2775   3.7250

          k = 0.6250 0.6250 0.1250 (   773 PWs)   bands (ev):

    -3.0481  -0.6775   1.9961   4.0338

          k =-0.8750 0.1250-0.6250 (   764 PWs)   bands (ev):

    -2.5160  -0.9859   1.9427   3.0061

          k =-0.8750 0.6250-0.6250 (   781 PWs)   bands (ev):

    -4.6628   1.3028   3.6198   5.1088

          k =-0.1250 0.6250-0.8750 (   764 PWs)   bands (ev):

    -2.5160  -0.9859   1.9427   3.0061

          k =-0.1250 1.1250-0.8750 (   766 PWs)   bands (ev):

    -2.6792  -0.8910   2.5445   3.2626

          k =-0.1250 0.8750-0.6250 (   764 PWs)   bands (ev):

    -2.5160  -0.9859   1.9427   3.0061

          k =-0.1250 1.3750-0.6250 (   773 PWs)   bands (ev):

    -3.0481  -0.6775   1.9961   4.0338

          k =-0.1250-0.8750-0.6250 (   764 PWs)   bands (ev):

    -2.5160  -0.9859   1.9427   3.0061

          k =-0.1250-0.3750-0.6250 (   775 PWs)   bands (ev):

    -3.7256   0.1010   2.6406   3.9970

          k = 0.8750-0.6250 0.1250 (   764 PWs)   bands (ev):

    -2.5160  -0.9859   1.9427   3.0061

          k = 0.8750-0.1250 0.1250 (   766 PWs)   bands (ev):

    -2.6792  -0.8910   2.5445   3.2626

          k =-0.6250-0.1250-0.3750 (   775 PWs)   bands (ev):

    -3.7256   0.1010   2.6406   3.9970

          k =-0.6250 0.3750-0.3750 (   776 PWs)   bands (ev):

    -3.5389  -0.7501   3.6352   4.3468

          k = 0.1250 0.3750-0.6250 (   775 PWs)   bands (ev):

    -3.7256   0.1010   2.6406   3.9970

          k = 0.1250 0.8750-0.6250 (   764 PWs)   bands (ev):

    -2.5160  -0.9859   1.9427   3.0061

          k = 0.1250 0.6250-0.3750 (   775 PWs)   bands (ev):

    -3.7256   0.1010   2.6406   3.9970

          k = 0.1250 1.1250-0.3750 (   764 PWs)   bands (ev):

    -2.5160  -0.9859   1.9427   3.0061

          k = 0.1250-0.6250-0.3750 (   775 PWs)   bands (ev):

    -3.7256   0.1010   2.6406   3.9970

          k = 0.1250-0.1250-0.3750 (   785 PWs)   bands (ev):

    -5.1560   2.6652   4.5901   4.6476

          k = 0.6250-0.3750-0.1250 (   775 PWs)   bands (ev):

    -3.7256   0.1010   2.6406   3.9970

          k = 0.6250 0.1250-0.1250 (   777 PWs)   bands (ev):

    -4.1354   0.9589   3.2775   3.7250

          k =-0.1250 0.8750 0.1250 (   766 PWs)   bands (ev):

    -2.6792  -0.8910   2.5445   3.2626

          k =-0.1250 1.3750 0.1250 (   777 PWs)   bands (ev):

    -4.1354   0.9589   3.2775   3.7250

          k =-0.8750-0.1250-0.1250 (   766 PWs)   bands (ev):

    -2.6792  -0.8910   2.5445   3.2626

          k =-0.8750 0.3750-0.1250 (   764 PWs)   bands (ev):

    -2.5160  -0.9859   1.9427   3.0061

          k =-0.8750 0.1250 0.1250 (   766 PWs)   bands (ev):

    -2.6792  -0.8910   2.5445   3.2626

          k =-0.8750 0.6250 0.1250 (   764 PWs)   bands (ev):

    -2.5160  -0.9859   1.9427   3.0061

          k =-0.3750-0.3750 0.3750 (   775 PWs)   bands (ev):

    -4.2356   0.0305   4.8052   4.8052

          k =-0.3750 0.1250 0.3750 (   781 PWs)   bands (ev):

    -4.6628   1.3028   3.6198   5.1088

          k =-1.1250 0.3750-0.3750 (   773 PWs)   bands (ev):

    -3.0481  -0.6775   1.9961   4.0338

          k =-1.1250 0.8750-0.3750 (   777 PWs)   bands (ev):

    -4.1354   0.9589   3.2775   3.7250

          k =-0.3750 1.1250-0.3750 (   773 PWs)   bands (ev):

    -3.0481  -0.6775   1.9961   4.0338

          k =-0.3750 1.6250-0.3750 (   775 PWs)   bands (ev):

    -4.2356   0.0305   4.8052   4.8052

          k =-0.3750-1.1250-0.3750 (   773 PWs)   bands (ev):

    -3.0481  -0.6775   1.9961   4.0338

          k =-0.3750-0.6250-0.3750 (   776 PWs)   bands (ev):

    -3.5389  -0.7501   3.6352   4.3468

     highest occupied level (ev):     5.5859

     Writing output data file silicon.10.372.save

                                                                                

     bravais-lattice index     =            2
     lattice parameter (alat)  =      10.3720  a.u.
     unit-cell volume          =     278.9507 (a.u.)^3
     number of atoms/cell      =            2
     number of atomic types    =            1
     kinetic-energy cut-off    =      30.0000  Ry
     charge density cut-off    =     240.0000  Ry
     convergence threshold     =      1.0E-12
     beta                      =       0.7000
     number of iterations used =            4
     Exchange-correlation      = SLA  PW   PBE  PBE ( 1  4  3  4 0 0)


     celldm(1)=   10.37200  celldm(2)=    0.00000  celldm(3)=    0.00000
     celldm(4)=    0.00000  celldm(5)=    0.00000  celldm(6)=    0.00000

     crystal axes: (cart. coord. in units of alat)
               a(1) = ( -0.5000  0.0000  0.5000 )  
               a(2) = (  0.0000  0.5000  0.5000 )  
               a(3) = ( -0.5000  0.5000  0.0000 )  

     reciprocal axes: (cart. coord. in units 2 pi/alat)
               b(1) = ( -1.0000 -1.0000  1.0000 )  
               b(2) = (  1.0000  1.0000  1.0000 )  
               b(3) = ( -1.0000  1.0000 -1.0000 )  


     Atoms inside the unit cell: 

     Cartesian axes

     site n.  atom      mass           positions (alat units)
        1     Si  28.0860   tau(    1) = (    0.00000    0.00000    0.00000  )
        2     Si  28.0860   tau(    2) = (    0.25000    0.25000    0.25000  )

     Computing dynamical matrix for 
                    q = (   0.0000000   0.5000000   0.0000000 )

      8 Sym.Ops. (no q -> -q+G )


     G cutoff =  653.9982  (   4369 G-vectors)     FFT grid: ( 40, 40, 40)
     G cutoff =  326.9991  (   1545 G-vectors)  smooth grid: ( 25, 25, 25)
     number of k points=    80

     PseudoPot. # 1 for Si read from file:
     /home/s1333534/quantum_espresso/qe-6.1/pseudo/si_pbe_v1.uspp.F.UPF.txt
     MD5 check sum: a056efeee980c13900f22a371efd63c1
     Pseudo is Ultrasoft + core correction, Zval =  4.0
     Generated by new atomic code, or converted to UPF format
     Using radial grid of  899 points,  6 beta functions with: 
                l(1) =   0
                l(2) =   0
                l(3) =   1
                l(4) =   1
                l(5) =   2
                l(6) =   2
     Q(r) pseudized with  8 coefficients,  rinner =    0.900   0.900   0.900
                                                       0.900   0.900

     Mode symmetry, C_4v (4mm)  point group:


     Atomic displacements:
     There are   4 irreducible representations

     Representation     1      1 modes -A_1  G_1 D_1  To be done

     Representation     2      1 modes -B_2  G_4 D_2'  To be done

     Representation     3      2 modes -E    G_5 D_5  To be done

     Representation     4      2 modes -E    G_5 D_5  To be done



     Alpha used in Ewald sum =   2.5000
     PHONON       :    40.23s CPU        52.35s WALL



     Representation #  1 mode #   1

     Self-consistent Calculation

      iter #   1 total cpu time :    53.0 secs   av.it.:   6.2
      thresh= 1.000E-02 alpha_mix =  0.700 |ddv_scf|^2 =  3.701E-04

      iter #   2 total cpu time :    53.7 secs   av.it.:   9.5
      thresh= 1.924E-03 alpha_mix =  0.700 |ddv_scf|^2 =  4.940E-03

      iter #   3 total cpu time :    54.3 secs   av.it.:   7.5
      thresh= 7.029E-03 alpha_mix =  0.700 |ddv_scf|^2 =  7.172E-09

      iter #   4 total cpu time :    55.3 secs   av.it.:  10.3
      thresh= 8.469E-06 alpha_mix =  0.700 |ddv_scf|^2 =  7.678E-10

      iter #   5 total cpu time :    56.0 secs   av.it.:   9.8
      thresh= 2.771E-06 alpha_mix =  0.700 |ddv_scf|^2 =  7.965E-11

      iter #   6 total cpu time :    56.5 secs   av.it.:   9.6
      thresh= 8.925E-07 alpha_mix =  0.700 |ddv_scf|^2 =  2.033E-13

     End of self-consistent calculation

     Convergence has been achieved 


     Representation #  2 mode #   2

     Self-consistent Calculation

      iter #   1 total cpu time :    57.4 secs   av.it.:   5.1
      thresh= 1.000E-02 alpha_mix =  0.700 |ddv_scf|^2 =  5.883E-07

      iter #   2 total cpu time :    58.0 secs   av.it.:  10.6
      thresh= 7.670E-05 alpha_mix =  0.700 |ddv_scf|^2 =  1.644E-07

      iter #   3 total cpu time :    58.7 secs   av.it.:  10.2
      thresh= 4.055E-05 alpha_mix =  0.700 |ddv_scf|^2 =  1.689E-09

      iter #   4 total cpu time :    60.0 secs   av.it.:  10.3
      thresh= 4.110E-06 alpha_mix =  0.700 |ddv_scf|^2 =  6.802E-11

      iter #   5 total cpu time :    60.7 secs   av.it.:  10.5
      thresh= 8.247E-07 alpha_mix =  0.700 |ddv_scf|^2 =  3.895E-13

     End of self-consistent calculation

     Convergence has been achieved 


     Representation #  3 modes #   3  4

     Self-consistent Calculation

      iter #   1 total cpu time :    62.4 secs   av.it.:   5.2
      thresh= 1.000E-02 alpha_mix =  0.700 |ddv_scf|^2 =  1.041E-07

      iter #   2 total cpu time :    63.8 secs   av.it.:  11.7
      thresh= 3.226E-05 alpha_mix =  0.700 |ddv_scf|^2 =  1.436E-08

      iter #   3 total cpu time :    65.3 secs   av.it.:  11.3
      thresh= 1.199E-05 alpha_mix =  0.700 |ddv_scf|^2 =  2.419E-10

      iter #   4 total cpu time :    66.2 secs   av.it.:  10.8
      thresh= 1.555E-06 alpha_mix =  0.700 |ddv_scf|^2 =  5.763E-13

     End of self-consistent calculation

     Convergence has been achieved 


     Representation #  4 modes #   5  6

     Self-consistent Calculation

      iter #   1 total cpu time :    67.7 secs   av.it.:   5.3
      thresh= 1.000E-02 alpha_mix =  0.700 |ddv_scf|^2 =  9.539E-08

      iter #   2 total cpu time :    69.8 secs   av.it.:  11.6
      thresh= 3.089E-05 alpha_mix =  0.700 |ddv_scf|^2 =  1.283E-08

      iter #   3 total cpu time :    71.4 secs   av.it.:  11.4
      thresh= 1.133E-05 alpha_mix =  0.700 |ddv_scf|^2 =  2.470E-10

      iter #   4 total cpu time :    72.4 secs   av.it.:  11.1
      thresh= 1.572E-06 alpha_mix =  0.700 |ddv_scf|^2 =  6.158E-13

     End of self-consistent calculation

     Convergence has been achieved 

     Number of q in the star =    6
     List of q in the star:
          1   0.000000000   0.500000000   0.000000000
          2   0.000000000  -0.500000000   0.000000000
          3   0.500000000   0.000000000   0.000000000
          4   0.000000000   0.000000000   0.500000000
          5   0.000000000   0.000000000  -0.500000000
          6  -0.500000000   0.000000000   0.000000000

     Diagonalizing the dynamical matrix

     q = (    0.000000000   0.500000000   0.000000000 ) 

 **************************************************************************
     freq (    1) =       3.791256 [THz] =     126.462677 [cm-1]
     freq (    2) =       3.791256 [THz] =     126.462677 [cm-1]
     freq (    3) =       6.974069 [THz] =     232.629900 [cm-1]
     freq (    4) =      13.625459 [THz] =     454.496402 [cm-1]
     freq (    5) =      13.625459 [THz] =     454.496402 [cm-1]
     freq (    6) =      14.298289 [THz] =     476.939577 [cm-1]
 **************************************************************************

     Mode symmetry, C_4v (4mm)  point group:

     freq (  1 -  2) =        126.5  [cm-1]   --> E    G_5 D_5       
     freq (  3 -  3) =        232.6  [cm-1]   --> A_1  G_1 D_1       
     freq (  4 -  5) =        454.5  [cm-1]   --> E    G_5 D_5       
     freq (  6 -  6) =        476.9  [cm-1]   --> B_2  G_4 D_2'      

     Calculation of q =    0.7500000  -0.2500000   0.7500000

   Info: using nr1, nr2, nr3 values from input

   Info: using nr1, nr2, nr3 values from input

     Parallelization info
     --------------------
     sticks:   dense  smooth     PW     G-vecs:    dense   smooth      PW
     Min         222     109     42                 4369     1545     367
     Max         223     110     43                 4370     1547     368
     Sum         889     439    169                17477     6183    1471



     bravais-lattice index     =            2
     lattice parameter (alat)  =      10.3720  a.u.
     unit-cell volume          =     278.9507 (a.u.)^3
     number of atoms/cell      =            2
     number of atomic types    =            1
     number of electrons       =         8.00
     number of Kohn-Sham states=            4
     kinetic-energy cutoff     =      30.0000  Ry
     charge density cutoff     =     240.0000  Ry
     Exchange-correlation      = SLA  PW   PBE  PBE ( 1  4  3  4 0 0)

     celldm(1)=  10.372000  celldm(2)=   0.000000  celldm(3)=   0.000000
     celldm(4)=   0.000000  celldm(5)=   0.000000  celldm(6)=   0.000000

     crystal axes: (cart. coord. in units of alat)
               a(1) = (  -0.500000   0.000000   0.500000 )  
               a(2) = (   0.000000   0.500000   0.500000 )  
               a(3) = (  -0.500000   0.500000   0.000000 )  

     reciprocal axes: (cart. coord. in units 2 pi/alat)
               b(1) = ( -1.000000 -1.000000  1.000000 )  
               b(2) = (  1.000000  1.000000  1.000000 )  
               b(3) = ( -1.000000  1.000000 -1.000000 )  


     PseudoPot. # 1 for Si read from file:
     /home/s1333534/quantum_espresso/qe-6.1/pseudo/si_pbe_v1.uspp.F.UPF.txt
     MD5 check sum: a056efeee980c13900f22a371efd63c1
     Pseudo is Ultrasoft + core correction, Zval =  4.0
     Generated by new atomic code, or converted to UPF format
     Using radial grid of  899 points,  6 beta functions with: 
                l(1) =   0
                l(2) =   0
                l(3) =   1
                l(4) =   1
                l(5) =   2
                l(6) =   2
     Q(r) pseudized with  8 coefficients,  rinner =    0.900   0.900   0.900
                                                       0.900   0.900

     atomic species   valence    mass     pseudopotential
        Si             4.00    28.08600     Si( 1.00)

     48 Sym. Ops., with inversion, found



   Cartesian axes

     site n.     atom                  positions (alat units)
         1           Si  tau(   1) = (   0.0000000   0.0000000   0.0000000  )
         2           Si  tau(   2) = (   0.2500000   0.2500000   0.2500000  )

     number of k points=   288

     Number of k-points >= 100: set verbosity='high' to print them.

     Dense  grid:    17477 G-vectors     FFT dimensions: (  40,  40,  40)

     Smooth grid:     6183 G-vectors     FFT dimensions: (  25,  25,  25)

     Estimated max dynamical RAM per process >       1.79MB

     Estimated total allocated dynamical RAM >       7.17MB

     The potential is recalculated from file :
     ./_ph0/silicon.10.372.save/charge-density.dat

     Starting wfc are    8 atomic wfcs

     Band Structure Calculation
     Davidson diagonalization with overlap

     ethr =  1.25E-10,  avg # of iterations = 12.1

     total cpu time spent up to now is        7.0 secs

     End of band structure calculation

     Number of k-points >= 100: set verbosity='high' to print the bands.

     highest occupied level (ev):     5.5859

     Writing output data file silicon.10.372.save

                                                                                

     bravais-lattice index     =            2
     lattice parameter (alat)  =      10.3720  a.u.
     unit-cell volume          =     278.9507 (a.u.)^3
     number of atoms/cell      =            2
     number of atomic types    =            1
     kinetic-energy cut-off    =      30.0000  Ry
     charge density cut-off    =     240.0000  Ry
     convergence threshold     =      1.0E-12
     beta                      =       0.7000
     number of iterations used =            4
     Exchange-correlation      = SLA  PW   PBE  PBE ( 1  4  3  4 0 0)


     celldm(1)=   10.37200  celldm(2)=    0.00000  celldm(3)=    0.00000
     celldm(4)=    0.00000  celldm(5)=    0.00000  celldm(6)=    0.00000

     crystal axes: (cart. coord. in units of alat)
               a(1) = ( -0.5000  0.0000  0.5000 )  
               a(2) = (  0.0000  0.5000  0.5000 )  
               a(3) = ( -0.5000  0.5000  0.0000 )  

     reciprocal axes: (cart. coord. in units 2 pi/alat)
               b(1) = ( -1.0000 -1.0000  1.0000 )  
               b(2) = (  1.0000  1.0000  1.0000 )  
               b(3) = ( -1.0000  1.0000 -1.0000 )  


     Atoms inside the unit cell: 

     Cartesian axes

     site n.  atom      mass           positions (alat units)
        1     Si  28.0860   tau(    1) = (    0.00000    0.00000    0.00000  )
        2     Si  28.0860   tau(    2) = (    0.25000    0.25000    0.25000  )

     Computing dynamical matrix for 
                    q = (   0.7500000  -0.2500000   0.7500000 )

      2 Sym.Ops. (no q -> -q+G )


     G cutoff =  653.9982  (   4369 G-vectors)     FFT grid: ( 40, 40, 40)
     G cutoff =  326.9991  (   1547 G-vectors)  smooth grid: ( 25, 25, 25)
     number of k points=   288

     PseudoPot. # 1 for Si read from file:
     /home/s1333534/quantum_espresso/qe-6.1/pseudo/si_pbe_v1.uspp.F.UPF.txt
     MD5 check sum: a056efeee980c13900f22a371efd63c1
     Pseudo is Ultrasoft + core correction, Zval =  4.0
     Generated by new atomic code, or converted to UPF format
     Using radial grid of  899 points,  6 beta functions with: 
                l(1) =   0
                l(2) =   0
                l(3) =   1
                l(4) =   1
                l(5) =   2
                l(6) =   2
     Q(r) pseudized with  8 coefficients,  rinner =    0.900   0.900   0.900
                                                       0.900   0.900

     Mode symmetry, C_s (m)     point group:


     Atomic displacements:
     There are   6 irreducible representations

     Representation     1      1 modes -A'  To be done

     Representation     2      1 modes -A'  To be done

     Representation     3      1 modes -A'  To be done

     Representation     4      1 modes -A'  To be done

     Representation     5      1 modes -A''  To be done

     Representation     6      1 modes -A''  To be done



     Alpha used in Ewald sum =   2.5000
     PHONON       :  0m55.48s CPU     1m20.74s WALL



     Representation #  1 mode #   1

     Self-consistent Calculation

      iter #   1 total cpu time :    81.8 secs   av.it.:   5.6
      thresh= 1.000E-02 alpha_mix =  0.700 |ddv_scf|^2 =  7.557E-06

      iter #   2 total cpu time :    83.4 secs   av.it.:  10.7
      thresh= 2.749E-04 alpha_mix =  0.700 |ddv_scf|^2 =  2.033E-05

      iter #   3 total cpu time :    84.8 secs   av.it.:   9.4
      thresh= 4.509E-04 alpha_mix =  0.700 |ddv_scf|^2 =  1.359E-07

      iter #   4 total cpu time :    86.4 secs   av.it.:  10.1
      thresh= 3.687E-05 alpha_mix =  0.700 |ddv_scf|^2 =  2.753E-09

      iter #   5 total cpu time :    88.3 secs   av.it.:  10.7
      thresh= 5.247E-06 alpha_mix =  0.700 |ddv_scf|^2 =  4.656E-10

      iter #   6 total cpu time :    89.9 secs   av.it.:  10.6
      thresh= 2.158E-06 alpha_mix =  0.700 |ddv_scf|^2 =  7.512E-12

      iter #   7 total cpu time :    91.3 secs   av.it.:  10.8
      thresh= 2.741E-07 alpha_mix =  0.700 |ddv_scf|^2 =  2.901E-13

     End of self-consistent calculation

     Convergence has been achieved 


     Representation #  2 mode #   2

     Self-consistent Calculation

      iter #   1 total cpu time :    92.3 secs   av.it.:   5.8
      thresh= 1.000E-02 alpha_mix =  0.700 |ddv_scf|^2 =  1.350E-05

      iter #   2 total cpu time :    94.3 secs   av.it.:  10.6
      thresh= 3.674E-04 alpha_mix =  0.700 |ddv_scf|^2 =  3.933E-05

      iter #   3 total cpu time :    95.6 secs   av.it.:   9.2
      thresh= 6.272E-04 alpha_mix =  0.700 |ddv_scf|^2 =  9.321E-08

      iter #   4 total cpu time :    97.2 secs   av.it.:  10.4
      thresh= 3.053E-05 alpha_mix =  0.700 |ddv_scf|^2 =  3.114E-09

      iter #   5 total cpu time :    98.8 secs   av.it.:  10.6
      thresh= 5.581E-06 alpha_mix =  0.700 |ddv_scf|^2 =  6.334E-10

      iter #   6 total cpu time :   100.2 secs   av.it.:  10.5
      thresh= 2.517E-06 alpha_mix =  0.700 |ddv_scf|^2 =  6.672E-12

      iter #   7 total cpu time :   101.6 secs   av.it.:  10.7
      thresh= 2.583E-07 alpha_mix =  0.700 |ddv_scf|^2 =  2.418E-13

     End of self-consistent calculation

     Convergence has been achieved 


     Representation #  3 mode #   3

     Self-consistent Calculation

      iter #   1 total cpu time :   102.6 secs   av.it.:   5.7
      thresh= 1.000E-02 alpha_mix =  0.700 |ddv_scf|^2 =  1.057E-05

      iter #   2 total cpu time :   104.0 secs   av.it.:  10.7
      thresh= 3.252E-04 alpha_mix =  0.700 |ddv_scf|^2 =  2.890E-05

      iter #   3 total cpu time :   105.3 secs   av.it.:   9.2
      thresh= 5.376E-04 alpha_mix =  0.700 |ddv_scf|^2 =  1.622E-07

      iter #   4 total cpu time :   106.6 secs   av.it.:  10.1
      thresh= 4.027E-05 alpha_mix =  0.700 |ddv_scf|^2 =  3.173E-09

      iter #   5 total cpu time :   108.0 secs   av.it.:  10.7
      thresh= 5.633E-06 alpha_mix =  0.700 |ddv_scf|^2 =  6.225E-10

      iter #   6 total cpu time :   109.4 secs   av.it.:  10.5
      thresh= 2.495E-06 alpha_mix =  0.700 |ddv_scf|^2 =  4.640E-12

      iter #   7 total cpu time :   110.7 secs   av.it.:  10.7
      thresh= 2.154E-07 alpha_mix =  0.700 |ddv_scf|^2 =  1.373E-13

     End of self-consistent calculation

     Convergence has been achieved 


     Representation #  4 mode #   4

     Self-consistent Calculation

      iter #   1 total cpu time :   111.8 secs   av.it.:   5.5
      thresh= 1.000E-02 alpha_mix =  0.700 |ddv_scf|^2 =  4.624E-06

      iter #   2 total cpu time :   113.6 secs   av.it.:  10.9
      thresh= 2.150E-04 alpha_mix =  0.700 |ddv_scf|^2 =  9.874E-06

      iter #   3 total cpu time :   114.9 secs   av.it.:   9.7
      thresh= 3.142E-04 alpha_mix =  0.700 |ddv_scf|^2 =  2.135E-07

      iter #   4 total cpu time :   116.2 secs   av.it.:  10.0
      thresh= 4.620E-05 alpha_mix =  0.700 |ddv_scf|^2 =  2.722E-09

      iter #   5 total cpu time :   117.6 secs   av.it.:  10.7
      thresh= 5.217E-06 alpha_mix =  0.700 |ddv_scf|^2 =  5.085E-10

      iter #   6 total cpu time :   119.0 secs   av.it.:  10.5
      thresh= 2.255E-06 alpha_mix =  0.700 |ddv_scf|^2 =  3.142E-12

      iter #   7 total cpu time :   120.3 secs   av.it.:  10.8
      thresh= 1.772E-07 alpha_mix =  0.700 |ddv_scf|^2 =  1.489E-13

     End of self-consistent calculation

     Convergence has been achieved 


     Representation #  5 mode #   5

     Self-consistent Calculation

      iter #   1 total cpu time :   121.4 secs   av.it.:   5.2
      thresh= 1.000E-02 alpha_mix =  0.700 |ddv_scf|^2 =  4.808E-07

      iter #   2 total cpu time :   122.8 secs   av.it.:  10.4
      thresh= 6.934E-05 alpha_mix =  0.700 |ddv_scf|^2 =  7.855E-08

      iter #   3 total cpu time :   124.1 secs   av.it.:  10.2
      thresh= 2.803E-05 alpha_mix =  0.700 |ddv_scf|^2 =  1.046E-09

      iter #   4 total cpu time :   125.4 secs   av.it.:   9.8
      thresh= 3.235E-06 alpha_mix =  0.700 |ddv_scf|^2 =  2.477E-12

      iter #   5 total cpu time :   126.7 secs   av.it.:  10.3
      thresh= 1.574E-07 alpha_mix =  0.700 |ddv_scf|^2 =  7.038E-14

     End of self-consistent calculation

     Convergence has been achieved 


     Representation #  6 mode #   6

     Self-consistent Calculation

      iter #   1 total cpu time :   127.8 secs   av.it.:   5.2
      thresh= 1.000E-02 alpha_mix =  0.700 |ddv_scf|^2 =  4.808E-07

      iter #   2 total cpu time :   129.2 secs   av.it.:  10.4
[...]
        k(   59) = (  -0.8750000   0.1250000  -0.1250000), wk =   0.0625000
        k(   60) = (  -1.3750000  -0.8750000  -0.1250000), wk =   0.0000000
        k(   61) = (  -1.1250000   0.3750000  -0.3750000), wk =   0.0625000
        k(   62) = (  -1.6250000  -0.6250000  -0.3750000), wk =   0.0000000
        k(   63) = (  -0.3750000   0.3750000   1.1250000), wk =   0.0625000
        k(   64) = (  -0.8750000  -0.6250000   1.1250000), wk =   0.0000000

     Dense  grid:    17477 G-vectors     FFT dimensions: (  40,  40,  40)

     Smooth grid:     6183 G-vectors     FFT dimensions: (  25,  25,  25)

     Estimated max dynamical RAM per process >       1.79MB

     Estimated total allocated dynamical RAM >       7.17MB

     The potential is recalculated from file :
     ./_ph0/silicon.10.372.save/charge-density.dat

     Starting wfc are    8 atomic wfcs

     Band Structure Calculation
     Davidson diagonalization with overlap

     ethr =  1.25E-10,  avg # of iterations = 12.1

     total cpu time spent up to now is       12.6 secs

     End of band structure calculation

          k =-0.1250 0.1250 0.1250 (   779 PWs)   bands (ev):

    -5.6784   4.2760   5.5859   5.5859

          k =-0.6250-0.8750 0.1250 (   764 PWs)   bands (ev):

    -2.5160  -0.9859   1.9427   3.0061

          k =-0.3750 0.3750-0.1250 (   781 PWs)   bands (ev):

    -4.6628   1.3028   3.6198   5.1088

          k =-0.8750-0.6250-0.1250 (   764 PWs)   bands (ev):

    -2.5160  -0.9859   1.9427   3.0061

          k = 0.3750-0.3750 0.6250 (   776 PWs)   bands (ev):

    -3.5389  -0.7501   3.6352   4.3468

          k =-0.1250-1.3750 0.6250 (   773 PWs)   bands (ev):

    -3.0481  -0.6775   1.9961   4.0338

          k = 0.1250-0.1250 0.3750 (   785 PWs)   bands (ev):

    -5.1560   2.6652   4.5901   4.6476

          k =-0.3750-1.1250 0.3750 (   773 PWs)   bands (ev):

    -3.0481  -0.6775   1.9961   4.0338

          k =-0.1250 0.6250 0.1250 (   777 PWs)   bands (ev):

    -4.1354   0.9589   3.2775   3.7250

          k =-0.6250-0.3750 0.1250 (   775 PWs)   bands (ev):

    -3.7256   0.1010   2.6406   3.9970

          k = 0.6250-0.1250 0.8750 (   764 PWs)   bands (ev):

    -2.5160  -0.9859   1.9427   3.0061

          k = 0.1250-1.1250 0.8750 (   766 PWs)   bands (ev):

    -2.6792  -0.8910   2.5445   3.2626

          k = 0.3750 0.1250 0.6250 (   775 PWs)   bands (ev):

    -3.7256   0.1010   2.6406   3.9970

          k =-0.1250-0.8750 0.6250 (   764 PWs)   bands (ev):

    -2.5160  -0.9859   1.9427   3.0061

          k =-0.1250-0.8750 0.1250 (   766 PWs)   bands (ev):

    -2.6792  -0.8910   2.5445   3.2626

          k =-0.6250-1.8750 0.1250 (   777 PWs)   bands (ev):

    -4.1354   0.9589   3.2775   3.7250

          k =-0.3750 0.3750 0.3750 (   775 PWs)   bands (ev):

    -4.2356   0.0305   4.8052   4.8052

          k =-0.8750-0.6250 0.3750 (   775 PWs)   bands (ev):

    -3.7256   0.1010   2.6406   3.9970

          k = 0.3750-0.3750 1.1250 (   773 PWs)   bands (ev):

    -3.0481  -0.6775   1.9961   4.0338

          k =-0.1250-1.3750 1.1250 (   764 PWs)   bands (ev):

    -2.5160  -0.9859   1.9427   3.0061

          k = 0.1250-0.3750 0.3750 (   781 PWs)   bands (ev):

    -4.6628   1.3028   3.6198   5.1088

          k =-0.3750-1.3750 0.3750 (   776 PWs)   bands (ev):

    -3.5389  -0.7501   3.6352   4.3468

          k = 0.3750-0.3750-0.1250 (   781 PWs)   bands (ev):

    -4.6628   1.3028   3.6198   5.1088

          k =-0.1250-1.3750-0.1250 (   777 PWs)   bands (ev):

    -4.1354   0.9589   3.2775   3.7250

          k =-0.6250 0.3750-0.3750 (   776 PWs)   bands (ev):

    -3.5389  -0.7501   3.6352   4.3468

          k =-1.1250-0.6250-0.3750 (   775 PWs)   bands (ev):

    -3.7256   0.1010   2.6406   3.9970

          k =-0.3750 0.3750 0.6250 (   776 PWs)   bands (ev):

    -3.5389  -0.7501   3.6352   4.3468

          k =-0.8750-0.6250 0.6250 (   781 PWs)   bands (ev):

    -4.6628   1.3028   3.6198   5.1088

          k =-0.3750 0.1250-0.1250 (   785 PWs)   bands (ev):

    -5.1560   2.6652   4.5901   4.6476

          k =-0.8750-0.8750-0.1250 (   766 PWs)   bands (ev):

    -2.6792  -0.8910   2.5445   3.2626

          k =-0.1250 0.1250 0.3750 (   785 PWs)   bands (ev):

    -5.1560   2.6652   4.5901   4.6476

          k =-0.6250-0.8750 0.3750 (   775 PWs)   bands (ev):

    -3.7256   0.1010   2.6406   3.9970

          k = 0.1250 0.6250-0.1250 (   777 PWs)   bands (ev):

    -4.1354   0.9589   3.2775   3.7250

          k =-0.3750-0.3750-0.1250 (   781 PWs)   bands (ev):

    -4.6628   1.3028   3.6198   5.1088

          k = 0.6250 0.1250-0.1250 (   777 PWs)   bands (ev):

    -4.1354   0.9589   3.2775   3.7250

          k = 0.1250-0.8750-0.1250 (   766 PWs)   bands (ev):

    -2.6792  -0.8910   2.5445   3.2626

          k =-0.8750 0.1250-0.6250 (   764 PWs)   bands (ev):

    -2.5160  -0.9859   1.9427   3.0061

          k =-1.3750-0.8750-0.6250 (   781 PWs)   bands (ev):

    -4.6628   1.3028   3.6198   5.1088

          k = 0.8750-0.1250 0.6250 (   764 PWs)   bands (ev):

    -2.5160  -0.9859   1.9427   3.0061

          k = 0.3750-1.1250 0.6250 (   775 PWs)   bands (ev):

    -3.7256   0.1010   2.6406   3.9970

          k =-0.6250 0.1250 0.8750 (   764 PWs)   bands (ev):

    -2.5160  -0.9859   1.9427   3.0061

          k =-1.1250-0.8750 0.8750 (   779 PWs)   bands (ev):

    -5.6784   4.2760   5.5859   5.5859

          k =-0.1250 0.8750 0.6250 (   764 PWs)   bands (ev):

    -2.5160  -0.9859   1.9427   3.0061

          k =-0.6250-0.1250 0.6250 (   773 PWs)   bands (ev):

    -3.0481  -0.6775   1.9961   4.0338

          k = 0.1250 0.8750-0.6250 (   764 PWs)   bands (ev):

    -2.5160  -0.9859   1.9427   3.0061

          k =-0.3750-0.1250-0.6250 (   775 PWs)   bands (ev):

    -3.7256   0.1010   2.6406   3.9970

          k =-0.6250-0.1250-0.3750 (   775 PWs)   bands (ev):

    -3.7256   0.1010   2.6406   3.9970

          k =-1.1250-1.1250-0.3750 (   777 PWs)   bands (ev):

    -4.1354   0.9589   3.2775   3.7250

          k = 0.6250 0.1250 0.3750 (   775 PWs)   bands (ev):

    -3.7256   0.1010   2.6406   3.9970

          k = 0.1250-0.8750 0.3750 (   764 PWs)   bands (ev):

    -2.5160  -0.9859   1.9427   3.0061

          k =-0.3750-0.1250 0.6250 (   775 PWs)   bands (ev):

    -3.7256   0.1010   2.6406   3.9970

          k =-0.8750-1.1250 0.6250 (   785 PWs)   bands (ev):

    -5.1560   2.6652   4.5901   4.6476

          k = 0.1250 0.6250 0.3750 (   775 PWs)   bands (ev):

    -3.7256   0.1010   2.6406   3.9970

          k =-0.3750-0.3750 0.3750 (   775 PWs)   bands (ev):

    -4.2356   0.0305   4.8052   4.8052

          k =-0.1250 0.6250-0.3750 (   775 PWs)   bands (ev):

    -3.7256   0.1010   2.6406   3.9970

          k =-0.6250-0.3750-0.3750 (   776 PWs)   bands (ev):

    -3.5389  -0.7501   3.6352   4.3468

          k = 0.1250-0.8750-0.1250 (   766 PWs)   bands (ev):

    -2.6792  -0.8910   2.5445   3.2626

          k =-0.3750-1.8750-0.1250 (   785 PWs)   bands (ev):

    -5.1560   2.6652   4.5901   4.6476

          k =-0.8750 0.1250-0.1250 (   766 PWs)   bands (ev):

    -2.6792  -0.8910   2.5445   3.2626

          k =-1.3750-0.8750-0.1250 (   764 PWs)   bands (ev):

    -2.5160  -0.9859   1.9427   3.0061

          k =-1.1250 0.3750-0.3750 (   773 PWs)   bands (ev):

    -3.0481  -0.6775   1.9961   4.0338

          k =-1.6250-0.6250-0.3750 (   776 PWs)   bands (ev):

    -3.5389  -0.7501   3.6352   4.3468

          k =-0.3750 0.3750 1.1250 (   773 PWs)   bands (ev):

    -3.0481  -0.6775   1.9961   4.0338

          k =-0.8750-0.6250 1.1250 (   785 PWs)   bands (ev):

    -5.1560   2.6652   4.5901   4.6476

     highest occupied level (ev):     5.5859

     Writing output data file silicon.10.372.save

                                                                                

     bravais-lattice index     =            2
     lattice parameter (alat)  =      10.3720  a.u.
     unit-cell volume          =     278.9507 (a.u.)^3
     number of atoms/cell      =            2
     number of atomic types    =            1
     kinetic-energy cut-off    =      30.0000  Ry
     charge density cut-off    =     240.0000  Ry
     convergence threshold     =      1.0E-12
     beta                      =       0.7000
     number of iterations used =            4
     Exchange-correlation      = SLA  PW   PBE  PBE ( 1  4  3  4 0 0)


     celldm(1)=   10.37200  celldm(2)=    0.00000  celldm(3)=    0.00000
     celldm(4)=    0.00000  celldm(5)=    0.00000  celldm(6)=    0.00000

     crystal axes: (cart. coord. in units of alat)
               a(1) = ( -0.5000  0.0000  0.5000 )  
               a(2) = (  0.0000  0.5000  0.5000 )  
               a(3) = ( -0.5000  0.5000  0.0000 )  

     reciprocal axes: (cart. coord. in units 2 pi/alat)
               b(1) = ( -1.0000 -1.0000  1.0000 )  
               b(2) = (  1.0000  1.0000  1.0000 )  
               b(3) = ( -1.0000  1.0000 -1.0000 )  


     Atoms inside the unit cell: 

     Cartesian axes

     site n.  atom      mass           positions (alat units)
        1     Si  28.0860   tau(    1) = (    0.00000    0.00000    0.00000  )
        2     Si  28.0860   tau(    2) = (    0.25000    0.25000    0.25000  )

     Computing dynamical matrix for 
                    q = (  -0.5000000  -1.0000000   0.0000000 )

      8 Sym.Ops. (no q -> -q+G )


     G cutoff =  653.9982  (   4369 G-vectors)     FFT grid: ( 40, 40, 40)
     G cutoff =  326.9991  (   1546 G-vectors)  smooth grid: ( 25, 25, 25)
     number of k points=    64

     PseudoPot. # 1 for Si read from file:
     /home/s1333534/quantum_espresso/qe-6.1/pseudo/si_pbe_v1.uspp.F.UPF.txt
     MD5 check sum: a056efeee980c13900f22a371efd63c1
     Pseudo is Ultrasoft + core correction, Zval =  4.0
     Generated by new atomic code, or converted to UPF format
     Using radial grid of  899 points,  6 beta functions with: 
                l(1) =   0
                l(2) =   0
                l(3) =   1
                l(4) =   1
                l(5) =   2
                l(6) =   2
     Q(r) pseudized with  8 coefficients,  rinner =    0.900   0.900   0.900
                                                       0.900   0.900


     Atomic displacements:
     There are   3 irreducible representations

     Representation     1      2 modes -  To be done

     Representation     2      2 modes -  To be done

     Representation     3      2 modes -  To be done



     Alpha used in Ewald sum =   2.5000
     PHONON       :  2m 9.96s CPU     2m54.30s WALL



     Representation #  1 modes #   1  2

     Self-consistent Calculation

      iter #   1 total cpu time :   175.5 secs   av.it.:   5.7
      thresh= 1.000E-02 alpha_mix =  0.700 |ddv_scf|^2 =  7.793E-07

      iter #   2 total cpu time :   176.5 secs   av.it.:  11.8
      thresh= 8.828E-05 alpha_mix =  0.700 |ddv_scf|^2 =  4.402E-07

      iter #   3 total cpu time :   177.4 secs   av.it.:  11.3
      thresh= 6.635E-05 alpha_mix =  0.700 |ddv_scf|^2 =  4.271E-10

      iter #   4 total cpu time :   178.2 secs   av.it.:  11.1
      thresh= 2.067E-06 alpha_mix =  0.700 |ddv_scf|^2 =  1.930E-12

      iter #   5 total cpu time :   179.0 secs   av.it.:  11.3
      thresh= 1.389E-07 alpha_mix =  0.700 |ddv_scf|^2 =  5.098E-14

     End of self-consistent calculation

     Convergence has been achieved 


     Representation #  2 modes #   3  4

     Self-consistent Calculation

      iter #   1 total cpu time :   179.8 secs   av.it.:   5.6
      thresh= 1.000E-02 alpha_mix =  0.700 |ddv_scf|^2 =  1.215E-06

      iter #   2 total cpu time :   180.8 secs   av.it.:  11.8
      thresh= 1.102E-04 alpha_mix =  0.700 |ddv_scf|^2 =  1.666E-06

      iter #   3 total cpu time :   181.7 secs   av.it.:  11.0
      thresh= 1.291E-04 alpha_mix =  0.700 |ddv_scf|^2 =  5.119E-10

      iter #   4 total cpu time :   182.5 secs   av.it.:  11.1
      thresh= 2.262E-06 alpha_mix =  0.700 |ddv_scf|^2 =  8.559E-12

      iter #   5 total cpu time :   183.3 secs   av.it.:  11.3
      thresh= 2.926E-07 alpha_mix =  0.700 |ddv_scf|^2 =  1.350E-13

     End of self-consistent calculation

     Convergence has been achieved 


     Representation #  3 modes #   5  6

     Self-consistent Calculation

      iter #   1 total cpu time :   184.1 secs   av.it.:   5.3
      thresh= 1.000E-02 alpha_mix =  0.700 |ddv_scf|^2 =  3.168E-07

      iter #   2 total cpu time :   185.0 secs   av.it.:  11.8
      thresh= 5.628E-05 alpha_mix =  0.700 |ddv_scf|^2 =  1.848E-07

      iter #   3 total cpu time :   185.9 secs   av.it.:  11.2
      thresh= 4.298E-05 alpha_mix =  0.700 |ddv_scf|^2 =  3.693E-10

      iter #   4 total cpu time :   186.8 secs   av.it.:  11.1
      thresh= 1.922E-06 alpha_mix =  0.700 |ddv_scf|^2 =  4.449E-12

      iter #   5 total cpu time :   187.6 secs   av.it.:  11.2
      thresh= 2.109E-07 alpha_mix =  0.700 |ddv_scf|^2 =  6.061E-14

     End of self-consistent calculation

     Convergence has been achieved 

     Number of q in the star =    6
     List of q in the star:
          1  -0.500000000  -1.000000000   0.000000000
          2   0.000000000   1.000000000   0.500000000
          3   0.000000000  -1.000000000  -0.500000000
          4   0.500000000   1.000000000   0.000000000
          5  -1.000000000  -0.500000000   0.000000000
          6   0.000000000  -0.500000000  -1.000000000

     Diagonalizing the dynamical matrix

     q = (   -0.500000000  -1.000000000   0.000000000 ) 

 **************************************************************************
     freq (    1) =       6.047309 [THz] =     201.716514 [cm-1]
     freq (    2) =       6.047309 [THz] =     201.716514 [cm-1]
     freq (    3) =      10.189545 [THz] =     339.886640 [cm-1]
     freq (    4) =      10.189545 [THz] =     339.886640 [cm-1]
     freq (    5) =      13.331951 [THz] =     444.706014 [cm-1]
     freq (    6) =      13.331951 [THz] =     444.706014 [cm-1]
 **************************************************************************

     init_run     :      1.29s CPU      1.34s WALL (       7 calls)
     electrons    :      7.41s CPU      8.07s WALL (       7 calls)

     Called by init_run:
     wfcinit      :      0.00s CPU      0.03s WALL (       7 calls)
     potinit      :      0.10s CPU      0.12s WALL (       7 calls)

     Called by electrons:
     c_bands      :      7.41s CPU      8.06s WALL (       7 calls)
     v_of_rho     :      0.09s CPU      0.09s WALL (       8 calls)
     newd         :      0.13s CPU      0.13s WALL (       8 calls)

     Called by c_bands:
     init_us_2    :      1.64s CPU      1.58s WALL (   15896 calls)
     cegterg      :      6.19s CPU      6.74s WALL (     796 calls)

     Called by sum_band:

     Called by *egterg:
     h_psi        :     71.76s CPU     77.22s WALL (  154800 calls)
     s_psi        :      5.75s CPU      7.03s WALL (  311858 calls)
     g_psi        :      0.05s CPU      0.07s WALL (    9666 calls)
     cdiaghg      :      0.56s CPU      0.56s WALL (   10462 calls)

     Called by h_psi:
     h_psi:pot    :     71.34s CPU     76.69s WALL (  154800 calls)
     h_psi:calbec :      3.51s CPU      4.07s WALL (  154800 calls)
     vloc_psi     :     63.18s CPU     68.43s WALL (  154800 calls)
     add_vuspsi   :      4.27s CPU      3.72s WALL (  154800 calls)

     General routines
     calbec       :      8.34s CPU      8.79s WALL (  346166 calls)
     fft          :      1.91s CPU      1.99s WALL (    5233 calls)
     ffts         :      0.21s CPU      0.23s WALL (    3316 calls)
     fftw         :     64.75s CPU     69.35s WALL ( 1385046 calls)
     interpolate  :      0.28s CPU      0.30s WALL (     568 calls)
     davcio       :      0.35s CPU      2.01s WALL (   69130 calls)

     Parallel routines
     fft_scatter  :     16.60s CPU     21.13s WALL ( 1393595 calls)

     PHONON       :  2m19.92s CPU     3m 8.06s WALL

     INITIALIZATION: 
     phq_setup    :      0.30s CPU      0.75s WALL (       8 calls)
     phq_init     :      7.15s CPU      7.87s WALL (       8 calls)

     phq_init     :      7.15s CPU      7.87s WALL (       8 calls)
     set_drhoc    :      1.85s CPU      1.86s WALL (      24 calls)
     init_vloc    :      0.03s CPU      0.03s WALL (       8 calls)
     init_us_1    :      0.98s CPU      0.98s WALL (       8 calls)
     newd         :      0.13s CPU      0.13s WALL (       8 calls)
     dvanqq       :      1.18s CPU      1.20s WALL (       8 calls)
     drho         :      2.66s CPU      2.75s WALL (       8 calls)

     DYNAMICAL MATRIX:
     dynmat0      :      1.76s CPU      1.92s WALL (       8 calls)
     phqscf       :    118.28s CPU    157.81s WALL (       8 calls)
     dynmatrix    :      0.01s CPU      0.33s WALL (       8 calls)

     phqscf       :    118.28s CPU    157.81s WALL (       8 calls)
     solve_linter :    117.42s CPU    153.80s WALL (      32 calls)
     drhodv       :      0.58s CPU      0.60s WALL (      32 calls)

     dynmat0      :      1.76s CPU      1.92s WALL (       8 calls)
     dynmat_us    :      0.38s CPU      0.39s WALL (       8 calls)
     d2ionq       :      0.04s CPU      0.04s WALL (       8 calls)
     dynmatcc     :      1.32s CPU      1.33s WALL (       8 calls)

     dynmat_us    :      0.38s CPU      0.39s WALL (       8 calls)
     addusdynmat  :      0.00s CPU      0.00s WALL (       8 calls)

     phqscf       :    118.28s CPU    157.81s WALL (       8 calls)
     solve_linter :    117.42s CPU    153.80s WALL (      32 calls)

     solve_linter :    117.42s CPU    153.80s WALL (      32 calls)
     dvqpsi_us    :      2.15s CPU      2.31s WALL (    2508 calls)
     ortho        :      0.94s CPU      1.08s WALL (   13486 calls)
     cgsolve      :     79.29s CPU     86.43s WALL (   13486 calls)
     incdrhoscf   :      6.37s CPU      7.00s WALL (   13486 calls)
     addusddens   :      7.17s CPU      7.25s WALL (     200 calls)
     vpsifft      :      4.50s CPU      4.93s WALL (   10858 calls)
     dv_of_drho   :      1.81s CPU      1.87s WALL (     254 calls)
     mix_pot      :      0.85s CPU     15.67s WALL (     173 calls)
     psymdvscf    :      5.93s CPU      6.02s WALL (     168 calls)
     newdq        :      7.74s CPU      7.76s WALL (     173 calls)
     adddvscf     :      0.47s CPU      0.45s WALL (   10978 calls)
     drhodvus     :      0.02s CPU      0.02s WALL (      32 calls)

     dvqpsi_us    :      2.15s CPU      2.31s WALL (    2508 calls)
     dvqpsi_us_on :      0.91s CPU      0.95s WALL (    2508 calls)

     cgsolve      :     79.29s CPU     86.43s WALL (   13486 calls)
     ch_psi       :     78.09s CPU     84.62s WALL (  143542 calls)

     ch_psi       :     78.09s CPU     84.62s WALL (  143542 calls)
     h_psi        :     71.76s CPU     77.22s WALL (  154800 calls)
     last         :      9.05s CPU      9.24s WALL (  143542 calls)

     h_psi        :     71.76s CPU     77.22s WALL (  154800 calls)
     add_vuspsi   :      4.27s CPU      3.72s WALL (  154800 calls)

     incdrhoscf   :      6.37s CPU      7.00s WALL (   13486 calls)
     addusdbec    :      0.48s CPU      0.52s WALL (   15934 calls)

     drhodvus     :      0.02s CPU      0.02s WALL (      32 calls)

      General routines
     calbec       :      8.34s CPU      8.79s WALL (  346166 calls)
     fft          :      1.91s CPU      1.99s WALL (    5233 calls)
     ffts         :      0.21s CPU      0.23s WALL (    3316 calls)
     fftw         :     64.75s CPU     69.35s WALL ( 1385046 calls)
     davcio       :      0.35s CPU      2.01s WALL (   69130 calls)
     write_rec    :      0.23s CPU     15.61s WALL (     205 calls)


     PHONON       :  2m19.92s CPU     3m 8.06s WALL


   This run was terminated on:  15:56:20  10Nov2017            

=------------------------------------------------------------------------------=
   JOB DONE.
=------------------------------------------------------------------------------=
