
     Program PHONON v.6.1 (svn rev. 13369) starts on 10Nov2017 at 15:41:14 

     This program is part of the open-source Quantum ESPRESSO suite
     for quantum simulation of materials; please cite
         "P. Giannozzi et al., J. Phys.:Condens. Matter 21 395502 (2009);
          URL http://www.quantum-espresso.org", 
     in publications or presentations arising from this work. More details at
     http://www.quantum-espresso.org/quote

     Parallel version (MPI), running on     4 processors
     R & G space division:  proc/nbgrp/npool/nimage =       4

     Reading data from directory:
     ./silicon.10.350.save

   Info: using nr1, nr2, nr3 values from input

   Info: using nr1, nr2, nr3 values from input

     IMPORTANT: XC functional enforced from input :
     Exchange-correlation      = SLA  PW   PBE  PBE ( 1  4  3  4 0 0)
     Any further DFT definition will be discarded
     Please, verify this is what you really want


     Parallelization info
     --------------------
     sticks:   dense  smooth     PW     G-vecs:    dense   smooth      PW
     Min         222     109     37                 4363     1545     284
     Max         223     110     38                 4364     1546     285
     Sum         889     439    151                17453     6183    1139



     Dynamical matrices for ( 4, 4, 4)  uniform grid of q-points
     (   8q-points):
       N         xq(1)         xq(2)         xq(3) 
       1   0.000000000   0.000000000   0.000000000
       2  -0.250000000   0.250000000  -0.250000000
       3   0.500000000  -0.500000000   0.500000000
       4   0.000000000   0.500000000   0.000000000
       5   0.750000000  -0.250000000   0.750000000
       6   0.500000000   0.000000000   0.500000000
       7   0.000000000  -1.000000000   0.000000000
       8  -0.500000000  -1.000000000   0.000000000

     Calculation of q =    0.0000000   0.0000000   0.0000000

                                                                                

     bravais-lattice index     =            2
     lattice parameter (alat)  =      10.3500  a.u.
     unit-cell volume          =     277.1795 (a.u.)^3
     number of atoms/cell      =            2
     number of atomic types    =            1
     kinetic-energy cut-off    =      30.0000  Ry
     charge density cut-off    =     240.0000  Ry
     convergence threshold     =      1.0E-12
     beta                      =       0.7000
     number of iterations used =            4
     Exchange-correlation      = SLA  PW   PBE  PBE ( 1  4  3  4 0 0)


     celldm(1)=   10.35000  celldm(2)=    0.00000  celldm(3)=    0.00000
     celldm(4)=    0.00000  celldm(5)=    0.00000  celldm(6)=    0.00000

     crystal axes: (cart. coord. in units of alat)
               a(1) = ( -0.5000  0.0000  0.5000 )  
               a(2) = (  0.0000  0.5000  0.5000 )  
               a(3) = ( -0.5000  0.5000  0.0000 )  

     reciprocal axes: (cart. coord. in units 2 pi/alat)
               b(1) = ( -1.0000 -1.0000  1.0000 )  
               b(2) = (  1.0000  1.0000  1.0000 )  
               b(3) = ( -1.0000  1.0000 -1.0000 )  


     Atoms inside the unit cell: 

     Cartesian axes

     site n.  atom      mass           positions (alat units)
        1     Si  28.0860   tau(    1) = (    0.00000    0.00000    0.00000  )
        2     Si  28.0860   tau(    2) = (    0.25000    0.25000    0.25000  )

     Computing dynamical matrix for 
                    q = (   0.0000000   0.0000000   0.0000000 )

     49 Sym.Ops. (with q -> -q+G )


     G cutoff =  651.2267  (   4363 G-vectors)     FFT grid: ( 40, 40, 40)
     G cutoff =  325.6134  (   1546 G-vectors)  smooth grid: ( 25, 25, 25)
     number of k points=    10

     PseudoPot. # 1 for Si read from file:
     /home/s1333534/quantum_espresso/qe-6.1/pseudo/si_pbe_v1.uspp.F.UPF.txt
     MD5 check sum: a056efeee980c13900f22a371efd63c1
     Pseudo is Ultrasoft + core correction, Zval =  4.0
     Generated by new atomic code, or converted to UPF format
     Using radial grid of  899 points,  6 beta functions with: 
                l(1) =   0
                l(2) =   0
                l(3) =   1
                l(4) =   1
                l(5) =   2
                l(6) =   2
     Q(r) pseudized with  8 coefficients,  rinner =    0.900   0.900   0.900
                                                       0.900   0.900

     Mode symmetry, O_h (m-3m)  point group:


     Electric field:
     Dielectric constant
     Born effective charges in two ways 


     Atomic displacements:
     There are   2 irreducible representations

     Representation     1      3 modes -T_2g G_25' G_5+  To be done

     Representation     2      3 modes -T_1u G_15  G_4-  To be done



     Alpha used in Ewald sum =   2.5000
     PHONON       :     0.98s CPU         1.30s WALL


     Electric Fields Calculation

      iter #   1 total cpu time :     2.4 secs   av.it.:   5.8
      thresh= 1.000E-02 alpha_mix =  0.700 |ddv_scf|^2 =  9.683E-08

      iter #   2 total cpu time :     3.3 secs   av.it.:  11.9
      thresh= 3.112E-05 alpha_mix =  0.700 |ddv_scf|^2 =  5.746E-09

      iter #   3 total cpu time :     4.1 secs   av.it.:  11.7
      thresh= 7.580E-06 alpha_mix =  0.700 |ddv_scf|^2 =  3.861E-10

      iter #   4 total cpu time :     4.9 secs   av.it.:  10.6
      thresh= 1.965E-06 alpha_mix =  0.700 |ddv_scf|^2 =  2.572E-12

      iter #   5 total cpu time :     5.5 secs   av.it.:  11.2
      thresh= 1.604E-07 alpha_mix =  0.700 |ddv_scf|^2 =  2.570E-15

     End of electric fields calculation

          Dielectric constant in cartesian axis 

          (      14.000271324      -0.000000000       0.000000000 )
          (       0.000000000      14.000271324      -0.000000000 )
          (      -0.000000000      -0.000000000      14.000271324 )

          Effective charges (d Force / dE) in cartesian axis

           atom      1   Si 
      Ex  (       -0.03821       -0.00000       -0.00000 )
      Ey  (       -0.00000       -0.03821        0.00000 )
      Ez  (       -0.00000        0.00000       -0.03821 )
           atom      2   Si 
      Ex  (       -0.03821        0.00000        0.00000 )
      Ey  (        0.00000       -0.03821       -0.00000 )
      Ez  (        0.00000       -0.00000       -0.03821 )


     Representation #  1 modes #   1  2  3

     Self-consistent Calculation

      iter #   1 total cpu time :     7.1 secs   av.it.:   5.1
      thresh= 1.000E-02 alpha_mix =  0.700 |ddv_scf|^2 =  1.713E-08

      iter #   2 total cpu time :     8.4 secs   av.it.:  11.8
      thresh= 1.309E-05 alpha_mix =  0.700 |ddv_scf|^2 =  7.003E-10

      iter #   3 total cpu time :     9.4 secs   av.it.:  11.3
      thresh= 2.646E-06 alpha_mix =  0.700 |ddv_scf|^2 =  4.761E-11

      iter #   4 total cpu time :    10.1 secs   av.it.:  10.4
      thresh= 6.900E-07 alpha_mix =  0.700 |ddv_scf|^2 =  1.179E-13

     End of self-consistent calculation

     Convergence has been achieved 


     Representation #  2 modes #   4  5  6

     Self-consistent Calculation

      iter #   1 total cpu time :    11.4 secs   av.it.:   5.2
      thresh= 1.000E-02 alpha_mix =  0.700 |ddv_scf|^2 =  1.351E-08

      iter #   2 total cpu time :    12.2 secs   av.it.:  11.7
      thresh= 1.162E-05 alpha_mix =  0.700 |ddv_scf|^2 =  7.940E-10

      iter #   3 total cpu time :    13.0 secs   av.it.:  11.4
      thresh= 2.818E-06 alpha_mix =  0.700 |ddv_scf|^2 =  4.927E-11

      iter #   4 total cpu time :    13.7 secs   av.it.:  11.5
      thresh= 7.019E-07 alpha_mix =  0.700 |ddv_scf|^2 =  1.918E-13

     End of self-consistent calculation

     Convergence has been achieved 

     Number of q in the star =    1
     List of q in the star:
          1   0.000000000   0.000000000   0.000000000

          Dielectric constant in cartesian axis 

          (      14.000271324      -0.000000000       0.000000000 )
          (       0.000000000      14.000271324      -0.000000000 )
          (      -0.000000000      -0.000000000      14.000271324 )

          Effective charges (d Force / dE) in cartesian axis

           atom      1   Si 
      Ex  (       -0.03821       -0.00000       -0.00000 )
      Ey  (       -0.00000       -0.03821        0.00000 )
      Ez  (       -0.00000        0.00000       -0.03821 )
           atom      2   Si 
      Ex  (       -0.03821        0.00000        0.00000 )
      Ey  (        0.00000       -0.03821       -0.00000 )
      Ez  (        0.00000       -0.00000       -0.03821 )

          Effective charges (d P / du) in cartesian axis 

           atom      1   Si 
      Px  (       -0.07272       -0.00000        0.00000 )
      Py  (        0.00000       -0.07272        0.00000 )
      Pz  (        0.00000       -0.00000       -0.07272 )
           atom      2   Si 
      Px  (       -0.07272        0.00000        0.00000 )
      Py  (        0.00000       -0.07272        0.00000 )
      Pz  (        0.00000        0.00000       -0.07272 )

     Diagonalizing the dynamical matrix

     q = (    0.000000000   0.000000000   0.000000000 ) 

 **************************************************************************
     freq (    1) =      -0.476793 [THz] =     -15.904097 [cm-1]
     freq (    2) =      -0.476793 [THz] =     -15.904097 [cm-1]
     freq (    3) =      -0.476793 [THz] =     -15.904097 [cm-1]
     freq (    4) =      14.996923 [THz] =     500.243510 [cm-1]
     freq (    5) =      14.996923 [THz] =     500.243510 [cm-1]
     freq (    6) =      14.996923 [THz] =     500.243510 [cm-1]
 **************************************************************************

     Mode symmetry, O_h (m-3m)  point group:

     freq (  1 -  3) =        -15.9  [cm-1]   --> T_1u G_15  G_4- I  
     freq (  4 -  6) =        500.2  [cm-1]   --> T_2g G_25' G_5+ R  

     Calculation of q =   -0.2500000   0.2500000  -0.2500000

   Info: using nr1, nr2, nr3 values from input

   Info: using nr1, nr2, nr3 values from input

     Parallelization info
     --------------------
     sticks:   dense  smooth     PW     G-vecs:    dense   smooth      PW
     Min         222     109     37                 4363     1545     309
     Max         223     110     38                 4364     1546     312
     Sum         889     439    151                17453     6183    1243



     bravais-lattice index     =            2
     lattice parameter (alat)  =      10.3500  a.u.
     unit-cell volume          =     277.1795 (a.u.)^3
     number of atoms/cell      =            2
     number of atomic types    =            1
     number of electrons       =         8.00
     number of Kohn-Sham states=            4
     kinetic-energy cutoff     =      30.0000  Ry
     charge density cutoff     =     240.0000  Ry
     Exchange-correlation      = SLA  PW   PBE  PBE ( 1  4  3  4 0 0)

     celldm(1)=  10.350000  celldm(2)=   0.000000  celldm(3)=   0.000000
     celldm(4)=   0.000000  celldm(5)=   0.000000  celldm(6)=   0.000000

     crystal axes: (cart. coord. in units of alat)
               a(1) = (  -0.500000   0.000000   0.500000 )  
               a(2) = (   0.000000   0.500000   0.500000 )  
               a(3) = (  -0.500000   0.500000   0.000000 )  

     reciprocal axes: (cart. coord. in units 2 pi/alat)
               b(1) = ( -1.000000 -1.000000  1.000000 )  
               b(2) = (  1.000000  1.000000  1.000000 )  
               b(3) = ( -1.000000  1.000000 -1.000000 )  


     PseudoPot. # 1 for Si read from file:
     /home/s1333534/quantum_espresso/qe-6.1/pseudo/si_pbe_v1.uspp.F.UPF.txt
     MD5 check sum: a056efeee980c13900f22a371efd63c1
     Pseudo is Ultrasoft + core correction, Zval =  4.0
     Generated by new atomic code, or converted to UPF format
     Using radial grid of  899 points,  6 beta functions with: 
                l(1) =   0
                l(2) =   0
                l(3) =   1
                l(4) =   1
                l(5) =   2
                l(6) =   2
     Q(r) pseudized with  8 coefficients,  rinner =    0.900   0.900   0.900
                                                       0.900   0.900

     atomic species   valence    mass     pseudopotential
        Si             4.00    28.08600     Si( 1.00)

     48 Sym. Ops., with inversion, found



   Cartesian axes

     site n.     atom                  positions (alat units)
         1           Si  tau(   1) = (   0.0000000   0.0000000   0.0000000  )
         2           Si  tau(   2) = (   0.2500000   0.2500000   0.2500000  )

     number of k points=   120

     Number of k-points >= 100: set verbosity='high' to print them.

     Dense  grid:    17453 G-vectors     FFT dimensions: (  40,  40,  40)

     Smooth grid:     6183 G-vectors     FFT dimensions: (  25,  25,  25)

     Estimated max dynamical RAM per process >       1.79MB

     Estimated total allocated dynamical RAM >       7.17MB

     The potential is recalculated from file :
     ./_ph0/silicon.10.350.save/charge-density.dat

     Starting wfc are    8 atomic wfcs

     Band Structure Calculation
     Davidson diagonalization with overlap

     ethr =  1.25E-10,  avg # of iterations = 12.2

     total cpu time spent up to now is        1.4 secs

     End of band structure calculation

     Number of k-points >= 100: set verbosity='high' to print the bands.

     highest occupied level (ev):     5.6489

     Writing output data file silicon.10.350.save

                                                                                

     bravais-lattice index     =            2
     lattice parameter (alat)  =      10.3500  a.u.
     unit-cell volume          =     277.1795 (a.u.)^3
     number of atoms/cell      =            2
     number of atomic types    =            1
     kinetic-energy cut-off    =      30.0000  Ry
     charge density cut-off    =     240.0000  Ry
     convergence threshold     =      1.0E-12
     beta                      =       0.7000
     number of iterations used =            4
     Exchange-correlation      = SLA  PW   PBE  PBE ( 1  4  3  4 0 0)


     celldm(1)=   10.35000  celldm(2)=    0.00000  celldm(3)=    0.00000
     celldm(4)=    0.00000  celldm(5)=    0.00000  celldm(6)=    0.00000

     crystal axes: (cart. coord. in units of alat)
               a(1) = ( -0.5000  0.0000  0.5000 )  
               a(2) = (  0.0000  0.5000  0.5000 )  
               a(3) = ( -0.5000  0.5000  0.0000 )  

     reciprocal axes: (cart. coord. in units 2 pi/alat)
               b(1) = ( -1.0000 -1.0000  1.0000 )  
               b(2) = (  1.0000  1.0000  1.0000 )  
               b(3) = ( -1.0000  1.0000 -1.0000 )  


     Atoms inside the unit cell: 

     Cartesian axes

     site n.  atom      mass           positions (alat units)
        1     Si  28.0860   tau(    1) = (    0.00000    0.00000    0.00000  )
        2     Si  28.0860   tau(    2) = (    0.25000    0.25000    0.25000  )

     Computing dynamical matrix for 
                    q = (  -0.2500000   0.2500000  -0.2500000 )

      6 Sym.Ops. (no q -> -q+G )


     G cutoff =  651.2267  (   4363 G-vectors)     FFT grid: ( 40, 40, 40)
     G cutoff =  325.6134  (   1546 G-vectors)  smooth grid: ( 25, 25, 25)
     number of k points=   120

     PseudoPot. # 1 for Si read from file:
     /home/s1333534/quantum_espresso/qe-6.1/pseudo/si_pbe_v1.uspp.F.UPF.txt
     MD5 check sum: a056efeee980c13900f22a371efd63c1
     Pseudo is Ultrasoft + core correction, Zval =  4.0
     Generated by new atomic code, or converted to UPF format
     Using radial grid of  899 points,  6 beta functions with: 
                l(1) =   0
                l(2) =   0
                l(3) =   1
                l(4) =   1
                l(5) =   2
                l(6) =   2
     Q(r) pseudized with  8 coefficients,  rinner =    0.900   0.900   0.900
                                                       0.900   0.900

     Mode symmetry, C_3v (3m)   point group:


     Atomic displacements:
     There are   4 irreducible representations

     Representation     1      1 modes -A_1  L_1  To be done

     Representation     2      1 modes -A_1  L_1  To be done

     Representation     3      2 modes -E    L_3  To be done

     Representation     4      2 modes -E    L_3  To be done



     Alpha used in Ewald sum =   2.5000
     PHONON       :    11.98s CPU        17.17s WALL



     Representation #  1 mode #   1

     Self-consistent Calculation

      iter #   1 total cpu time :    17.6 secs   av.it.:   5.9
      thresh= 1.000E-02 alpha_mix =  0.700 |ddv_scf|^2 =  3.093E-04

      iter #   2 total cpu time :    18.2 secs   av.it.:   9.2
      thresh= 1.759E-03 alpha_mix =  0.700 |ddv_scf|^2 =  4.722E-03

      iter #   3 total cpu time :    18.8 secs   av.it.:   7.1
      thresh= 6.872E-03 alpha_mix =  0.700 |ddv_scf|^2 =  1.956E-07

      iter #   4 total cpu time :    19.4 secs   av.it.:   9.7
      thresh= 4.423E-05 alpha_mix =  0.700 |ddv_scf|^2 =  1.302E-08

      iter #   5 total cpu time :    20.1 secs   av.it.:   9.7
      thresh= 1.141E-05 alpha_mix =  0.700 |ddv_scf|^2 =  2.410E-10

      iter #   6 total cpu time :    20.7 secs   av.it.:   9.9
      thresh= 1.552E-06 alpha_mix =  0.700 |ddv_scf|^2 =  6.392E-10

      iter #   7 total cpu time :    21.3 secs   av.it.:   7.8
      thresh= 2.528E-06 alpha_mix =  0.700 |ddv_scf|^2 =  3.682E-11

      iter #   8 total cpu time :    21.9 secs   av.it.:   9.4
      thresh= 6.068E-07 alpha_mix =  0.700 |ddv_scf|^2 =  4.040E-13

     End of self-consistent calculation

     Convergence has been achieved 


     Representation #  2 mode #   2

     Self-consistent Calculation

      iter #   1 total cpu time :    22.5 secs   av.it.:   5.9
      thresh= 1.000E-02 alpha_mix =  0.700 |ddv_scf|^2 =  3.093E-04

      iter #   2 total cpu time :    23.1 secs   av.it.:   9.2
      thresh= 1.759E-03 alpha_mix =  0.700 |ddv_scf|^2 =  4.722E-03

      iter #   3 total cpu time :    23.7 secs   av.it.:   7.1
      thresh= 6.872E-03 alpha_mix =  0.700 |ddv_scf|^2 =  1.956E-07

      iter #   4 total cpu time :    24.3 secs   av.it.:   9.7
      thresh= 4.423E-05 alpha_mix =  0.700 |ddv_scf|^2 =  1.302E-08

      iter #   5 total cpu time :    25.0 secs   av.it.:   9.7
      thresh= 1.141E-05 alpha_mix =  0.700 |ddv_scf|^2 =  2.410E-10

      iter #   6 total cpu time :    25.6 secs   av.it.:   9.9
      thresh= 1.552E-06 alpha_mix =  0.700 |ddv_scf|^2 =  6.392E-10

      iter #   7 total cpu time :    26.2 secs   av.it.:   7.8
      thresh= 2.528E-06 alpha_mix =  0.700 |ddv_scf|^2 =  3.682E-11

      iter #   8 total cpu time :    26.8 secs   av.it.:   9.4
      thresh= 6.068E-07 alpha_mix =  0.700 |ddv_scf|^2 =  4.040E-13

     End of self-consistent calculation

     Convergence has been achieved 


     Representation #  3 modes #   3  4

     Self-consistent Calculation

      iter #   1 total cpu time :    27.7 secs   av.it.:   5.2
      thresh= 1.000E-02 alpha_mix =  0.700 |ddv_scf|^2 =  4.816E-08

      iter #   2 total cpu time :    29.0 secs   av.it.:  11.7
      thresh= 2.194E-05 alpha_mix =  0.700 |ddv_scf|^2 =  3.095E-09

      iter #   3 total cpu time :    30.4 secs   av.it.:  11.2
      thresh= 5.563E-06 alpha_mix =  0.700 |ddv_scf|^2 =  1.635E-10

      iter #   4 total cpu time :    31.6 secs   av.it.:  11.1
      thresh= 1.279E-06 alpha_mix =  0.700 |ddv_scf|^2 =  6.282E-13

     End of self-consistent calculation

     Convergence has been achieved 


     Representation #  4 modes #   5  6

     Self-consistent Calculation

      iter #   1 total cpu time :    32.6 secs   av.it.:   5.2
      thresh= 1.000E-02 alpha_mix =  0.700 |ddv_scf|^2 =  4.816E-08

      iter #   2 total cpu time :    34.0 secs   av.it.:  11.7
      thresh= 2.195E-05 alpha_mix =  0.700 |ddv_scf|^2 =  3.094E-09

      iter #   3 total cpu time :    35.3 secs   av.it.:  11.4
      thresh= 5.562E-06 alpha_mix =  0.700 |ddv_scf|^2 =  1.634E-10

      iter #   4 total cpu time :    36.5 secs   av.it.:  11.2
      thresh= 1.278E-06 alpha_mix =  0.700 |ddv_scf|^2 =  6.312E-13

     End of self-consistent calculation

     Convergence has been achieved 

     Number of q in the star =    8
     List of q in the star:
          1  -0.250000000   0.250000000  -0.250000000
          2   0.250000000  -0.250000000  -0.250000000
          3   0.250000000  -0.250000000   0.250000000
          4   0.250000000   0.250000000   0.250000000
          5  -0.250000000  -0.250000000  -0.250000000
          6  -0.250000000  -0.250000000   0.250000000
          7  -0.250000000   0.250000000   0.250000000
          8   0.250000000   0.250000000  -0.250000000

     Diagonalizing the dynamical matrix

     q = (   -0.250000000   0.250000000  -0.250000000 ) 

 **************************************************************************
     freq (    1) =       2.794262 [THz] =      93.206536 [cm-1]
     freq (    2) =       2.794262 [THz] =      93.206536 [cm-1]
     freq (    3) =       6.696993 [THz] =     223.387652 [cm-1]
     freq (    4) =      14.150603 [THz] =     472.013315 [cm-1]
     freq (    5) =      14.414377 [THz] =     480.811878 [cm-1]
     freq (    6) =      14.414377 [THz] =     480.811878 [cm-1]
 **************************************************************************

     Mode symmetry, C_3v (3m)   point group:

     freq (  1 -  2) =         93.2  [cm-1]   --> E    L_3           
     freq (  3 -  3) =        223.4  [cm-1]   --> A_1  L_1           
     freq (  4 -  4) =        472.0  [cm-1]   --> A_1  L_1           
     freq (  5 -  6) =        480.8  [cm-1]   --> E    L_3           

     Calculation of q =    0.5000000  -0.5000000   0.5000000

   Info: using nr1, nr2, nr3 values from input

   Info: using nr1, nr2, nr3 values from input

     Parallelization info
     --------------------
     sticks:   dense  smooth     PW     G-vecs:    dense   smooth      PW
     Min         222     109     40                 4363     1545     351
     Max         223     110     41                 4364     1546     354
     Sum         889     439    163                17453     6183    1411



     bravais-lattice index     =            2
     lattice parameter (alat)  =      10.3500  a.u.
     unit-cell volume          =     277.1795 (a.u.)^3
     number of atoms/cell      =            2
     number of atomic types    =            1
     number of electrons       =         8.00
     number of Kohn-Sham states=            4
     kinetic-energy cutoff     =      30.0000  Ry
     charge density cutoff     =     240.0000  Ry
     Exchange-correlation      = SLA  PW   PBE  PBE ( 1  4  3  4 0 0)

     celldm(1)=  10.350000  celldm(2)=   0.000000  celldm(3)=   0.000000
     celldm(4)=   0.000000  celldm(5)=   0.000000  celldm(6)=   0.000000

     crystal axes: (cart. coord. in units of alat)
               a(1) = (  -0.500000   0.000000   0.500000 )  
               a(2) = (   0.000000   0.500000   0.500000 )  
               a(3) = (  -0.500000   0.500000   0.000000 )  

     reciprocal axes: (cart. coord. in units 2 pi/alat)
               b(1) = ( -1.000000 -1.000000  1.000000 )  
               b(2) = (  1.000000  1.000000  1.000000 )  
               b(3) = ( -1.000000  1.000000 -1.000000 )  


     PseudoPot. # 1 for Si read from file:
     /home/s1333534/quantum_espresso/qe-6.1/pseudo/si_pbe_v1.uspp.F.UPF.txt
     MD5 check sum: a056efeee980c13900f22a371efd63c1
     Pseudo is Ultrasoft + core correction, Zval =  4.0
     Generated by new atomic code, or converted to UPF format
     Using radial grid of  899 points,  6 beta functions with: 
                l(1) =   0
                l(2) =   0
                l(3) =   1
                l(4) =   1
                l(5) =   2
                l(6) =   2
     Q(r) pseudized with  8 coefficients,  rinner =    0.900   0.900   0.900
                                                       0.900   0.900

     atomic species   valence    mass     pseudopotential
        Si             4.00    28.08600     Si( 1.00)

     48 Sym. Ops., with inversion, found



   Cartesian axes

     site n.     atom                  positions (alat units)
         1           Si  tau(   1) = (   0.0000000   0.0000000   0.0000000  )
         2           Si  tau(   2) = (   0.2500000   0.2500000   0.2500000  )

     number of k points=    60
                       cart. coord. in units 2pi/alat
        k(    1) = (  -0.1250000   0.1250000   0.1250000), wk =   0.0468750
        k(    2) = (   0.3750000  -0.3750000   0.6250000), wk =   0.0000000
        k(    3) = (  -0.3750000   0.3750000  -0.1250000), wk =   0.0468750
        k(    4) = (   0.1250000  -0.1250000   0.3750000), wk =   0.0000000
        k(    5) = (   0.3750000  -0.3750000   0.6250000), wk =   0.0468750
        k(    6) = (   0.8750000  -0.8750000   1.1250000), wk =   0.0000000
        k(    7) = (   0.1250000  -0.1250000   0.3750000), wk =   0.0468750
        k(    8) = (   0.6250000  -0.6250000   0.8750000), wk =   0.0000000
        k(    9) = (  -0.1250000   0.6250000   0.1250000), wk =   0.0937500
        k(   10) = (   0.3750000   0.1250000   0.6250000), wk =   0.0000000
        k(   11) = (   0.6250000  -0.1250000   0.8750000), wk =   0.0937500
        k(   12) = (   1.1250000  -0.6250000   1.3750000), wk =   0.0000000
        k(   13) = (   0.3750000   0.1250000   0.6250000), wk =   0.0937500
        k(   14) = (   0.8750000  -0.3750000   1.1250000), wk =   0.0000000
        k(   15) = (  -0.1250000  -0.8750000   0.1250000), wk =   0.0937500
        k(   16) = (   0.3750000  -1.3750000   0.6250000), wk =   0.0000000
        k(   17) = (  -0.3750000   0.3750000   0.3750000), wk =   0.0468750
        k(   18) = (   0.1250000  -0.1250000   0.8750000), wk =   0.0000000
        k(   19) = (   0.3750000  -0.3750000   1.1250000), wk =   0.0468750
        k(   20) = (   0.8750000  -0.8750000   1.6250000), wk =   0.0000000
        k(   21) = (   0.1250000  -0.1250000   0.1250000), wk =   0.0156250
        k(   22) = (   0.6250000  -0.6250000   0.6250000), wk =   0.0000000
        k(   23) = (  -0.3750000  -0.3750000  -0.1250000), wk =   0.0937500
        k(   24) = (   0.1250000  -0.8750000   0.3750000), wk =   0.0000000
        k(   25) = (  -0.1250000  -0.3750000   0.3750000), wk =   0.0468750
        k(   26) = (   0.3750000  -0.8750000   0.8750000), wk =   0.0000000
        k(   27) = (   0.3750000   0.3750000   0.6250000), wk =   0.0937500
        k(   28) = (   0.8750000  -0.1250000   1.1250000), wk =   0.0000000
        k(   29) = (   0.6250000   0.3750000  -0.3750000), wk =   0.0468750
        k(   30) = (   1.1250000  -0.1250000   0.1250000), wk =   0.0000000
        k(   31) = (   0.1250000   0.1250000   0.3750000), wk =   0.0937500
        k(   32) = (   0.6250000  -0.3750000   0.8750000), wk =   0.0000000
        k(   33) = (   0.3750000   0.1250000  -0.1250000), wk =   0.0468750
        k(   34) = (   0.8750000  -0.3750000   0.3750000), wk =   0.0000000
        k(   35) = (  -0.1250000  -0.6250000  -0.1250000), wk =   0.0468750
        k(   36) = (   0.3750000  -1.1250000   0.3750000), wk =   0.0000000
        k(   37) = (   0.1250000  -0.6250000   0.1250000), wk =   0.0468750
        k(   38) = (   0.6250000  -1.1250000   0.6250000), wk =   0.0000000
        k(   39) = (   0.6250000   0.1250000   0.8750000), wk =   0.0937500
        k(   40) = (   1.1250000  -0.3750000   1.3750000), wk =   0.0000000
        k(   41) = (  -0.8750000   0.1250000   0.6250000), wk =   0.0937500
        k(   42) = (  -0.3750000  -0.3750000   1.1250000), wk =   0.0000000
        k(   43) = (   0.8750000   0.1250000  -0.6250000), wk =   0.0937500
        k(   44) = (   1.3750000  -0.3750000  -0.1250000), wk =   0.0000000
        k(   45) = (   0.3750000  -0.1250000   0.6250000), wk =   0.0937500
        k(   46) = (   0.8750000  -0.6250000   1.1250000), wk =   0.0000000
        k(   47) = (  -0.6250000  -0.1250000   0.3750000), wk =   0.0937500
        k(   48) = (  -0.1250000  -0.6250000   0.8750000), wk =   0.0000000
        k(   49) = (   0.6250000  -0.1250000  -0.3750000), wk =   0.0937500
        k(   50) = (   1.1250000  -0.6250000   0.1250000), wk =   0.0000000
        k(   51) = (  -0.1250000   0.8750000  -0.1250000), wk =   0.0468750
        k(   52) = (   0.3750000   0.3750000   0.3750000), wk =   0.0000000
        k(   53) = (   0.1250000   0.8750000   0.1250000), wk =   0.0468750
        k(   54) = (   0.6250000   0.3750000   0.6250000), wk =   0.0000000
        k(   55) = (   0.3750000  -0.3750000   0.3750000), wk =   0.0156250
        k(   56) = (   0.8750000  -0.8750000   0.8750000), wk =   0.0000000
        k(   57) = (   0.3750000   0.3750000   1.1250000), wk =   0.0937500
        k(   58) = (   0.8750000  -0.1250000   1.6250000), wk =   0.0000000
        k(   59) = (   1.1250000   0.3750000  -0.3750000), wk =   0.0468750
        k(   60) = (   1.6250000  -0.1250000   0.1250000), wk =   0.0000000

     Dense  grid:    17453 G-vectors     FFT dimensions: (  40,  40,  40)

     Smooth grid:     6183 G-vectors     FFT dimensions: (  25,  25,  25)

     Estimated max dynamical RAM per process >       1.79MB

     Estimated total allocated dynamical RAM >       7.17MB

     The potential is recalculated from file :
     ./_ph0/silicon.10.350.save/charge-density.dat

     Starting wfc are    8 atomic wfcs

     Band Structure Calculation
     Davidson diagonalization with overlap

     ethr =  1.25E-10,  avg # of iterations = 12.2

     total cpu time spent up to now is        2.4 secs

     End of band structure calculation

          k =-0.1250 0.1250 0.1250 (   773 PWs)   bands (ev):

    -5.6553   4.3394   5.6489   5.6489

          k = 0.3750-0.3750 0.6250 (   767 PWs)   bands (ev):

    -3.5013  -0.7109   3.6903   4.4030

          k =-0.3750 0.3750-0.1250 (   776 PWs)   bands (ev):

    -4.6337   1.3557   3.6719   5.1701

          k = 0.1250-0.1250 0.3750 (   774 PWs)   bands (ev):

    -5.1299   2.7258   4.6465   4.7075

          k = 0.3750-0.3750 0.6250 (   767 PWs)   bands (ev):

    -3.5013  -0.7109   3.6903   4.4030

          k = 0.8750-0.8750 1.1250 (   773 PWs)   bands (ev):

    -5.6553   4.3394   5.6489   5.6489

          k = 0.1250-0.1250 0.3750 (   774 PWs)   bands (ev):

    -5.1299   2.7258   4.6465   4.7075

          k = 0.6250-0.6250 0.8750 (   776 PWs)   bands (ev):

    -4.6337   1.3557   3.6719   5.1701

          k =-0.1250 0.6250 0.1250 (   768 PWs)   bands (ev):

    -4.1035   1.0173   3.3263   3.7766

          k = 0.3750 0.1250 0.6250 (   770 PWs)   bands (ev):

    -3.6906   0.1510   2.6867   4.0500

          k = 0.6250-0.1250 0.8750 (   757 PWs)   bands (ev):

    -2.4730  -0.9368   1.9808   3.0514

          k = 1.1250-0.6250 1.3750 (   776 PWs)   bands (ev):

    -4.6337   1.3557   3.6719   5.1701

          k = 0.3750 0.1250 0.6250 (   770 PWs)   bands (ev):

    -3.6906   0.1510   2.6867   4.0500

          k = 0.8750-0.3750 1.1250 (   768 PWs)   bands (ev):

    -4.1035   1.0173   3.3263   3.7766

          k =-0.1250-0.8750 0.1250 (   763 PWs)   bands (ev):

    -2.6387  -0.8405   2.5870   3.3118

          k = 0.3750-1.3750 0.6250 (   767 PWs)   bands (ev):

    -3.5013  -0.7109   3.6903   4.4030

          k =-0.3750 0.3750 0.3750 (   763 PWs)   bands (ev):

    -4.2034   0.0736   4.8647   4.8647

          k = 0.1250-0.1250 0.8750 (   763 PWs)   bands (ev):

    -2.6387  -0.8405   2.5870   3.3118

          k = 0.3750-0.3750 1.1250 (   769 PWs)   bands (ev):

    -3.0078  -0.6316   2.0369   4.0879

          k = 0.8750-0.8750 1.6250 (   768 PWs)   bands (ev):

    -4.1035   1.0173   3.3263   3.7766

          k = 0.1250-0.1250 0.1250 (   773 PWs)   bands (ev):

    -5.6553   4.3394   5.6489   5.6489

          k = 0.6250-0.6250 0.6250 (   763 PWs)   bands (ev):

    -4.2034   0.0736   4.8647   4.8647

          k =-0.3750-0.3750-0.1250 (   776 PWs)   bands (ev):

    -4.6337   1.3557   3.6719   5.1701

          k = 0.1250-0.8750 0.3750 (   757 PWs)   bands (ev):

    -2.4730  -0.9368   1.9808   3.0514

          k =-0.1250-0.3750 0.3750 (   776 PWs)   bands (ev):

    -4.6337   1.3557   3.6719   5.1701

          k = 0.3750-0.8750 0.8750 (   768 PWs)   bands (ev):

    -4.1035   1.0173   3.3263   3.7766

          k = 0.3750 0.3750 0.6250 (   767 PWs)   bands (ev):

    -3.5013  -0.7109   3.6903   4.4030

          k = 0.8750-0.1250 1.1250 (   763 PWs)   bands (ev):

    -2.6387  -0.8405   2.5870   3.3118

          k = 0.6250 0.3750-0.3750 (   767 PWs)   bands (ev):

    -3.5013  -0.7109   3.6903   4.4030

          k = 1.1250-0.1250 0.1250 (   763 PWs)   bands (ev):

    -2.6387  -0.8405   2.5870   3.3118

          k = 0.1250 0.1250 0.3750 (   774 PWs)   bands (ev):

    -5.1299   2.7258   4.6465   4.7075

          k = 0.6250-0.3750 0.8750 (   770 PWs)   bands (ev):

    -3.6906   0.1510   2.6867   4.0500

          k = 0.3750 0.1250-0.1250 (   774 PWs)   bands (ev):

    -5.1299   2.7258   4.6465   4.7075

          k = 0.8750-0.3750 0.3750 (   769 PWs)   bands (ev):

    -3.0078  -0.6316   2.0369   4.0879

          k =-0.1250-0.6250-0.1250 (   768 PWs)   bands (ev):

    -4.1035   1.0173   3.3263   3.7766

          k = 0.3750-1.1250 0.3750 (   769 PWs)   bands (ev):

    -3.0078  -0.6316   2.0369   4.0879

          k = 0.1250-0.6250 0.1250 (   768 PWs)   bands (ev):

    -4.1035   1.0173   3.3263   3.7766

          k = 0.6250-1.1250 0.6250 (   776 PWs)   bands (ev):

    -4.6337   1.3557   3.6719   5.1701

          k = 0.6250 0.1250 0.8750 (   757 PWs)   bands (ev):

    -2.4730  -0.9368   1.9808   3.0514

          k = 1.1250-0.3750 1.3750 (   770 PWs)   bands (ev):

    -3.6906   0.1510   2.6867   4.0500

          k =-0.8750 0.1250 0.6250 (   757 PWs)   bands (ev):

    -2.4730  -0.9368   1.9808   3.0514

          k =-0.3750-0.3750 1.1250 (   769 PWs)   bands (ev):

    -3.0078  -0.6316   2.0369   4.0879

          k = 0.8750 0.1250-0.6250 (   757 PWs)   bands (ev):

    -2.4730  -0.9368   1.9808   3.0514

          k = 1.3750-0.3750-0.1250 (   770 PWs)   bands (ev):

    -3.6906   0.1510   2.6867   4.0500

          k = 0.3750-0.1250 0.6250 (   770 PWs)   bands (ev):

    -3.6906   0.1510   2.6867   4.0500

          k = 0.8750-0.6250 1.1250 (   774 PWs)   bands (ev):

    -5.1299   2.7258   4.6465   4.7075

          k =-0.6250-0.1250 0.3750 (   770 PWs)   bands (ev):

    -3.6906   0.1510   2.6867   4.0500

          k =-0.1250-0.6250 0.8750 (   757 PWs)   bands (ev):

    -2.4730  -0.9368   1.9808   3.0514

          k = 0.6250-0.1250-0.3750 (   770 PWs)   bands (ev):

    -3.6906   0.1510   2.6867   4.0500

          k = 1.1250-0.6250 0.1250 (   757 PWs)   bands (ev):

    -2.4730  -0.9368   1.9808   3.0514

          k =-0.1250 0.8750-0.1250 (   763 PWs)   bands (ev):

    -2.6387  -0.8405   2.5870   3.3118

          k = 0.3750 0.3750 0.3750 (   763 PWs)   bands (ev):

    -4.2034   0.0736   4.8647   4.8647

          k = 0.1250 0.8750 0.1250 (   763 PWs)   bands (ev):

    -2.6387  -0.8405   2.5870   3.3118

          k = 0.6250 0.3750 0.6250 (   767 PWs)   bands (ev):

    -3.5013  -0.7109   3.6903   4.4030

          k = 0.3750-0.3750 0.3750 (   763 PWs)   bands (ev):

    -4.2034   0.0736   4.8647   4.8647

          k = 0.8750-0.8750 0.8750 (   773 PWs)   bands (ev):

    -5.6553   4.3394   5.6489   5.6489

          k = 0.3750 0.3750 1.1250 (   769 PWs)   bands (ev):

    -3.0078  -0.6316   2.0369   4.0879

          k = 0.8750-0.1250 1.6250 (   757 PWs)   bands (ev):

    -2.4730  -0.9368   1.9808   3.0514

          k = 1.1250 0.3750-0.3750 (   769 PWs)   bands (ev):

    -3.0078  -0.6316   2.0369   4.0879

          k = 1.6250-0.1250 0.1250 (   774 PWs)   bands (ev):

    -5.1299   2.7258   4.6465   4.7075

     highest occupied level (ev):     5.6489

     Writing output data file silicon.10.350.save

                                                                                

     bravais-lattice index     =            2
     lattice parameter (alat)  =      10.3500  a.u.
     unit-cell volume          =     277.1795 (a.u.)^3
     number of atoms/cell      =            2
     number of atomic types    =            1
     kinetic-energy cut-off    =      30.0000  Ry
     charge density cut-off    =     240.0000  Ry
     convergence threshold     =      1.0E-12
     beta                      =       0.7000
     number of iterations used =            4
     Exchange-correlation      = SLA  PW   PBE  PBE ( 1  4  3  4 0 0)


     celldm(1)=   10.35000  celldm(2)=    0.00000  celldm(3)=    0.00000
     celldm(4)=    0.00000  celldm(5)=    0.00000  celldm(6)=    0.00000

     crystal axes: (cart. coord. in units of alat)
               a(1) = ( -0.5000  0.0000  0.5000 )  
               a(2) = (  0.0000  0.5000  0.5000 )  
               a(3) = ( -0.5000  0.5000  0.0000 )  

     reciprocal axes: (cart. coord. in units 2 pi/alat)
               b(1) = ( -1.0000 -1.0000  1.0000 )  
               b(2) = (  1.0000  1.0000  1.0000 )  
               b(3) = ( -1.0000  1.0000 -1.0000 )  


     Atoms inside the unit cell: 

     Cartesian axes

     site n.  atom      mass           positions (alat units)
        1     Si  28.0860   tau(    1) = (    0.00000    0.00000    0.00000  )
        2     Si  28.0860   tau(    2) = (    0.25000    0.25000    0.25000  )

     Computing dynamical matrix for 
                    q = (   0.5000000  -0.5000000   0.5000000 )

     13 Sym.Ops. (with q -> -q+G )


     G cutoff =  651.2267  (   4363 G-vectors)     FFT grid: ( 40, 40, 40)
     G cutoff =  325.6134  (   1546 G-vectors)  smooth grid: ( 25, 25, 25)
     number of k points=    60

     PseudoPot. # 1 for Si read from file:
     /home/s1333534/quantum_espresso/qe-6.1/pseudo/si_pbe_v1.uspp.F.UPF.txt
     MD5 check sum: a056efeee980c13900f22a371efd63c1
     Pseudo is Ultrasoft + core correction, Zval =  4.0
     Generated by new atomic code, or converted to UPF format
     Using radial grid of  899 points,  6 beta functions with: 
                l(1) =   0
                l(2) =   0
                l(3) =   1
                l(4) =   1
                l(5) =   2
                l(6) =   2
     Q(r) pseudized with  8 coefficients,  rinner =    0.900   0.900   0.900
                                                       0.900   0.900


     Atomic displacements:
     There are   4 irreducible representations

     Representation     1      1 modes -  To be done

     Representation     2      1 modes -  To be done

     Representation     3      2 modes -  To be done

     Representation     4      2 modes -  To be done



     Alpha used in Ewald sum =   2.5000
     PHONON       :    29.64s CPU        38.98s WALL



     Representation #  1 mode #   1

     Self-consistent Calculation

      iter #   1 total cpu time :    39.3 secs   av.it.:   5.0
      thresh= 1.000E-02 alpha_mix =  0.700 |ddv_scf|^2 =  3.033E-06

      iter #   2 total cpu time :    39.8 secs   av.it.:  10.1
      thresh= 1.741E-04 alpha_mix =  0.700 |ddv_scf|^2 =  2.795E-06

      iter #   3 total cpu time :    40.3 secs   av.it.:   9.4
      thresh= 1.672E-04 alpha_mix =  0.700 |ddv_scf|^2 =  1.660E-09

      iter #   4 total cpu time :    40.7 secs   av.it.:   9.6
      thresh= 4.075E-06 alpha_mix =  0.700 |ddv_scf|^2 =  1.568E-11

      iter #   5 total cpu time :    41.1 secs   av.it.:   9.5
      thresh= 3.960E-07 alpha_mix =  0.700 |ddv_scf|^2 =  2.285E-13

     End of self-consistent calculation

     Convergence has been achieved 


     Representation #  2 mode #   2

     Self-consistent Calculation

      iter #   1 total cpu time :    41.6 secs   av.it.:   6.0
      thresh= 1.000E-02 alpha_mix =  0.700 |ddv_scf|^2 =  4.312E-05

      iter #   2 total cpu time :    42.2 secs   av.it.:  10.0
      thresh= 6.567E-04 alpha_mix =  0.700 |ddv_scf|^2 =  1.344E-04

      iter #   3 total cpu time :    42.6 secs   av.it.:   8.9
      thresh= 1.159E-03 alpha_mix =  0.700 |ddv_scf|^2 =  1.003E-08

      iter #   4 total cpu time :    43.1 secs   av.it.:  10.1
      thresh= 1.002E-05 alpha_mix =  0.700 |ddv_scf|^2 =  5.075E-10

      iter #   5 total cpu time :    43.5 secs   av.it.:  10.4
      thresh= 2.253E-06 alpha_mix =  0.700 |ddv_scf|^2 =  1.504E-11

      iter #   6 total cpu time :    43.9 secs   av.it.:   9.9
      thresh= 3.879E-07 alpha_mix =  0.700 |ddv_scf|^2 =  1.118E-13

     End of self-consistent calculation

     Convergence has been achieved 


     Representation #  3 modes #   3  4

     Self-consistent Calculation

      iter #   1 total cpu time :    44.5 secs   av.it.:   5.1
      thresh= 1.000E-02 alpha_mix =  0.700 |ddv_scf|^2 =  1.955E-08

      iter #   2 total cpu time :    45.4 secs   av.it.:  11.1
      thresh= 1.398E-05 alpha_mix =  0.700 |ddv_scf|^2 =  1.150E-09

      iter #   3 total cpu time :    46.3 secs   av.it.:  10.9
      thresh= 3.391E-06 alpha_mix =  0.700 |ddv_scf|^2 =  3.871E-11

      iter #   4 total cpu time :    47.0 secs   av.it.:  10.8
      thresh= 6.221E-07 alpha_mix =  0.700 |ddv_scf|^2 =  3.170E-13

     End of self-consistent calculation

     Convergence has been achieved 


     Representation #  4 modes #   5  6

     Self-consistent Calculation

      iter #   1 total cpu time :    47.7 secs   av.it.:   5.1
      thresh= 1.000E-02 alpha_mix =  0.700 |ddv_scf|^2 =  1.003E-07

      iter #   2 total cpu time :    48.7 secs   av.it.:  11.2
      thresh= 3.167E-05 alpha_mix =  0.700 |ddv_scf|^2 =  8.052E-09

      iter #   3 total cpu time :    49.8 secs   av.it.:  11.2
      thresh= 8.973E-06 alpha_mix =  0.700 |ddv_scf|^2 =  2.113E-10

      iter #   4 total cpu time :    50.5 secs   av.it.:  10.1
      thresh= 1.453E-06 alpha_mix =  0.700 |ddv_scf|^2 =  3.847E-13

     End of self-consistent calculation

     Convergence has been achieved 

     Number of q in the star =    4
     List of q in the star:
          1   0.500000000  -0.500000000   0.500000000
          2   0.500000000   0.500000000   0.500000000
          3  -0.500000000   0.500000000   0.500000000
          4   0.500000000   0.500000000  -0.500000000

     Diagonalizing the dynamical matrix

     q = (    0.500000000  -0.500000000   0.500000000 ) 

 **************************************************************************
     freq (    1) =       3.326245 [THz] =     110.951580 [cm-1]
     freq (    2) =       3.326245 [THz] =     110.951580 [cm-1]
     freq (    3) =      11.077392 [THz] =     369.502015 [cm-1]
     freq (    4) =      11.873156 [THz] =     396.045869 [cm-1]
     freq (    5) =      14.197385 [THz] =     473.573802 [cm-1]
     freq (    6) =      14.197385 [THz] =     473.573802 [cm-1]
 **************************************************************************

     Calculation of q =    0.0000000   0.5000000   0.0000000

   Info: using nr1, nr2, nr3 values from input

   Info: using nr1, nr2, nr3 values from input

     Parallelization info
     --------------------
     sticks:   dense  smooth     PW     G-vecs:    dense   smooth      PW
     Min         222     109     40                 4363     1545     322
     Max         223     110     42                 4364     1547     323
     Sum         889     439    163                17453     6183    1291



     bravais-lattice index     =            2
     lattice parameter (alat)  =      10.3500  a.u.
     unit-cell volume          =     277.1795 (a.u.)^3
     number of atoms/cell      =            2
     number of atomic types    =            1
     number of electrons       =         8.00
     number of Kohn-Sham states=            4
     kinetic-energy cutoff     =      30.0000  Ry
     charge density cutoff     =     240.0000  Ry
     Exchange-correlation      = SLA  PW   PBE  PBE ( 1  4  3  4 0 0)

     celldm(1)=  10.350000  celldm(2)=   0.000000  celldm(3)=   0.000000
     celldm(4)=   0.000000  celldm(5)=   0.000000  celldm(6)=   0.000000

     crystal axes: (cart. coord. in units of alat)
               a(1) = (  -0.500000   0.000000   0.500000 )  
               a(2) = (   0.000000   0.500000   0.500000 )  
               a(3) = (  -0.500000   0.500000   0.000000 )  

     reciprocal axes: (cart. coord. in units 2 pi/alat)
               b(1) = ( -1.000000 -1.000000  1.000000 )  
               b(2) = (  1.000000  1.000000  1.000000 )  
               b(3) = ( -1.000000  1.000000 -1.000000 )  


     PseudoPot. # 1 for Si read from file:
     /home/s1333534/quantum_espresso/qe-6.1/pseudo/si_pbe_v1.uspp.F.UPF.txt
     MD5 check sum: a056efeee980c13900f22a371efd63c1
     Pseudo is Ultrasoft + core correction, Zval =  4.0
     Generated by new atomic code, or converted to UPF format
     Using radial grid of  899 points,  6 beta functions with: 
                l(1) =   0
                l(2) =   0
                l(3) =   1
                l(4) =   1
                l(5) =   2
                l(6) =   2
     Q(r) pseudized with  8 coefficients,  rinner =    0.900   0.900   0.900
                                                       0.900   0.900

     atomic species   valence    mass     pseudopotential
        Si             4.00    28.08600     Si( 1.00)

     48 Sym. Ops., with inversion, found



   Cartesian axes

     site n.     atom                  positions (alat units)
         1           Si  tau(   1) = (   0.0000000   0.0000000   0.0000000  )
         2           Si  tau(   2) = (   0.2500000   0.2500000   0.2500000  )

     number of k points=    80
                       cart. coord. in units 2pi/alat
        k(    1) = (  -0.1250000   0.1250000   0.1250000), wk =   0.0312500
        k(    2) = (  -0.1250000   0.6250000   0.1250000), wk =   0.0000000
        k(    3) = (  -0.3750000   0.3750000  -0.1250000), wk =   0.0625000
        k(    4) = (  -0.3750000   0.8750000  -0.1250000), wk =   0.0000000
        k(    5) = (   0.3750000  -0.3750000   0.6250000), wk =   0.0625000
        k(    6) = (   0.3750000   0.1250000   0.6250000), wk =   0.0000000
        k(    7) = (   0.1250000  -0.1250000   0.3750000), wk =   0.0625000
        k(    8) = (   0.1250000   0.3750000   0.3750000), wk =   0.0000000
        k(    9) = (  -0.1250000   0.6250000   0.1250000), wk =   0.0312500
        k(   10) = (  -0.1250000   1.1250000   0.1250000), wk =   0.0000000
        k(   11) = (   0.6250000  -0.1250000   0.8750000), wk =   0.0625000
        k(   12) = (   0.6250000   0.3750000   0.8750000), wk =   0.0000000
        k(   13) = (   0.3750000   0.1250000   0.6250000), wk =   0.0625000
        k(   14) = (   0.3750000   0.6250000   0.6250000), wk =   0.0000000
        k(   15) = (  -0.1250000  -0.8750000   0.1250000), wk =   0.0312500
        k(   16) = (  -0.1250000  -0.3750000   0.1250000), wk =   0.0000000
        k(   17) = (  -0.3750000   0.3750000   0.3750000), wk =   0.0312500
        k(   18) = (  -0.3750000   0.8750000   0.3750000), wk =   0.0000000
        k(   19) = (   0.3750000  -0.3750000   1.1250000), wk =   0.0625000
        k(   20) = (   0.3750000   0.1250000   1.1250000), wk =   0.0000000
        k(   21) = (  -0.1250000  -0.1250000   0.1250000), wk =   0.0312500
        k(   22) = (  -0.1250000   0.3750000   0.1250000), wk =   0.0000000
        k(   23) = (   0.1250000  -0.3750000   0.3750000), wk =   0.0625000
        k(   24) = (   0.1250000   0.1250000   0.3750000), wk =   0.0000000
        k(   25) = (   0.3750000  -0.1250000   0.3750000), wk =   0.0312500
        k(   26) = (   0.3750000   0.3750000   0.3750000), wk =   0.0000000
        k(   27) = (   0.3750000   0.1250000   0.3750000), wk =   0.0312500
        k(   28) = (   0.3750000   0.6250000   0.3750000), wk =   0.0000000
        k(   29) = (  -0.6250000   0.3750000  -0.3750000), wk =   0.0625000
        k(   30) = (  -0.6250000   0.8750000  -0.3750000), wk =   0.0000000
        k(   31) = (  -0.3750000   0.6250000  -0.3750000), wk =   0.0312500
        k(   32) = (  -0.3750000   1.1250000  -0.3750000), wk =   0.0000000
        k(   33) = (  -0.3750000  -0.6250000  -0.3750000), wk =   0.0312500
        k(   34) = (  -0.3750000  -0.1250000  -0.3750000), wk =   0.0000000
        k(   35) = (  -0.3750000   0.1250000  -0.1250000), wk =   0.0625000
        k(   36) = (  -0.3750000   0.6250000  -0.1250000), wk =   0.0000000
        k(   37) = (  -0.1250000   0.3750000  -0.1250000), wk =   0.0312500
        k(   38) = (  -0.1250000   0.8750000  -0.1250000), wk =   0.0000000
        k(   39) = (  -0.1250000  -0.3750000  -0.1250000), wk =   0.0312500
        k(   40) = (  -0.1250000   0.1250000  -0.1250000), wk =   0.0000000
        k(   41) = (  -0.1250000  -0.6250000   0.1250000), wk =   0.0312500
        k(   42) = (  -0.1250000  -0.1250000   0.1250000), wk =   0.0000000
        k(   43) = (   0.6250000  -0.1250000  -0.1250000), wk =   0.0625000
        k(   44) = (   0.6250000   0.3750000  -0.1250000), wk =   0.0000000
        k(   45) = (   0.6250000   0.1250000   0.1250000), wk =   0.0625000
        k(   46) = (   0.6250000   0.6250000   0.1250000), wk =   0.0000000
        k(   47) = (  -0.8750000   0.1250000  -0.6250000), wk =   0.0625000
        k(   48) = (  -0.8750000   0.6250000  -0.6250000), wk =   0.0000000
        k(   49) = (  -0.1250000   0.6250000  -0.8750000), wk =   0.0625000
        k(   50) = (  -0.1250000   1.1250000  -0.8750000), wk =   0.0000000
        k(   51) = (  -0.1250000   0.8750000  -0.6250000), wk =   0.0625000
        k(   52) = (  -0.1250000   1.3750000  -0.6250000), wk =   0.0000000
        k(   53) = (  -0.1250000  -0.8750000  -0.6250000), wk =   0.0625000
        k(   54) = (  -0.1250000  -0.3750000  -0.6250000), wk =   0.0000000
        k(   55) = (   0.8750000  -0.6250000   0.1250000), wk =   0.0625000
        k(   56) = (   0.8750000  -0.1250000   0.1250000), wk =   0.0000000
        k(   57) = (  -0.6250000  -0.1250000  -0.3750000), wk =   0.0625000
        k(   58) = (  -0.6250000   0.3750000  -0.3750000), wk =   0.0000000
        k(   59) = (   0.1250000   0.3750000  -0.6250000), wk =   0.0625000
        k(   60) = (   0.1250000   0.8750000  -0.6250000), wk =   0.0000000
        k(   61) = (   0.1250000   0.6250000  -0.3750000), wk =   0.0625000
        k(   62) = (   0.1250000   1.1250000  -0.3750000), wk =   0.0000000
        k(   63) = (   0.1250000  -0.6250000  -0.3750000), wk =   0.0625000
        k(   64) = (   0.1250000  -0.1250000  -0.3750000), wk =   0.0000000
        k(   65) = (   0.6250000  -0.3750000  -0.1250000), wk =   0.0625000
        k(   66) = (   0.6250000   0.1250000  -0.1250000), wk =   0.0000000
        k(   67) = (  -0.1250000   0.8750000   0.1250000), wk =   0.0312500
        k(   68) = (  -0.1250000   1.3750000   0.1250000), wk =   0.0000000
        k(   69) = (  -0.8750000  -0.1250000  -0.1250000), wk =   0.0625000
        k(   70) = (  -0.8750000   0.3750000  -0.1250000), wk =   0.0000000
        k(   71) = (  -0.8750000   0.1250000   0.1250000), wk =   0.0625000
        k(   72) = (  -0.8750000   0.6250000   0.1250000), wk =   0.0000000
        k(   73) = (  -0.3750000  -0.3750000   0.3750000), wk =   0.0312500
        k(   74) = (  -0.3750000   0.1250000   0.3750000), wk =   0.0000000
        k(   75) = (  -1.1250000   0.3750000  -0.3750000), wk =   0.0625000
        k(   76) = (  -1.1250000   0.8750000  -0.3750000), wk =   0.0000000
        k(   77) = (  -0.3750000   1.1250000  -0.3750000), wk =   0.0312500
        k(   78) = (  -0.3750000   1.6250000  -0.3750000), wk =   0.0000000
        k(   79) = (  -0.3750000  -1.1250000  -0.3750000), wk =   0.0312500
        k(   80) = (  -0.3750000  -0.6250000  -0.3750000), wk =   0.0000000

     Dense  grid:    17453 G-vectors     FFT dimensions: (  40,  40,  40)

     Smooth grid:     6183 G-vectors     FFT dimensions: (  25,  25,  25)

     Estimated max dynamical RAM per process >       1.79MB

     Estimated total allocated dynamical RAM >       7.17MB

     The potential is recalculated from file :
     ./_ph0/silicon.10.350.save/charge-density.dat

     Starting wfc are    8 atomic wfcs

     Band Structure Calculation
     Davidson diagonalization with overlap

     ethr =  1.25E-10,  avg # of iterations = 12.2

     total cpu time spent up to now is        3.5 secs

     End of band structure calculation

          k =-0.1250 0.1250 0.1250 (   773 PWs)   bands (ev):

    -5.6553   4.3394   5.6489   5.6489

          k =-0.1250 0.6250 0.1250 (   768 PWs)   bands (ev):

    -4.1035   1.0173   3.3263   3.7766

          k =-0.3750 0.3750-0.1250 (   776 PWs)   bands (ev):

    -4.6337   1.3557   3.6719   5.1701

          k =-0.3750 0.8750-0.1250 (   757 PWs)   bands (ev):

    -2.4730  -0.9368   1.9808   3.0514

          k = 0.3750-0.3750 0.6250 (   767 PWs)   bands (ev):

    -3.5013  -0.7109   3.6903   4.4030

          k = 0.3750 0.1250 0.6250 (   770 PWs)   bands (ev):

    -3.6906   0.1510   2.6867   4.0500

          k = 0.1250-0.1250 0.3750 (   774 PWs)   bands (ev):

    -5.1299   2.7258   4.6465   4.7075

          k = 0.1250 0.3750 0.3750 (   776 PWs)   bands (ev):

    -4.6337   1.3557   3.6719   5.1701

          k =-0.1250 0.6250 0.1250 (   768 PWs)   bands (ev):

    -4.1035   1.0173   3.3263   3.7766

          k =-0.1250 1.1250 0.1250 (   763 PWs)   bands (ev):

    -2.6387  -0.8405   2.5870   3.3118

          k = 0.6250-0.1250 0.8750 (   757 PWs)   bands (ev):

    -2.4730  -0.9368   1.9808   3.0514

          k = 0.6250 0.3750 0.8750 (   770 PWs)   bands (ev):

    -3.6906   0.1510   2.6867   4.0500

          k = 0.3750 0.1250 0.6250 (   770 PWs)   bands (ev):

    -3.6906   0.1510   2.6867   4.0500

          k = 0.3750 0.6250 0.6250 (   767 PWs)   bands (ev):

    -3.5013  -0.7109   3.6903   4.4030

          k =-0.1250-0.8750 0.1250 (   763 PWs)   bands (ev):

    -2.6387  -0.8405   2.5870   3.3118

          k =-0.1250-0.3750 0.1250 (   774 PWs)   bands (ev):

    -5.1299   2.7258   4.6465   4.7075

          k =-0.3750 0.3750 0.3750 (   763 PWs)   bands (ev):

    -4.2034   0.0736   4.8647   4.8647

          k =-0.3750 0.8750 0.3750 (   769 PWs)   bands (ev):

    -3.0078  -0.6316   2.0369   4.0879

          k = 0.3750-0.3750 1.1250 (   769 PWs)   bands (ev):

    -3.0078  -0.6316   2.0369   4.0879

          k = 0.3750 0.1250 1.1250 (   757 PWs)   bands (ev):

    -2.4730  -0.9368   1.9808   3.0514

          k =-0.1250-0.1250 0.1250 (   773 PWs)   bands (ev):

    -5.6553   4.3394   5.6489   5.6489

          k =-0.1250 0.3750 0.1250 (   774 PWs)   bands (ev):

    -5.1299   2.7258   4.6465   4.7075

          k = 0.1250-0.3750 0.3750 (   776 PWs)   bands (ev):

    -4.6337   1.3557   3.6719   5.1701

          k = 0.1250 0.1250 0.3750 (   774 PWs)   bands (ev):

    -5.1299   2.7258   4.6465   4.7075

          k = 0.3750-0.1250 0.3750 (   776 PWs)   bands (ev):

    -4.6337   1.3557   3.6719   5.1701

          k = 0.3750 0.3750 0.3750 (   763 PWs)   bands (ev):

    -4.2034   0.0736   4.8647   4.8647

          k = 0.3750 0.1250 0.3750 (   776 PWs)   bands (ev):

    -4.6337   1.3557   3.6719   5.1701

          k = 0.3750 0.6250 0.3750 (   767 PWs)   bands (ev):

    -3.5013  -0.7109   3.6903   4.4030

          k =-0.6250 0.3750-0.3750 (   767 PWs)   bands (ev):

    -3.5013  -0.7109   3.6903   4.4030

          k =-0.6250 0.8750-0.3750 (   770 PWs)   bands (ev):

    -3.6906   0.1510   2.6867   4.0500

          k =-0.3750 0.6250-0.3750 (   767 PWs)   bands (ev):

    -3.5013  -0.7109   3.6903   4.4030

          k =-0.3750 1.1250-0.3750 (   769 PWs)   bands (ev):

    -3.0078  -0.6316   2.0369   4.0879

          k =-0.3750-0.6250-0.3750 (   767 PWs)   bands (ev):

    -3.5013  -0.7109   3.6903   4.4030

          k =-0.3750-0.1250-0.3750 (   776 PWs)   bands (ev):

    -4.6337   1.3557   3.6719   5.1701

          k =-0.3750 0.1250-0.1250 (   774 PWs)   bands (ev):

    -5.1299   2.7258   4.6465   4.7075

          k =-0.3750 0.6250-0.1250 (   770 PWs)   bands (ev):

    -3.6906   0.1510   2.6867   4.0500

          k =-0.1250 0.3750-0.1250 (   774 PWs)   bands (ev):

    -5.1299   2.7258   4.6465   4.7075

          k =-0.1250 0.8750-0.1250 (   763 PWs)   bands (ev):

    -2.6387  -0.8405   2.5870   3.3118

          k =-0.1250-0.3750-0.1250 (   774 PWs)   bands (ev):

    -5.1299   2.7258   4.6465   4.7075

          k =-0.1250 0.1250-0.1250 (   773 PWs)   bands (ev):

    -5.6553   4.3394   5.6489   5.6489

          k =-0.1250-0.6250 0.1250 (   768 PWs)   bands (ev):

    -4.1035   1.0173   3.3263   3.7766

          k =-0.1250-0.1250 0.1250 (   773 PWs)   bands (ev):

    -5.6553   4.3394   5.6489   5.6489

          k = 0.6250-0.1250-0.1250 (   768 PWs)   bands (ev):

    -4.1035   1.0173   3.3263   3.7766

          k = 0.6250 0.3750-0.1250 (   770 PWs)   bands (ev):

    -3.6906   0.1510   2.6867   4.0500

          k = 0.6250 0.1250 0.1250 (   768 PWs)   bands (ev):

    -4.1035   1.0173   3.3263   3.7766

          k = 0.6250 0.6250 0.1250 (   769 PWs)   bands (ev):

    -3.0078  -0.6316   2.0369   4.0879

          k =-0.8750 0.1250-0.6250 (   757 PWs)   bands (ev):

    -2.4730  -0.9368   1.9808   3.0514

          k =-0.8750 0.6250-0.6250 (   776 PWs)   bands (ev):

    -4.6337   1.3557   3.6719   5.1701

          k =-0.1250 0.6250-0.8750 (   757 PWs)   bands (ev):

    -2.4730  -0.9368   1.9808   3.0514

          k =-0.1250 1.1250-0.8750 (   763 PWs)   bands (ev):

    -2.6387  -0.8405   2.5870   3.3118

          k =-0.1250 0.8750-0.6250 (   757 PWs)   bands (ev):

    -2.4730  -0.9368   1.9808   3.0514

          k =-0.1250 1.3750-0.6250 (   769 PWs)   bands (ev):

    -3.0078  -0.6316   2.0369   4.0879

          k =-0.1250-0.8750-0.6250 (   757 PWs)   bands (ev):

    -2.4730  -0.9368   1.9808   3.0514

          k =-0.1250-0.3750-0.6250 (   770 PWs)   bands (ev):

    -3.6906   0.1510   2.6867   4.0500

          k = 0.8750-0.6250 0.1250 (   757 PWs)   bands (ev):

    -2.4730  -0.9368   1.9808   3.0514

          k = 0.8750-0.1250 0.1250 (   763 PWs)   bands (ev):

    -2.6387  -0.8405   2.5870   3.3118

          k =-0.6250-0.1250-0.3750 (   770 PWs)   bands (ev):

    -3.6906   0.1510   2.6867   4.0500

          k =-0.6250 0.3750-0.3750 (   767 PWs)   bands (ev):

    -3.5013  -0.7109   3.6903   4.4030

          k = 0.1250 0.3750-0.6250 (   770 PWs)   bands (ev):

    -3.6906   0.1510   2.6867   4.0500

          k = 0.1250 0.8750-0.6250 (   757 PWs)   bands (ev):

    -2.4730  -0.9368   1.9808   3.0514

          k = 0.1250 0.6250-0.3750 (   770 PWs)   bands (ev):

    -3.6906   0.1510   2.6867   4.0500

          k = 0.1250 1.1250-0.3750 (   757 PWs)   bands (ev):

    -2.4730  -0.9368   1.9808   3.0514

          k = 0.1250-0.6250-0.3750 (   770 PWs)   bands (ev):

    -3.6906   0.1510   2.6867   4.0500

          k = 0.1250-0.1250-0.3750 (   774 PWs)   bands (ev):

    -5.1299   2.7258   4.6465   4.7075

          k = 0.6250-0.3750-0.1250 (   770 PWs)   bands (ev):

    -3.6906   0.1510   2.6867   4.0500

          k = 0.6250 0.1250-0.1250 (   768 PWs)   bands (ev):

    -4.1035   1.0173   3.3263   3.7766

          k =-0.1250 0.8750 0.1250 (   763 PWs)   bands (ev):

    -2.6387  -0.8405   2.5870   3.3118

          k =-0.1250 1.3750 0.1250 (   768 PWs)   bands (ev):

    -4.1035   1.0173   3.3263   3.7766

          k =-0.8750-0.1250-0.1250 (   763 PWs)   bands (ev):

    -2.6387  -0.8405   2.5870   3.3118

          k =-0.8750 0.3750-0.1250 (   757 PWs)   bands (ev):

    -2.4730  -0.9368   1.9808   3.0514

          k =-0.8750 0.1250 0.1250 (   763 PWs)   bands (ev):

    -2.6387  -0.8405   2.5870   3.3118

          k =-0.8750 0.6250 0.1250 (   757 PWs)   bands (ev):

    -2.4730  -0.9368   1.9808   3.0514

          k =-0.3750-0.3750 0.3750 (   763 PWs)   bands (ev):

    -4.2034   0.0736   4.8647   4.8647

          k =-0.3750 0.1250 0.3750 (   776 PWs)   bands (ev):

    -4.6337   1.3557   3.6719   5.1701

          k =-1.1250 0.3750-0.3750 (   769 PWs)   bands (ev):

    -3.0078  -0.6316   2.0369   4.0879

          k =-1.1250 0.8750-0.3750 (   768 PWs)   bands (ev):

    -4.1035   1.0173   3.3263   3.7766

          k =-0.3750 1.1250-0.3750 (   769 PWs)   bands (ev):

    -3.0078  -0.6316   2.0369   4.0879

          k =-0.3750 1.6250-0.3750 (   763 PWs)   bands (ev):

    -4.2034   0.0736   4.8647   4.8647

          k =-0.3750-1.1250-0.3750 (   769 PWs)   bands (ev):

    -3.0078  -0.6316   2.0369   4.0879

          k =-0.3750-0.6250-0.3750 (   767 PWs)   bands (ev):

    -3.5013  -0.7109   3.6903   4.4030

     highest occupied level (ev):     5.6489

     Writing output data file silicon.10.350.save

                                                                                

     bravais-lattice index     =            2
     lattice parameter (alat)  =      10.3500  a.u.
     unit-cell volume          =     277.1795 (a.u.)^3
     number of atoms/cell      =            2
     number of atomic types    =            1
     kinetic-energy cut-off    =      30.0000  Ry
     charge density cut-off    =     240.0000  Ry
     convergence threshold     =      1.0E-12
     beta                      =       0.7000
     number of iterations used =            4
     Exchange-correlation      = SLA  PW   PBE  PBE ( 1  4  3  4 0 0)


     celldm(1)=   10.35000  celldm(2)=    0.00000  celldm(3)=    0.00000
     celldm(4)=    0.00000  celldm(5)=    0.00000  celldm(6)=    0.00000

     crystal axes: (cart. coord. in units of alat)
               a(1) = ( -0.5000  0.0000  0.5000 )  
               a(2) = (  0.0000  0.5000  0.5000 )  
               a(3) = ( -0.5000  0.5000  0.0000 )  

     reciprocal axes: (cart. coord. in units 2 pi/alat)
               b(1) = ( -1.0000 -1.0000  1.0000 )  
               b(2) = (  1.0000  1.0000  1.0000 )  
               b(3) = ( -1.0000  1.0000 -1.0000 )  


     Atoms inside the unit cell: 

     Cartesian axes

     site n.  atom      mass           positions (alat units)
        1     Si  28.0860   tau(    1) = (    0.00000    0.00000    0.00000  )
        2     Si  28.0860   tau(    2) = (    0.25000    0.25000    0.25000  )

     Computing dynamical matrix for 
                    q = (   0.0000000   0.5000000   0.0000000 )

      8 Sym.Ops. (no q -> -q+G )


     G cutoff =  651.2267  (   4363 G-vectors)     FFT grid: ( 40, 40, 40)
     G cutoff =  325.6134  (   1545 G-vectors)  smooth grid: ( 25, 25, 25)
     number of k points=    80

     PseudoPot. # 1 for Si read from file:
     /home/s1333534/quantum_espresso/qe-6.1/pseudo/si_pbe_v1.uspp.F.UPF.txt
     MD5 check sum: a056efeee980c13900f22a371efd63c1
     Pseudo is Ultrasoft + core correction, Zval =  4.0
     Generated by new atomic code, or converted to UPF format
     Using radial grid of  899 points,  6 beta functions with: 
                l(1) =   0
                l(2) =   0
                l(3) =   1
                l(4) =   1
                l(5) =   2
                l(6) =   2
     Q(r) pseudized with  8 coefficients,  rinner =    0.900   0.900   0.900
                                                       0.900   0.900

     Mode symmetry, C_4v (4mm)  point group:


     Atomic displacements:
     There are   4 irreducible representations

     Representation     1      1 modes -A_1  G_1 D_1  To be done

     Representation     2      1 modes -B_2  G_4 D_2'  To be done

     Representation     3      2 modes -E    G_5 D_5  To be done

     Representation     4      2 modes -E    G_5 D_5  To be done



     Alpha used in Ewald sum =   2.5000
     PHONON       :    40.16s CPU        53.13s WALL



     Representation #  1 mode #   1

     Self-consistent Calculation

      iter #   1 total cpu time :    53.5 secs   av.it.:   6.2
      thresh= 1.000E-02 alpha_mix =  0.700 |ddv_scf|^2 =  3.722E-04

      iter #   2 total cpu time :    54.1 secs   av.it.:   9.5
      thresh= 1.929E-03 alpha_mix =  0.700 |ddv_scf|^2 =  4.952E-03

      iter #   3 total cpu time :    54.5 secs   av.it.:   7.5
      thresh= 7.037E-03 alpha_mix =  0.700 |ddv_scf|^2 =  7.346E-09

      iter #   4 total cpu time :    55.0 secs   av.it.:  10.3
      thresh= 8.571E-06 alpha_mix =  0.700 |ddv_scf|^2 =  7.361E-10

      iter #   5 total cpu time :    55.5 secs   av.it.:   9.9
      thresh= 2.713E-06 alpha_mix =  0.700 |ddv_scf|^2 =  8.046E-11

      iter #   6 total cpu time :    55.9 secs   av.it.:   9.5
      thresh= 8.970E-07 alpha_mix =  0.700 |ddv_scf|^2 =  2.324E-13

     End of self-consistent calculation

     Convergence has been achieved 


     Representation #  2 mode #   2

     Self-consistent Calculation

      iter #   1 total cpu time :    56.5 secs   av.it.:   5.1
      thresh= 1.000E-02 alpha_mix =  0.700 |ddv_scf|^2 =  5.898E-07

      iter #   2 total cpu time :    57.0 secs   av.it.:  10.6
      thresh= 7.680E-05 alpha_mix =  0.700 |ddv_scf|^2 =  1.631E-07

      iter #   3 total cpu time :    57.6 secs   av.it.:  10.2
      thresh= 4.038E-05 alpha_mix =  0.700 |ddv_scf|^2 =  1.669E-09

      iter #   4 total cpu time :    58.1 secs   av.it.:  10.3
      thresh= 4.086E-06 alpha_mix =  0.700 |ddv_scf|^2 =  6.634E-11

      iter #   5 total cpu time :    58.5 secs   av.it.:  10.5
      thresh= 8.145E-07 alpha_mix =  0.700 |ddv_scf|^2 =  3.865E-13

     End of self-consistent calculation

     Convergence has been achieved 


     Representation #  3 modes #   3  4

     Self-consistent Calculation

      iter #   1 total cpu time :    59.3 secs   av.it.:   5.2
      thresh= 1.000E-02 alpha_mix =  0.700 |ddv_scf|^2 =  1.044E-07

      iter #   2 total cpu time :    60.3 secs   av.it.:  11.7
      thresh= 3.232E-05 alpha_mix =  0.700 |ddv_scf|^2 =  1.441E-08

      iter #   3 total cpu time :    61.2 secs   av.it.:  11.3
      thresh= 1.200E-05 alpha_mix =  0.700 |ddv_scf|^2 =  2.426E-10

      iter #   4 total cpu time :    62.3 secs   av.it.:  10.8
      thresh= 1.558E-06 alpha_mix =  0.700 |ddv_scf|^2 =  5.744E-13

     End of self-consistent calculation

     Convergence has been achieved 


     Representation #  4 modes #   5  6

     Self-consistent Calculation

      iter #   1 total cpu time :    63.1 secs   av.it.:   5.3
      thresh= 1.000E-02 alpha_mix =  0.700 |ddv_scf|^2 =  9.574E-08

      iter #   2 total cpu time :    64.2 secs   av.it.:  11.6
      thresh= 3.094E-05 alpha_mix =  0.700 |ddv_scf|^2 =  1.286E-08

      iter #   3 total cpu time :    65.2 secs   av.it.:  11.4
      thresh= 1.134E-05 alpha_mix =  0.700 |ddv_scf|^2 =  2.481E-10

      iter #   4 total cpu time :    66.0 secs   av.it.:  11.1
      thresh= 1.575E-06 alpha_mix =  0.700 |ddv_scf|^2 =  6.125E-13

     End of self-consistent calculation

     Convergence has been achieved 

     Number of q in the star =    6
     List of q in the star:
          1   0.000000000   0.500000000   0.000000000
          2   0.000000000  -0.500000000   0.000000000
          3   0.500000000   0.000000000   0.000000000
          4   0.000000000   0.000000000   0.500000000
          5   0.000000000   0.000000000  -0.500000000
          6  -0.500000000   0.000000000   0.000000000

     Diagonalizing the dynamical matrix

     q = (    0.000000000   0.500000000   0.000000000 ) 

 **************************************************************************
     freq (    1) =       3.779121 [THz] =     126.057904 [cm-1]
     freq (    2) =       3.779121 [THz] =     126.057904 [cm-1]
     freq (    3) =       7.022621 [THz] =     234.249421 [cm-1]
     freq (    4) =      13.736675 [THz] =     458.206150 [cm-1]
     freq (    5) =      13.736675 [THz] =     458.206150 [cm-1]
     freq (    6) =      14.387979 [THz] =     479.931319 [cm-1]
 **************************************************************************

     Mode symmetry, C_4v (4mm)  point group:

     freq (  1 -  2) =        126.1  [cm-1]   --> E    G_5 D_5       
     freq (  3 -  3) =        234.2  [cm-1]   --> A_1  G_1 D_1       
     freq (  4 -  5) =        458.2  [cm-1]   --> E    G_5 D_5       
     freq (  6 -  6) =        479.9  [cm-1]   --> B_2  G_4 D_2'      

     Calculation of q =    0.7500000  -0.2500000   0.7500000

   Info: using nr1, nr2, nr3 values from input

   Info: using nr1, nr2, nr3 values from input

     Parallelization info
     --------------------
     sticks:   dense  smooth     PW     G-vecs:    dense   smooth      PW
     Min         222     109     40                 4363     1545     362
     Max         223     110     41                 4364     1546     366
     Sum         889     439    163                17453     6183    1459



     bravais-lattice index     =            2
     lattice parameter (alat)  =      10.3500  a.u.
     unit-cell volume          =     277.1795 (a.u.)^3
     number of atoms/cell      =            2
     number of atomic types    =            1
     number of electrons       =         8.00
     number of Kohn-Sham states=            4
     kinetic-energy cutoff     =      30.0000  Ry
     charge density cutoff     =     240.0000  Ry
     Exchange-correlation      = SLA  PW   PBE  PBE ( 1  4  3  4 0 0)

     celldm(1)=  10.350000  celldm(2)=   0.000000  celldm(3)=   0.000000
     celldm(4)=   0.000000  celldm(5)=   0.000000  celldm(6)=   0.000000

     crystal axes: (cart. coord. in units of alat)
               a(1) = (  -0.500000   0.000000   0.500000 )  
               a(2) = (   0.000000   0.500000   0.500000 )  
               a(3) = (  -0.500000   0.500000   0.000000 )  

     reciprocal axes: (cart. coord. in units 2 pi/alat)
               b(1) = ( -1.000000 -1.000000  1.000000 )  
               b(2) = (  1.000000  1.000000  1.000000 )  
               b(3) = ( -1.000000  1.000000 -1.000000 )  


     PseudoPot. # 1 for Si read from file:
     /home/s1333534/quantum_espresso/qe-6.1/pseudo/si_pbe_v1.uspp.F.UPF.txt
     MD5 check sum: a056efeee980c13900f22a371efd63c1
     Pseudo is Ultrasoft + core correction, Zval =  4.0
     Generated by new atomic code, or converted to UPF format
     Using radial grid of  899 points,  6 beta functions with: 
                l(1) =   0
                l(2) =   0
                l(3) =   1
                l(4) =   1
                l(5) =   2
                l(6) =   2
     Q(r) pseudized with  8 coefficients,  rinner =    0.900   0.900   0.900
                                                       0.900   0.900

     atomic species   valence    mass     pseudopotential
        Si             4.00    28.08600     Si( 1.00)

     48 Sym. Ops., with inversion, found



   Cartesian axes

     site n.     atom                  positions (alat units)
         1           Si  tau(   1) = (   0.0000000   0.0000000   0.0000000  )
         2           Si  tau(   2) = (   0.2500000   0.2500000   0.2500000  )

     number of k points=   288

     Number of k-points >= 100: set verbosity='high' to print them.

     Dense  grid:    17453 G-vectors     FFT dimensions: (  40,  40,  40)

     Smooth grid:     6183 G-vectors     FFT dimensions: (  25,  25,  25)

     Estimated max dynamical RAM per process >       1.79MB

     Estimated total allocated dynamical RAM >       7.17MB

     The potential is recalculated from file :
     ./_ph0/silicon.10.350.save/charge-density.dat

     Starting wfc are    8 atomic wfcs

     Band Structure Calculation
     Davidson diagonalization with overlap

     ethr =  1.25E-10,  avg # of iterations = 12.1

     total cpu time spent up to now is        6.8 secs

     End of band structure calculation

     Number of k-points >= 100: set verbosity='high' to print the bands.

     highest occupied level (ev):     5.6489

     Writing output data file silicon.10.350.save

                                                                                

     bravais-lattice index     =            2
     lattice parameter (alat)  =      10.3500  a.u.
     unit-cell volume          =     277.1795 (a.u.)^3
     number of atoms/cell      =            2
     number of atomic types    =            1
     kinetic-energy cut-off    =      30.0000  Ry
     charge density cut-off    =     240.0000  Ry
     convergence threshold     =      1.0E-12
     beta                      =       0.7000
     number of iterations used =            4
     Exchange-correlation      = SLA  PW   PBE  PBE ( 1  4  3  4 0 0)


     celldm(1)=   10.35000  celldm(2)=    0.00000  celldm(3)=    0.00000
     celldm(4)=    0.00000  celldm(5)=    0.00000  celldm(6)=    0.00000

     crystal axes: (cart. coord. in units of alat)
               a(1) = ( -0.5000  0.0000  0.5000 )  
               a(2) = (  0.0000  0.5000  0.5000 )  
               a(3) = ( -0.5000  0.5000  0.0000 )  

     reciprocal axes: (cart. coord. in units 2 pi/alat)
               b(1) = ( -1.0000 -1.0000  1.0000 )  
               b(2) = (  1.0000  1.0000  1.0000 )  
               b(3) = ( -1.0000  1.0000 -1.0000 )  


     Atoms inside the unit cell: 

     Cartesian axes

     site n.  atom      mass           positions (alat units)
        1     Si  28.0860   tau(    1) = (    0.00000    0.00000    0.00000  )
        2     Si  28.0860   tau(    2) = (    0.25000    0.25000    0.25000  )

     Computing dynamical matrix for 
                    q = (   0.7500000  -0.2500000   0.7500000 )

      2 Sym.Ops. (no q -> -q+G )


     G cutoff =  651.2267  (   4363 G-vectors)     FFT grid: ( 40, 40, 40)
     G cutoff =  325.6134  (   1546 G-vectors)  smooth grid: ( 25, 25, 25)
     number of k points=   288

     PseudoPot. # 1 for Si read from file:
     /home/s1333534/quantum_espresso/qe-6.1/pseudo/si_pbe_v1.uspp.F.UPF.txt
     MD5 check sum: a056efeee980c13900f22a371efd63c1
     Pseudo is Ultrasoft + core correction, Zval =  4.0
     Generated by new atomic code, or converted to UPF format
     Using radial grid of  899 points,  6 beta functions with: 
                l(1) =   0
                l(2) =   0
                l(3) =   1
                l(4) =   1
                l(5) =   2
                l(6) =   2
     Q(r) pseudized with  8 coefficients,  rinner =    0.900   0.900   0.900
                                                       0.900   0.900

     Mode symmetry, C_s (m)     point group:


     Atomic displacements:
     There are   6 irreducible representations

     Representation     1      1 modes -A'  To be done

     Representation     2      1 modes -A'  To be done

     Representation     3      1 modes -A'  To be done

     Representation     4      1 modes -A'  To be done

     Representation     5      1 modes -A''  To be done

     Representation     6      1 modes -A''  To be done



     Alpha used in Ewald sum =   2.5000
     PHONON       :  0m54.77s CPU     1m11.49s WALL



     Representation #  1 mode #   1

     Self-consistent Calculation

      iter #   1 total cpu time :    72.4 secs   av.it.:   5.6
      thresh= 1.000E-02 alpha_mix =  0.700 |ddv_scf|^2 =  7.595E-06

      iter #   2 total cpu time :    73.8 secs   av.it.:  10.7
      thresh= 2.756E-04 alpha_mix =  0.700 |ddv_scf|^2 =  2.035E-05

      iter #   3 total cpu time :    75.1 secs   av.it.:   9.4
      thresh= 4.511E-04 alpha_mix =  0.700 |ddv_scf|^2 =  1.363E-07

      iter #   4 total cpu time :    76.4 secs   av.it.:  10.1
      thresh= 3.692E-05 alpha_mix =  0.700 |ddv_scf|^2 =  2.733E-09

      iter #   5 total cpu time :    77.8 secs   av.it.:  10.7
      thresh= 5.228E-06 alpha_mix =  0.700 |ddv_scf|^2 =  4.660E-10

      iter #   6 total cpu time :    79.2 secs   av.it.:  10.6
      thresh= 2.159E-06 alpha_mix =  0.700 |ddv_scf|^2 =  7.304E-12

      iter #   7 total cpu time :    80.5 secs   av.it.:  10.8
      thresh= 2.703E-07 alpha_mix =  0.700 |ddv_scf|^2 =  2.795E-13

     End of self-consistent calculation

     Convergence has been achieved 


     Representation #  2 mode #   2

     Self-consistent Calculation

      iter #   1 total cpu time :    81.6 secs   av.it.:   5.8
      thresh= 1.000E-02 alpha_mix =  0.700 |ddv_scf|^2 =  1.359E-05

      iter #   2 total cpu time :    82.9 secs   av.it.:  10.6
      thresh= 3.686E-04 alpha_mix =  0.700 |ddv_scf|^2 =  3.947E-05

      iter #   3 total cpu time :    84.2 secs   av.it.:   9.2
      thresh= 6.283E-04 alpha_mix =  0.700 |ddv_scf|^2 =  9.271E-08

      iter #   4 total cpu time :    85.6 secs   av.it.:  10.4
      thresh= 3.045E-05 alpha_mix =  0.700 |ddv_scf|^2 =  3.092E-09

      iter #   5 total cpu time :    87.0 secs   av.it.:  10.6
      thresh= 5.560E-06 alpha_mix =  0.700 |ddv_scf|^2 =  6.293E-10

      iter #   6 total cpu time :    88.4 secs   av.it.:  10.5
      thresh= 2.509E-06 alpha_mix =  0.700 |ddv_scf|^2 =  6.567E-12

      iter #   7 total cpu time :    89.7 secs   av.it.:  10.7
      thresh= 2.563E-07 alpha_mix =  0.700 |ddv_scf|^2 =  2.351E-13

     End of self-consistent calculation

     Convergence has been achieved 


     Representation #  3 mode #   3

     Self-consistent Calculation

      iter #   1 total cpu time :    90.8 secs   av.it.:   5.7
      thresh= 1.000E-02 alpha_mix =  0.700 |ddv_scf|^2 =  1.064E-05

      iter #   2 total cpu time :    92.2 secs   av.it.:  10.7
      thresh= 3.262E-04 alpha_mix =  0.700 |ddv_scf|^2 =  2.903E-05

      iter #   3 total cpu time :    93.4 secs   av.it.:   9.2
      thresh= 5.388E-04 alpha_mix =  0.700 |ddv_scf|^2 =  1.615E-07

      iter #   4 total cpu time :    94.7 secs   av.it.:  10.1
      thresh= 4.019E-05 alpha_mix =  0.700 |ddv_scf|^2 =  3.149E-09

      iter #   5 total cpu time :    96.1 secs   av.it.:  10.7
      thresh= 5.612E-06 alpha_mix =  0.700 |ddv_scf|^2 =  6.168E-10

      iter #   6 total cpu time :    97.5 secs   av.it.:  10.5
      thresh= 2.484E-06 alpha_mix =  0.700 |ddv_scf|^2 =  4.583E-12

      iter #   7 total cpu time :    98.8 secs   av.it.:  10.7
      thresh= 2.141E-07 alpha_mix =  0.700 |ddv_scf|^2 =  1.352E-13

     End of self-consistent calculation

     Convergence has been achieved 


     Representation #  4 mode #   4

     Self-consistent Calculation

      iter #   1 total cpu time :    99.9 secs   av.it.:   5.5
      thresh= 1.000E-02 alpha_mix =  0.700 |ddv_scf|^2 =  4.647E-06

      iter #   2 total cpu time :   101.3 secs   av.it.:  10.9
      thresh= 2.156E-04 alpha_mix =  0.700 |ddv_scf|^2 =  9.885E-06

      iter #   3 total cpu time :   102.6 secs   av.it.:   9.7
      thresh= 3.144E-04 alpha_mix =  0.700 |ddv_scf|^2 =  2.139E-07

      iter #   4 total cpu time :   103.9 secs   av.it.:  10.0
      thresh= 4.625E-05 alpha_mix =  0.700 |ddv_scf|^2 =  2.700E-09

      iter #   5 total cpu time :   105.5 secs   av.it.:  10.7
      thresh= 5.196E-06 alpha_mix =  0.700 |ddv_scf|^2 =  5.048E-10

      iter #   6 total cpu time :   106.9 secs   av.it.:  10.5
      thresh= 2.247E-06 alpha_mix =  0.700 |ddv_scf|^2 =  3.073E-12

      iter #   7 total cpu time :   108.2 secs   av.it.:  10.8
      thresh= 1.753E-07 alpha_mix =  0.700 |ddv_scf|^2 =  1.439E-13

     End of self-consistent calculation

     Convergence has been achieved 


     Representation #  5 mode #   5

     Self-consistent Calculation

      iter #   1 total cpu time :   109.2 secs   av.it.:   5.2
      thresh= 1.000E-02 alpha_mix =  0.700 |ddv_scf|^2 =  4.826E-07

      iter #   2 total cpu time :   110.6 secs   av.it.:  10.4
      thresh= 6.947E-05 alpha_mix =  0.700 |ddv_scf|^2 =  7.879E-08

      iter #   3 total cpu time :   111.9 secs   av.it.:  10.2
      thresh= 2.807E-05 alpha_mix =  0.700 |ddv_scf|^2 =  1.050E-09

      iter #   4 total cpu time :   113.2 secs   av.it.:   9.8
      thresh= 3.241E-06 alpha_mix =  0.700 |ddv_scf|^2 =  2.469E-12

      iter #   5 total cpu time :   114.5 secs   av.it.:  10.3
      thresh= 1.571E-07 alpha_mix =  0.700 |ddv_scf|^2 =  6.984E-14

     End of self-consistent calculation

     Convergence has been achieved 


     Representation #  6 mode #   6

     Self-consistent Calculation

      iter #   1 total cpu time :   115.6 secs   av.it.:   5.2
      thresh= 1.000E-02 alpha_mix =  0.700 |ddv_scf|^2 =  4.826E-07

      iter #   2 total cpu time :   117.0 secs   av.it.:  10.4
[...]
        k(   59) = (  -0.8750000   0.1250000  -0.1250000), wk =   0.0625000
        k(   60) = (  -1.3750000  -0.8750000  -0.1250000), wk =   0.0000000
        k(   61) = (  -1.1250000   0.3750000  -0.3750000), wk =   0.0625000
        k(   62) = (  -1.6250000  -0.6250000  -0.3750000), wk =   0.0000000
        k(   63) = (  -0.3750000   0.3750000   1.1250000), wk =   0.0625000
        k(   64) = (  -0.8750000  -0.6250000   1.1250000), wk =   0.0000000

     Dense  grid:    17453 G-vectors     FFT dimensions: (  40,  40,  40)

     Smooth grid:     6183 G-vectors     FFT dimensions: (  25,  25,  25)

     Estimated max dynamical RAM per process >       1.79MB

     Estimated total allocated dynamical RAM >       7.17MB

     The potential is recalculated from file :
     ./_ph0/silicon.10.350.save/charge-density.dat

     Starting wfc are    8 atomic wfcs

     Band Structure Calculation
     Davidson diagonalization with overlap

     ethr =  1.25E-10,  avg # of iterations = 12.1

     total cpu time spent up to now is       10.8 secs

     End of band structure calculation

          k =-0.1250 0.1250 0.1250 (   773 PWs)   bands (ev):

    -5.6553   4.3394   5.6489   5.6489

          k =-0.6250-0.8750 0.1250 (   757 PWs)   bands (ev):

    -2.4730  -0.9368   1.9808   3.0514

          k =-0.3750 0.3750-0.1250 (   776 PWs)   bands (ev):

    -4.6337   1.3557   3.6719   5.1701

          k =-0.8750-0.6250-0.1250 (   757 PWs)   bands (ev):

    -2.4730  -0.9368   1.9808   3.0514

          k = 0.3750-0.3750 0.6250 (   767 PWs)   bands (ev):

    -3.5013  -0.7109   3.6903   4.4030

          k =-0.1250-1.3750 0.6250 (   769 PWs)   bands (ev):

    -3.0078  -0.6316   2.0369   4.0879

          k = 0.1250-0.1250 0.3750 (   774 PWs)   bands (ev):

    -5.1299   2.7258   4.6465   4.7075

          k =-0.3750-1.1250 0.3750 (   769 PWs)   bands (ev):

    -3.0078  -0.6316   2.0369   4.0879

          k =-0.1250 0.6250 0.1250 (   768 PWs)   bands (ev):

    -4.1035   1.0173   3.3263   3.7766

          k =-0.6250-0.3750 0.1250 (   770 PWs)   bands (ev):

    -3.6906   0.1510   2.6867   4.0500

          k = 0.6250-0.1250 0.8750 (   757 PWs)   bands (ev):

    -2.4730  -0.9368   1.9808   3.0514

          k = 0.1250-1.1250 0.8750 (   763 PWs)   bands (ev):

    -2.6387  -0.8405   2.5870   3.3118

          k = 0.3750 0.1250 0.6250 (   770 PWs)   bands (ev):

    -3.6906   0.1510   2.6867   4.0500

          k =-0.1250-0.8750 0.6250 (   757 PWs)   bands (ev):

    -2.4730  -0.9368   1.9808   3.0514

          k =-0.1250-0.8750 0.1250 (   763 PWs)   bands (ev):

    -2.6387  -0.8405   2.5870   3.3118

          k =-0.6250-1.8750 0.1250 (   768 PWs)   bands (ev):

    -4.1035   1.0173   3.3263   3.7766

          k =-0.3750 0.3750 0.3750 (   763 PWs)   bands (ev):

    -4.2034   0.0736   4.8647   4.8647

          k =-0.8750-0.6250 0.3750 (   770 PWs)   bands (ev):

    -3.6906   0.1510   2.6867   4.0500

          k = 0.3750-0.3750 1.1250 (   769 PWs)   bands (ev):

    -3.0078  -0.6316   2.0369   4.0879

          k =-0.1250-1.3750 1.1250 (   757 PWs)   bands (ev):

    -2.4730  -0.9368   1.9808   3.0514

          k = 0.1250-0.3750 0.3750 (   776 PWs)   bands (ev):

    -4.6337   1.3557   3.6719   5.1701

          k =-0.3750-1.3750 0.3750 (   767 PWs)   bands (ev):

    -3.5013  -0.7109   3.6903   4.4030

          k = 0.3750-0.3750-0.1250 (   776 PWs)   bands (ev):

    -4.6337   1.3557   3.6719   5.1701

          k =-0.1250-1.3750-0.1250 (   768 PWs)   bands (ev):

    -4.1035   1.0173   3.3263   3.7766

          k =-0.6250 0.3750-0.3750 (   767 PWs)   bands (ev):

    -3.5013  -0.7109   3.6903   4.4030

          k =-1.1250-0.6250-0.3750 (   770 PWs)   bands (ev):

    -3.6906   0.1510   2.6867   4.0500

          k =-0.3750 0.3750 0.6250 (   767 PWs)   bands (ev):

    -3.5013  -0.7109   3.6903   4.4030

          k =-0.8750-0.6250 0.6250 (   776 PWs)   bands (ev):

    -4.6337   1.3557   3.6719   5.1701

          k =-0.3750 0.1250-0.1250 (   774 PWs)   bands (ev):

    -5.1299   2.7258   4.6465   4.7075

          k =-0.8750-0.8750-0.1250 (   763 PWs)   bands (ev):

    -2.6387  -0.8405   2.5870   3.3118

          k =-0.1250 0.1250 0.3750 (   774 PWs)   bands (ev):

    -5.1299   2.7258   4.6465   4.7075

          k =-0.6250-0.8750 0.3750 (   770 PWs)   bands (ev):

    -3.6906   0.1510   2.6867   4.0500

          k = 0.1250 0.6250-0.1250 (   768 PWs)   bands (ev):

    -4.1035   1.0173   3.3263   3.7766

          k =-0.3750-0.3750-0.1250 (   776 PWs)   bands (ev):

    -4.6337   1.3557   3.6719   5.1701

          k = 0.6250 0.1250-0.1250 (   768 PWs)   bands (ev):

    -4.1035   1.0173   3.3263   3.7766

          k = 0.1250-0.8750-0.1250 (   763 PWs)   bands (ev):

    -2.6387  -0.8405   2.5870   3.3118

          k =-0.8750 0.1250-0.6250 (   757 PWs)   bands (ev):

    -2.4730  -0.9368   1.9808   3.0514

          k =-1.3750-0.8750-0.6250 (   776 PWs)   bands (ev):

    -4.6337   1.3557   3.6719   5.1701

          k = 0.8750-0.1250 0.6250 (   757 PWs)   bands (ev):

    -2.4730  -0.9368   1.9808   3.0514

          k = 0.3750-1.1250 0.6250 (   770 PWs)   bands (ev):

    -3.6906   0.1510   2.6867   4.0500

          k =-0.6250 0.1250 0.8750 (   757 PWs)   bands (ev):

    -2.4730  -0.9368   1.9808   3.0514

          k =-1.1250-0.8750 0.8750 (   773 PWs)   bands (ev):

    -5.6553   4.3394   5.6489   5.6489

          k =-0.1250 0.8750 0.6250 (   757 PWs)   bands (ev):

    -2.4730  -0.9368   1.9808   3.0514

          k =-0.6250-0.1250 0.6250 (   769 PWs)   bands (ev):

    -3.0078  -0.6316   2.0369   4.0879

          k = 0.1250 0.8750-0.6250 (   757 PWs)   bands (ev):

    -2.4730  -0.9368   1.9808   3.0514

          k =-0.3750-0.1250-0.6250 (   770 PWs)   bands (ev):

    -3.6906   0.1510   2.6867   4.0500

          k =-0.6250-0.1250-0.3750 (   770 PWs)   bands (ev):

    -3.6906   0.1510   2.6867   4.0500

          k =-1.1250-1.1250-0.3750 (   768 PWs)   bands (ev):

    -4.1035   1.0173   3.3263   3.7766

          k = 0.6250 0.1250 0.3750 (   770 PWs)   bands (ev):

    -3.6906   0.1510   2.6867   4.0500

          k = 0.1250-0.8750 0.3750 (   757 PWs)   bands (ev):

    -2.4730  -0.9368   1.9808   3.0514

          k =-0.3750-0.1250 0.6250 (   770 PWs)   bands (ev):

    -3.6906   0.1510   2.6867   4.0500

          k =-0.8750-1.1250 0.6250 (   774 PWs)   bands (ev):

    -5.1299   2.7258   4.6465   4.7075

          k = 0.1250 0.6250 0.3750 (   770 PWs)   bands (ev):

    -3.6906   0.1510   2.6867   4.0500

          k =-0.3750-0.3750 0.3750 (   763 PWs)   bands (ev):

    -4.2034   0.0736   4.8647   4.8647

          k =-0.1250 0.6250-0.3750 (   770 PWs)   bands (ev):

    -3.6906   0.1510   2.6867   4.0500

          k =-0.6250-0.3750-0.3750 (   767 PWs)   bands (ev):

    -3.5013  -0.7109   3.6903   4.4030

          k = 0.1250-0.8750-0.1250 (   763 PWs)   bands (ev):

    -2.6387  -0.8405   2.5870   3.3118

          k =-0.3750-1.8750-0.1250 (   774 PWs)   bands (ev):

    -5.1299   2.7258   4.6465   4.7075

          k =-0.8750 0.1250-0.1250 (   763 PWs)   bands (ev):

    -2.6387  -0.8405   2.5870   3.3118

          k =-1.3750-0.8750-0.1250 (   757 PWs)   bands (ev):

    -2.4730  -0.9368   1.9808   3.0514

          k =-1.1250 0.3750-0.3750 (   769 PWs)   bands (ev):

    -3.0078  -0.6316   2.0369   4.0879

          k =-1.6250-0.6250-0.3750 (   767 PWs)   bands (ev):

    -3.5013  -0.7109   3.6903   4.4030

          k =-0.3750 0.3750 1.1250 (   769 PWs)   bands (ev):

    -3.0078  -0.6316   2.0369   4.0879

          k =-0.8750-0.6250 1.1250 (   774 PWs)   bands (ev):

    -5.1299   2.7258   4.6465   4.7075

     highest occupied level (ev):     5.6489

     Writing output data file silicon.10.350.save

                                                                                

     bravais-lattice index     =            2
     lattice parameter (alat)  =      10.3500  a.u.
     unit-cell volume          =     277.1795 (a.u.)^3
     number of atoms/cell      =            2
     number of atomic types    =            1
     kinetic-energy cut-off    =      30.0000  Ry
     charge density cut-off    =     240.0000  Ry
     convergence threshold     =      1.0E-12
     beta                      =       0.7000
     number of iterations used =            4
     Exchange-correlation      = SLA  PW   PBE  PBE ( 1  4  3  4 0 0)


     celldm(1)=   10.35000  celldm(2)=    0.00000  celldm(3)=    0.00000
     celldm(4)=    0.00000  celldm(5)=    0.00000  celldm(6)=    0.00000

     crystal axes: (cart. coord. in units of alat)
               a(1) = ( -0.5000  0.0000  0.5000 )  
               a(2) = (  0.0000  0.5000  0.5000 )  
               a(3) = ( -0.5000  0.5000  0.0000 )  

     reciprocal axes: (cart. coord. in units 2 pi/alat)
               b(1) = ( -1.0000 -1.0000  1.0000 )  
               b(2) = (  1.0000  1.0000  1.0000 )  
               b(3) = ( -1.0000  1.0000 -1.0000 )  


     Atoms inside the unit cell: 

     Cartesian axes

     site n.  atom      mass           positions (alat units)
        1     Si  28.0860   tau(    1) = (    0.00000    0.00000    0.00000  )
        2     Si  28.0860   tau(    2) = (    0.25000    0.25000    0.25000  )

     Computing dynamical matrix for 
                    q = (  -0.5000000  -1.0000000   0.0000000 )

      8 Sym.Ops. (no q -> -q+G )


     G cutoff =  651.2267  (   4363 G-vectors)     FFT grid: ( 40, 40, 40)
     G cutoff =  325.6134  (   1546 G-vectors)  smooth grid: ( 25, 25, 25)
     number of k points=    64

     PseudoPot. # 1 for Si read from file:
     /home/s1333534/quantum_espresso/qe-6.1/pseudo/si_pbe_v1.uspp.F.UPF.txt
     MD5 check sum: a056efeee980c13900f22a371efd63c1
     Pseudo is Ultrasoft + core correction, Zval =  4.0
     Generated by new atomic code, or converted to UPF format
     Using radial grid of  899 points,  6 beta functions with: 
                l(1) =   0
                l(2) =   0
                l(3) =   1
                l(4) =   1
                l(5) =   2
                l(6) =   2
     Q(r) pseudized with  8 coefficients,  rinner =    0.900   0.900   0.900
                                                       0.900   0.900


     Atomic displacements:
     There are   3 irreducible representations

     Representation     1      2 modes -  To be done

     Representation     2      2 modes -  To be done

     Representation     3      2 modes -  To be done



     Alpha used in Ewald sum =   2.5000
     PHONON       :  2m 9.03s CPU     2m41.47s WALL



     Representation #  1 modes #   1  2

     Self-consistent Calculation

      iter #   1 total cpu time :   162.2 secs   av.it.:   5.7
      thresh= 1.000E-02 alpha_mix =  0.700 |ddv_scf|^2 =  7.844E-07

      iter #   2 total cpu time :   163.1 secs   av.it.:  11.8
      thresh= 8.857E-05 alpha_mix =  0.700 |ddv_scf|^2 =  4.436E-07

      iter #   3 total cpu time :   164.1 secs   av.it.:  11.3
      thresh= 6.660E-05 alpha_mix =  0.700 |ddv_scf|^2 =  4.279E-10

      iter #   4 total cpu time :   165.0 secs   av.it.:  11.1
      thresh= 2.069E-06 alpha_mix =  0.700 |ddv_scf|^2 =  1.927E-12

      iter #   5 total cpu time :   165.7 secs   av.it.:  11.3
      thresh= 1.388E-07 alpha_mix =  0.700 |ddv_scf|^2 =  5.057E-14

     End of self-consistent calculation

     Convergence has been achieved 


     Representation #  2 modes #   3  4

     Self-consistent Calculation

      iter #   1 total cpu time :   166.5 secs   av.it.:   5.6
      thresh= 1.000E-02 alpha_mix =  0.700 |ddv_scf|^2 =  1.219E-06

      iter #   2 total cpu time :   167.3 secs   av.it.:  11.8
      thresh= 1.104E-04 alpha_mix =  0.700 |ddv_scf|^2 =  1.662E-06

      iter #   3 total cpu time :   168.2 secs   av.it.:  11.0
      thresh= 1.289E-04 alpha_mix =  0.700 |ddv_scf|^2 =  5.101E-10

      iter #   4 total cpu time :   169.1 secs   av.it.:  11.1
      thresh= 2.258E-06 alpha_mix =  0.700 |ddv_scf|^2 =  8.178E-12

      iter #   5 total cpu time :   169.9 secs   av.it.:  11.3
      thresh= 2.860E-07 alpha_mix =  0.700 |ddv_scf|^2 =  1.326E-13

     End of self-consistent calculation

     Convergence has been achieved 


     Representation #  3 modes #   5  6

     Self-consistent Calculation

      iter #   1 total cpu time :   170.6 secs   av.it.:   5.3
      thresh= 1.000E-02 alpha_mix =  0.700 |ddv_scf|^2 =  3.188E-07

      iter #   2 total cpu time :   171.5 secs   av.it.:  11.9
      thresh= 5.646E-05 alpha_mix =  0.700 |ddv_scf|^2 =  1.861E-07

      iter #   3 total cpu time :   172.3 secs   av.it.:  11.2
      thresh= 4.314E-05 alpha_mix =  0.700 |ddv_scf|^2 =  3.709E-10

      iter #   4 total cpu time :   173.1 secs   av.it.:  11.1
      thresh= 1.926E-06 alpha_mix =  0.700 |ddv_scf|^2 =  4.422E-12

      iter #   5 total cpu time :   173.9 secs   av.it.:  11.2
      thresh= 2.103E-07 alpha_mix =  0.700 |ddv_scf|^2 =  6.050E-14

     End of self-consistent calculation

     Convergence has been achieved 

     Number of q in the star =    6
     List of q in the star:
          1  -0.500000000  -1.000000000   0.000000000
          2   0.000000000   1.000000000   0.500000000
          3   0.000000000  -1.000000000  -0.500000000
          4   0.500000000   1.000000000   0.000000000
          5  -1.000000000  -0.500000000   0.000000000
          6   0.000000000  -0.500000000  -1.000000000

     Diagonalizing the dynamical matrix

     q = (   -0.500000000  -1.000000000   0.000000000 ) 

 **************************************************************************
     freq (    1) =       6.031764 [THz] =     201.197995 [cm-1]
     freq (    2) =       6.031764 [THz] =     201.197995 [cm-1]
     freq (    3) =      10.266292 [THz] =     342.446652 [cm-1]
     freq (    4) =      10.266292 [THz] =     342.446652 [cm-1]
     freq (    5) =      13.459615 [THz] =     448.964433 [cm-1]
     freq (    6) =      13.459615 [THz] =     448.964433 [cm-1]
 **************************************************************************

     init_run     :      1.28s CPU      1.33s WALL (       7 calls)
     electrons    :      7.30s CPU      7.94s WALL (       7 calls)

     Called by init_run:
     wfcinit      :      0.00s CPU      0.03s WALL (       7 calls)
     potinit      :      0.10s CPU      0.11s WALL (       7 calls)

     Called by electrons:
     c_bands      :      7.30s CPU      7.94s WALL (       7 calls)
     v_of_rho     :      0.09s CPU      0.09s WALL (       8 calls)
     newd         :      0.13s CPU      0.13s WALL (       8 calls)

     Called by c_bands:
     init_us_2    :      1.63s CPU      1.57s WALL (   15896 calls)
     cegterg      :      6.13s CPU      6.63s WALL (     796 calls)

     Called by sum_band:

     Called by *egterg:
     h_psi        :     71.19s CPU     76.21s WALL (  154698 calls)
     s_psi        :      5.94s CPU      7.06s WALL (  311654 calls)
     g_psi        :      0.05s CPU      0.07s WALL (    9666 calls)
     cdiaghg      :      0.56s CPU      0.56s WALL (   10462 calls)

     Called by h_psi:
     h_psi:pot    :     70.75s CPU     75.68s WALL (  154698 calls)
     h_psi:calbec :      3.50s CPU      4.04s WALL (  154698 calls)
     vloc_psi     :     62.56s CPU     67.43s WALL (  154698 calls)
     add_vuspsi   :      4.32s CPU      3.74s WALL (  154698 calls)

     General routines
     calbec       :      8.17s CPU      8.64s WALL (  345962 calls)
     fft          :      1.99s CPU      2.07s WALL (    5233 calls)
     ffts         :      0.21s CPU      0.23s WALL (    3316 calls)
     fftw         :     63.93s CPU     68.15s WALL ( 1384910 calls)
     interpolate  :      0.27s CPU      0.29s WALL (     568 calls)
     davcio       :      0.34s CPU      0.94s WALL (   69130 calls)

     Parallel routines
     fft_scatter  :     15.68s CPU     20.11s WALL ( 1393459 calls)

     PHONON       :  2m18.76s CPU     2m54.75s WALL

     INITIALIZATION: 
     phq_setup    :      0.30s CPU      0.48s WALL (       8 calls)
     phq_init     :      7.00s CPU      7.31s WALL (       8 calls)

     phq_init     :      7.00s CPU      7.31s WALL (       8 calls)
     set_drhoc    :      1.85s CPU      1.86s WALL (      24 calls)
     init_vloc    :      0.03s CPU      0.03s WALL (       8 calls)
     init_us_1    :      0.98s CPU      0.99s WALL (       8 calls)
     newd         :      0.13s CPU      0.13s WALL (       8 calls)
     dvanqq       :      1.20s CPU      1.20s WALL (       8 calls)
     drho         :      2.62s CPU      2.70s WALL (       8 calls)

     DYNAMICAL MATRIX:
     dynmat0      :      1.82s CPU      1.93s WALL (       8 calls)
     phqscf       :    117.54s CPU    147.55s WALL (       8 calls)
     dynmatrix    :      0.01s CPU      0.20s WALL (       8 calls)

     phqscf       :    117.54s CPU    147.55s WALL (       8 calls)
     solve_linter :    116.67s CPU    144.82s WALL (      32 calls)
     drhodv       :      0.58s CPU      0.61s WALL (      32 calls)

     dynmat0      :      1.82s CPU      1.93s WALL (       8 calls)
     dynmat_us    :      0.39s CPU      0.40s WALL (       8 calls)
     d2ionq       :      0.04s CPU      0.04s WALL (       8 calls)
     dynmatcc     :      1.31s CPU      1.31s WALL (       8 calls)

     dynmat_us    :      0.39s CPU      0.40s WALL (       8 calls)
     addusdynmat  :      0.00s CPU      0.00s WALL (       8 calls)

     phqscf       :    117.54s CPU    147.55s WALL (       8 calls)
     solve_linter :    116.67s CPU    144.82s WALL (      32 calls)

     solve_linter :    116.67s CPU    144.82s WALL (      32 calls)
     dvqpsi_us    :      2.15s CPU      2.31s WALL (    2508 calls)
     ortho        :      0.94s CPU      1.06s WALL (   13486 calls)
     cgsolve      :     78.93s CPU     85.67s WALL (   13486 calls)
     incdrhoscf   :      6.23s CPU      6.86s WALL (   13486 calls)
     addusddens   :      7.14s CPU      7.19s WALL (     200 calls)
     vpsifft      :      4.44s CPU      4.89s WALL (   10858 calls)
     dv_of_drho   :      1.74s CPU      1.78s WALL (     254 calls)
     mix_pot      :      0.57s CPU     11.48s WALL (     173 calls)
     psymdvscf    :      5.75s CPU      5.82s WALL (     168 calls)
     newdq        :      7.91s CPU      7.94s WALL (     173 calls)
     adddvscf     :      0.46s CPU      0.44s WALL (   10978 calls)
     drhodvus     :      0.02s CPU      0.03s WALL (      32 calls)

     dvqpsi_us    :      2.15s CPU      2.31s WALL (    2508 calls)
     dvqpsi_us_on :      0.91s CPU      0.95s WALL (    2508 calls)

     cgsolve      :     78.93s CPU     85.67s WALL (   13486 calls)
     ch_psi       :     77.79s CPU     83.86s WALL (  143440 calls)

     ch_psi       :     77.79s CPU     83.86s WALL (  143440 calls)
     h_psi        :     71.19s CPU     76.21s WALL (  154698 calls)
     last         :      9.22s CPU      9.35s WALL (  143440 calls)

     h_psi        :     71.19s CPU     76.21s WALL (  154698 calls)
     add_vuspsi   :      4.32s CPU      3.74s WALL (  154698 calls)

     incdrhoscf   :      6.23s CPU      6.86s WALL (   13486 calls)
     addusdbec    :      0.47s CPU      0.52s WALL (   15934 calls)

     drhodvus     :      0.02s CPU      0.03s WALL (      32 calls)

      General routines
     calbec       :      8.17s CPU      8.64s WALL (  345962 calls)
     fft          :      1.99s CPU      2.07s WALL (    5233 calls)
     ffts         :      0.21s CPU      0.23s WALL (    3316 calls)
     fftw         :     63.93s CPU     68.15s WALL ( 1384910 calls)
     davcio       :      0.34s CPU      0.94s WALL (   69130 calls)
     write_rec    :      0.22s CPU     11.29s WALL (     205 calls)


     PHONON       :  2m18.76s CPU     2m54.75s WALL


   This run was terminated on:  15:44: 9  10Nov2017            

=------------------------------------------------------------------------------=
   JOB DONE.
=------------------------------------------------------------------------------=
