
     Program PHONON v.6.1 (svn rev. 13369) starts on  9Nov2017 at  1:17: 1 

     This program is part of the open-source Quantum ESPRESSO suite
     for quantum simulation of materials; please cite
         "P. Giannozzi et al., J. Phys.:Condens. Matter 21 395502 (2009);
          URL http://www.quantum-espresso.org", 
     in publications or presentations arising from this work. More details at
     http://www.quantum-espresso.org/quote

     Parallel version (MPI), running on     4 processors
     R & G space division:  proc/nbgrp/npool/nimage =       4

     Reading data from directory:
     ./silicon.10.29.save

   Info: using nr1, nr2, nr3 values from input

   Info: using nr1, nr2, nr3 values from input

     IMPORTANT: XC functional enforced from input :
     Exchange-correlation      = SLA  PW   PBE  PBE ( 1  4  3  4 0 0)
     Any further DFT definition will be discarded
     Please, verify this is what you really want


     Parallelization info
     --------------------
     sticks:   dense  smooth     PW     G-vecs:    dense   smooth      PW
     Min          63      63     22                  684      684     140
     Max          64      64     23                  688      688     141
     Sum         253     253     91                 2741     2741     561


     Check: negative/imaginary core charge=   -0.000005    0.000000


     Dynamical matrices for ( 4, 4, 4)  uniform grid of q-points
     (   8q-points):
       N         xq(1)         xq(2)         xq(3) 
       1   0.000000000   0.000000000   0.000000000
       2  -0.250000000   0.250000000  -0.250000000
       3   0.500000000  -0.500000000   0.500000000
       4   0.000000000   0.500000000   0.000000000
       5   0.750000000  -0.250000000   0.750000000
       6   0.500000000   0.000000000   0.500000000
       7   0.000000000  -1.000000000   0.000000000
       8  -0.500000000  -1.000000000   0.000000000

     Calculation of q =    0.0000000   0.0000000   0.0000000

                                                                                

     bravais-lattice index     =            2
     lattice parameter (alat)  =      10.2900  a.u.
     unit-cell volume          =     272.3868 (a.u.)^3
     number of atoms/cell      =            2
     number of atomic types    =            1
     kinetic-energy cut-off    =      18.0000  Ry
     charge density cut-off    =      72.0000  Ry
     convergence threshold     =      1.0E-12
     beta                      =       0.7000
     number of iterations used =            4
     Exchange-correlation      = SLA  PW   PBE  PBE ( 1  4  3  4 0 0)


     celldm(1)=   10.29000  celldm(2)=    0.00000  celldm(3)=    0.00000
     celldm(4)=    0.00000  celldm(5)=    0.00000  celldm(6)=    0.00000

     crystal axes: (cart. coord. in units of alat)
               a(1) = ( -0.5000  0.0000  0.5000 )  
               a(2) = (  0.0000  0.5000  0.5000 )  
               a(3) = ( -0.5000  0.5000  0.0000 )  

     reciprocal axes: (cart. coord. in units 2 pi/alat)
               b(1) = ( -1.0000 -1.0000  1.0000 )  
               b(2) = (  1.0000  1.0000  1.0000 )  
               b(3) = ( -1.0000  1.0000 -1.0000 )  


     Atoms inside the unit cell: 

     Cartesian axes

     site n.  atom      mass           positions (alat units)
        1     Si  28.0860   tau(    1) = (    0.00000    0.00000    0.00000  )
        2     Si  28.0860   tau(    2) = (    0.25000    0.25000    0.25000  )

     Computing dynamical matrix for 
                    q = (   0.0000000   0.0000000   0.0000000 )

     49 Sym.Ops. (with q -> -q+G )


     G cutoff =  193.1094  (    685 G-vectors)     FFT grid: ( 20, 20, 20)
     number of k points=    10

     PseudoPot. # 1 for Si read from file:
     /home/max/quantum_espresso/qe-6.1/pseudo/si_pbe_v1.uspp.F.UPF.txt
     MD5 check sum: a056efeee980c13900f22a371efd63c1
     Pseudo is Ultrasoft + core correction, Zval =  4.0
     Generated by new atomic code, or converted to UPF format
     Using radial grid of  899 points,  6 beta functions with: 
                l(1) =   0
                l(2) =   0
                l(3) =   1
                l(4) =   1
                l(5) =   2
                l(6) =   2
     Q(r) pseudized with  8 coefficients,  rinner =    0.900   0.900   0.900
                                                       0.900   0.900

     Mode symmetry, O_h (m-3m)  point group:


     Electric field:
     Dielectric constant
     Born effective charges in two ways 


     Atomic displacements:
     There are   2 irreducible representations

     Representation     1      3 modes -T_2g G_25' G_5+  To be done

     Representation     2      3 modes -T_1u G_15  G_4-  To be done



     Alpha used in Ewald sum =   0.7000
     PHONON       :     0.39s CPU         0.40s WALL


     Electric Fields Calculation

      iter #   1 total cpu time :     0.8 secs   av.it.:   5.5
      thresh= 1.000E-02 alpha_mix =  0.700 |ddv_scf|^2 =  9.046E-07

      iter #   2 total cpu time :     0.9 secs   av.it.:   9.9
      thresh= 9.511E-05 alpha_mix =  0.700 |ddv_scf|^2 =  5.490E-08

      iter #   3 total cpu time :     1.1 secs   av.it.:   9.8
      thresh= 2.343E-05 alpha_mix =  0.700 |ddv_scf|^2 =  4.170E-09

      iter #   4 total cpu time :     1.3 secs   av.it.:   9.0
      thresh= 6.458E-06 alpha_mix =  0.700 |ddv_scf|^2 =  2.394E-11

      iter #   5 total cpu time :     1.4 secs   av.it.:   9.1
      thresh= 4.893E-07 alpha_mix =  0.700 |ddv_scf|^2 =  1.293E-14

     End of electric fields calculation

          Dielectric constant in cartesian axis 

          (      13.789063674       0.000000000      -0.000000000 )
          (       0.000000000      13.789063674       0.000000000 )
          (      -0.000000000       0.000000000      13.789063674 )

          Effective charges (d Force / dE) in cartesian axis

           atom      1   Si 
      Ex  (       -0.03182       -0.00000       -0.00000 )
      Ey  (       -0.00000       -0.03182        0.00000 )
      Ez  (       -0.00000        0.00000       -0.03182 )
           atom      2   Si 
      Ex  (       -0.03182       -0.00000        0.00000 )
      Ey  (       -0.00000       -0.03182        0.00000 )
      Ez  (       -0.00000        0.00000       -0.03182 )


     Representation #  1 modes #   1  2  3

     Self-consistent Calculation

      iter #   1 total cpu time :     1.8 secs   av.it.:   5.0
      thresh= 1.000E-02 alpha_mix =  0.700 |ddv_scf|^2 =  2.200E-07

      iter #   2 total cpu time :     2.0 secs   av.it.:   9.8
      thresh= 4.690E-05 alpha_mix =  0.700 |ddv_scf|^2 =  1.345E-08

      iter #   3 total cpu time :     2.2 secs   av.it.:   9.3
      thresh= 1.160E-05 alpha_mix =  0.700 |ddv_scf|^2 =  8.391E-10

      iter #   4 total cpu time :     2.4 secs   av.it.:   8.9
      thresh= 2.897E-06 alpha_mix =  0.700 |ddv_scf|^2 =  1.839E-12

      iter #   5 total cpu time :     2.5 secs   av.it.:   9.4
      thresh= 1.356E-07 alpha_mix =  0.700 |ddv_scf|^2 =  1.207E-14

     End of self-consistent calculation

     Convergence has been achieved 


     Representation #  2 modes #   4  5  6

     Self-consistent Calculation

      iter #   1 total cpu time :     2.8 secs   av.it.:   4.9
      thresh= 1.000E-02 alpha_mix =  0.700 |ddv_scf|^2 =  1.679E-07

      iter #   2 total cpu time :     2.9 secs   av.it.:   9.6
      thresh= 4.098E-05 alpha_mix =  0.700 |ddv_scf|^2 =  1.301E-08

      iter #   3 total cpu time :     3.1 secs   av.it.:   9.3
      thresh= 1.141E-05 alpha_mix =  0.700 |ddv_scf|^2 =  8.291E-10

      iter #   4 total cpu time :     3.3 secs   av.it.:   9.5
      thresh= 2.879E-06 alpha_mix =  0.700 |ddv_scf|^2 =  4.978E-12

      iter #   5 total cpu time :     3.5 secs   av.it.:   9.0
      thresh= 2.231E-07 alpha_mix =  0.700 |ddv_scf|^2 =  4.286E-15

     End of self-consistent calculation

     Convergence has been achieved 

     Number of q in the star =    1
     List of q in the star:
          1   0.000000000   0.000000000   0.000000000

          Dielectric constant in cartesian axis 

          (      13.789063674       0.000000000      -0.000000000 )
          (       0.000000000      13.789063674       0.000000000 )
          (      -0.000000000       0.000000000      13.789063674 )

          Effective charges (d Force / dE) in cartesian axis

           atom      1   Si 
      Ex  (       -0.03182       -0.00000       -0.00000 )
      Ey  (       -0.00000       -0.03182        0.00000 )
      Ez  (       -0.00000        0.00000       -0.03182 )
           atom      2   Si 
      Ex  (       -0.03182       -0.00000        0.00000 )
      Ey  (       -0.00000       -0.03182        0.00000 )
      Ez  (       -0.00000        0.00000       -0.03182 )

          Effective charges (d P / du) in cartesian axis 

           atom      1   Si 
      Px  (       -0.07122        0.00000        0.00000 )
      Py  (        0.00000       -0.07122       -0.00000 )
      Pz  (        0.00000        0.00000       -0.07122 )
           atom      2   Si 
      Px  (       -0.07122       -0.00000       -0.00000 )
      Py  (       -0.00000       -0.07122        0.00000 )
      Pz  (       -0.00000        0.00000       -0.07122 )

     Diagonalizing the dynamical matrix

     q = (    0.000000000   0.000000000   0.000000000 ) 

 **************************************************************************
     freq (    1) =       1.928053 [THz] =      64.312916 [cm-1]
     freq (    2) =       1.928053 [THz] =      64.312916 [cm-1]
     freq (    3) =       1.928053 [THz] =      64.312916 [cm-1]
     freq (    4) =      15.212668 [THz] =     507.439981 [cm-1]
     freq (    5) =      15.212668 [THz] =     507.439981 [cm-1]
     freq (    6) =      15.212668 [THz] =     507.439981 [cm-1]
 **************************************************************************

     Mode symmetry, O_h (m-3m)  point group:

     freq (  1 -  3) =         64.3  [cm-1]   --> T_1u G_15  G_4- I  
     freq (  4 -  6) =        507.4  [cm-1]   --> T_2g G_25' G_5+ R  

     Calculation of q =   -0.2500000   0.2500000  -0.2500000

   Info: using nr1, nr2, nr3 values from input

   Info: using nr1, nr2, nr3 values from input

     Parallelization info
     --------------------
     sticks:   dense  smooth     PW     G-vecs:    dense   smooth      PW
     Min          63      63     24                  684      684     161
     Max          64      64     25                  688      688     162
     Sum         253     253     97                 2741     2741     645



     bravais-lattice index     =            2
     lattice parameter (alat)  =      10.2900  a.u.
     unit-cell volume          =     272.3868 (a.u.)^3
     number of atoms/cell      =            2
     number of atomic types    =            1
     number of electrons       =         8.00
     number of Kohn-Sham states=            4
     kinetic-energy cutoff     =      18.0000  Ry
     charge density cutoff     =      72.0000  Ry
     Exchange-correlation      = SLA  PW   PBE  PBE ( 1  4  3  4 0 0)

     celldm(1)=  10.290000  celldm(2)=   0.000000  celldm(3)=   0.000000
     celldm(4)=   0.000000  celldm(5)=   0.000000  celldm(6)=   0.000000

     crystal axes: (cart. coord. in units of alat)
               a(1) = (  -0.500000   0.000000   0.500000 )  
               a(2) = (   0.000000   0.500000   0.500000 )  
               a(3) = (  -0.500000   0.500000   0.000000 )  

     reciprocal axes: (cart. coord. in units 2 pi/alat)
               b(1) = ( -1.000000 -1.000000  1.000000 )  
               b(2) = (  1.000000  1.000000  1.000000 )  
               b(3) = ( -1.000000  1.000000 -1.000000 )  


     PseudoPot. # 1 for Si read from file:
     /home/max/quantum_espresso/qe-6.1/pseudo/si_pbe_v1.uspp.F.UPF.txt
     MD5 check sum: a056efeee980c13900f22a371efd63c1
     Pseudo is Ultrasoft + core correction, Zval =  4.0
     Generated by new atomic code, or converted to UPF format
     Using radial grid of  899 points,  6 beta functions with: 
                l(1) =   0
                l(2) =   0
                l(3) =   1
                l(4) =   1
                l(5) =   2
                l(6) =   2
     Q(r) pseudized with  8 coefficients,  rinner =    0.900   0.900   0.900
                                                       0.900   0.900

     atomic species   valence    mass     pseudopotential
        Si             4.00    28.08600     Si( 1.00)

     48 Sym. Ops., with inversion, found



   Cartesian axes

     site n.     atom                  positions (alat units)
         1           Si  tau(   1) = (   0.0000000   0.0000000   0.0000000  )
         2           Si  tau(   2) = (   0.2500000   0.2500000   0.2500000  )

     number of k points=   120

     Number of k-points >= 100: set verbosity='high' to print them.

     Dense  grid:     2741 G-vectors     FFT dimensions: (  20,  20,  20)

     Estimated max dynamical RAM per process >       0.32MB

     Estimated total allocated dynamical RAM >       1.30MB

     Check: negative/imaginary core charge=   -0.000005    0.000000

     The potential is recalculated from file :
     ./_ph0/silicon.10.29.save/charge-density.dat

     Starting wfc are    8 atomic wfcs

     Band Structure Calculation
     Davidson diagonalization with overlap

     ethr =  1.25E-10,  avg # of iterations = 11.7

     total cpu time spent up to now is        0.8 secs

     End of band structure calculation

     Number of k-points >= 100: set verbosity='high' to print the bands.

     highest occupied level (ev):     5.8269

     Writing output data file silicon.10.29.save

                                                                                

     bravais-lattice index     =            2
     lattice parameter (alat)  =      10.2900  a.u.
     unit-cell volume          =     272.3868 (a.u.)^3
     number of atoms/cell      =            2
     number of atomic types    =            1
     kinetic-energy cut-off    =      18.0000  Ry
     charge density cut-off    =      72.0000  Ry
     convergence threshold     =      1.0E-12
     beta                      =       0.7000
     number of iterations used =            4
     Exchange-correlation      = SLA  PW   PBE  PBE ( 1  4  3  4 0 0)


     celldm(1)=   10.29000  celldm(2)=    0.00000  celldm(3)=    0.00000
     celldm(4)=    0.00000  celldm(5)=    0.00000  celldm(6)=    0.00000

     crystal axes: (cart. coord. in units of alat)
               a(1) = ( -0.5000  0.0000  0.5000 )  
               a(2) = (  0.0000  0.5000  0.5000 )  
               a(3) = ( -0.5000  0.5000  0.0000 )  

     reciprocal axes: (cart. coord. in units 2 pi/alat)
               b(1) = ( -1.0000 -1.0000  1.0000 )  
               b(2) = (  1.0000  1.0000  1.0000 )  
               b(3) = ( -1.0000  1.0000 -1.0000 )  


     Atoms inside the unit cell: 

     Cartesian axes

     site n.  atom      mass           positions (alat units)
        1     Si  28.0860   tau(    1) = (    0.00000    0.00000    0.00000  )
        2     Si  28.0860   tau(    2) = (    0.25000    0.25000    0.25000  )

     Computing dynamical matrix for 
                    q = (  -0.2500000   0.2500000  -0.2500000 )

      6 Sym.Ops. (no q -> -q+G )


     G cutoff =  193.1094  (    685 G-vectors)     FFT grid: ( 20, 20, 20)
     number of k points=   120

     PseudoPot. # 1 for Si read from file:
     /home/max/quantum_espresso/qe-6.1/pseudo/si_pbe_v1.uspp.F.UPF.txt
     MD5 check sum: a056efeee980c13900f22a371efd63c1
     Pseudo is Ultrasoft + core correction, Zval =  4.0
     Generated by new atomic code, or converted to UPF format
     Using radial grid of  899 points,  6 beta functions with: 
                l(1) =   0
                l(2) =   0
                l(3) =   1
                l(4) =   1
                l(5) =   2
                l(6) =   2
     Q(r) pseudized with  8 coefficients,  rinner =    0.900   0.900   0.900
                                                       0.900   0.900

     Mode symmetry, C_3v (3m)   point group:


     Atomic displacements:
     There are   4 irreducible representations

     Representation     1      1 modes -A_1  L_1  To be done

     Representation     2      1 modes -A_1  L_1  To be done

     Representation     3      2 modes -E    L_3  To be done

     Representation     4      2 modes -E    L_3  To be done



     Alpha used in Ewald sum =   0.7000
     PHONON       :     4.51s CPU         4.69s WALL



     Representation #  1 mode #   1

     Self-consistent Calculation

      iter #   1 total cpu time :     4.9 secs   av.it.:   5.5
      thresh= 1.000E-02 alpha_mix =  0.700 |ddv_scf|^2 =  2.501E-03

      iter #   2 total cpu time :     5.1 secs   av.it.:   7.4
      thresh= 5.001E-03 alpha_mix =  0.700 |ddv_scf|^2 =  3.757E-02

      iter #   3 total cpu time :     5.4 secs   av.it.:   6.3
      thresh= 1.000E-02 alpha_mix =  0.700 |ddv_scf|^2 =  1.705E-06

      iter #   4 total cpu time :     5.6 secs   av.it.:   8.2
      thresh= 1.306E-04 alpha_mix =  0.700 |ddv_scf|^2 =  1.112E-07

      iter #   5 total cpu time :     5.9 secs   av.it.:   8.1
      thresh= 3.335E-05 alpha_mix =  0.700 |ddv_scf|^2 =  4.727E-09

      iter #   6 total cpu time :     6.1 secs   av.it.:   7.9
      thresh= 6.876E-06 alpha_mix =  0.700 |ddv_scf|^2 =  1.142E-08

      iter #   7 total cpu time :     6.3 secs   av.it.:   5.8
      thresh= 1.069E-05 alpha_mix =  0.700 |ddv_scf|^2 =  1.892E-10

      iter #   8 total cpu time :     6.6 secs   av.it.:   7.7
      thresh= 1.375E-06 alpha_mix =  0.700 |ddv_scf|^2 =  4.083E-12

      iter #   9 total cpu time :     6.8 secs   av.it.:   7.1
      thresh= 2.021E-07 alpha_mix =  0.700 |ddv_scf|^2 =  1.589E-13

     End of self-consistent calculation

     Convergence has been achieved 


     Representation #  2 mode #   2

     Self-consistent Calculation

      iter #   1 total cpu time :     7.0 secs   av.it.:   5.5
      thresh= 1.000E-02 alpha_mix =  0.700 |ddv_scf|^2 =  2.501E-03

      iter #   2 total cpu time :     7.3 secs   av.it.:   7.4
      thresh= 5.001E-03 alpha_mix =  0.700 |ddv_scf|^2 =  3.757E-02

      iter #   3 total cpu time :     7.5 secs   av.it.:   6.3
      thresh= 1.000E-02 alpha_mix =  0.700 |ddv_scf|^2 =  1.705E-06

      iter #   4 total cpu time :     7.8 secs   av.it.:   8.2
      thresh= 1.306E-04 alpha_mix =  0.700 |ddv_scf|^2 =  1.112E-07

      iter #   5 total cpu time :     8.0 secs   av.it.:   8.1
      thresh= 3.335E-05 alpha_mix =  0.700 |ddv_scf|^2 =  4.727E-09

      iter #   6 total cpu time :     8.3 secs   av.it.:   7.9
      thresh= 6.876E-06 alpha_mix =  0.700 |ddv_scf|^2 =  1.142E-08

      iter #   7 total cpu time :     8.5 secs   av.it.:   5.8
      thresh= 1.069E-05 alpha_mix =  0.700 |ddv_scf|^2 =  1.892E-10

      iter #   8 total cpu time :     8.7 secs   av.it.:   7.7
      thresh= 1.375E-06 alpha_mix =  0.700 |ddv_scf|^2 =  4.083E-12

      iter #   9 total cpu time :     8.9 secs   av.it.:   7.1
      thresh= 2.021E-07 alpha_mix =  0.700 |ddv_scf|^2 =  1.589E-13

     End of self-consistent calculation

     Convergence has been achieved 


     Representation #  3 modes #   3  4

     Self-consistent Calculation

      iter #   1 total cpu time :     9.4 secs   av.it.:   4.9
      thresh= 1.000E-02 alpha_mix =  0.700 |ddv_scf|^2 =  5.480E-07

      iter #   2 total cpu time :     9.9 secs   av.it.:   9.5
      thresh= 7.402E-05 alpha_mix =  0.700 |ddv_scf|^2 =  4.022E-08

      iter #   3 total cpu time :    10.5 secs   av.it.:   9.2
      thresh= 2.005E-05 alpha_mix =  0.700 |ddv_scf|^2 =  3.423E-09

      iter #   4 total cpu time :    11.0 secs   av.it.:   8.9
      thresh= 5.851E-06 alpha_mix =  0.700 |ddv_scf|^2 =  1.062E-11

      iter #   5 total cpu time :    11.6 secs   av.it.:   9.1
      thresh= 3.258E-07 alpha_mix =  0.700 |ddv_scf|^2 =  4.905E-13

     End of self-consistent calculation

     Convergence has been achieved 


     Representation #  4 modes #   5  6

     Self-consistent Calculation

      iter #   1 total cpu time :    12.0 secs   av.it.:   5.0
      thresh= 1.000E-02 alpha_mix =  0.700 |ddv_scf|^2 =  5.479E-07

      iter #   2 total cpu time :    12.6 secs   av.it.:   9.6
      thresh= 7.402E-05 alpha_mix =  0.700 |ddv_scf|^2 =  4.019E-08

      iter #   3 total cpu time :    13.1 secs   av.it.:   9.4
      thresh= 2.005E-05 alpha_mix =  0.700 |ddv_scf|^2 =  3.421E-09

      iter #   4 total cpu time :    13.7 secs   av.it.:   9.1
      thresh= 5.849E-06 alpha_mix =  0.700 |ddv_scf|^2 =  1.062E-11

      iter #   5 total cpu time :    14.2 secs   av.it.:   9.2
      thresh= 3.259E-07 alpha_mix =  0.700 |ddv_scf|^2 =  4.907E-13

     End of self-consistent calculation

     Convergence has been achieved 

     Number of q in the star =    8
     List of q in the star:
          1  -0.250000000   0.250000000  -0.250000000
          2   0.250000000  -0.250000000  -0.250000000
          3   0.250000000  -0.250000000   0.250000000
          4   0.250000000   0.250000000   0.250000000
          5  -0.250000000  -0.250000000  -0.250000000
          6  -0.250000000  -0.250000000   0.250000000
          7  -0.250000000   0.250000000   0.250000000
          8   0.250000000   0.250000000  -0.250000000

     Diagonalizing the dynamical matrix

     q = (   -0.250000000   0.250000000  -0.250000000 ) 

 **************************************************************************
     freq (    1) =       3.358301 [THz] =     112.020878 [cm-1]
     freq (    2) =       3.358301 [THz] =     112.020878 [cm-1]
     freq (    3) =       7.012330 [THz] =     233.906146 [cm-1]
     freq (    4) =      14.282633 [THz] =     476.417358 [cm-1]
     freq (    5) =      14.618049 [THz] =     487.605645 [cm-1]
     freq (    6) =      14.618049 [THz] =     487.605645 [cm-1]
 **************************************************************************

     Mode symmetry, C_3v (3m)   point group:

     freq (  1 -  2) =        112.0  [cm-1]   --> E    L_3           
     freq (  3 -  3) =        233.9  [cm-1]   --> A_1  L_1           
     freq (  4 -  4) =        476.4  [cm-1]   --> A_1  L_1           
     freq (  5 -  6) =        487.6  [cm-1]   --> E    L_3           

     Calculation of q =    0.5000000  -0.5000000   0.5000000

   Info: using nr1, nr2, nr3 values from input

   Info: using nr1, nr2, nr3 values from input

     Parallelization info
     --------------------
     sticks:   dense  smooth     PW     G-vecs:    dense   smooth      PW
     Min          63      63     27                  684      684     186
     Max          64      64     28                  688      688     189
     Sum         253     253    109                 2741     2741     749



     bravais-lattice index     =            2
     lattice parameter (alat)  =      10.2900  a.u.
     unit-cell volume          =     272.3868 (a.u.)^3
     number of atoms/cell      =            2
     number of atomic types    =            1
     number of electrons       =         8.00
     number of Kohn-Sham states=            4
     kinetic-energy cutoff     =      18.0000  Ry
     charge density cutoff     =      72.0000  Ry
     Exchange-correlation      = SLA  PW   PBE  PBE ( 1  4  3  4 0 0)

     celldm(1)=  10.290000  celldm(2)=   0.000000  celldm(3)=   0.000000
     celldm(4)=   0.000000  celldm(5)=   0.000000  celldm(6)=   0.000000

     crystal axes: (cart. coord. in units of alat)
               a(1) = (  -0.500000   0.000000   0.500000 )  
               a(2) = (   0.000000   0.500000   0.500000 )  
               a(3) = (  -0.500000   0.500000   0.000000 )  

     reciprocal axes: (cart. coord. in units 2 pi/alat)
               b(1) = ( -1.000000 -1.000000  1.000000 )  
               b(2) = (  1.000000  1.000000  1.000000 )  
               b(3) = ( -1.000000  1.000000 -1.000000 )  


     PseudoPot. # 1 for Si read from file:
     /home/max/quantum_espresso/qe-6.1/pseudo/si_pbe_v1.uspp.F.UPF.txt
     MD5 check sum: a056efeee980c13900f22a371efd63c1
     Pseudo is Ultrasoft + core correction, Zval =  4.0
     Generated by new atomic code, or converted to UPF format
     Using radial grid of  899 points,  6 beta functions with: 
                l(1) =   0
                l(2) =   0
                l(3) =   1
                l(4) =   1
                l(5) =   2
                l(6) =   2
     Q(r) pseudized with  8 coefficients,  rinner =    0.900   0.900   0.900
                                                       0.900   0.900

     atomic species   valence    mass     pseudopotential
        Si             4.00    28.08600     Si( 1.00)

     48 Sym. Ops., with inversion, found



   Cartesian axes

     site n.     atom                  positions (alat units)
         1           Si  tau(   1) = (   0.0000000   0.0000000   0.0000000  )
         2           Si  tau(   2) = (   0.2500000   0.2500000   0.2500000  )

     number of k points=    60
                       cart. coord. in units 2pi/alat
        k(    1) = (  -0.1250000   0.1250000   0.1250000), wk =   0.0468750
        k(    2) = (   0.3750000  -0.3750000   0.6250000), wk =   0.0000000
        k(    3) = (  -0.3750000   0.3750000  -0.1250000), wk =   0.0468750
        k(    4) = (   0.1250000  -0.1250000   0.3750000), wk =   0.0000000
        k(    5) = (   0.3750000  -0.3750000   0.6250000), wk =   0.0468750
        k(    6) = (   0.8750000  -0.8750000   1.1250000), wk =   0.0000000
        k(    7) = (   0.1250000  -0.1250000   0.3750000), wk =   0.0468750
        k(    8) = (   0.6250000  -0.6250000   0.8750000), wk =   0.0000000
        k(    9) = (  -0.1250000   0.6250000   0.1250000), wk =   0.0937500
        k(   10) = (   0.3750000   0.1250000   0.6250000), wk =   0.0000000
        k(   11) = (   0.6250000  -0.1250000   0.8750000), wk =   0.0937500
        k(   12) = (   1.1250000  -0.6250000   1.3750000), wk =   0.0000000
        k(   13) = (   0.3750000   0.1250000   0.6250000), wk =   0.0937500
        k(   14) = (   0.8750000  -0.3750000   1.1250000), wk =   0.0000000
        k(   15) = (  -0.1250000  -0.8750000   0.1250000), wk =   0.0937500
        k(   16) = (   0.3750000  -1.3750000   0.6250000), wk =   0.0000000
        k(   17) = (  -0.3750000   0.3750000   0.3750000), wk =   0.0468750
        k(   18) = (   0.1250000  -0.1250000   0.8750000), wk =   0.0000000
        k(   19) = (   0.3750000  -0.3750000   1.1250000), wk =   0.0468750
        k(   20) = (   0.8750000  -0.8750000   1.6250000), wk =   0.0000000
        k(   21) = (   0.1250000  -0.1250000   0.1250000), wk =   0.0156250
        k(   22) = (   0.6250000  -0.6250000   0.6250000), wk =   0.0000000
        k(   23) = (  -0.3750000  -0.3750000  -0.1250000), wk =   0.0937500
        k(   24) = (   0.1250000  -0.8750000   0.3750000), wk =   0.0000000
        k(   25) = (  -0.1250000  -0.3750000   0.3750000), wk =   0.0468750
        k(   26) = (   0.3750000  -0.8750000   0.8750000), wk =   0.0000000
        k(   27) = (   0.3750000   0.3750000   0.6250000), wk =   0.0937500
        k(   28) = (   0.8750000  -0.1250000   1.1250000), wk =   0.0000000
        k(   29) = (   0.6250000   0.3750000  -0.3750000), wk =   0.0468750
        k(   30) = (   1.1250000  -0.1250000   0.1250000), wk =   0.0000000
        k(   31) = (   0.1250000   0.1250000   0.3750000), wk =   0.0937500
        k(   32) = (   0.6250000  -0.3750000   0.8750000), wk =   0.0000000
        k(   33) = (   0.3750000   0.1250000  -0.1250000), wk =   0.0468750
        k(   34) = (   0.8750000  -0.3750000   0.3750000), wk =   0.0000000
        k(   35) = (  -0.1250000  -0.6250000  -0.1250000), wk =   0.0468750
        k(   36) = (   0.3750000  -1.1250000   0.3750000), wk =   0.0000000
        k(   37) = (   0.1250000  -0.6250000   0.1250000), wk =   0.0468750
        k(   38) = (   0.6250000  -1.1250000   0.6250000), wk =   0.0000000
        k(   39) = (   0.6250000   0.1250000   0.8750000), wk =   0.0937500
        k(   40) = (   1.1250000  -0.3750000   1.3750000), wk =   0.0000000
        k(   41) = (  -0.8750000   0.1250000   0.6250000), wk =   0.0937500
        k(   42) = (  -0.3750000  -0.3750000   1.1250000), wk =   0.0000000
        k(   43) = (   0.8750000   0.1250000  -0.6250000), wk =   0.0937500
        k(   44) = (   1.3750000  -0.3750000  -0.1250000), wk =   0.0000000
        k(   45) = (   0.3750000  -0.1250000   0.6250000), wk =   0.0937500
        k(   46) = (   0.8750000  -0.6250000   1.1250000), wk =   0.0000000
        k(   47) = (  -0.6250000  -0.1250000   0.3750000), wk =   0.0937500
        k(   48) = (  -0.1250000  -0.6250000   0.8750000), wk =   0.0000000
        k(   49) = (   0.6250000  -0.1250000  -0.3750000), wk =   0.0937500
        k(   50) = (   1.1250000  -0.6250000   0.1250000), wk =   0.0000000
        k(   51) = (  -0.1250000   0.8750000  -0.1250000), wk =   0.0468750
        k(   52) = (   0.3750000   0.3750000   0.3750000), wk =   0.0000000
        k(   53) = (   0.1250000   0.8750000   0.1250000), wk =   0.0468750
        k(   54) = (   0.6250000   0.3750000   0.6250000), wk =   0.0000000
        k(   55) = (   0.3750000  -0.3750000   0.3750000), wk =   0.0156250
        k(   56) = (   0.8750000  -0.8750000   0.8750000), wk =   0.0000000
        k(   57) = (   0.3750000   0.3750000   1.1250000), wk =   0.0937500
        k(   58) = (   0.8750000  -0.1250000   1.6250000), wk =   0.0000000
        k(   59) = (   1.1250000   0.3750000  -0.3750000), wk =   0.0468750
        k(   60) = (   1.6250000  -0.1250000   0.1250000), wk =   0.0000000

     Dense  grid:     2741 G-vectors     FFT dimensions: (  20,  20,  20)

     Estimated max dynamical RAM per process >       0.32MB

     Estimated total allocated dynamical RAM >       1.30MB

     Check: negative/imaginary core charge=   -0.000005    0.000000

     The potential is recalculated from file :
     ./_ph0/silicon.10.29.save/charge-density.dat

     Starting wfc are    8 atomic wfcs

     Band Structure Calculation
     Davidson diagonalization with overlap

     ethr =  1.25E-10,  avg # of iterations = 11.7

     total cpu time spent up to now is        1.3 secs

     End of band structure calculation

          k =-0.1250 0.1250 0.1250 (   335 PWs)   bands (ev):

    -5.5841   4.5186   5.8269   5.8269

          k = 0.3750-0.3750 0.6250 (   354 PWs)   bands (ev):

    -3.3954  -0.5947   3.8490   4.5620

          k =-0.3750 0.3750-0.1250 (   348 PWs)   bands (ev):

    -4.5481   1.5051   3.8243   5.3418

          k = 0.1250-0.1250 0.3750 (   344 PWs)   bands (ev):

    -5.0517   2.8948   4.8069   4.8785

          k = 0.3750-0.3750 0.6250 (   354 PWs)   bands (ev):

    -3.3954  -0.5947   3.8490   4.5620

          k = 0.8750-0.8750 1.1250 (   335 PWs)   bands (ev):

    -5.5841   4.5186   5.8269   5.8269

          k = 0.1250-0.1250 0.3750 (   344 PWs)   bands (ev):

    -5.0517   2.8948   4.8069   4.8785

          k = 0.6250-0.6250 0.8750 (   348 PWs)   bands (ev):

    -4.5481   1.5051   3.8243   5.3418

          k =-0.1250 0.6250 0.1250 (   345 PWs)   bands (ev):

    -4.0103   1.1781   3.4699   3.9239

          k = 0.3750 0.1250 0.6250 (   350 PWs)   bands (ev):

    -3.5901   0.2921   2.8250   4.2023

          k = 0.6250-0.1250 0.8750 (   356 PWs)   bands (ev):

    -2.3533  -0.8009   2.1006   3.1863

          k = 1.1250-0.6250 1.3750 (   348 PWs)   bands (ev):

    -4.5481   1.5051   3.8243   5.3418

          k = 0.3750 0.1250 0.6250 (   350 PWs)   bands (ev):

    -3.5901   0.2921   2.8250   4.2023

          k = 0.8750-0.3750 1.1250 (   345 PWs)   bands (ev):

    -4.0103   1.1781   3.4699   3.9239

          k =-0.1250-0.8750 0.1250 (   352 PWs)   bands (ev):

    -2.5243  -0.7010   2.7155   3.4526

          k = 0.3750-1.3750 0.6250 (   354 PWs)   bands (ev):

    -3.3954  -0.5947   3.8490   4.5620

          k =-0.3750 0.3750 0.3750 (   353 PWs)   bands (ev):

    -4.1110   0.2001   5.0319   5.0319

          k = 0.1250-0.1250 0.8750 (   352 PWs)   bands (ev):

    -2.5243  -0.7010   2.7155   3.4526

          k = 0.3750-0.3750 1.1250 (   358 PWs)   bands (ev):

    -2.8953  -0.5016   2.1630   4.2414

          k = 0.8750-0.8750 1.6250 (   345 PWs)   bands (ev):

    -4.0103   1.1781   3.4699   3.9239

          k = 0.1250-0.1250 0.1250 (   335 PWs)   bands (ev):

    -5.5841   4.5186   5.8269   5.8269

          k = 0.6250-0.6250 0.6250 (   353 PWs)   bands (ev):

    -4.1110   0.2001   5.0319   5.0319

          k =-0.3750-0.3750-0.1250 (   348 PWs)   bands (ev):

    -4.5481   1.5051   3.8243   5.3418

          k = 0.1250-0.8750 0.3750 (   356 PWs)   bands (ev):

    -2.3533  -0.8009   2.1006   3.1863

          k =-0.1250-0.3750 0.3750 (   348 PWs)   bands (ev):

    -4.5481   1.5051   3.8243   5.3418

          k = 0.3750-0.8750 0.8750 (   345 PWs)   bands (ev):

    -4.0103   1.1781   3.4699   3.9239

          k = 0.3750 0.3750 0.6250 (   354 PWs)   bands (ev):

    -3.3954  -0.5947   3.8490   4.5620

          k = 0.8750-0.1250 1.1250 (   352 PWs)   bands (ev):

    -2.5243  -0.7010   2.7155   3.4526

          k = 0.6250 0.3750-0.3750 (   354 PWs)   bands (ev):

    -3.3954  -0.5947   3.8490   4.5620

          k = 1.1250-0.1250 0.1250 (   352 PWs)   bands (ev):

    -2.5243  -0.7010   2.7155   3.4526

          k = 0.1250 0.1250 0.3750 (   344 PWs)   bands (ev):

    -5.0517   2.8948   4.8069   4.8785

          k = 0.6250-0.3750 0.8750 (   350 PWs)   bands (ev):

    -3.5901   0.2921   2.8250   4.2023

          k = 0.3750 0.1250-0.1250 (   344 PWs)   bands (ev):

    -5.0517   2.8948   4.8069   4.8785

          k = 0.8750-0.3750 0.3750 (   358 PWs)   bands (ev):

    -2.8953  -0.5016   2.1630   4.2414

          k =-0.1250-0.6250-0.1250 (   345 PWs)   bands (ev):

    -4.0103   1.1781   3.4699   3.9239

          k = 0.3750-1.1250 0.3750 (   358 PWs)   bands (ev):

    -2.8953  -0.5016   2.1630   4.2414

          k = 0.1250-0.6250 0.1250 (   345 PWs)   bands (ev):

    -4.0103   1.1781   3.4699   3.9239

          k = 0.6250-1.1250 0.6250 (   348 PWs)   bands (ev):

    -4.5481   1.5051   3.8243   5.3418

          k = 0.6250 0.1250 0.8750 (   356 PWs)   bands (ev):

    -2.3533  -0.8009   2.1006   3.1863

          k = 1.1250-0.3750 1.3750 (   350 PWs)   bands (ev):

    -3.5901   0.2921   2.8250   4.2023

          k =-0.8750 0.1250 0.6250 (   356 PWs)   bands (ev):

    -2.3533  -0.8009   2.1006   3.1863

          k =-0.3750-0.3750 1.1250 (   358 PWs)   bands (ev):

    -2.8953  -0.5016   2.1630   4.2414

          k = 0.8750 0.1250-0.6250 (   356 PWs)   bands (ev):

    -2.3533  -0.8009   2.1006   3.1863

          k = 1.3750-0.3750-0.1250 (   350 PWs)   bands (ev):

    -3.5901   0.2921   2.8250   4.2023

          k = 0.3750-0.1250 0.6250 (   350 PWs)   bands (ev):

    -3.5901   0.2921   2.8250   4.2023

          k = 0.8750-0.6250 1.1250 (   344 PWs)   bands (ev):

    -5.0517   2.8948   4.8069   4.8785

          k =-0.6250-0.1250 0.3750 (   350 PWs)   bands (ev):

    -3.5901   0.2921   2.8250   4.2023

          k =-0.1250-0.6250 0.8750 (   356 PWs)   bands (ev):

    -2.3533  -0.8009   2.1006   3.1863

          k = 0.6250-0.1250-0.3750 (   350 PWs)   bands (ev):

    -3.5901   0.2921   2.8250   4.2023

          k = 1.1250-0.6250 0.1250 (   356 PWs)   bands (ev):

    -2.3533  -0.8009   2.1006   3.1863

          k =-0.1250 0.8750-0.1250 (   352 PWs)   bands (ev):

    -2.5243  -0.7010   2.7155   3.4526

          k = 0.3750 0.3750 0.3750 (   353 PWs)   bands (ev):

    -4.1110   0.2001   5.0319   5.0319

          k = 0.1250 0.8750 0.1250 (   352 PWs)   bands (ev):

    -2.5243  -0.7010   2.7155   3.4526

          k = 0.6250 0.3750 0.6250 (   354 PWs)   bands (ev):

    -3.3954  -0.5947   3.8490   4.5620

          k = 0.3750-0.3750 0.3750 (   353 PWs)   bands (ev):

    -4.1110   0.2001   5.0319   5.0319

          k = 0.8750-0.8750 0.8750 (   335 PWs)   bands (ev):

    -5.5841   4.5186   5.8269   5.8269

          k = 0.3750 0.3750 1.1250 (   358 PWs)   bands (ev):

    -2.8953  -0.5016   2.1630   4.2414

          k = 0.8750-0.1250 1.6250 (   356 PWs)   bands (ev):

    -2.3533  -0.8009   2.1006   3.1863

          k = 1.1250 0.3750-0.3750 (   358 PWs)   bands (ev):

    -2.8953  -0.5016   2.1630   4.2414

          k = 1.6250-0.1250 0.1250 (   344 PWs)   bands (ev):

    -5.0517   2.8948   4.8069   4.8785

     highest occupied level (ev):     5.8269

     Writing output data file silicon.10.29.save

                                                                                

     bravais-lattice index     =            2
     lattice parameter (alat)  =      10.2900  a.u.
     unit-cell volume          =     272.3868 (a.u.)^3
     number of atoms/cell      =            2
     number of atomic types    =            1
     kinetic-energy cut-off    =      18.0000  Ry
     charge density cut-off    =      72.0000  Ry
     convergence threshold     =      1.0E-12
     beta                      =       0.7000
     number of iterations used =            4
     Exchange-correlation      = SLA  PW   PBE  PBE ( 1  4  3  4 0 0)


     celldm(1)=   10.29000  celldm(2)=    0.00000  celldm(3)=    0.00000
     celldm(4)=    0.00000  celldm(5)=    0.00000  celldm(6)=    0.00000

     crystal axes: (cart. coord. in units of alat)
               a(1) = ( -0.5000  0.0000  0.5000 )  
               a(2) = (  0.0000  0.5000  0.5000 )  
               a(3) = ( -0.5000  0.5000  0.0000 )  

     reciprocal axes: (cart. coord. in units 2 pi/alat)
               b(1) = ( -1.0000 -1.0000  1.0000 )  
               b(2) = (  1.0000  1.0000  1.0000 )  
               b(3) = ( -1.0000  1.0000 -1.0000 )  


     Atoms inside the unit cell: 

     Cartesian axes

     site n.  atom      mass           positions (alat units)
        1     Si  28.0860   tau(    1) = (    0.00000    0.00000    0.00000  )
        2     Si  28.0860   tau(    2) = (    0.25000    0.25000    0.25000  )

     Computing dynamical matrix for 
                    q = (   0.5000000  -0.5000000   0.5000000 )

     13 Sym.Ops. (with q -> -q+G )


     G cutoff =  193.1094  (    685 G-vectors)     FFT grid: ( 20, 20, 20)
     number of k points=    60

     PseudoPot. # 1 for Si read from file:
     /home/max/quantum_espresso/qe-6.1/pseudo/si_pbe_v1.uspp.F.UPF.txt
     MD5 check sum: a056efeee980c13900f22a371efd63c1
     Pseudo is Ultrasoft + core correction, Zval =  4.0
     Generated by new atomic code, or converted to UPF format
     Using radial grid of  899 points,  6 beta functions with: 
                l(1) =   0
                l(2) =   0
                l(3) =   1
                l(4) =   1
                l(5) =   2
                l(6) =   2
     Q(r) pseudized with  8 coefficients,  rinner =    0.900   0.900   0.900
                                                       0.900   0.900


     Atomic displacements:
     There are   4 irreducible representations

     Representation     1      1 modes -  To be done

     Representation     2      1 modes -  To be done

     Representation     3      2 modes -  To be done

     Representation     4      2 modes -  To be done



     Alpha used in Ewald sum =   0.7000
     PHONON       :    14.36s CPU        14.96s WALL



     Representation #  1 mode #   1

     Self-consistent Calculation

      iter #   1 total cpu time :    15.1 secs   av.it.:   4.8
      thresh= 1.000E-02 alpha_mix =  0.700 |ddv_scf|^2 =  2.507E-05

      iter #   2 total cpu time :    15.2 secs   av.it.:   8.3
      thresh= 5.007E-04 alpha_mix =  0.700 |ddv_scf|^2 =  2.211E-05

      iter #   3 total cpu time :    15.4 secs   av.it.:   7.5
      thresh= 4.702E-04 alpha_mix =  0.700 |ddv_scf|^2 =  4.066E-08

      iter #   4 total cpu time :    15.5 secs   av.it.:   7.6
      thresh= 2.016E-05 alpha_mix =  0.700 |ddv_scf|^2 =  1.413E-10

      iter #   5 total cpu time :    15.6 secs   av.it.:   7.9
      thresh= 1.189E-06 alpha_mix =  0.700 |ddv_scf|^2 =  3.557E-12

      iter #   6 total cpu time :    15.8 secs   av.it.:   7.9
      thresh= 1.886E-07 alpha_mix =  0.700 |ddv_scf|^2 =  5.557E-14

     End of self-consistent calculation

     Convergence has been achieved 


     Representation #  2 mode #   2

     Self-consistent Calculation

      iter #   1 total cpu time :    15.9 secs   av.it.:   5.6
      thresh= 1.000E-02 alpha_mix =  0.700 |ddv_scf|^2 =  3.492E-04

      iter #   2 total cpu time :    16.0 secs   av.it.:   8.3
      thresh= 1.869E-03 alpha_mix =  0.700 |ddv_scf|^2 =  1.074E-03

      iter #   3 total cpu time :    16.2 secs   av.it.:   7.1
      thresh= 3.276E-03 alpha_mix =  0.700 |ddv_scf|^2 =  1.081E-07

      iter #   4 total cpu time :    16.3 secs   av.it.:   8.2
      thresh= 3.287E-05 alpha_mix =  0.700 |ddv_scf|^2 =  6.778E-09

      iter #   5 total cpu time :    16.5 secs   av.it.:   8.5
      thresh= 8.233E-06 alpha_mix =  0.700 |ddv_scf|^2 =  1.264E-10

      iter #   6 total cpu time :    16.6 secs   av.it.:   8.2
      thresh= 1.124E-06 alpha_mix =  0.700 |ddv_scf|^2 =  2.008E-12

      iter #   7 total cpu time :    16.7 secs   av.it.:   7.8
      thresh= 1.417E-07 alpha_mix =  0.700 |ddv_scf|^2 =  3.249E-15

     End of self-consistent calculation

     Convergence has been achieved 


     Representation #  3 modes #   3  4

     Self-consistent Calculation

      iter #   1 total cpu time :    17.0 secs   av.it.:   4.7
      thresh= 1.000E-02 alpha_mix =  0.700 |ddv_scf|^2 =  2.973E-07

      iter #   2 total cpu time :    17.2 secs   av.it.:   9.0
      thresh= 5.453E-05 alpha_mix =  0.700 |ddv_scf|^2 =  2.436E-08

      iter #   3 total cpu time :    17.5 secs   av.it.:   8.4
      thresh= 1.561E-05 alpha_mix =  0.700 |ddv_scf|^2 =  4.868E-10

      iter #   4 total cpu time :    17.8 secs   av.it.:   8.9
      thresh= 2.206E-06 alpha_mix =  0.700 |ddv_scf|^2 =  6.162E-12

      iter #   5 total cpu time :    18.1 secs   av.it.:   8.7
      thresh= 2.482E-07 alpha_mix =  0.700 |ddv_scf|^2 =  3.158E-14

     End of self-consistent calculation

     Convergence has been achieved 


     Representation #  4 modes #   5  6

     Self-consistent Calculation

      iter #   1 total cpu time :    18.3 secs   av.it.:   5.0
      thresh= 1.000E-02 alpha_mix =  0.700 |ddv_scf|^2 =  9.727E-07

      iter #   2 total cpu time :    18.6 secs   av.it.:   9.5
      thresh= 9.862E-05 alpha_mix =  0.700 |ddv_scf|^2 =  7.608E-08

      iter #   3 total cpu time :    18.9 secs   av.it.:   9.4
      thresh= 2.758E-05 alpha_mix =  0.700 |ddv_scf|^2 =  4.749E-09

      iter #   4 total cpu time :    19.2 secs   av.it.:   8.5
      thresh= 6.892E-06 alpha_mix =  0.700 |ddv_scf|^2 =  6.429E-12

      iter #   5 total cpu time :    19.5 secs   av.it.:   8.8
      thresh= 2.536E-07 alpha_mix =  0.700 |ddv_scf|^2 =  2.238E-14

     End of self-consistent calculation

     Convergence has been achieved 

     Number of q in the star =    4
     List of q in the star:
          1   0.500000000  -0.500000000   0.500000000
          2   0.500000000   0.500000000   0.500000000
          3  -0.500000000   0.500000000   0.500000000
          4   0.500000000   0.500000000  -0.500000000

     Diagonalizing the dynamical matrix

     q = (    0.500000000  -0.500000000   0.500000000 ) 

 **************************************************************************
     freq (    1) =       4.449633 [THz] =     148.423772 [cm-1]
     freq (    2) =       4.449633 [THz] =     148.423772 [cm-1]
     freq (    3) =      11.565541 [THz] =     385.784922 [cm-1]
     freq (    4) =      12.347270 [THz] =     411.860596 [cm-1]
     freq (    5) =      14.628246 [THz] =     487.945756 [cm-1]
     freq (    6) =      14.628246 [THz] =     487.945756 [cm-1]
 **************************************************************************

     Calculation of q =    0.0000000   0.5000000   0.0000000

   Info: using nr1, nr2, nr3 values from input

   Info: using nr1, nr2, nr3 values from input

     Parallelization info
     --------------------
     sticks:   dense  smooth     PW     G-vecs:    dense   smooth      PW
     Min          63      63     24                  684      684     161
     Max          64      64     25                  688      688     162
     Sum         253     253     97                 2741     2741     645



     bravais-lattice index     =            2
     lattice parameter (alat)  =      10.2900  a.u.
     unit-cell volume          =     272.3868 (a.u.)^3
     number of atoms/cell      =            2
     number of atomic types    =            1
     number of electrons       =         8.00
     number of Kohn-Sham states=            4
     kinetic-energy cutoff     =      18.0000  Ry
     charge density cutoff     =      72.0000  Ry
     Exchange-correlation      = SLA  PW   PBE  PBE ( 1  4  3  4 0 0)

     celldm(1)=  10.290000  celldm(2)=   0.000000  celldm(3)=   0.000000
     celldm(4)=   0.000000  celldm(5)=   0.000000  celldm(6)=   0.000000

     crystal axes: (cart. coord. in units of alat)
               a(1) = (  -0.500000   0.000000   0.500000 )  
               a(2) = (   0.000000   0.500000   0.500000 )  
               a(3) = (  -0.500000   0.500000   0.000000 )  

     reciprocal axes: (cart. coord. in units 2 pi/alat)
               b(1) = ( -1.000000 -1.000000  1.000000 )  
               b(2) = (  1.000000  1.000000  1.000000 )  
               b(3) = ( -1.000000  1.000000 -1.000000 )  


     PseudoPot. # 1 for Si read from file:
     /home/max/quantum_espresso/qe-6.1/pseudo/si_pbe_v1.uspp.F.UPF.txt
     MD5 check sum: a056efeee980c13900f22a371efd63c1
     Pseudo is Ultrasoft + core correction, Zval =  4.0
     Generated by new atomic code, or converted to UPF format
     Using radial grid of  899 points,  6 beta functions with: 
                l(1) =   0
                l(2) =   0
                l(3) =   1
                l(4) =   1
                l(5) =   2
                l(6) =   2
     Q(r) pseudized with  8 coefficients,  rinner =    0.900   0.900   0.900
                                                       0.900   0.900

     atomic species   valence    mass     pseudopotential
        Si             4.00    28.08600     Si( 1.00)

     48 Sym. Ops., with inversion, found



   Cartesian axes

     site n.     atom                  positions (alat units)
         1           Si  tau(   1) = (   0.0000000   0.0000000   0.0000000  )
         2           Si  tau(   2) = (   0.2500000   0.2500000   0.2500000  )

     number of k points=    80
                       cart. coord. in units 2pi/alat
        k(    1) = (  -0.1250000   0.1250000   0.1250000), wk =   0.0312500
        k(    2) = (  -0.1250000   0.6250000   0.1250000), wk =   0.0000000
        k(    3) = (  -0.3750000   0.3750000  -0.1250000), wk =   0.0625000
        k(    4) = (  -0.3750000   0.8750000  -0.1250000), wk =   0.0000000
        k(    5) = (   0.3750000  -0.3750000   0.6250000), wk =   0.0625000
        k(    6) = (   0.3750000   0.1250000   0.6250000), wk =   0.0000000
        k(    7) = (   0.1250000  -0.1250000   0.3750000), wk =   0.0625000
        k(    8) = (   0.1250000   0.3750000   0.3750000), wk =   0.0000000
        k(    9) = (  -0.1250000   0.6250000   0.1250000), wk =   0.0312500
        k(   10) = (  -0.1250000   1.1250000   0.1250000), wk =   0.0000000
        k(   11) = (   0.6250000  -0.1250000   0.8750000), wk =   0.0625000
        k(   12) = (   0.6250000   0.3750000   0.8750000), wk =   0.0000000
        k(   13) = (   0.3750000   0.1250000   0.6250000), wk =   0.0625000
        k(   14) = (   0.3750000   0.6250000   0.6250000), wk =   0.0000000
        k(   15) = (  -0.1250000  -0.8750000   0.1250000), wk =   0.0312500
        k(   16) = (  -0.1250000  -0.3750000   0.1250000), wk =   0.0000000
        k(   17) = (  -0.3750000   0.3750000   0.3750000), wk =   0.0312500
        k(   18) = (  -0.3750000   0.8750000   0.3750000), wk =   0.0000000
        k(   19) = (   0.3750000  -0.3750000   1.1250000), wk =   0.0625000
        k(   20) = (   0.3750000   0.1250000   1.1250000), wk =   0.0000000
        k(   21) = (  -0.1250000  -0.1250000   0.1250000), wk =   0.0312500
        k(   22) = (  -0.1250000   0.3750000   0.1250000), wk =   0.0000000
        k(   23) = (   0.1250000  -0.3750000   0.3750000), wk =   0.0625000
        k(   24) = (   0.1250000   0.1250000   0.3750000), wk =   0.0000000
        k(   25) = (   0.3750000  -0.1250000   0.3750000), wk =   0.0312500
        k(   26) = (   0.3750000   0.3750000   0.3750000), wk =   0.0000000
        k(   27) = (   0.3750000   0.1250000   0.3750000), wk =   0.0312500
        k(   28) = (   0.3750000   0.6250000   0.3750000), wk =   0.0000000
        k(   29) = (  -0.6250000   0.3750000  -0.3750000), wk =   0.0625000
        k(   30) = (  -0.6250000   0.8750000  -0.3750000), wk =   0.0000000
        k(   31) = (  -0.3750000   0.6250000  -0.3750000), wk =   0.0312500
        k(   32) = (  -0.3750000   1.1250000  -0.3750000), wk =   0.0000000
        k(   33) = (  -0.3750000  -0.6250000  -0.3750000), wk =   0.0312500
        k(   34) = (  -0.3750000  -0.1250000  -0.3750000), wk =   0.0000000
        k(   35) = (  -0.3750000   0.1250000  -0.1250000), wk =   0.0625000
        k(   36) = (  -0.3750000   0.6250000  -0.1250000), wk =   0.0000000
        k(   37) = (  -0.1250000   0.3750000  -0.1250000), wk =   0.0312500
        k(   38) = (  -0.1250000   0.8750000  -0.1250000), wk =   0.0000000
        k(   39) = (  -0.1250000  -0.3750000  -0.1250000), wk =   0.0312500
        k(   40) = (  -0.1250000   0.1250000  -0.1250000), wk =   0.0000000
        k(   41) = (  -0.1250000  -0.6250000   0.1250000), wk =   0.0312500
        k(   42) = (  -0.1250000  -0.1250000   0.1250000), wk =   0.0000000
        k(   43) = (   0.6250000  -0.1250000  -0.1250000), wk =   0.0625000
        k(   44) = (   0.6250000   0.3750000  -0.1250000), wk =   0.0000000
        k(   45) = (   0.6250000   0.1250000   0.1250000), wk =   0.0625000
        k(   46) = (   0.6250000   0.6250000   0.1250000), wk =   0.0000000
        k(   47) = (  -0.8750000   0.1250000  -0.6250000), wk =   0.0625000
        k(   48) = (  -0.8750000   0.6250000  -0.6250000), wk =   0.0000000
        k(   49) = (  -0.1250000   0.6250000  -0.8750000), wk =   0.0625000
        k(   50) = (  -0.1250000   1.1250000  -0.8750000), wk =   0.0000000
        k(   51) = (  -0.1250000   0.8750000  -0.6250000), wk =   0.0625000
        k(   52) = (  -0.1250000   1.3750000  -0.6250000), wk =   0.0000000
        k(   53) = (  -0.1250000  -0.8750000  -0.6250000), wk =   0.0625000
        k(   54) = (  -0.1250000  -0.3750000  -0.6250000), wk =   0.0000000
        k(   55) = (   0.8750000  -0.6250000   0.1250000), wk =   0.0625000
        k(   56) = (   0.8750000  -0.1250000   0.1250000), wk =   0.0000000
        k(   57) = (  -0.6250000  -0.1250000  -0.3750000), wk =   0.0625000
        k(   58) = (  -0.6250000   0.3750000  -0.3750000), wk =   0.0000000
        k(   59) = (   0.1250000   0.3750000  -0.6250000), wk =   0.0625000
        k(   60) = (   0.1250000   0.8750000  -0.6250000), wk =   0.0000000
        k(   61) = (   0.1250000   0.6250000  -0.3750000), wk =   0.0625000
        k(   62) = (   0.1250000   1.1250000  -0.3750000), wk =   0.0000000
        k(   63) = (   0.1250000  -0.6250000  -0.3750000), wk =   0.0625000
        k(   64) = (   0.1250000  -0.1250000  -0.3750000), wk =   0.0000000
        k(   65) = (   0.6250000  -0.3750000  -0.1250000), wk =   0.0625000
        k(   66) = (   0.6250000   0.1250000  -0.1250000), wk =   0.0000000
        k(   67) = (  -0.1250000   0.8750000   0.1250000), wk =   0.0312500
        k(   68) = (  -0.1250000   1.3750000   0.1250000), wk =   0.0000000
        k(   69) = (  -0.8750000  -0.1250000  -0.1250000), wk =   0.0625000
        k(   70) = (  -0.8750000   0.3750000  -0.1250000), wk =   0.0000000
        k(   71) = (  -0.8750000   0.1250000   0.1250000), wk =   0.0625000
        k(   72) = (  -0.8750000   0.6250000   0.1250000), wk =   0.0000000
        k(   73) = (  -0.3750000  -0.3750000   0.3750000), wk =   0.0312500
        k(   74) = (  -0.3750000   0.1250000   0.3750000), wk =   0.0000000
        k(   75) = (  -1.1250000   0.3750000  -0.3750000), wk =   0.0625000
        k(   76) = (  -1.1250000   0.8750000  -0.3750000), wk =   0.0000000
        k(   77) = (  -0.3750000   1.1250000  -0.3750000), wk =   0.0312500
        k(   78) = (  -0.3750000   1.6250000  -0.3750000), wk =   0.0000000
        k(   79) = (  -0.3750000  -1.1250000  -0.3750000), wk =   0.0312500
        k(   80) = (  -0.3750000  -0.6250000  -0.3750000), wk =   0.0000000

     Dense  grid:     2741 G-vectors     FFT dimensions: (  20,  20,  20)

     Estimated max dynamical RAM per process >       0.32MB

     Estimated total allocated dynamical RAM >       1.30MB

     Check: negative/imaginary core charge=   -0.000005    0.000000

     The potential is recalculated from file :
     ./_ph0/silicon.10.29.save/charge-density.dat

     Starting wfc are    8 atomic wfcs

     Band Structure Calculation
     Davidson diagonalization with overlap

     ethr =  1.25E-10,  avg # of iterations = 11.7

     total cpu time spent up to now is        1.9 secs

     End of band structure calculation

          k =-0.1250 0.1250 0.1250 (   335 PWs)   bands (ev):

    -5.5841   4.5186   5.8269   5.8269

          k =-0.1250 0.6250 0.1250 (   345 PWs)   bands (ev):

    -4.0103   1.1781   3.4699   3.9239

          k =-0.3750 0.3750-0.1250 (   348 PWs)   bands (ev):

    -4.5481   1.5051   3.8243   5.3418

          k =-0.3750 0.8750-0.1250 (   356 PWs)   bands (ev):

    -2.3533  -0.8009   2.1006   3.1863

          k = 0.3750-0.3750 0.6250 (   354 PWs)   bands (ev):

    -3.3954  -0.5947   3.8490   4.5620

          k = 0.3750 0.1250 0.6250 (   350 PWs)   bands (ev):

    -3.5901   0.2921   2.8250   4.2023

          k = 0.1250-0.1250 0.3750 (   344 PWs)   bands (ev):

    -5.0517   2.8948   4.8069   4.8785

          k = 0.1250 0.3750 0.3750 (   348 PWs)   bands (ev):

    -4.5481   1.5051   3.8243   5.3418

          k =-0.1250 0.6250 0.1250 (   345 PWs)   bands (ev):

    -4.0103   1.1781   3.4699   3.9239

          k =-0.1250 1.1250 0.1250 (   352 PWs)   bands (ev):

    -2.5243  -0.7010   2.7155   3.4526

          k = 0.6250-0.1250 0.8750 (   356 PWs)   bands (ev):

    -2.3533  -0.8009   2.1006   3.1863

          k = 0.6250 0.3750 0.8750 (   350 PWs)   bands (ev):

    -3.5901   0.2921   2.8250   4.2023

          k = 0.3750 0.1250 0.6250 (   350 PWs)   bands (ev):

    -3.5901   0.2921   2.8250   4.2023

          k = 0.3750 0.6250 0.6250 (   354 PWs)   bands (ev):

    -3.3954  -0.5947   3.8490   4.5620

          k =-0.1250-0.8750 0.1250 (   352 PWs)   bands (ev):

    -2.5243  -0.7010   2.7155   3.4526

          k =-0.1250-0.3750 0.1250 (   344 PWs)   bands (ev):

    -5.0517   2.8948   4.8069   4.8785

          k =-0.3750 0.3750 0.3750 (   353 PWs)   bands (ev):

    -4.1110   0.2001   5.0319   5.0319

          k =-0.3750 0.8750 0.3750 (   358 PWs)   bands (ev):

    -2.8953  -0.5016   2.1630   4.2414

          k = 0.3750-0.3750 1.1250 (   358 PWs)   bands (ev):

    -2.8953  -0.5016   2.1630   4.2414

          k = 0.3750 0.1250 1.1250 (   356 PWs)   bands (ev):

    -2.3533  -0.8009   2.1006   3.1863

          k =-0.1250-0.1250 0.1250 (   335 PWs)   bands (ev):

    -5.5841   4.5186   5.8269   5.8269

          k =-0.1250 0.3750 0.1250 (   344 PWs)   bands (ev):

    -5.0517   2.8948   4.8069   4.8785

          k = 0.1250-0.3750 0.3750 (   348 PWs)   bands (ev):

    -4.5481   1.5051   3.8243   5.3418

          k = 0.1250 0.1250 0.3750 (   344 PWs)   bands (ev):

    -5.0517   2.8948   4.8069   4.8785

          k = 0.3750-0.1250 0.3750 (   348 PWs)   bands (ev):

    -4.5481   1.5051   3.8243   5.3418

          k = 0.3750 0.3750 0.3750 (   353 PWs)   bands (ev):

    -4.1110   0.2001   5.0319   5.0319

          k = 0.3750 0.1250 0.3750 (   348 PWs)   bands (ev):

    -4.5481   1.5051   3.8243   5.3418

          k = 0.3750 0.6250 0.3750 (   354 PWs)   bands (ev):

    -3.3954  -0.5947   3.8490   4.5620

          k =-0.6250 0.3750-0.3750 (   354 PWs)   bands (ev):

    -3.3954  -0.5947   3.8490   4.5620

          k =-0.6250 0.8750-0.3750 (   350 PWs)   bands (ev):

    -3.5901   0.2921   2.8250   4.2023

          k =-0.3750 0.6250-0.3750 (   354 PWs)   bands (ev):

    -3.3954  -0.5947   3.8490   4.5620

          k =-0.3750 1.1250-0.3750 (   358 PWs)   bands (ev):

    -2.8953  -0.5016   2.1630   4.2414

          k =-0.3750-0.6250-0.3750 (   354 PWs)   bands (ev):

    -3.3954  -0.5947   3.8490   4.5620

          k =-0.3750-0.1250-0.3750 (   348 PWs)   bands (ev):

    -4.5481   1.5051   3.8243   5.3418

          k =-0.3750 0.1250-0.1250 (   344 PWs)   bands (ev):

    -5.0517   2.8948   4.8069   4.8785

          k =-0.3750 0.6250-0.1250 (   350 PWs)   bands (ev):

    -3.5901   0.2921   2.8250   4.2023

          k =-0.1250 0.3750-0.1250 (   344 PWs)   bands (ev):

    -5.0517   2.8948   4.8069   4.8785

          k =-0.1250 0.8750-0.1250 (   352 PWs)   bands (ev):

    -2.5243  -0.7010   2.7155   3.4526

          k =-0.1250-0.3750-0.1250 (   344 PWs)   bands (ev):

    -5.0517   2.8948   4.8069   4.8785

          k =-0.1250 0.1250-0.1250 (   335 PWs)   bands (ev):

    -5.5841   4.5186   5.8269   5.8269

          k =-0.1250-0.6250 0.1250 (   345 PWs)   bands (ev):

    -4.0103   1.1781   3.4699   3.9239

          k =-0.1250-0.1250 0.1250 (   335 PWs)   bands (ev):

    -5.5841   4.5186   5.8269   5.8269

          k = 0.6250-0.1250-0.1250 (   345 PWs)   bands (ev):

    -4.0103   1.1781   3.4699   3.9239

          k = 0.6250 0.3750-0.1250 (   350 PWs)   bands (ev):

    -3.5901   0.2921   2.8250   4.2023

          k = 0.6250 0.1250 0.1250 (   345 PWs)   bands (ev):

    -4.0103   1.1781   3.4699   3.9239

          k = 0.6250 0.6250 0.1250 (   358 PWs)   bands (ev):

    -2.8953  -0.5016   2.1630   4.2414

          k =-0.8750 0.1250-0.6250 (   356 PWs)   bands (ev):

    -2.3533  -0.8009   2.1006   3.1863

          k =-0.8750 0.6250-0.6250 (   348 PWs)   bands (ev):

    -4.5481   1.5051   3.8243   5.3418

          k =-0.1250 0.6250-0.8750 (   356 PWs)   bands (ev):

    -2.3533  -0.8009   2.1006   3.1863

          k =-0.1250 1.1250-0.8750 (   352 PWs)   bands (ev):

    -2.5243  -0.7010   2.7155   3.4526

          k =-0.1250 0.8750-0.6250 (   356 PWs)   bands (ev):

    -2.3533  -0.8009   2.1006   3.1863

          k =-0.1250 1.3750-0.6250 (   358 PWs)   bands (ev):

    -2.8953  -0.5016   2.1630   4.2414

          k =-0.1250-0.8750-0.6250 (   356 PWs)   bands (ev):

    -2.3533  -0.8009   2.1006   3.1863

          k =-0.1250-0.3750-0.6250 (   350 PWs)   bands (ev):

    -3.5901   0.2921   2.8250   4.2023

          k = 0.8750-0.6250 0.1250 (   356 PWs)   bands (ev):

    -2.3533  -0.8009   2.1006   3.1863

          k = 0.8750-0.1250 0.1250 (   352 PWs)   bands (ev):

    -2.5243  -0.7010   2.7155   3.4526

          k =-0.6250-0.1250-0.3750 (   350 PWs)   bands (ev):

    -3.5901   0.2921   2.8250   4.2023

          k =-0.6250 0.3750-0.3750 (   354 PWs)   bands (ev):

    -3.3954  -0.5947   3.8490   4.5620

          k = 0.1250 0.3750-0.6250 (   350 PWs)   bands (ev):

    -3.5901   0.2921   2.8250   4.2023

          k = 0.1250 0.8750-0.6250 (   356 PWs)   bands (ev):

    -2.3533  -0.8009   2.1006   3.1863

          k = 0.1250 0.6250-0.3750 (   350 PWs)   bands (ev):

    -3.5901   0.2921   2.8250   4.2023

          k = 0.1250 1.1250-0.3750 (   356 PWs)   bands (ev):

    -2.3533  -0.8009   2.1006   3.1863

          k = 0.1250-0.6250-0.3750 (   350 PWs)   bands (ev):

    -3.5901   0.2921   2.8250   4.2023

          k = 0.1250-0.1250-0.3750 (   344 PWs)   bands (ev):

    -5.0517   2.8948   4.8069   4.8785

          k = 0.6250-0.3750-0.1250 (   350 PWs)   bands (ev):

    -3.5901   0.2921   2.8250   4.2023

          k = 0.6250 0.1250-0.1250 (   345 PWs)   bands (ev):

    -4.0103   1.1781   3.4699   3.9239

          k =-0.1250 0.8750 0.1250 (   352 PWs)   bands (ev):

    -2.5243  -0.7010   2.7155   3.4526

          k =-0.1250 1.3750 0.1250 (   345 PWs)   bands (ev):

    -4.0103   1.1781   3.4699   3.9239

          k =-0.8750-0.1250-0.1250 (   352 PWs)   bands (ev):

    -2.5243  -0.7010   2.7155   3.4526

          k =-0.8750 0.3750-0.1250 (   356 PWs)   bands (ev):

    -2.3533  -0.8009   2.1006   3.1863

          k =-0.8750 0.1250 0.1250 (   352 PWs)   bands (ev):

    -2.5243  -0.7010   2.7155   3.4526

          k =-0.8750 0.6250 0.1250 (   356 PWs)   bands (ev):

    -2.3533  -0.8009   2.1006   3.1863

          k =-0.3750-0.3750 0.3750 (   353 PWs)   bands (ev):

    -4.1110   0.2001   5.0319   5.0319

          k =-0.3750 0.1250 0.3750 (   348 PWs)   bands (ev):

    -4.5481   1.5051   3.8243   5.3418

          k =-1.1250 0.3750-0.3750 (   358 PWs)   bands (ev):

    -2.8953  -0.5016   2.1630   4.2414

          k =-1.1250 0.8750-0.3750 (   345 PWs)   bands (ev):

    -4.0103   1.1781   3.4699   3.9239

          k =-0.3750 1.1250-0.3750 (   358 PWs)   bands (ev):

    -2.8953  -0.5016   2.1630   4.2414

          k =-0.3750 1.6250-0.3750 (   353 PWs)   bands (ev):

    -4.1110   0.2001   5.0319   5.0319

          k =-0.3750-1.1250-0.3750 (   358 PWs)   bands (ev):

    -2.8953  -0.5016   2.1630   4.2414

          k =-0.3750-0.6250-0.3750 (   354 PWs)   bands (ev):

    -3.3954  -0.5947   3.8490   4.5620

     highest occupied level (ev):     5.8269

     Writing output data file silicon.10.29.save

                                                                                

     bravais-lattice index     =            2
     lattice parameter (alat)  =      10.2900  a.u.
     unit-cell volume          =     272.3868 (a.u.)^3
     number of atoms/cell      =            2
     number of atomic types    =            1
     kinetic-energy cut-off    =      18.0000  Ry
     charge density cut-off    =      72.0000  Ry
     convergence threshold     =      1.0E-12
     beta                      =       0.7000
     number of iterations used =            4
     Exchange-correlation      = SLA  PW   PBE  PBE ( 1  4  3  4 0 0)


     celldm(1)=   10.29000  celldm(2)=    0.00000  celldm(3)=    0.00000
     celldm(4)=    0.00000  celldm(5)=    0.00000  celldm(6)=    0.00000

     crystal axes: (cart. coord. in units of alat)
               a(1) = ( -0.5000  0.0000  0.5000 )  
               a(2) = (  0.0000  0.5000  0.5000 )  
               a(3) = ( -0.5000  0.5000  0.0000 )  

     reciprocal axes: (cart. coord. in units 2 pi/alat)
               b(1) = ( -1.0000 -1.0000  1.0000 )  
               b(2) = (  1.0000  1.0000  1.0000 )  
               b(3) = ( -1.0000  1.0000 -1.0000 )  


     Atoms inside the unit cell: 

     Cartesian axes

     site n.  atom      mass           positions (alat units)
        1     Si  28.0860   tau(    1) = (    0.00000    0.00000    0.00000  )
        2     Si  28.0860   tau(    2) = (    0.25000    0.25000    0.25000  )

     Computing dynamical matrix for 
                    q = (   0.0000000   0.5000000   0.0000000 )

      8 Sym.Ops. (no q -> -q+G )


     G cutoff =  193.1094  (    685 G-vectors)     FFT grid: ( 20, 20, 20)
     number of k points=    80

     PseudoPot. # 1 for Si read from file:
     /home/max/quantum_espresso/qe-6.1/pseudo/si_pbe_v1.uspp.F.UPF.txt
     MD5 check sum: a056efeee980c13900f22a371efd63c1
     Pseudo is Ultrasoft + core correction, Zval =  4.0
     Generated by new atomic code, or converted to UPF format
     Using radial grid of  899 points,  6 beta functions with: 
                l(1) =   0
                l(2) =   0
                l(3) =   1
                l(4) =   1
                l(5) =   2
                l(6) =   2
     Q(r) pseudized with  8 coefficients,  rinner =    0.900   0.900   0.900
                                                       0.900   0.900

     Mode symmetry, C_4v (4mm)  point group:


     Atomic displacements:
     There are   4 irreducible representations

     Representation     1      1 modes -A_1  G_1 D_1  To be done

     Representation     2      1 modes -B_2  G_4 D_2'  To be done

     Representation     3      2 modes -E    G_5 D_5  To be done

     Representation     4      2 modes -E    G_5 D_5  To be done



     Alpha used in Ewald sum =   0.7000
     PHONON       :    19.54s CPU        20.34s WALL



     Representation #  1 mode #   1

     Self-consistent Calculation

      iter #   1 total cpu time :    20.5 secs   av.it.:   5.8
      thresh= 1.000E-02 alpha_mix =  0.700 |ddv_scf|^2 =  3.005E-03

      iter #   2 total cpu time :    20.7 secs   av.it.:   7.6
      thresh= 5.482E-03 alpha_mix =  0.700 |ddv_scf|^2 =  3.930E-02

      iter #   3 total cpu time :    20.8 secs   av.it.:   6.7
      thresh= 1.000E-02 alpha_mix =  0.700 |ddv_scf|^2 =  1.356E-07

      iter #   4 total cpu time :    21.0 secs   av.it.:   8.2
      thresh= 3.682E-05 alpha_mix =  0.700 |ddv_scf|^2 =  1.206E-08

      iter #   5 total cpu time :    21.2 secs   av.it.:   7.8
      thresh= 1.098E-05 alpha_mix =  0.700 |ddv_scf|^2 =  7.456E-10

      iter #   6 total cpu time :    21.3 secs   av.it.:   7.8
      thresh= 2.730E-06 alpha_mix =  0.700 |ddv_scf|^2 =  2.531E-12

      iter #   7 total cpu time :    21.5 secs   av.it.:   7.9
      thresh= 1.591E-07 alpha_mix =  0.700 |ddv_scf|^2 =  4.979E-13

     End of self-consistent calculation

     Convergence has been achieved 


     Representation #  2 mode #   2

     Self-consistent Calculation

      iter #   1 total cpu time :    21.7 secs   av.it.:   4.9
      thresh= 1.000E-02 alpha_mix =  0.700 |ddv_scf|^2 =  5.486E-06

      iter #   2 total cpu time :    21.8 secs   av.it.:   8.7
      thresh= 2.342E-04 alpha_mix =  0.700 |ddv_scf|^2 =  1.309E-06

      iter #   3 total cpu time :    22.0 secs   av.it.:   8.5
      thresh= 1.144E-04 alpha_mix =  0.700 |ddv_scf|^2 =  4.014E-08

      iter #   4 total cpu time :    22.2 secs   av.it.:   8.2
      thresh= 2.004E-05 alpha_mix =  0.700 |ddv_scf|^2 =  6.450E-10

      iter #   5 total cpu time :    22.4 secs   av.it.:   8.5
      thresh= 2.540E-06 alpha_mix =  0.700 |ddv_scf|^2 =  6.636E-12

      iter #   6 total cpu time :    22.6 secs   av.it.:   7.9
      thresh= 2.576E-07 alpha_mix =  0.700 |ddv_scf|^2 =  6.730E-14

     End of self-consistent calculation

     Convergence has been achieved 


     Representation #  3 modes #   3  4

     Self-consistent Calculation

      iter #   1 total cpu time :    22.8 secs   av.it.:   5.0
      thresh= 1.000E-02 alpha_mix =  0.700 |ddv_scf|^2 =  1.019E-06

      iter #   2 total cpu time :    23.2 secs   av.it.:   9.7
      thresh= 1.009E-04 alpha_mix =  0.700 |ddv_scf|^2 =  1.265E-07

      iter #   3 total cpu time :    23.6 secs   av.it.:   9.5
      thresh= 3.557E-05 alpha_mix =  0.700 |ddv_scf|^2 =  6.419E-09

      iter #   4 total cpu time :    24.0 secs   av.it.:   8.8
      thresh= 8.012E-06 alpha_mix =  0.700 |ddv_scf|^2 =  9.138E-12

      iter #   5 total cpu time :    24.4 secs   av.it.:   9.1
      thresh= 3.023E-07 alpha_mix =  0.700 |ddv_scf|^2 =  2.786E-13

     End of self-consistent calculation

     Convergence has been achieved 


     Representation #  4 modes #   5  6

     Self-consistent Calculation

      iter #   1 total cpu time :    24.7 secs   av.it.:   5.0
      thresh= 1.000E-02 alpha_mix =  0.700 |ddv_scf|^2 =  9.061E-07

      iter #   2 total cpu time :    25.0 secs   av.it.:   9.8
      thresh= 9.519E-05 alpha_mix =  0.700 |ddv_scf|^2 =  1.148E-07

      iter #   3 total cpu time :    25.4 secs   av.it.:   9.4
      thresh= 3.388E-05 alpha_mix =  0.700 |ddv_scf|^2 =  5.954E-09

      iter #   4 total cpu time :    25.8 secs   av.it.:   8.9
      thresh= 7.716E-06 alpha_mix =  0.700 |ddv_scf|^2 =  1.381E-11

      iter #   5 total cpu time :    26.2 secs   av.it.:   9.2
      thresh= 3.716E-07 alpha_mix =  0.700 |ddv_scf|^2 =  4.232E-14

     End of self-consistent calculation

     Convergence has been achieved 

     Number of q in the star =    6
     List of q in the star:
          1   0.000000000   0.500000000   0.000000000
          2   0.000000000  -0.500000000   0.000000000
          3   0.500000000   0.000000000   0.000000000
          4   0.000000000   0.000000000   0.500000000
          5   0.000000000   0.000000000  -0.500000000
          6  -0.500000000   0.000000000   0.000000000

     Diagonalizing the dynamical matrix

     q = (    0.000000000   0.500000000   0.000000000 ) 

 **************************************************************************
     freq (    1) =       4.182327 [THz] =     139.507425 [cm-1]
     freq (    2) =       4.182327 [THz] =     139.507425 [cm-1]
     freq (    3) =       7.269152 [THz] =     242.472808 [cm-1]
     freq (    4) =      13.945490 [THz] =     465.171481 [cm-1]
     freq (    5) =      13.945490 [THz] =     465.171481 [cm-1]
     freq (    6) =      14.512819 [THz] =     484.095537 [cm-1]
 **************************************************************************

     Mode symmetry, C_4v (4mm)  point group:

     freq (  1 -  2) =        139.5  [cm-1]   --> E    G_5 D_5       
     freq (  3 -  3) =        242.5  [cm-1]   --> A_1  G_1 D_1       
     freq (  4 -  5) =        465.2  [cm-1]   --> E    G_5 D_5       
     freq (  6 -  6) =        484.1  [cm-1]   --> B_2  G_4 D_2'      

     Calculation of q =    0.7500000  -0.2500000   0.7500000

   Info: using nr1, nr2, nr3 values from input

   Info: using nr1, nr2, nr3 values from input

     Parallelization info
     --------------------
     sticks:   dense  smooth     PW     G-vecs:    dense   smooth      PW
     Min          63      63     30                  684      684     216
     Max          64      64     31                  688      688     218
     Sum         253     253    121                 2741     2741     869



     bravais-lattice index     =            2
     lattice parameter (alat)  =      10.2900  a.u.
     unit-cell volume          =     272.3868 (a.u.)^3
     number of atoms/cell      =            2
     number of atomic types    =            1
     number of electrons       =         8.00
     number of Kohn-Sham states=            4
     kinetic-energy cutoff     =      18.0000  Ry
     charge density cutoff     =      72.0000  Ry
     Exchange-correlation      = SLA  PW   PBE  PBE ( 1  4  3  4 0 0)

     celldm(1)=  10.290000  celldm(2)=   0.000000  celldm(3)=   0.000000
     celldm(4)=   0.000000  celldm(5)=   0.000000  celldm(6)=   0.000000

     crystal axes: (cart. coord. in units of alat)
               a(1) = (  -0.500000   0.000000   0.500000 )  
               a(2) = (   0.000000   0.500000   0.500000 )  
               a(3) = (  -0.500000   0.500000   0.000000 )  

     reciprocal axes: (cart. coord. in units 2 pi/alat)
               b(1) = ( -1.000000 -1.000000  1.000000 )  
               b(2) = (  1.000000  1.000000  1.000000 )  
               b(3) = ( -1.000000  1.000000 -1.000000 )  


     PseudoPot. # 1 for Si read from file:
     /home/max/quantum_espresso/qe-6.1/pseudo/si_pbe_v1.uspp.F.UPF.txt
     MD5 check sum: a056efeee980c13900f22a371efd63c1
     Pseudo is Ultrasoft + core correction, Zval =  4.0
     Generated by new atomic code, or converted to UPF format
     Using radial grid of  899 points,  6 beta functions with: 
                l(1) =   0
                l(2) =   0
                l(3) =   1
                l(4) =   1
                l(5) =   2
                l(6) =   2
     Q(r) pseudized with  8 coefficients,  rinner =    0.900   0.900   0.900
                                                       0.900   0.900

     atomic species   valence    mass     pseudopotential
        Si             4.00    28.08600     Si( 1.00)

     48 Sym. Ops., with inversion, found



   Cartesian axes

     site n.     atom                  positions (alat units)
         1           Si  tau(   1) = (   0.0000000   0.0000000   0.0000000  )
         2           Si  tau(   2) = (   0.2500000   0.2500000   0.2500000  )

     number of k points=   288

     Number of k-points >= 100: set verbosity='high' to print them.

     Dense  grid:     2741 G-vectors     FFT dimensions: (  20,  20,  20)

     Estimated max dynamical RAM per process >       0.32MB

     Estimated total allocated dynamical RAM >       1.30MB

     Check: negative/imaginary core charge=   -0.000005    0.000000

     The potential is recalculated from file :
     ./_ph0/silicon.10.29.save/charge-density.dat

     Starting wfc are    8 atomic wfcs

     Band Structure Calculation
     Davidson diagonalization with overlap

     ethr =  1.25E-10,  avg # of iterations = 11.6

     total cpu time spent up to now is        3.7 secs

     End of band structure calculation

     Number of k-points >= 100: set verbosity='high' to print the bands.

     highest occupied level (ev):     5.8269

     Writing output data file silicon.10.29.save

                                                                                

     bravais-lattice index     =            2
     lattice parameter (alat)  =      10.2900  a.u.
     unit-cell volume          =     272.3868 (a.u.)^3
     number of atoms/cell      =            2
     number of atomic types    =            1
     kinetic-energy cut-off    =      18.0000  Ry
     charge density cut-off    =      72.0000  Ry
     convergence threshold     =      1.0E-12
     beta                      =       0.7000
     number of iterations used =            4
     Exchange-correlation      = SLA  PW   PBE  PBE ( 1  4  3  4 0 0)


     celldm(1)=   10.29000  celldm(2)=    0.00000  celldm(3)=    0.00000
     celldm(4)=    0.00000  celldm(5)=    0.00000  celldm(6)=    0.00000

     crystal axes: (cart. coord. in units of alat)
               a(1) = ( -0.5000  0.0000  0.5000 )  
               a(2) = (  0.0000  0.5000  0.5000 )  
               a(3) = ( -0.5000  0.5000  0.0000 )  

     reciprocal axes: (cart. coord. in units 2 pi/alat)
               b(1) = ( -1.0000 -1.0000  1.0000 )  
               b(2) = (  1.0000  1.0000  1.0000 )  
               b(3) = ( -1.0000  1.0000 -1.0000 )  


     Atoms inside the unit cell: 

     Cartesian axes

     site n.  atom      mass           positions (alat units)
        1     Si  28.0860   tau(    1) = (    0.00000    0.00000    0.00000  )
        2     Si  28.0860   tau(    2) = (    0.25000    0.25000    0.25000  )

     Computing dynamical matrix for 
                    q = (   0.7500000  -0.2500000   0.7500000 )

      2 Sym.Ops. (no q -> -q+G )


     G cutoff =  193.1094  (    685 G-vectors)     FFT grid: ( 20, 20, 20)
     number of k points=   288

     PseudoPot. # 1 for Si read from file:
     /home/max/quantum_espresso/qe-6.1/pseudo/si_pbe_v1.uspp.F.UPF.txt
     MD5 check sum: a056efeee980c13900f22a371efd63c1
     Pseudo is Ultrasoft + core correction, Zval =  4.0
     Generated by new atomic code, or converted to UPF format
     Using radial grid of  899 points,  6 beta functions with: 
                l(1) =   0
                l(2) =   0
                l(3) =   1
                l(4) =   1
                l(5) =   2
                l(6) =   2
     Q(r) pseudized with  8 coefficients,  rinner =    0.900   0.900   0.900
                                                       0.900   0.900

     Mode symmetry, C_s (m)     point group:


     Atomic displacements:
     There are   6 irreducible representations

     Representation     1      1 modes -A'  To be done

     Representation     2      1 modes -A'  To be done

     Representation     3      1 modes -A'  To be done

     Representation     4      1 modes -A'  To be done

     Representation     5      1 modes -A''  To be done

     Representation     6      1 modes -A''  To be done



     Alpha used in Ewald sum =   0.7000
     PHONON       :    27.47s CPU        28.67s WALL



     Representation #  1 mode #   1

     Self-consistent Calculation

      iter #   1 total cpu time :    29.2 secs   av.it.:   5.3
      thresh= 1.000E-02 alpha_mix =  0.700 |ddv_scf|^2 =  6.176E-05

      iter #   2 total cpu time :    29.8 secs   av.it.:   8.9
      thresh= 7.859E-04 alpha_mix =  0.700 |ddv_scf|^2 =  1.606E-04

      iter #   3 total cpu time :    30.4 secs   av.it.:   7.5
      thresh= 1.267E-03 alpha_mix =  0.700 |ddv_scf|^2 =  1.143E-06

      iter #   4 total cpu time :    31.0 secs   av.it.:   8.4
      thresh= 1.069E-04 alpha_mix =  0.700 |ddv_scf|^2 =  5.358E-08

      iter #   5 total cpu time :    31.6 secs   av.it.:   8.3
      thresh= 2.315E-05 alpha_mix =  0.700 |ddv_scf|^2 =  7.107E-09

      iter #   6 total cpu time :    32.3 secs   av.it.:   8.5
      thresh= 8.431E-06 alpha_mix =  0.700 |ddv_scf|^2 =  7.472E-11

      iter #   7 total cpu time :    32.9 secs   av.it.:   8.7
      thresh= 8.644E-07 alpha_mix =  0.700 |ddv_scf|^2 =  2.686E-12

      iter #   8 total cpu time :    33.6 secs   av.it.:   8.6
      thresh= 1.639E-07 alpha_mix =  0.700 |ddv_scf|^2 =  2.020E-13

     End of self-consistent calculation

     Convergence has been achieved 


     Representation #  2 mode #   2

     Self-consistent Calculation

      iter #   1 total cpu time :    34.1 secs   av.it.:   5.4
      thresh= 1.000E-02 alpha_mix =  0.700 |ddv_scf|^2 =  1.102E-04

      iter #   2 total cpu time :    34.7 secs   av.it.:   8.7
      thresh= 1.050E-03 alpha_mix =  0.700 |ddv_scf|^2 =  3.127E-04

      iter #   3 total cpu time :    35.3 secs   av.it.:   7.4
      thresh= 1.768E-03 alpha_mix =  0.700 |ddv_scf|^2 =  7.726E-07

      iter #   4 total cpu time :    35.9 secs   av.it.:   8.5
      thresh= 8.790E-05 alpha_mix =  0.700 |ddv_scf|^2 =  5.345E-08

      iter #   5 total cpu time :    36.6 secs   av.it.:   8.2
      thresh= 2.312E-05 alpha_mix =  0.700 |ddv_scf|^2 =  9.845E-09

      iter #   6 total cpu time :    37.2 secs   av.it.:   8.4
      thresh= 9.922E-06 alpha_mix =  0.700 |ddv_scf|^2 =  7.611E-11

      iter #   7 total cpu time :    37.8 secs   av.it.:   8.8
      thresh= 8.724E-07 alpha_mix =  0.700 |ddv_scf|^2 =  2.508E-12

      iter #   8 total cpu time :    38.5 secs   av.it.:   8.7
      thresh= 1.584E-07 alpha_mix =  0.700 |ddv_scf|^2 =  7.694E-13

     End of self-consistent calculation

     Convergence has been achieved 


     Representation #  3 mode #   3

     Self-consistent Calculation

      iter #   1 total cpu time :    39.0 secs   av.it.:   5.3
      thresh= 1.000E-02 alpha_mix =  0.700 |ddv_scf|^2 =  8.647E-05

      iter #   2 total cpu time :    39.7 secs   av.it.:   8.7
      thresh= 9.299E-04 alpha_mix =  0.700 |ddv_scf|^2 =  2.300E-04

      iter #   3 total cpu time :    40.2 secs   av.it.:   7.4
      thresh= 1.516E-03 alpha_mix =  0.700 |ddv_scf|^2 =  1.323E-06

      iter #   4 total cpu time :    40.8 secs   av.it.:   8.2
      thresh= 1.150E-04 alpha_mix =  0.700 |ddv_scf|^2 =  5.459E-08

      iter #   5 total cpu time :    41.5 secs   av.it.:   8.4
      thresh= 2.336E-05 alpha_mix =  0.700 |ddv_scf|^2 =  1.001E-08

      iter #   6 total cpu time :    42.1 secs   av.it.:   8.4
      thresh= 1.000E-05 alpha_mix =  0.700 |ddv_scf|^2 =  4.530E-11

      iter #   7 total cpu time :    42.7 secs   av.it.:   8.7
      thresh= 6.730E-07 alpha_mix =  0.700 |ddv_scf|^2 =  1.584E-12

      iter #   8 total cpu time :    43.4 secs   av.it.:   8.8
      thresh= 1.259E-07 alpha_mix =  0.700 |ddv_scf|^2 =  3.390E-13

     End of self-consistent calculation

     Convergence has been achieved 


     Representation #  4 mode #   4

     Self-consistent Calculation

      iter #   1 total cpu time :    43.9 secs   av.it.:   5.2
      thresh= 1.000E-02 alpha_mix =  0.700 |ddv_scf|^2 =  3.803E-05

      iter #   2 total cpu time :    44.6 secs   av.it.:   8.9
[...]
        k(   59) = (  -0.8750000   0.1250000  -0.1250000), wk =   0.0625000
        k(   60) = (  -1.3750000  -0.8750000  -0.1250000), wk =   0.0000000
        k(   61) = (  -1.1250000   0.3750000  -0.3750000), wk =   0.0625000
        k(   62) = (  -1.6250000  -0.6250000  -0.3750000), wk =   0.0000000
        k(   63) = (  -0.3750000   0.3750000   1.1250000), wk =   0.0625000
        k(   64) = (  -0.8750000  -0.6250000   1.1250000), wk =   0.0000000

     Dense  grid:     2741 G-vectors     FFT dimensions: (  20,  20,  20)

     Estimated max dynamical RAM per process >       0.32MB

     Estimated total allocated dynamical RAM >       1.30MB

     Check: negative/imaginary core charge=   -0.000005    0.000000

     The potential is recalculated from file :
     ./_ph0/silicon.10.29.save/charge-density.dat

     Starting wfc are    8 atomic wfcs

     Band Structure Calculation
     Davidson diagonalization with overlap

     ethr =  1.25E-10,  avg # of iterations = 11.6

     total cpu time spent up to now is        5.8 secs

     End of band structure calculation

          k =-0.1250 0.1250 0.1250 (   335 PWs)   bands (ev):

    -5.5841   4.5186   5.8269   5.8269

          k =-0.6250-0.8750 0.1250 (   356 PWs)   bands (ev):

    -2.3533  -0.8009   2.1006   3.1863

          k =-0.3750 0.3750-0.1250 (   348 PWs)   bands (ev):

    -4.5481   1.5051   3.8243   5.3418

          k =-0.8750-0.6250-0.1250 (   356 PWs)   bands (ev):

    -2.3533  -0.8009   2.1006   3.1863

          k = 0.3750-0.3750 0.6250 (   354 PWs)   bands (ev):

    -3.3954  -0.5947   3.8490   4.5620

          k =-0.1250-1.3750 0.6250 (   358 PWs)   bands (ev):

    -2.8953  -0.5016   2.1630   4.2414

          k = 0.1250-0.1250 0.3750 (   344 PWs)   bands (ev):

    -5.0517   2.8948   4.8069   4.8785

          k =-0.3750-1.1250 0.3750 (   358 PWs)   bands (ev):

    -2.8953  -0.5016   2.1630   4.2414

          k =-0.1250 0.6250 0.1250 (   345 PWs)   bands (ev):

    -4.0103   1.1781   3.4699   3.9239

          k =-0.6250-0.3750 0.1250 (   350 PWs)   bands (ev):

    -3.5901   0.2921   2.8250   4.2023

          k = 0.6250-0.1250 0.8750 (   356 PWs)   bands (ev):

    -2.3533  -0.8009   2.1006   3.1863

          k = 0.1250-1.1250 0.8750 (   352 PWs)   bands (ev):

    -2.5243  -0.7010   2.7155   3.4526

          k = 0.3750 0.1250 0.6250 (   350 PWs)   bands (ev):

    -3.5901   0.2921   2.8250   4.2023

          k =-0.1250-0.8750 0.6250 (   356 PWs)   bands (ev):

    -2.3533  -0.8009   2.1006   3.1863

          k =-0.1250-0.8750 0.1250 (   352 PWs)   bands (ev):

    -2.5243  -0.7010   2.7155   3.4526

          k =-0.6250-1.8750 0.1250 (   345 PWs)   bands (ev):

    -4.0103   1.1781   3.4699   3.9239

          k =-0.3750 0.3750 0.3750 (   353 PWs)   bands (ev):

    -4.1110   0.2001   5.0319   5.0319

          k =-0.8750-0.6250 0.3750 (   350 PWs)   bands (ev):

    -3.5901   0.2921   2.8250   4.2023

          k = 0.3750-0.3750 1.1250 (   358 PWs)   bands (ev):

    -2.8953  -0.5016   2.1630   4.2414

          k =-0.1250-1.3750 1.1250 (   356 PWs)   bands (ev):

    -2.3533  -0.8009   2.1006   3.1863

          k = 0.1250-0.3750 0.3750 (   348 PWs)   bands (ev):

    -4.5481   1.5051   3.8243   5.3418

          k =-0.3750-1.3750 0.3750 (   354 PWs)   bands (ev):

    -3.3954  -0.5947   3.8490   4.5620

          k = 0.3750-0.3750-0.1250 (   348 PWs)   bands (ev):

    -4.5481   1.5051   3.8243   5.3418

          k =-0.1250-1.3750-0.1250 (   345 PWs)   bands (ev):

    -4.0103   1.1781   3.4699   3.9239

          k =-0.6250 0.3750-0.3750 (   354 PWs)   bands (ev):

    -3.3954  -0.5947   3.8490   4.5620

          k =-1.1250-0.6250-0.3750 (   350 PWs)   bands (ev):

    -3.5901   0.2921   2.8250   4.2023

          k =-0.3750 0.3750 0.6250 (   354 PWs)   bands (ev):

    -3.3954  -0.5947   3.8490   4.5620

          k =-0.8750-0.6250 0.6250 (   348 PWs)   bands (ev):

    -4.5481   1.5051   3.8243   5.3418

          k =-0.3750 0.1250-0.1250 (   344 PWs)   bands (ev):

    -5.0517   2.8948   4.8069   4.8785

          k =-0.8750-0.8750-0.1250 (   352 PWs)   bands (ev):

    -2.5243  -0.7010   2.7155   3.4526

          k =-0.1250 0.1250 0.3750 (   344 PWs)   bands (ev):

    -5.0517   2.8948   4.8069   4.8785

          k =-0.6250-0.8750 0.3750 (   350 PWs)   bands (ev):

    -3.5901   0.2921   2.8250   4.2023

          k = 0.1250 0.6250-0.1250 (   345 PWs)   bands (ev):

    -4.0103   1.1781   3.4699   3.9239

          k =-0.3750-0.3750-0.1250 (   348 PWs)   bands (ev):

    -4.5481   1.5051   3.8243   5.3418

          k = 0.6250 0.1250-0.1250 (   345 PWs)   bands (ev):

    -4.0103   1.1781   3.4699   3.9239

          k = 0.1250-0.8750-0.1250 (   352 PWs)   bands (ev):

    -2.5243  -0.7010   2.7155   3.4526

          k =-0.8750 0.1250-0.6250 (   356 PWs)   bands (ev):

    -2.3533  -0.8009   2.1006   3.1863

          k =-1.3750-0.8750-0.6250 (   348 PWs)   bands (ev):

    -4.5481   1.5051   3.8243   5.3418

          k = 0.8750-0.1250 0.6250 (   356 PWs)   bands (ev):

    -2.3533  -0.8009   2.1006   3.1863

          k = 0.3750-1.1250 0.6250 (   350 PWs)   bands (ev):

    -3.5901   0.2921   2.8250   4.2023

          k =-0.6250 0.1250 0.8750 (   356 PWs)   bands (ev):

    -2.3533  -0.8009   2.1006   3.1863

          k =-1.1250-0.8750 0.8750 (   335 PWs)   bands (ev):

    -5.5841   4.5186   5.8269   5.8269

          k =-0.1250 0.8750 0.6250 (   356 PWs)   bands (ev):

    -2.3533  -0.8009   2.1006   3.1863

          k =-0.6250-0.1250 0.6250 (   358 PWs)   bands (ev):

    -2.8953  -0.5016   2.1630   4.2414

          k = 0.1250 0.8750-0.6250 (   356 PWs)   bands (ev):

    -2.3533  -0.8009   2.1006   3.1863

          k =-0.3750-0.1250-0.6250 (   350 PWs)   bands (ev):

    -3.5901   0.2921   2.8250   4.2023

          k =-0.6250-0.1250-0.3750 (   350 PWs)   bands (ev):

    -3.5901   0.2921   2.8250   4.2023

          k =-1.1250-1.1250-0.3750 (   345 PWs)   bands (ev):

    -4.0103   1.1781   3.4699   3.9239

          k = 0.6250 0.1250 0.3750 (   350 PWs)   bands (ev):

    -3.5901   0.2921   2.8250   4.2023

          k = 0.1250-0.8750 0.3750 (   356 PWs)   bands (ev):

    -2.3533  -0.8009   2.1006   3.1863

          k =-0.3750-0.1250 0.6250 (   350 PWs)   bands (ev):

    -3.5901   0.2921   2.8250   4.2023

          k =-0.8750-1.1250 0.6250 (   344 PWs)   bands (ev):

    -5.0517   2.8948   4.8069   4.8785

          k = 0.1250 0.6250 0.3750 (   350 PWs)   bands (ev):

    -3.5901   0.2921   2.8250   4.2023

          k =-0.3750-0.3750 0.3750 (   353 PWs)   bands (ev):

    -4.1110   0.2001   5.0319   5.0319

          k =-0.1250 0.6250-0.3750 (   350 PWs)   bands (ev):

    -3.5901   0.2921   2.8250   4.2023

          k =-0.6250-0.3750-0.3750 (   354 PWs)   bands (ev):

    -3.3954  -0.5947   3.8490   4.5620

          k = 0.1250-0.8750-0.1250 (   352 PWs)   bands (ev):

    -2.5243  -0.7010   2.7155   3.4526

          k =-0.3750-1.8750-0.1250 (   344 PWs)   bands (ev):

    -5.0517   2.8948   4.8069   4.8785

          k =-0.8750 0.1250-0.1250 (   352 PWs)   bands (ev):

    -2.5243  -0.7010   2.7155   3.4526

          k =-1.3750-0.8750-0.1250 (   356 PWs)   bands (ev):

    -2.3533  -0.8009   2.1006   3.1863

          k =-1.1250 0.3750-0.3750 (   358 PWs)   bands (ev):

    -2.8953  -0.5016   2.1630   4.2414

          k =-1.6250-0.6250-0.3750 (   354 PWs)   bands (ev):

    -3.3954  -0.5947   3.8490   4.5620

          k =-0.3750 0.3750 1.1250 (   358 PWs)   bands (ev):

    -2.8953  -0.5016   2.1630   4.2414

          k =-0.8750-0.6250 1.1250 (   344 PWs)   bands (ev):

    -5.0517   2.8948   4.8069   4.8785

     highest occupied level (ev):     5.8269

     Writing output data file silicon.10.29.save

                                                                                

     bravais-lattice index     =            2
     lattice parameter (alat)  =      10.2900  a.u.
     unit-cell volume          =     272.3868 (a.u.)^3
     number of atoms/cell      =            2
     number of atomic types    =            1
     kinetic-energy cut-off    =      18.0000  Ry
     charge density cut-off    =      72.0000  Ry
     convergence threshold     =      1.0E-12
     beta                      =       0.7000
     number of iterations used =            4
     Exchange-correlation      = SLA  PW   PBE  PBE ( 1  4  3  4 0 0)


     celldm(1)=   10.29000  celldm(2)=    0.00000  celldm(3)=    0.00000
     celldm(4)=    0.00000  celldm(5)=    0.00000  celldm(6)=    0.00000

     crystal axes: (cart. coord. in units of alat)
               a(1) = ( -0.5000  0.0000  0.5000 )  
               a(2) = (  0.0000  0.5000  0.5000 )  
               a(3) = ( -0.5000  0.5000  0.0000 )  

     reciprocal axes: (cart. coord. in units 2 pi/alat)
               b(1) = ( -1.0000 -1.0000  1.0000 )  
               b(2) = (  1.0000  1.0000  1.0000 )  
               b(3) = ( -1.0000  1.0000 -1.0000 )  


     Atoms inside the unit cell: 

     Cartesian axes

     site n.  atom      mass           positions (alat units)
        1     Si  28.0860   tau(    1) = (    0.00000    0.00000    0.00000  )
        2     Si  28.0860   tau(    2) = (    0.25000    0.25000    0.25000  )

     Computing dynamical matrix for 
                    q = (  -0.5000000  -1.0000000   0.0000000 )

      8 Sym.Ops. (no q -> -q+G )


     G cutoff =  193.1094  (    685 G-vectors)     FFT grid: ( 20, 20, 20)
     number of k points=    64

     PseudoPot. # 1 for Si read from file:
     /home/max/quantum_espresso/qe-6.1/pseudo/si_pbe_v1.uspp.F.UPF.txt
     MD5 check sum: a056efeee980c13900f22a371efd63c1
     Pseudo is Ultrasoft + core correction, Zval =  4.0
     Generated by new atomic code, or converted to UPF format
     Using radial grid of  899 points,  6 beta functions with: 
                l(1) =   0
                l(2) =   0
                l(3) =   1
                l(4) =   1
                l(5) =   2
                l(6) =   2
     Q(r) pseudized with  8 coefficients,  rinner =    0.900   0.900   0.900
                                                       0.900   0.900


     Atomic displacements:
     There are   3 irreducible representations

     Representation     1      2 modes -  To be done

     Representation     2      2 modes -  To be done

     Representation     3      2 modes -  To be done



     Alpha used in Ewald sum =   0.7000
     PHONON       :  1m 8.50s CPU     1m11.58s WALL



     Representation #  1 modes #   1  2

     Self-consistent Calculation

      iter #   1 total cpu time :    71.8 secs   av.it.:   5.3
      thresh= 1.000E-02 alpha_mix =  0.700 |ddv_scf|^2 =  6.408E-06

      iter #   2 total cpu time :    72.2 secs   av.it.:   9.8
      thresh= 2.531E-04 alpha_mix =  0.700 |ddv_scf|^2 =  3.484E-06

      iter #   3 total cpu time :    72.5 secs   av.it.:   9.2
      thresh= 1.867E-04 alpha_mix =  0.700 |ddv_scf|^2 =  8.226E-09

      iter #   4 total cpu time :    72.8 secs   av.it.:   9.1
      thresh= 9.070E-06 alpha_mix =  0.700 |ddv_scf|^2 =  1.893E-11

      iter #   5 total cpu time :    73.1 secs   av.it.:   9.1
      thresh= 4.351E-07 alpha_mix =  0.700 |ddv_scf|^2 =  5.243E-13

     End of self-consistent calculation

     Convergence has been achieved 


     Representation #  2 modes #   3  4

     Self-consistent Calculation

      iter #   1 total cpu time :    73.3 secs   av.it.:   5.2
      thresh= 1.000E-02 alpha_mix =  0.700 |ddv_scf|^2 =  9.889E-06

      iter #   2 total cpu time :    73.7 secs   av.it.:   9.9
      thresh= 3.145E-04 alpha_mix =  0.700 |ddv_scf|^2 =  1.300E-05

      iter #   3 total cpu time :    74.0 secs   av.it.:   9.1
      thresh= 3.605E-04 alpha_mix =  0.700 |ddv_scf|^2 =  9.607E-09

      iter #   4 total cpu time :    74.3 secs   av.it.:   8.9
      thresh= 9.802E-06 alpha_mix =  0.700 |ddv_scf|^2 =  7.394E-11

      iter #   5 total cpu time :    74.6 secs   av.it.:   9.4
      thresh= 8.599E-07 alpha_mix =  0.700 |ddv_scf|^2 =  1.656E-12

      iter #   6 total cpu time :    74.9 secs   av.it.:   9.1
      thresh= 1.287E-07 alpha_mix =  0.700 |ddv_scf|^2 =  1.396E-14

     End of self-consistent calculation

     Convergence has been achieved 


     Representation #  3 modes #   5  6

     Self-consistent Calculation

      iter #   1 total cpu time :    75.1 secs   av.it.:   5.1
      thresh= 1.000E-02 alpha_mix =  0.700 |ddv_scf|^2 =  2.677E-06

      iter #   2 total cpu time :    75.5 secs   av.it.:   9.7
      thresh= 1.636E-04 alpha_mix =  0.700 |ddv_scf|^2 =  1.469E-06

      iter #   3 total cpu time :    75.8 secs   av.it.:   9.1
      thresh= 1.212E-04 alpha_mix =  0.700 |ddv_scf|^2 =  8.084E-09

      iter #   4 total cpu time :    76.1 secs   av.it.:   8.8
      thresh= 8.991E-06 alpha_mix =  0.700 |ddv_scf|^2 =  4.230E-11

      iter #   5 total cpu time :    76.4 secs   av.it.:   9.1
      thresh= 6.504E-07 alpha_mix =  0.700 |ddv_scf|^2 =  7.003E-13

     End of self-consistent calculation

     Convergence has been achieved 

     Number of q in the star =    6
     List of q in the star:
          1  -0.500000000  -1.000000000   0.000000000
          2   0.000000000   1.000000000   0.500000000
          3   0.000000000  -1.000000000  -0.500000000
          4   0.500000000   1.000000000   0.000000000
          5  -1.000000000  -0.500000000   0.000000000
          6   0.000000000  -0.500000000  -1.000000000

     Diagonalizing the dynamical matrix

     q = (   -0.500000000  -1.000000000   0.000000000 ) 

 **************************************************************************
     freq (    1) =       6.905329 [THz] =     230.336971 [cm-1]
     freq (    2) =       6.905329 [THz] =     230.336971 [cm-1]
     freq (    3) =      10.894232 [THz] =     363.392469 [cm-1]
     freq (    4) =      10.894232 [THz] =     363.392469 [cm-1]
     freq (    5) =      14.011166 [THz] =     467.362179 [cm-1]
     freq (    6) =      14.011166 [THz] =     467.362179 [cm-1]
 **************************************************************************

     init_run     :      0.52s CPU      0.53s WALL (       7 calls)
     electrons    :      4.39s CPU      4.57s WALL (       7 calls)

     Called by init_run:
     wfcinit      :      0.00s CPU      0.00s WALL (       7 calls)
     potinit      :      0.02s CPU      0.02s WALL (       7 calls)

     Called by electrons:
     c_bands      :      4.38s CPU      4.55s WALL (       7 calls)
     v_of_rho     :      0.01s CPU      0.01s WALL (       8 calls)
     newd         :      0.03s CPU      0.03s WALL (       8 calls)

     Called by c_bands:
     init_us_2    :      0.65s CPU      0.68s WALL (   17588 calls)
     cegterg      :      3.69s CPU      3.83s WALL (     796 calls)

     Called by sum_band:

     Called by *egterg:
     h_psi        :     40.67s CPU     42.57s WALL (  152137 calls)
     s_psi        :      5.64s CPU      5.91s WALL (  308994 calls)
     g_psi        :      0.03s CPU      0.03s WALL (    9268 calls)
     cdiaghg      :      0.43s CPU      0.45s WALL (   10064 calls)

     Called by h_psi:
     h_psi:pot    :     40.49s CPU     42.38s WALL (  152137 calls)
     h_psi:calbec :      3.91s CPU      4.10s WALL (  152137 calls)
     vloc_psi     :     33.55s CPU     35.12s WALL (  152137 calls)
     add_vuspsi   :      2.82s CPU      2.95s WALL (  152137 calls)

     General routines
     calbec       :      8.66s CPU      9.06s WALL (  345366 calls)
     fft          :      0.26s CPU      0.28s WALL (    5239 calls)
     ffts         :      0.13s CPU      0.13s WALL (    2748 calls)
     fftw         :     38.76s CPU     40.56s WALL ( 1377154 calls)
     davcio       :      0.29s CPU      0.31s WALL (   79045 calls)

     Parallel routines
     fft_scatter  :      6.99s CPU      7.35s WALL ( 1385141 calls)

     PHONON       :  1m13.13s CPU     1m16.40s WALL

     INITIALIZATION: 
     phq_setup    :      0.05s CPU      0.05s WALL (       8 calls)
     phq_init     :      1.90s CPU      1.93s WALL (       8 calls)

     phq_init     :      1.90s CPU      1.93s WALL (       8 calls)
     set_drhoc    :      0.28s CPU      0.28s WALL (      24 calls)
     init_vloc    :      0.01s CPU      0.01s WALL (       8 calls)
     init_us_1    :      0.47s CPU      0.48s WALL (       8 calls)
     newd         :      0.03s CPU      0.03s WALL (       8 calls)
     dvanqq       :      0.23s CPU      0.23s WALL (       8 calls)
     drho         :      0.97s CPU      0.99s WALL (       8 calls)

     DYNAMICAL MATRIX:
     dynmat0      :      0.47s CPU      0.48s WALL (       8 calls)
     phqscf       :     63.91s CPU     66.87s WALL (       8 calls)
     dynmatrix    :      0.01s CPU      0.02s WALL (       8 calls)

     phqscf       :     63.91s CPU     66.87s WALL (       8 calls)
     solve_linter :     63.24s CPU     66.17s WALL (      32 calls)
     drhodv       :      0.48s CPU      0.49s WALL (      32 calls)

     dynmat0      :      0.47s CPU      0.48s WALL (       8 calls)
     dynmat_us    :      0.26s CPU      0.26s WALL (       8 calls)
     d2ionq       :      0.01s CPU      0.01s WALL (       8 calls)
     dynmatcc     :      0.20s CPU      0.20s WALL (       8 calls)

     dynmat_us    :      0.26s CPU      0.26s WALL (       8 calls)
     addusdynmat  :      0.00s CPU      0.00s WALL (       8 calls)

     phqscf       :     63.91s CPU     66.87s WALL (       8 calls)
     solve_linter :     63.24s CPU     66.17s WALL (      32 calls)

     solve_linter :     63.24s CPU     66.17s WALL (      32 calls)
     dvqpsi_us    :      1.57s CPU      1.64s WALL (    2508 calls)
     ortho        :      0.90s CPU      0.94s WALL (   15550 calls)
     cgsolve      :     49.48s CPU     51.82s WALL (   15550 calls)
     incdrhoscf   :      4.35s CPU      4.55s WALL (   15550 calls)
     addusddens   :      1.05s CPU      1.07s WALL (     228 calls)
     vpsifft      :      3.18s CPU      3.34s WALL (   12922 calls)
     dv_of_drho   :      0.19s CPU      0.20s WALL (     295 calls)
     mix_pot      :      0.05s CPU      0.06s WALL (     201 calls)
     psymdvscf    :      0.80s CPU      0.81s WALL (     196 calls)
     newdq        :      1.14s CPU      1.17s WALL (     201 calls)
     adddvscf     :      0.45s CPU      0.48s WALL (   13042 calls)
     drhodvus     :      0.00s CPU      0.00s WALL (      32 calls)

     dvqpsi_us    :      1.57s CPU      1.64s WALL (    2508 calls)
     dvqpsi_us_on :      0.81s CPU      0.84s WALL (    2508 calls)

     cgsolve      :     49.48s CPU     51.82s WALL (   15550 calls)
     ch_psi       :     48.08s CPU     50.35s WALL (  141277 calls)

     ch_psi       :     48.08s CPU     50.35s WALL (  141277 calls)
     h_psi        :     40.67s CPU     42.57s WALL (  152137 calls)
     last         :      7.50s CPU      7.85s WALL (  141277 calls)

     h_psi        :     40.67s CPU     42.57s WALL (  152137 calls)
     add_vuspsi   :      2.82s CPU      2.95s WALL (  152137 calls)

     incdrhoscf   :      4.35s CPU      4.55s WALL (   15550 calls)
     addusdbec    :      0.57s CPU      0.60s WALL (   17998 calls)

     drhodvus     :      0.00s CPU      0.00s WALL (      32 calls)

      General routines
     calbec       :      8.66s CPU      9.06s WALL (  345366 calls)
     fft          :      0.26s CPU      0.28s WALL (    5239 calls)
     ffts         :      0.13s CPU      0.13s WALL (    2748 calls)
     fftw         :     38.76s CPU     40.56s WALL ( 1377154 calls)
     davcio       :      0.29s CPU      0.31s WALL (   79045 calls)
     write_rec    :      0.20s CPU      0.22s WALL (     233 calls)


     PHONON       :  1m13.13s CPU     1m16.40s WALL


   This run was terminated on:   1:18:17   9Nov2017            

=------------------------------------------------------------------------------=
   JOB DONE.
=------------------------------------------------------------------------------=
