
     Program PHONON v.6.1 (svn rev. 13369) starts on  9Nov2017 at  1:18:26 

     This program is part of the open-source Quantum ESPRESSO suite
     for quantum simulation of materials; please cite
         "P. Giannozzi et al., J. Phys.:Condens. Matter 21 395502 (2009);
          URL http://www.quantum-espresso.org", 
     in publications or presentations arising from this work. More details at
     http://www.quantum-espresso.org/quote

     Parallel version (MPI), running on     4 processors
     R & G space division:  proc/nbgrp/npool/nimage =       4

     Reading data from directory:
     ./silicon.10.30.save

   Info: using nr1, nr2, nr3 values from input

   Info: using nr1, nr2, nr3 values from input

     IMPORTANT: XC functional enforced from input :
     Exchange-correlation      = SLA  PW   PBE  PBE ( 1  4  3  4 0 0)
     Any further DFT definition will be discarded
     Please, verify this is what you really want


     Parallelization info
     --------------------
     sticks:   dense  smooth     PW     G-vecs:    dense   smooth      PW
     Min          63      63     22                  684      684     140
     Max          64      64     23                  688      688     141
     Sum         253     253     91                 2741     2741     561


     Check: negative/imaginary core charge=   -0.000005    0.000000


     Dynamical matrices for ( 4, 4, 4)  uniform grid of q-points
     (   8q-points):
       N         xq(1)         xq(2)         xq(3) 
       1   0.000000000   0.000000000   0.000000000
       2  -0.250000000   0.250000000  -0.250000000
       3   0.500000000  -0.500000000   0.500000000
       4   0.000000000   0.500000000   0.000000000
       5   0.750000000  -0.250000000   0.750000000
       6   0.500000000   0.000000000   0.500000000
       7   0.000000000  -1.000000000   0.000000000
       8  -0.500000000  -1.000000000   0.000000000

     Calculation of q =    0.0000000   0.0000000   0.0000000

                                                                                

     bravais-lattice index     =            2
     lattice parameter (alat)  =      10.3000  a.u.
     unit-cell volume          =     273.1818 (a.u.)^3
     number of atoms/cell      =            2
     number of atomic types    =            1
     kinetic-energy cut-off    =      18.0000  Ry
     charge density cut-off    =      72.0000  Ry
     convergence threshold     =      1.0E-12
     beta                      =       0.7000
     number of iterations used =            4
     Exchange-correlation      = SLA  PW   PBE  PBE ( 1  4  3  4 0 0)


     celldm(1)=   10.30000  celldm(2)=    0.00000  celldm(3)=    0.00000
     celldm(4)=    0.00000  celldm(5)=    0.00000  celldm(6)=    0.00000

     crystal axes: (cart. coord. in units of alat)
               a(1) = ( -0.5000  0.0000  0.5000 )  
               a(2) = (  0.0000  0.5000  0.5000 )  
               a(3) = ( -0.5000  0.5000  0.0000 )  

     reciprocal axes: (cart. coord. in units 2 pi/alat)
               b(1) = ( -1.0000 -1.0000  1.0000 )  
               b(2) = (  1.0000  1.0000  1.0000 )  
               b(3) = ( -1.0000  1.0000 -1.0000 )  


     Atoms inside the unit cell: 

     Cartesian axes

     site n.  atom      mass           positions (alat units)
        1     Si  28.0860   tau(    1) = (    0.00000    0.00000    0.00000  )
        2     Si  28.0860   tau(    2) = (    0.25000    0.25000    0.25000  )

     Computing dynamical matrix for 
                    q = (   0.0000000   0.0000000   0.0000000 )

     49 Sym.Ops. (with q -> -q+G )


     G cutoff =  193.4850  (    685 G-vectors)     FFT grid: ( 20, 20, 20)
     number of k points=    10

     PseudoPot. # 1 for Si read from file:
     /home/max/quantum_espresso/qe-6.1/pseudo/si_pbe_v1.uspp.F.UPF.txt
     MD5 check sum: a056efeee980c13900f22a371efd63c1
     Pseudo is Ultrasoft + core correction, Zval =  4.0
     Generated by new atomic code, or converted to UPF format
     Using radial grid of  899 points,  6 beta functions with: 
                l(1) =   0
                l(2) =   0
                l(3) =   1
                l(4) =   1
                l(5) =   2
                l(6) =   2
     Q(r) pseudized with  8 coefficients,  rinner =    0.900   0.900   0.900
                                                       0.900   0.900

     Mode symmetry, O_h (m-3m)  point group:


     Electric field:
     Dielectric constant
     Born effective charges in two ways 


     Atomic displacements:
     There are   2 irreducible representations

     Representation     1      3 modes -T_2g G_25' G_5+  To be done

     Representation     2      3 modes -T_1u G_15  G_4-  To be done



     Alpha used in Ewald sum =   0.7000
     PHONON       :     0.40s CPU         0.40s WALL


     Electric Fields Calculation

      iter #   1 total cpu time :     0.8 secs   av.it.:   5.5
      thresh= 1.000E-02 alpha_mix =  0.700 |ddv_scf|^2 =  9.047E-07

      iter #   2 total cpu time :     1.0 secs   av.it.:   9.9
      thresh= 9.512E-05 alpha_mix =  0.700 |ddv_scf|^2 =  5.508E-08

      iter #   3 total cpu time :     1.1 secs   av.it.:   9.8
      thresh= 2.347E-05 alpha_mix =  0.700 |ddv_scf|^2 =  4.184E-09

      iter #   4 total cpu time :     1.3 secs   av.it.:   9.0
      thresh= 6.468E-06 alpha_mix =  0.700 |ddv_scf|^2 =  2.418E-11

      iter #   5 total cpu time :     1.5 secs   av.it.:   9.1
      thresh= 4.918E-07 alpha_mix =  0.700 |ddv_scf|^2 =  1.305E-14

     End of electric fields calculation

          Dielectric constant in cartesian axis 

          (      13.806833792       0.000000000      -0.000000000 )
          (       0.000000000      13.806833792       0.000000000 )
          (      -0.000000000       0.000000000      13.806833792 )

          Effective charges (d Force / dE) in cartesian axis

           atom      1   Si 
      Ex  (       -0.03165        0.00000       -0.00000 )
      Ey  (       -0.00000       -0.03165       -0.00000 )
      Ez  (       -0.00000        0.00000       -0.03165 )
           atom      2   Si 
      Ex  (       -0.03165       -0.00000       -0.00000 )
      Ey  (       -0.00000       -0.03165        0.00000 )
      Ez  (       -0.00000        0.00000       -0.03165 )


     Representation #  1 modes #   1  2  3

     Self-consistent Calculation

      iter #   1 total cpu time :     1.8 secs   av.it.:   5.0
      thresh= 1.000E-02 alpha_mix =  0.700 |ddv_scf|^2 =  2.212E-07

      iter #   2 total cpu time :     2.0 secs   av.it.:   9.8
      thresh= 4.704E-05 alpha_mix =  0.700 |ddv_scf|^2 =  1.357E-08

      iter #   3 total cpu time :     2.2 secs   av.it.:   9.3
      thresh= 1.165E-05 alpha_mix =  0.700 |ddv_scf|^2 =  8.440E-10

      iter #   4 total cpu time :     2.4 secs   av.it.:   9.0
      thresh= 2.905E-06 alpha_mix =  0.700 |ddv_scf|^2 =  1.850E-12

      iter #   5 total cpu time :     2.5 secs   av.it.:   9.4
      thresh= 1.360E-07 alpha_mix =  0.700 |ddv_scf|^2 =  1.213E-14

     End of self-consistent calculation

     Convergence has been achieved 


     Representation #  2 modes #   4  5  6

     Self-consistent Calculation

      iter #   1 total cpu time :     2.8 secs   av.it.:   5.0
      thresh= 1.000E-02 alpha_mix =  0.700 |ddv_scf|^2 =  1.686E-07

      iter #   2 total cpu time :     2.9 secs   av.it.:   9.6
      thresh= 4.106E-05 alpha_mix =  0.700 |ddv_scf|^2 =  1.308E-08

      iter #   3 total cpu time :     3.1 secs   av.it.:   9.3
      thresh= 1.144E-05 alpha_mix =  0.700 |ddv_scf|^2 =  8.332E-10

      iter #   4 total cpu time :     3.3 secs   av.it.:   9.5
      thresh= 2.886E-06 alpha_mix =  0.700 |ddv_scf|^2 =  5.000E-12

      iter #   5 total cpu time :     3.5 secs   av.it.:   9.0
      thresh= 2.236E-07 alpha_mix =  0.700 |ddv_scf|^2 =  4.309E-15

     End of self-consistent calculation

     Convergence has been achieved 

     Number of q in the star =    1
     List of q in the star:
          1   0.000000000   0.000000000   0.000000000

          Dielectric constant in cartesian axis 

          (      13.806833792       0.000000000      -0.000000000 )
          (       0.000000000      13.806833792       0.000000000 )
          (      -0.000000000       0.000000000      13.806833792 )

          Effective charges (d Force / dE) in cartesian axis

           atom      1   Si 
      Ex  (       -0.03165        0.00000       -0.00000 )
      Ey  (       -0.00000       -0.03165       -0.00000 )
      Ez  (       -0.00000        0.00000       -0.03165 )
           atom      2   Si 
      Ex  (       -0.03165       -0.00000       -0.00000 )
      Ey  (       -0.00000       -0.03165        0.00000 )
      Ez  (       -0.00000        0.00000       -0.03165 )

          Effective charges (d P / du) in cartesian axis 

           atom      1   Si 
      Px  (       -0.07150        0.00000       -0.00000 )
      Py  (       -0.00000       -0.07150        0.00000 )
      Pz  (       -0.00000        0.00000       -0.07150 )
           atom      2   Si 
      Px  (       -0.07150        0.00000        0.00000 )
      Py  (        0.00000       -0.07150       -0.00000 )
      Pz  (        0.00000       -0.00000       -0.07150 )

     Diagonalizing the dynamical matrix

     q = (    0.000000000   0.000000000   0.000000000 ) 

 **************************************************************************
     freq (    1) =       1.933598 [THz] =      64.497894 [cm-1]
     freq (    2) =       1.933598 [THz] =      64.497894 [cm-1]
     freq (    3) =       1.933598 [THz] =      64.497894 [cm-1]
     freq (    4) =      15.165720 [THz] =     505.873952 [cm-1]
     freq (    5) =      15.165720 [THz] =     505.873952 [cm-1]
     freq (    6) =      15.165720 [THz] =     505.873952 [cm-1]
 **************************************************************************

     Mode symmetry, O_h (m-3m)  point group:

     freq (  1 -  3) =         64.5  [cm-1]   --> T_1u G_15  G_4- I  
     freq (  4 -  6) =        505.9  [cm-1]   --> T_2g G_25' G_5+ R  

     Calculation of q =   -0.2500000   0.2500000  -0.2500000

   Info: using nr1, nr2, nr3 values from input

   Info: using nr1, nr2, nr3 values from input

     Parallelization info
     --------------------
     sticks:   dense  smooth     PW     G-vecs:    dense   smooth      PW
     Min          63      63     24                  684      684     161
     Max          64      64     25                  688      688     162
     Sum         253     253     97                 2741     2741     645



     bravais-lattice index     =            2
     lattice parameter (alat)  =      10.3000  a.u.
     unit-cell volume          =     273.1818 (a.u.)^3
     number of atoms/cell      =            2
     number of atomic types    =            1
     number of electrons       =         8.00
     number of Kohn-Sham states=            4
     kinetic-energy cutoff     =      18.0000  Ry
     charge density cutoff     =      72.0000  Ry
     Exchange-correlation      = SLA  PW   PBE  PBE ( 1  4  3  4 0 0)

     celldm(1)=  10.300000  celldm(2)=   0.000000  celldm(3)=   0.000000
     celldm(4)=   0.000000  celldm(5)=   0.000000  celldm(6)=   0.000000

     crystal axes: (cart. coord. in units of alat)
               a(1) = (  -0.500000   0.000000   0.500000 )  
               a(2) = (   0.000000   0.500000   0.500000 )  
               a(3) = (  -0.500000   0.500000   0.000000 )  

     reciprocal axes: (cart. coord. in units 2 pi/alat)
               b(1) = ( -1.000000 -1.000000  1.000000 )  
               b(2) = (  1.000000  1.000000  1.000000 )  
               b(3) = ( -1.000000  1.000000 -1.000000 )  


     PseudoPot. # 1 for Si read from file:
     /home/max/quantum_espresso/qe-6.1/pseudo/si_pbe_v1.uspp.F.UPF.txt
     MD5 check sum: a056efeee980c13900f22a371efd63c1
     Pseudo is Ultrasoft + core correction, Zval =  4.0
     Generated by new atomic code, or converted to UPF format
     Using radial grid of  899 points,  6 beta functions with: 
                l(1) =   0
                l(2) =   0
                l(3) =   1
                l(4) =   1
                l(5) =   2
                l(6) =   2
     Q(r) pseudized with  8 coefficients,  rinner =    0.900   0.900   0.900
                                                       0.900   0.900

     atomic species   valence    mass     pseudopotential
        Si             4.00    28.08600     Si( 1.00)

     48 Sym. Ops., with inversion, found



   Cartesian axes

     site n.     atom                  positions (alat units)
         1           Si  tau(   1) = (   0.0000000   0.0000000   0.0000000  )
         2           Si  tau(   2) = (   0.2500000   0.2500000   0.2500000  )

     number of k points=   120

     Number of k-points >= 100: set verbosity='high' to print them.

     Dense  grid:     2741 G-vectors     FFT dimensions: (  20,  20,  20)

     Estimated max dynamical RAM per process >       0.33MB

     Estimated total allocated dynamical RAM >       1.30MB

     Check: negative/imaginary core charge=   -0.000005    0.000000

     The potential is recalculated from file :
     ./_ph0/silicon.10.30.save/charge-density.dat

     Starting wfc are    8 atomic wfcs

     Band Structure Calculation
     Davidson diagonalization with overlap

     ethr =  1.25E-10,  avg # of iterations = 11.7

     total cpu time spent up to now is        0.8 secs

     End of band structure calculation

     Number of k-points >= 100: set verbosity='high' to print the bands.

     highest occupied level (ev):     5.7975

     Writing output data file silicon.10.30.save

                                                                                

     bravais-lattice index     =            2
     lattice parameter (alat)  =      10.3000  a.u.
     unit-cell volume          =     273.1818 (a.u.)^3
     number of atoms/cell      =            2
     number of atomic types    =            1
     kinetic-energy cut-off    =      18.0000  Ry
     charge density cut-off    =      72.0000  Ry
     convergence threshold     =      1.0E-12
     beta                      =       0.7000
     number of iterations used =            4
     Exchange-correlation      = SLA  PW   PBE  PBE ( 1  4  3  4 0 0)


     celldm(1)=   10.30000  celldm(2)=    0.00000  celldm(3)=    0.00000
     celldm(4)=    0.00000  celldm(5)=    0.00000  celldm(6)=    0.00000

     crystal axes: (cart. coord. in units of alat)
               a(1) = ( -0.5000  0.0000  0.5000 )  
               a(2) = (  0.0000  0.5000  0.5000 )  
               a(3) = ( -0.5000  0.5000  0.0000 )  

     reciprocal axes: (cart. coord. in units 2 pi/alat)
               b(1) = ( -1.0000 -1.0000  1.0000 )  
               b(2) = (  1.0000  1.0000  1.0000 )  
               b(3) = ( -1.0000  1.0000 -1.0000 )  


     Atoms inside the unit cell: 

     Cartesian axes

     site n.  atom      mass           positions (alat units)
        1     Si  28.0860   tau(    1) = (    0.00000    0.00000    0.00000  )
        2     Si  28.0860   tau(    2) = (    0.25000    0.25000    0.25000  )

     Computing dynamical matrix for 
                    q = (  -0.2500000   0.2500000  -0.2500000 )

      6 Sym.Ops. (no q -> -q+G )


     G cutoff =  193.4850  (    685 G-vectors)     FFT grid: ( 20, 20, 20)
     number of k points=   120

     PseudoPot. # 1 for Si read from file:
     /home/max/quantum_espresso/qe-6.1/pseudo/si_pbe_v1.uspp.F.UPF.txt
     MD5 check sum: a056efeee980c13900f22a371efd63c1
     Pseudo is Ultrasoft + core correction, Zval =  4.0
     Generated by new atomic code, or converted to UPF format
     Using radial grid of  899 points,  6 beta functions with: 
                l(1) =   0
                l(2) =   0
                l(3) =   1
                l(4) =   1
                l(5) =   2
                l(6) =   2
     Q(r) pseudized with  8 coefficients,  rinner =    0.900   0.900   0.900
                                                       0.900   0.900

     Mode symmetry, C_3v (3m)   point group:


     Atomic displacements:
     There are   4 irreducible representations

     Representation     1      1 modes -A_1  L_1  To be done

     Representation     2      1 modes -A_1  L_1  To be done

     Representation     3      2 modes -E    L_3  To be done

     Representation     4      2 modes -E    L_3  To be done



     Alpha used in Ewald sum =   0.7000
     PHONON       :     4.55s CPU         4.70s WALL



     Representation #  1 mode #   1

     Self-consistent Calculation

      iter #   1 total cpu time :     4.9 secs   av.it.:   5.5
      thresh= 1.000E-02 alpha_mix =  0.700 |ddv_scf|^2 =  2.494E-03

      iter #   2 total cpu time :     5.2 secs   av.it.:   7.4
      thresh= 4.994E-03 alpha_mix =  0.700 |ddv_scf|^2 =  3.749E-02

      iter #   3 total cpu time :     5.4 secs   av.it.:   6.3
      thresh= 1.000E-02 alpha_mix =  0.700 |ddv_scf|^2 =  1.705E-06

      iter #   4 total cpu time :     5.6 secs   av.it.:   8.2
      thresh= 1.306E-04 alpha_mix =  0.700 |ddv_scf|^2 =  1.130E-07

      iter #   5 total cpu time :     5.9 secs   av.it.:   8.1
      thresh= 3.362E-05 alpha_mix =  0.700 |ddv_scf|^2 =  4.769E-09

      iter #   6 total cpu time :     6.1 secs   av.it.:   7.9
      thresh= 6.906E-06 alpha_mix =  0.700 |ddv_scf|^2 =  1.266E-08

      iter #   7 total cpu time :     6.3 secs   av.it.:   5.8
      thresh= 1.125E-05 alpha_mix =  0.700 |ddv_scf|^2 =  1.897E-10

      iter #   8 total cpu time :     6.6 secs   av.it.:   7.7
      thresh= 1.377E-06 alpha_mix =  0.700 |ddv_scf|^2 =  4.238E-12

      iter #   9 total cpu time :     6.8 secs   av.it.:   7.1
      thresh= 2.059E-07 alpha_mix =  0.700 |ddv_scf|^2 =  1.577E-13

     End of self-consistent calculation

     Convergence has been achieved 


     Representation #  2 mode #   2

     Self-consistent Calculation

      iter #   1 total cpu time :     7.1 secs   av.it.:   5.5
      thresh= 1.000E-02 alpha_mix =  0.700 |ddv_scf|^2 =  2.494E-03

      iter #   2 total cpu time :     7.3 secs   av.it.:   7.4
      thresh= 4.994E-03 alpha_mix =  0.700 |ddv_scf|^2 =  3.749E-02

      iter #   3 total cpu time :     7.5 secs   av.it.:   6.3
      thresh= 1.000E-02 alpha_mix =  0.700 |ddv_scf|^2 =  1.705E-06

      iter #   4 total cpu time :     7.8 secs   av.it.:   8.2
      thresh= 1.306E-04 alpha_mix =  0.700 |ddv_scf|^2 =  1.130E-07

      iter #   5 total cpu time :     8.0 secs   av.it.:   8.1
      thresh= 3.362E-05 alpha_mix =  0.700 |ddv_scf|^2 =  4.769E-09

      iter #   6 total cpu time :     8.3 secs   av.it.:   7.9
      thresh= 6.906E-06 alpha_mix =  0.700 |ddv_scf|^2 =  1.266E-08

      iter #   7 total cpu time :     8.5 secs   av.it.:   5.8
      thresh= 1.125E-05 alpha_mix =  0.700 |ddv_scf|^2 =  1.897E-10

      iter #   8 total cpu time :     8.7 secs   av.it.:   7.7
      thresh= 1.377E-06 alpha_mix =  0.700 |ddv_scf|^2 =  4.238E-12

      iter #   9 total cpu time :     9.0 secs   av.it.:   7.1
      thresh= 2.059E-07 alpha_mix =  0.700 |ddv_scf|^2 =  1.577E-13

     End of self-consistent calculation

     Convergence has been achieved 


     Representation #  3 modes #   3  4

     Self-consistent Calculation

      iter #   1 total cpu time :     9.4 secs   av.it.:   4.9
      thresh= 1.000E-02 alpha_mix =  0.700 |ddv_scf|^2 =  5.499E-07

      iter #   2 total cpu time :     9.9 secs   av.it.:   9.4
      thresh= 7.416E-05 alpha_mix =  0.700 |ddv_scf|^2 =  4.042E-08

      iter #   3 total cpu time :    10.5 secs   av.it.:   9.2
      thresh= 2.010E-05 alpha_mix =  0.700 |ddv_scf|^2 =  3.448E-09

      iter #   4 total cpu time :    11.0 secs   av.it.:   8.9
      thresh= 5.872E-06 alpha_mix =  0.700 |ddv_scf|^2 =  1.067E-11

      iter #   5 total cpu time :    11.6 secs   av.it.:   9.1
      thresh= 3.267E-07 alpha_mix =  0.700 |ddv_scf|^2 =  4.912E-13

     End of self-consistent calculation

     Convergence has been achieved 


     Representation #  4 modes #   5  6

     Self-consistent Calculation

      iter #   1 total cpu time :    12.0 secs   av.it.:   5.0
      thresh= 1.000E-02 alpha_mix =  0.700 |ddv_scf|^2 =  5.499E-07

      iter #   2 total cpu time :    12.6 secs   av.it.:   9.6
      thresh= 7.415E-05 alpha_mix =  0.700 |ddv_scf|^2 =  4.040E-08

      iter #   3 total cpu time :    13.2 secs   av.it.:   9.4
      thresh= 2.010E-05 alpha_mix =  0.700 |ddv_scf|^2 =  3.446E-09

      iter #   4 total cpu time :    13.7 secs   av.it.:   9.1
      thresh= 5.871E-06 alpha_mix =  0.700 |ddv_scf|^2 =  1.068E-11

      iter #   5 total cpu time :    14.3 secs   av.it.:   9.3
      thresh= 3.268E-07 alpha_mix =  0.700 |ddv_scf|^2 =  4.915E-13

     End of self-consistent calculation

     Convergence has been achieved 

     Number of q in the star =    8
     List of q in the star:
          1  -0.250000000   0.250000000  -0.250000000
          2   0.250000000  -0.250000000  -0.250000000
          3   0.250000000  -0.250000000   0.250000000
          4   0.250000000   0.250000000   0.250000000
          5  -0.250000000  -0.250000000  -0.250000000
          6  -0.250000000  -0.250000000   0.250000000
          7  -0.250000000   0.250000000   0.250000000
          8   0.250000000   0.250000000  -0.250000000

     Diagonalizing the dynamical matrix

     q = (   -0.250000000   0.250000000  -0.250000000 ) 

 **************************************************************************
     freq (    1) =       3.366881 [THz] =     112.307052 [cm-1]
     freq (    2) =       3.366881 [THz] =     112.307052 [cm-1]
     freq (    3) =       6.994957 [THz] =     233.326647 [cm-1]
     freq (    4) =      14.236745 [THz] =     474.886693 [cm-1]
     freq (    5) =      14.566756 [THz] =     485.894664 [cm-1]
     freq (    6) =      14.566756 [THz] =     485.894664 [cm-1]
 **************************************************************************

     Mode symmetry, C_3v (3m)   point group:

     freq (  1 -  2) =        112.3  [cm-1]   --> E    L_3           
     freq (  3 -  3) =        233.3  [cm-1]   --> A_1  L_1           
     freq (  4 -  4) =        474.9  [cm-1]   --> A_1  L_1           
     freq (  5 -  6) =        485.9  [cm-1]   --> E    L_3           

     Calculation of q =    0.5000000  -0.5000000   0.5000000

   Info: using nr1, nr2, nr3 values from input

   Info: using nr1, nr2, nr3 values from input

     Parallelization info
     --------------------
     sticks:   dense  smooth     PW     G-vecs:    dense   smooth      PW
     Min          63      63     27                  684      684     186
     Max          64      64     28                  688      688     189
     Sum         253     253    109                 2741     2741     749



     bravais-lattice index     =            2
     lattice parameter (alat)  =      10.3000  a.u.
     unit-cell volume          =     273.1818 (a.u.)^3
     number of atoms/cell      =            2
     number of atomic types    =            1
     number of electrons       =         8.00
     number of Kohn-Sham states=            4
     kinetic-energy cutoff     =      18.0000  Ry
     charge density cutoff     =      72.0000  Ry
     Exchange-correlation      = SLA  PW   PBE  PBE ( 1  4  3  4 0 0)

     celldm(1)=  10.300000  celldm(2)=   0.000000  celldm(3)=   0.000000
     celldm(4)=   0.000000  celldm(5)=   0.000000  celldm(6)=   0.000000

     crystal axes: (cart. coord. in units of alat)
               a(1) = (  -0.500000   0.000000   0.500000 )  
               a(2) = (   0.000000   0.500000   0.500000 )  
               a(3) = (  -0.500000   0.500000   0.000000 )  

     reciprocal axes: (cart. coord. in units 2 pi/alat)
               b(1) = ( -1.000000 -1.000000  1.000000 )  
               b(2) = (  1.000000  1.000000  1.000000 )  
               b(3) = ( -1.000000  1.000000 -1.000000 )  


     PseudoPot. # 1 for Si read from file:
     /home/max/quantum_espresso/qe-6.1/pseudo/si_pbe_v1.uspp.F.UPF.txt
     MD5 check sum: a056efeee980c13900f22a371efd63c1
     Pseudo is Ultrasoft + core correction, Zval =  4.0
     Generated by new atomic code, or converted to UPF format
     Using radial grid of  899 points,  6 beta functions with: 
                l(1) =   0
                l(2) =   0
                l(3) =   1
                l(4) =   1
                l(5) =   2
                l(6) =   2
     Q(r) pseudized with  8 coefficients,  rinner =    0.900   0.900   0.900
                                                       0.900   0.900

     atomic species   valence    mass     pseudopotential
        Si             4.00    28.08600     Si( 1.00)

     48 Sym. Ops., with inversion, found



   Cartesian axes

     site n.     atom                  positions (alat units)
         1           Si  tau(   1) = (   0.0000000   0.0000000   0.0000000  )
         2           Si  tau(   2) = (   0.2500000   0.2500000   0.2500000  )

     number of k points=    60
                       cart. coord. in units 2pi/alat
        k(    1) = (  -0.1250000   0.1250000   0.1250000), wk =   0.0468750
        k(    2) = (   0.3750000  -0.3750000   0.6250000), wk =   0.0000000
        k(    3) = (  -0.3750000   0.3750000  -0.1250000), wk =   0.0468750
        k(    4) = (   0.1250000  -0.1250000   0.3750000), wk =   0.0000000
        k(    5) = (   0.3750000  -0.3750000   0.6250000), wk =   0.0468750
        k(    6) = (   0.8750000  -0.8750000   1.1250000), wk =   0.0000000
        k(    7) = (   0.1250000  -0.1250000   0.3750000), wk =   0.0468750
        k(    8) = (   0.6250000  -0.6250000   0.8750000), wk =   0.0000000
        k(    9) = (  -0.1250000   0.6250000   0.1250000), wk =   0.0937500
        k(   10) = (   0.3750000   0.1250000   0.6250000), wk =   0.0000000
        k(   11) = (   0.6250000  -0.1250000   0.8750000), wk =   0.0937500
        k(   12) = (   1.1250000  -0.6250000   1.3750000), wk =   0.0000000
        k(   13) = (   0.3750000   0.1250000   0.6250000), wk =   0.0937500
        k(   14) = (   0.8750000  -0.3750000   1.1250000), wk =   0.0000000
        k(   15) = (  -0.1250000  -0.8750000   0.1250000), wk =   0.0937500
        k(   16) = (   0.3750000  -1.3750000   0.6250000), wk =   0.0000000
        k(   17) = (  -0.3750000   0.3750000   0.3750000), wk =   0.0468750
        k(   18) = (   0.1250000  -0.1250000   0.8750000), wk =   0.0000000
        k(   19) = (   0.3750000  -0.3750000   1.1250000), wk =   0.0468750
        k(   20) = (   0.8750000  -0.8750000   1.6250000), wk =   0.0000000
        k(   21) = (   0.1250000  -0.1250000   0.1250000), wk =   0.0156250
        k(   22) = (   0.6250000  -0.6250000   0.6250000), wk =   0.0000000
        k(   23) = (  -0.3750000  -0.3750000  -0.1250000), wk =   0.0937500
        k(   24) = (   0.1250000  -0.8750000   0.3750000), wk =   0.0000000
        k(   25) = (  -0.1250000  -0.3750000   0.3750000), wk =   0.0468750
        k(   26) = (   0.3750000  -0.8750000   0.8750000), wk =   0.0000000
        k(   27) = (   0.3750000   0.3750000   0.6250000), wk =   0.0937500
        k(   28) = (   0.8750000  -0.1250000   1.1250000), wk =   0.0000000
        k(   29) = (   0.6250000   0.3750000  -0.3750000), wk =   0.0468750
        k(   30) = (   1.1250000  -0.1250000   0.1250000), wk =   0.0000000
        k(   31) = (   0.1250000   0.1250000   0.3750000), wk =   0.0937500
        k(   32) = (   0.6250000  -0.3750000   0.8750000), wk =   0.0000000
        k(   33) = (   0.3750000   0.1250000  -0.1250000), wk =   0.0468750
        k(   34) = (   0.8750000  -0.3750000   0.3750000), wk =   0.0000000
        k(   35) = (  -0.1250000  -0.6250000  -0.1250000), wk =   0.0468750
        k(   36) = (   0.3750000  -1.1250000   0.3750000), wk =   0.0000000
        k(   37) = (   0.1250000  -0.6250000   0.1250000), wk =   0.0468750
        k(   38) = (   0.6250000  -1.1250000   0.6250000), wk =   0.0000000
        k(   39) = (   0.6250000   0.1250000   0.8750000), wk =   0.0937500
        k(   40) = (   1.1250000  -0.3750000   1.3750000), wk =   0.0000000
        k(   41) = (  -0.8750000   0.1250000   0.6250000), wk =   0.0937500
        k(   42) = (  -0.3750000  -0.3750000   1.1250000), wk =   0.0000000
        k(   43) = (   0.8750000   0.1250000  -0.6250000), wk =   0.0937500
        k(   44) = (   1.3750000  -0.3750000  -0.1250000), wk =   0.0000000
        k(   45) = (   0.3750000  -0.1250000   0.6250000), wk =   0.0937500
        k(   46) = (   0.8750000  -0.6250000   1.1250000), wk =   0.0000000
        k(   47) = (  -0.6250000  -0.1250000   0.3750000), wk =   0.0937500
        k(   48) = (  -0.1250000  -0.6250000   0.8750000), wk =   0.0000000
        k(   49) = (   0.6250000  -0.1250000  -0.3750000), wk =   0.0937500
        k(   50) = (   1.1250000  -0.6250000   0.1250000), wk =   0.0000000
        k(   51) = (  -0.1250000   0.8750000  -0.1250000), wk =   0.0468750
        k(   52) = (   0.3750000   0.3750000   0.3750000), wk =   0.0000000
        k(   53) = (   0.1250000   0.8750000   0.1250000), wk =   0.0468750
        k(   54) = (   0.6250000   0.3750000   0.6250000), wk =   0.0000000
        k(   55) = (   0.3750000  -0.3750000   0.3750000), wk =   0.0156250
        k(   56) = (   0.8750000  -0.8750000   0.8750000), wk =   0.0000000
        k(   57) = (   0.3750000   0.3750000   1.1250000), wk =   0.0937500
        k(   58) = (   0.8750000  -0.1250000   1.6250000), wk =   0.0000000
        k(   59) = (   1.1250000   0.3750000  -0.3750000), wk =   0.0468750
        k(   60) = (   1.6250000  -0.1250000   0.1250000), wk =   0.0000000

     Dense  grid:     2741 G-vectors     FFT dimensions: (  20,  20,  20)

     Estimated max dynamical RAM per process >       0.33MB

     Estimated total allocated dynamical RAM >       1.30MB

     Check: negative/imaginary core charge=   -0.000005    0.000000

     The potential is recalculated from file :
     ./_ph0/silicon.10.30.save/charge-density.dat

     Starting wfc are    8 atomic wfcs

     Band Structure Calculation
     Davidson diagonalization with overlap

     ethr =  1.25E-10,  avg # of iterations = 11.7

     total cpu time spent up to now is        1.3 secs

     End of band structure calculation

          k =-0.1250 0.1250 0.1250 (   338 PWs)   bands (ev):

    -5.5949   4.4890   5.7975   5.7975

          k = 0.3750-0.3750 0.6250 (   354 PWs)   bands (ev):

    -3.4130  -0.6128   3.8234   4.5359

          k =-0.3750 0.3750-0.1250 (   350 PWs)   bands (ev):

    -4.5617   1.4806   3.8000   5.3132

          k = 0.1250-0.1250 0.3750 (   344 PWs)   bands (ev):

    -5.0637   2.8668   4.7807   4.8505

          k = 0.3750-0.3750 0.6250 (   354 PWs)   bands (ev):

    -3.4130  -0.6128   3.8234   4.5359

          k = 0.8750-0.8750 1.1250 (   338 PWs)   bands (ev):

    -5.5949   4.4890   5.7975   5.7975

          k = 0.1250-0.1250 0.3750 (   344 PWs)   bands (ev):

    -5.0637   2.8668   4.7807   4.8505

          k = 0.6250-0.6250 0.8750 (   350 PWs)   bands (ev):

    -4.5617   1.4806   3.8000   5.3132

          k =-0.1250 0.6250 0.1250 (   345 PWs)   bands (ev):

    -4.0251   1.1511   3.4473   3.8999

          k = 0.3750 0.1250 0.6250 (   353 PWs)   bands (ev):

    -3.6067   0.2686   2.8036   4.1777

          k = 0.6250-0.1250 0.8750 (   356 PWs)   bands (ev):

    -2.3733  -0.8237   2.0829   3.1653

          k = 1.1250-0.6250 1.3750 (   350 PWs)   bands (ev):

    -4.5617   1.4806   3.8000   5.3132

          k = 0.3750 0.1250 0.6250 (   353 PWs)   bands (ev):

    -3.6067   0.2686   2.8036   4.1777

          k = 0.8750-0.3750 1.1250 (   345 PWs)   bands (ev):

    -4.0251   1.1511   3.4473   3.8999

          k =-0.1250-0.8750 0.1250 (   352 PWs)   bands (ev):

    -2.5431  -0.7245   2.6957   3.4297

          k = 0.3750-1.3750 0.6250 (   354 PWs)   bands (ev):

    -3.4130  -0.6128   3.8234   4.5359

          k =-0.3750 0.3750 0.3750 (   353 PWs)   bands (ev):

    -4.1260   0.1802   5.0041   5.0041

          k = 0.1250-0.1250 0.8750 (   352 PWs)   bands (ev):

    -2.5431  -0.7245   2.6957   3.4297

          k = 0.3750-0.3750 1.1250 (   359 PWs)   bands (ev):

    -2.9141  -0.5229   2.1440   4.2162

          k = 0.8750-0.8750 1.6250 (   345 PWs)   bands (ev):

    -4.0251   1.1511   3.4473   3.8999

          k = 0.1250-0.1250 0.1250 (   338 PWs)   bands (ev):

    -5.5949   4.4890   5.7975   5.7975

          k = 0.6250-0.6250 0.6250 (   353 PWs)   bands (ev):

    -4.1260   0.1802   5.0041   5.0041

          k =-0.3750-0.3750-0.1250 (   350 PWs)   bands (ev):

    -4.5617   1.4806   3.8000   5.3132

          k = 0.1250-0.8750 0.3750 (   356 PWs)   bands (ev):

    -2.3733  -0.8237   2.0829   3.1653

          k =-0.1250-0.3750 0.3750 (   350 PWs)   bands (ev):

    -4.5617   1.4806   3.8000   5.3132

          k = 0.3750-0.8750 0.8750 (   345 PWs)   bands (ev):

    -4.0251   1.1511   3.4473   3.8999

          k = 0.3750 0.3750 0.6250 (   354 PWs)   bands (ev):

    -3.4130  -0.6128   3.8234   4.5359

          k = 0.8750-0.1250 1.1250 (   352 PWs)   bands (ev):

    -2.5431  -0.7245   2.6957   3.4297

          k = 0.6250 0.3750-0.3750 (   354 PWs)   bands (ev):

    -3.4130  -0.6128   3.8234   4.5359

          k = 1.1250-0.1250 0.1250 (   352 PWs)   bands (ev):

    -2.5431  -0.7245   2.6957   3.4297

          k = 0.1250 0.1250 0.3750 (   344 PWs)   bands (ev):

    -5.0637   2.8668   4.7807   4.8505

          k = 0.6250-0.3750 0.8750 (   353 PWs)   bands (ev):

    -3.6067   0.2686   2.8036   4.1777

          k = 0.3750 0.1250-0.1250 (   344 PWs)   bands (ev):

    -5.0637   2.8668   4.7807   4.8505

          k = 0.8750-0.3750 0.3750 (   359 PWs)   bands (ev):

    -2.9141  -0.5229   2.1440   4.2162

          k =-0.1250-0.6250-0.1250 (   345 PWs)   bands (ev):

    -4.0251   1.1511   3.4473   3.8999

          k = 0.3750-1.1250 0.3750 (   359 PWs)   bands (ev):

    -2.9141  -0.5229   2.1440   4.2162

          k = 0.1250-0.6250 0.1250 (   345 PWs)   bands (ev):

    -4.0251   1.1511   3.4473   3.8999

          k = 0.6250-1.1250 0.6250 (   350 PWs)   bands (ev):

    -4.5617   1.4806   3.8000   5.3132

          k = 0.6250 0.1250 0.8750 (   356 PWs)   bands (ev):

    -2.3733  -0.8237   2.0829   3.1653

          k = 1.1250-0.3750 1.3750 (   353 PWs)   bands (ev):

    -3.6067   0.2686   2.8036   4.1777

          k =-0.8750 0.1250 0.6250 (   356 PWs)   bands (ev):

    -2.3733  -0.8237   2.0829   3.1653

          k =-0.3750-0.3750 1.1250 (   359 PWs)   bands (ev):

    -2.9141  -0.5229   2.1440   4.2162

          k = 0.8750 0.1250-0.6250 (   356 PWs)   bands (ev):

    -2.3733  -0.8237   2.0829   3.1653

          k = 1.3750-0.3750-0.1250 (   353 PWs)   bands (ev):

    -3.6067   0.2686   2.8036   4.1777

          k = 0.3750-0.1250 0.6250 (   353 PWs)   bands (ev):

    -3.6067   0.2686   2.8036   4.1777

          k = 0.8750-0.6250 1.1250 (   344 PWs)   bands (ev):

    -5.0637   2.8668   4.7807   4.8505

          k =-0.6250-0.1250 0.3750 (   353 PWs)   bands (ev):

    -3.6067   0.2686   2.8036   4.1777

          k =-0.1250-0.6250 0.8750 (   356 PWs)   bands (ev):

    -2.3733  -0.8237   2.0829   3.1653

          k = 0.6250-0.1250-0.3750 (   353 PWs)   bands (ev):

    -3.6067   0.2686   2.8036   4.1777

          k = 1.1250-0.6250 0.1250 (   356 PWs)   bands (ev):

    -2.3733  -0.8237   2.0829   3.1653

          k =-0.1250 0.8750-0.1250 (   352 PWs)   bands (ev):

    -2.5431  -0.7245   2.6957   3.4297

          k = 0.3750 0.3750 0.3750 (   353 PWs)   bands (ev):

    -4.1260   0.1802   5.0041   5.0041

          k = 0.1250 0.8750 0.1250 (   352 PWs)   bands (ev):

    -2.5431  -0.7245   2.6957   3.4297

          k = 0.6250 0.3750 0.6250 (   354 PWs)   bands (ev):

    -3.4130  -0.6128   3.8234   4.5359

          k = 0.3750-0.3750 0.3750 (   353 PWs)   bands (ev):

    -4.1260   0.1802   5.0041   5.0041

          k = 0.8750-0.8750 0.8750 (   338 PWs)   bands (ev):

    -5.5949   4.4890   5.7975   5.7975

          k = 0.3750 0.3750 1.1250 (   359 PWs)   bands (ev):

    -2.9141  -0.5229   2.1440   4.2162

          k = 0.8750-0.1250 1.6250 (   356 PWs)   bands (ev):

    -2.3733  -0.8237   2.0829   3.1653

          k = 1.1250 0.3750-0.3750 (   359 PWs)   bands (ev):

    -2.9141  -0.5229   2.1440   4.2162

          k = 1.6250-0.1250 0.1250 (   344 PWs)   bands (ev):

    -5.0637   2.8668   4.7807   4.8505

     highest occupied level (ev):     5.7975

     Writing output data file silicon.10.30.save

                                                                                

     bravais-lattice index     =            2
     lattice parameter (alat)  =      10.3000  a.u.
     unit-cell volume          =     273.1818 (a.u.)^3
     number of atoms/cell      =            2
     number of atomic types    =            1
     kinetic-energy cut-off    =      18.0000  Ry
     charge density cut-off    =      72.0000  Ry
     convergence threshold     =      1.0E-12
     beta                      =       0.7000
     number of iterations used =            4
     Exchange-correlation      = SLA  PW   PBE  PBE ( 1  4  3  4 0 0)


     celldm(1)=   10.30000  celldm(2)=    0.00000  celldm(3)=    0.00000
     celldm(4)=    0.00000  celldm(5)=    0.00000  celldm(6)=    0.00000

     crystal axes: (cart. coord. in units of alat)
               a(1) = ( -0.5000  0.0000  0.5000 )  
               a(2) = (  0.0000  0.5000  0.5000 )  
               a(3) = ( -0.5000  0.5000  0.0000 )  

     reciprocal axes: (cart. coord. in units 2 pi/alat)
               b(1) = ( -1.0000 -1.0000  1.0000 )  
               b(2) = (  1.0000  1.0000  1.0000 )  
               b(3) = ( -1.0000  1.0000 -1.0000 )  


     Atoms inside the unit cell: 

     Cartesian axes

     site n.  atom      mass           positions (alat units)
        1     Si  28.0860   tau(    1) = (    0.00000    0.00000    0.00000  )
        2     Si  28.0860   tau(    2) = (    0.25000    0.25000    0.25000  )

     Computing dynamical matrix for 
                    q = (   0.5000000  -0.5000000   0.5000000 )

     13 Sym.Ops. (with q -> -q+G )


     G cutoff =  193.4850  (    685 G-vectors)     FFT grid: ( 20, 20, 20)
     number of k points=    60

     PseudoPot. # 1 for Si read from file:
     /home/max/quantum_espresso/qe-6.1/pseudo/si_pbe_v1.uspp.F.UPF.txt
     MD5 check sum: a056efeee980c13900f22a371efd63c1
     Pseudo is Ultrasoft + core correction, Zval =  4.0
     Generated by new atomic code, or converted to UPF format
     Using radial grid of  899 points,  6 beta functions with: 
                l(1) =   0
                l(2) =   0
                l(3) =   1
                l(4) =   1
                l(5) =   2
                l(6) =   2
     Q(r) pseudized with  8 coefficients,  rinner =    0.900   0.900   0.900
                                                       0.900   0.900


     Atomic displacements:
     There are   4 irreducible representations

     Representation     1      1 modes -  To be done

     Representation     2      1 modes -  To be done

     Representation     3      2 modes -  To be done

     Representation     4      2 modes -  To be done



     Alpha used in Ewald sum =   0.7000
     PHONON       :    14.42s CPU        15.01s WALL



     Representation #  1 mode #   1

     Self-consistent Calculation

      iter #   1 total cpu time :    15.1 secs   av.it.:   4.8
      thresh= 1.000E-02 alpha_mix =  0.700 |ddv_scf|^2 =  2.501E-05

      iter #   2 total cpu time :    15.3 secs   av.it.:   8.3
      thresh= 5.001E-04 alpha_mix =  0.700 |ddv_scf|^2 =  2.211E-05

      iter #   3 total cpu time :    15.4 secs   av.it.:   7.5
      thresh= 4.702E-04 alpha_mix =  0.700 |ddv_scf|^2 =  4.099E-08

      iter #   4 total cpu time :    15.5 secs   av.it.:   7.6
      thresh= 2.025E-05 alpha_mix =  0.700 |ddv_scf|^2 =  1.415E-10

      iter #   5 total cpu time :    15.7 secs   av.it.:   7.9
      thresh= 1.189E-06 alpha_mix =  0.700 |ddv_scf|^2 =  3.559E-12

      iter #   6 total cpu time :    15.8 secs   av.it.:   7.9
      thresh= 1.887E-07 alpha_mix =  0.700 |ddv_scf|^2 =  5.535E-14

     End of self-consistent calculation

     Convergence has been achieved 


     Representation #  2 mode #   2

     Self-consistent Calculation

      iter #   1 total cpu time :    15.9 secs   av.it.:   5.6
      thresh= 1.000E-02 alpha_mix =  0.700 |ddv_scf|^2 =  3.482E-04

      iter #   2 total cpu time :    16.1 secs   av.it.:   8.3
      thresh= 1.866E-03 alpha_mix =  0.700 |ddv_scf|^2 =  1.071E-03

      iter #   3 total cpu time :    16.2 secs   av.it.:   7.1
      thresh= 3.272E-03 alpha_mix =  0.700 |ddv_scf|^2 =  1.095E-07

      iter #   4 total cpu time :    16.4 secs   av.it.:   8.2
      thresh= 3.310E-05 alpha_mix =  0.700 |ddv_scf|^2 =  6.904E-09

      iter #   5 total cpu time :    16.5 secs   av.it.:   8.5
      thresh= 8.309E-06 alpha_mix =  0.700 |ddv_scf|^2 =  1.272E-10

      iter #   6 total cpu time :    16.6 secs   av.it.:   8.2
      thresh= 1.128E-06 alpha_mix =  0.700 |ddv_scf|^2 =  2.016E-12

      iter #   7 total cpu time :    16.8 secs   av.it.:   7.8
      thresh= 1.420E-07 alpha_mix =  0.700 |ddv_scf|^2 =  3.188E-15

     End of self-consistent calculation

     Convergence has been achieved 


     Representation #  3 modes #   3  4

     Self-consistent Calculation

      iter #   1 total cpu time :    17.0 secs   av.it.:   4.7
      thresh= 1.000E-02 alpha_mix =  0.700 |ddv_scf|^2 =  2.989E-07

      iter #   2 total cpu time :    17.3 secs   av.it.:   9.1
      thresh= 5.467E-05 alpha_mix =  0.700 |ddv_scf|^2 =  2.453E-08

      iter #   3 total cpu time :    17.6 secs   av.it.:   8.4
      thresh= 1.566E-05 alpha_mix =  0.700 |ddv_scf|^2 =  4.886E-10

      iter #   4 total cpu time :    17.9 secs   av.it.:   8.8
      thresh= 2.211E-06 alpha_mix =  0.700 |ddv_scf|^2 =  6.175E-12

      iter #   5 total cpu time :    18.1 secs   av.it.:   8.7
      thresh= 2.485E-07 alpha_mix =  0.700 |ddv_scf|^2 =  3.170E-14

     End of self-consistent calculation

     Convergence has been achieved 


     Representation #  4 modes #   5  6

     Self-consistent Calculation

      iter #   1 total cpu time :    18.4 secs   av.it.:   5.0
      thresh= 1.000E-02 alpha_mix =  0.700 |ddv_scf|^2 =  9.743E-07

      iter #   2 total cpu time :    18.7 secs   av.it.:   9.5
      thresh= 9.871E-05 alpha_mix =  0.700 |ddv_scf|^2 =  7.621E-08

      iter #   3 total cpu time :    19.0 secs   av.it.:   9.3
      thresh= 2.761E-05 alpha_mix =  0.700 |ddv_scf|^2 =  4.790E-09

      iter #   4 total cpu time :    19.3 secs   av.it.:   8.5
      thresh= 6.921E-06 alpha_mix =  0.700 |ddv_scf|^2 =  6.467E-12

      iter #   5 total cpu time :    19.5 secs   av.it.:   8.8
      thresh= 2.543E-07 alpha_mix =  0.700 |ddv_scf|^2 =  2.250E-14

     End of self-consistent calculation

     Convergence has been achieved 

     Number of q in the star =    4
     List of q in the star:
          1   0.500000000  -0.500000000   0.500000000
          2   0.500000000   0.500000000   0.500000000
          3  -0.500000000   0.500000000   0.500000000
          4   0.500000000   0.500000000  -0.500000000

     Diagonalizing the dynamical matrix

     q = (    0.500000000  -0.500000000   0.500000000 ) 

 **************************************************************************
     freq (    1) =       4.475601 [THz] =     149.289988 [cm-1]
     freq (    2) =       4.475601 [THz] =     149.289988 [cm-1]
     freq (    3) =      11.561979 [THz] =     385.666093 [cm-1]
     freq (    4) =      12.297959 [THz] =     410.215742 [cm-1]
     freq (    5) =      14.578178 [THz] =     486.275675 [cm-1]
     freq (    6) =      14.578178 [THz] =     486.275675 [cm-1]
 **************************************************************************

     Calculation of q =    0.0000000   0.5000000   0.0000000

   Info: using nr1, nr2, nr3 values from input

   Info: using nr1, nr2, nr3 values from input

     Parallelization info
     --------------------
     sticks:   dense  smooth     PW     G-vecs:    dense   smooth      PW
     Min          63      63     27                  684      684     175
     Max          64      64     28                  688      688     176
     Sum         253     253    109                 2741     2741     701



     bravais-lattice index     =            2
     lattice parameter (alat)  =      10.3000  a.u.
     unit-cell volume          =     273.1818 (a.u.)^3
     number of atoms/cell      =            2
     number of atomic types    =            1
     number of electrons       =         8.00
     number of Kohn-Sham states=            4
     kinetic-energy cutoff     =      18.0000  Ry
     charge density cutoff     =      72.0000  Ry
     Exchange-correlation      = SLA  PW   PBE  PBE ( 1  4  3  4 0 0)

     celldm(1)=  10.300000  celldm(2)=   0.000000  celldm(3)=   0.000000
     celldm(4)=   0.000000  celldm(5)=   0.000000  celldm(6)=   0.000000

     crystal axes: (cart. coord. in units of alat)
               a(1) = (  -0.500000   0.000000   0.500000 )  
               a(2) = (   0.000000   0.500000   0.500000 )  
               a(3) = (  -0.500000   0.500000   0.000000 )  

     reciprocal axes: (cart. coord. in units 2 pi/alat)
               b(1) = ( -1.000000 -1.000000  1.000000 )  
               b(2) = (  1.000000  1.000000  1.000000 )  
               b(3) = ( -1.000000  1.000000 -1.000000 )  


     PseudoPot. # 1 for Si read from file:
     /home/max/quantum_espresso/qe-6.1/pseudo/si_pbe_v1.uspp.F.UPF.txt
     MD5 check sum: a056efeee980c13900f22a371efd63c1
     Pseudo is Ultrasoft + core correction, Zval =  4.0
     Generated by new atomic code, or converted to UPF format
     Using radial grid of  899 points,  6 beta functions with: 
                l(1) =   0
                l(2) =   0
                l(3) =   1
                l(4) =   1
                l(5) =   2
                l(6) =   2
     Q(r) pseudized with  8 coefficients,  rinner =    0.900   0.900   0.900
                                                       0.900   0.900

     atomic species   valence    mass     pseudopotential
        Si             4.00    28.08600     Si( 1.00)

     48 Sym. Ops., with inversion, found



   Cartesian axes

     site n.     atom                  positions (alat units)
         1           Si  tau(   1) = (   0.0000000   0.0000000   0.0000000  )
         2           Si  tau(   2) = (   0.2500000   0.2500000   0.2500000  )

     number of k points=    80
                       cart. coord. in units 2pi/alat
        k(    1) = (  -0.1250000   0.1250000   0.1250000), wk =   0.0312500
        k(    2) = (  -0.1250000   0.6250000   0.1250000), wk =   0.0000000
        k(    3) = (  -0.3750000   0.3750000  -0.1250000), wk =   0.0625000
        k(    4) = (  -0.3750000   0.8750000  -0.1250000), wk =   0.0000000
        k(    5) = (   0.3750000  -0.3750000   0.6250000), wk =   0.0625000
        k(    6) = (   0.3750000   0.1250000   0.6250000), wk =   0.0000000
        k(    7) = (   0.1250000  -0.1250000   0.3750000), wk =   0.0625000
        k(    8) = (   0.1250000   0.3750000   0.3750000), wk =   0.0000000
        k(    9) = (  -0.1250000   0.6250000   0.1250000), wk =   0.0312500
        k(   10) = (  -0.1250000   1.1250000   0.1250000), wk =   0.0000000
        k(   11) = (   0.6250000  -0.1250000   0.8750000), wk =   0.0625000
        k(   12) = (   0.6250000   0.3750000   0.8750000), wk =   0.0000000
        k(   13) = (   0.3750000   0.1250000   0.6250000), wk =   0.0625000
        k(   14) = (   0.3750000   0.6250000   0.6250000), wk =   0.0000000
        k(   15) = (  -0.1250000  -0.8750000   0.1250000), wk =   0.0312500
        k(   16) = (  -0.1250000  -0.3750000   0.1250000), wk =   0.0000000
        k(   17) = (  -0.3750000   0.3750000   0.3750000), wk =   0.0312500
        k(   18) = (  -0.3750000   0.8750000   0.3750000), wk =   0.0000000
        k(   19) = (   0.3750000  -0.3750000   1.1250000), wk =   0.0625000
        k(   20) = (   0.3750000   0.1250000   1.1250000), wk =   0.0000000
        k(   21) = (  -0.1250000  -0.1250000   0.1250000), wk =   0.0312500
        k(   22) = (  -0.1250000   0.3750000   0.1250000), wk =   0.0000000
        k(   23) = (   0.1250000  -0.3750000   0.3750000), wk =   0.0625000
        k(   24) = (   0.1250000   0.1250000   0.3750000), wk =   0.0000000
        k(   25) = (   0.3750000  -0.1250000   0.3750000), wk =   0.0312500
        k(   26) = (   0.3750000   0.3750000   0.3750000), wk =   0.0000000
        k(   27) = (   0.3750000   0.1250000   0.3750000), wk =   0.0312500
        k(   28) = (   0.3750000   0.6250000   0.3750000), wk =   0.0000000
        k(   29) = (  -0.6250000   0.3750000  -0.3750000), wk =   0.0625000
        k(   30) = (  -0.6250000   0.8750000  -0.3750000), wk =   0.0000000
        k(   31) = (  -0.3750000   0.6250000  -0.3750000), wk =   0.0312500
        k(   32) = (  -0.3750000   1.1250000  -0.3750000), wk =   0.0000000
        k(   33) = (  -0.3750000  -0.6250000  -0.3750000), wk =   0.0312500
        k(   34) = (  -0.3750000  -0.1250000  -0.3750000), wk =   0.0000000
        k(   35) = (  -0.3750000   0.1250000  -0.1250000), wk =   0.0625000
        k(   36) = (  -0.3750000   0.6250000  -0.1250000), wk =   0.0000000
        k(   37) = (  -0.1250000   0.3750000  -0.1250000), wk =   0.0312500
        k(   38) = (  -0.1250000   0.8750000  -0.1250000), wk =   0.0000000
        k(   39) = (  -0.1250000  -0.3750000  -0.1250000), wk =   0.0312500
        k(   40) = (  -0.1250000   0.1250000  -0.1250000), wk =   0.0000000
        k(   41) = (  -0.1250000  -0.6250000   0.1250000), wk =   0.0312500
        k(   42) = (  -0.1250000  -0.1250000   0.1250000), wk =   0.0000000
        k(   43) = (   0.6250000  -0.1250000  -0.1250000), wk =   0.0625000
        k(   44) = (   0.6250000   0.3750000  -0.1250000), wk =   0.0000000
        k(   45) = (   0.6250000   0.1250000   0.1250000), wk =   0.0625000
        k(   46) = (   0.6250000   0.6250000   0.1250000), wk =   0.0000000
        k(   47) = (  -0.8750000   0.1250000  -0.6250000), wk =   0.0625000
        k(   48) = (  -0.8750000   0.6250000  -0.6250000), wk =   0.0000000
        k(   49) = (  -0.1250000   0.6250000  -0.8750000), wk =   0.0625000
        k(   50) = (  -0.1250000   1.1250000  -0.8750000), wk =   0.0000000
        k(   51) = (  -0.1250000   0.8750000  -0.6250000), wk =   0.0625000
        k(   52) = (  -0.1250000   1.3750000  -0.6250000), wk =   0.0000000
        k(   53) = (  -0.1250000  -0.8750000  -0.6250000), wk =   0.0625000
        k(   54) = (  -0.1250000  -0.3750000  -0.6250000), wk =   0.0000000
        k(   55) = (   0.8750000  -0.6250000   0.1250000), wk =   0.0625000
        k(   56) = (   0.8750000  -0.1250000   0.1250000), wk =   0.0000000
        k(   57) = (  -0.6250000  -0.1250000  -0.3750000), wk =   0.0625000
        k(   58) = (  -0.6250000   0.3750000  -0.3750000), wk =   0.0000000
        k(   59) = (   0.1250000   0.3750000  -0.6250000), wk =   0.0625000
        k(   60) = (   0.1250000   0.8750000  -0.6250000), wk =   0.0000000
        k(   61) = (   0.1250000   0.6250000  -0.3750000), wk =   0.0625000
        k(   62) = (   0.1250000   1.1250000  -0.3750000), wk =   0.0000000
        k(   63) = (   0.1250000  -0.6250000  -0.3750000), wk =   0.0625000
        k(   64) = (   0.1250000  -0.1250000  -0.3750000), wk =   0.0000000
        k(   65) = (   0.6250000  -0.3750000  -0.1250000), wk =   0.0625000
        k(   66) = (   0.6250000   0.1250000  -0.1250000), wk =   0.0000000
        k(   67) = (  -0.1250000   0.8750000   0.1250000), wk =   0.0312500
        k(   68) = (  -0.1250000   1.3750000   0.1250000), wk =   0.0000000
        k(   69) = (  -0.8750000  -0.1250000  -0.1250000), wk =   0.0625000
        k(   70) = (  -0.8750000   0.3750000  -0.1250000), wk =   0.0000000
        k(   71) = (  -0.8750000   0.1250000   0.1250000), wk =   0.0625000
        k(   72) = (  -0.8750000   0.6250000   0.1250000), wk =   0.0000000
        k(   73) = (  -0.3750000  -0.3750000   0.3750000), wk =   0.0312500
        k(   74) = (  -0.3750000   0.1250000   0.3750000), wk =   0.0000000
        k(   75) = (  -1.1250000   0.3750000  -0.3750000), wk =   0.0625000
        k(   76) = (  -1.1250000   0.8750000  -0.3750000), wk =   0.0000000
        k(   77) = (  -0.3750000   1.1250000  -0.3750000), wk =   0.0312500
        k(   78) = (  -0.3750000   1.6250000  -0.3750000), wk =   0.0000000
        k(   79) = (  -0.3750000  -1.1250000  -0.3750000), wk =   0.0312500
        k(   80) = (  -0.3750000  -0.6250000  -0.3750000), wk =   0.0000000

     Dense  grid:     2741 G-vectors     FFT dimensions: (  20,  20,  20)

     Estimated max dynamical RAM per process >       0.33MB

     Estimated total allocated dynamical RAM >       1.30MB

     Check: negative/imaginary core charge=   -0.000005    0.000000

     The potential is recalculated from file :
     ./_ph0/silicon.10.30.save/charge-density.dat

     Starting wfc are    8 atomic wfcs

     Band Structure Calculation
     Davidson diagonalization with overlap

     ethr =  1.25E-10,  avg # of iterations = 11.7

     total cpu time spent up to now is        1.9 secs

     End of band structure calculation

          k =-0.1250 0.1250 0.1250 (   338 PWs)   bands (ev):

    -5.5949   4.4890   5.7975   5.7975

          k =-0.1250 0.6250 0.1250 (   345 PWs)   bands (ev):

    -4.0251   1.1511   3.4473   3.8999

          k =-0.3750 0.3750-0.1250 (   350 PWs)   bands (ev):

    -4.5617   1.4806   3.8000   5.3132

          k =-0.3750 0.8750-0.1250 (   356 PWs)   bands (ev):

    -2.3733  -0.8237   2.0829   3.1653

          k = 0.3750-0.3750 0.6250 (   354 PWs)   bands (ev):

    -3.4130  -0.6128   3.8234   4.5359

          k = 0.3750 0.1250 0.6250 (   353 PWs)   bands (ev):

    -3.6067   0.2686   2.8036   4.1777

          k = 0.1250-0.1250 0.3750 (   344 PWs)   bands (ev):

    -5.0637   2.8668   4.7807   4.8505

          k = 0.1250 0.3750 0.3750 (   350 PWs)   bands (ev):

    -4.5617   1.4806   3.8000   5.3132

          k =-0.1250 0.6250 0.1250 (   345 PWs)   bands (ev):

    -4.0251   1.1511   3.4473   3.8999

          k =-0.1250 1.1250 0.1250 (   352 PWs)   bands (ev):

    -2.5431  -0.7245   2.6957   3.4297

          k = 0.6250-0.1250 0.8750 (   356 PWs)   bands (ev):

    -2.3733  -0.8237   2.0829   3.1653

          k = 0.6250 0.3750 0.8750 (   353 PWs)   bands (ev):

    -3.6067   0.2686   2.8036   4.1777

          k = 0.3750 0.1250 0.6250 (   353 PWs)   bands (ev):

    -3.6067   0.2686   2.8036   4.1777

          k = 0.3750 0.6250 0.6250 (   354 PWs)   bands (ev):

    -3.4130  -0.6128   3.8234   4.5359

          k =-0.1250-0.8750 0.1250 (   352 PWs)   bands (ev):

    -2.5431  -0.7245   2.6957   3.4297

          k =-0.1250-0.3750 0.1250 (   344 PWs)   bands (ev):

    -5.0637   2.8668   4.7807   4.8505

          k =-0.3750 0.3750 0.3750 (   353 PWs)   bands (ev):

    -4.1260   0.1802   5.0041   5.0041

          k =-0.3750 0.8750 0.3750 (   359 PWs)   bands (ev):

    -2.9141  -0.5229   2.1440   4.2162

          k = 0.3750-0.3750 1.1250 (   359 PWs)   bands (ev):

    -2.9141  -0.5229   2.1440   4.2162

          k = 0.3750 0.1250 1.1250 (   356 PWs)   bands (ev):

    -2.3733  -0.8237   2.0829   3.1653

          k =-0.1250-0.1250 0.1250 (   338 PWs)   bands (ev):

    -5.5949   4.4890   5.7975   5.7975

          k =-0.1250 0.3750 0.1250 (   344 PWs)   bands (ev):

    -5.0637   2.8668   4.7807   4.8505

          k = 0.1250-0.3750 0.3750 (   350 PWs)   bands (ev):

    -4.5617   1.4806   3.8000   5.3132

          k = 0.1250 0.1250 0.3750 (   344 PWs)   bands (ev):

    -5.0637   2.8668   4.7807   4.8505

          k = 0.3750-0.1250 0.3750 (   350 PWs)   bands (ev):

    -4.5617   1.4806   3.8000   5.3132

          k = 0.3750 0.3750 0.3750 (   353 PWs)   bands (ev):

    -4.1260   0.1802   5.0041   5.0041

          k = 0.3750 0.1250 0.3750 (   350 PWs)   bands (ev):

    -4.5617   1.4806   3.8000   5.3132

          k = 0.3750 0.6250 0.3750 (   354 PWs)   bands (ev):

    -3.4130  -0.6128   3.8234   4.5359

          k =-0.6250 0.3750-0.3750 (   354 PWs)   bands (ev):

    -3.4130  -0.6128   3.8234   4.5359

          k =-0.6250 0.8750-0.3750 (   353 PWs)   bands (ev):

    -3.6067   0.2686   2.8036   4.1777

          k =-0.3750 0.6250-0.3750 (   354 PWs)   bands (ev):

    -3.4130  -0.6128   3.8234   4.5359

          k =-0.3750 1.1250-0.3750 (   359 PWs)   bands (ev):

    -2.9141  -0.5229   2.1440   4.2162

          k =-0.3750-0.6250-0.3750 (   354 PWs)   bands (ev):

    -3.4130  -0.6128   3.8234   4.5359

          k =-0.3750-0.1250-0.3750 (   350 PWs)   bands (ev):

    -4.5617   1.4806   3.8000   5.3132

          k =-0.3750 0.1250-0.1250 (   344 PWs)   bands (ev):

    -5.0637   2.8668   4.7807   4.8505

          k =-0.3750 0.6250-0.1250 (   353 PWs)   bands (ev):

    -3.6067   0.2686   2.8036   4.1777

          k =-0.1250 0.3750-0.1250 (   344 PWs)   bands (ev):

    -5.0637   2.8668   4.7807   4.8505

          k =-0.1250 0.8750-0.1250 (   352 PWs)   bands (ev):

    -2.5431  -0.7245   2.6957   3.4297

          k =-0.1250-0.3750-0.1250 (   344 PWs)   bands (ev):

    -5.0637   2.8668   4.7807   4.8505

          k =-0.1250 0.1250-0.1250 (   338 PWs)   bands (ev):

    -5.5949   4.4890   5.7975   5.7975

          k =-0.1250-0.6250 0.1250 (   345 PWs)   bands (ev):

    -4.0251   1.1511   3.4473   3.8999

          k =-0.1250-0.1250 0.1250 (   338 PWs)   bands (ev):

    -5.5949   4.4890   5.7975   5.7975

          k = 0.6250-0.1250-0.1250 (   345 PWs)   bands (ev):

    -4.0251   1.1511   3.4473   3.8999

          k = 0.6250 0.3750-0.1250 (   353 PWs)   bands (ev):

    -3.6067   0.2686   2.8036   4.1777

          k = 0.6250 0.1250 0.1250 (   345 PWs)   bands (ev):

    -4.0251   1.1511   3.4473   3.8999

          k = 0.6250 0.6250 0.1250 (   359 PWs)   bands (ev):

    -2.9141  -0.5229   2.1440   4.2162

          k =-0.8750 0.1250-0.6250 (   356 PWs)   bands (ev):

    -2.3733  -0.8237   2.0829   3.1653

          k =-0.8750 0.6250-0.6250 (   350 PWs)   bands (ev):

    -4.5617   1.4806   3.8000   5.3132

          k =-0.1250 0.6250-0.8750 (   356 PWs)   bands (ev):

    -2.3733  -0.8237   2.0829   3.1653

          k =-0.1250 1.1250-0.8750 (   352 PWs)   bands (ev):

    -2.5431  -0.7245   2.6957   3.4297

          k =-0.1250 0.8750-0.6250 (   356 PWs)   bands (ev):

    -2.3733  -0.8237   2.0829   3.1653

          k =-0.1250 1.3750-0.6250 (   359 PWs)   bands (ev):

    -2.9141  -0.5229   2.1440   4.2162

          k =-0.1250-0.8750-0.6250 (   356 PWs)   bands (ev):

    -2.3733  -0.8237   2.0829   3.1653

          k =-0.1250-0.3750-0.6250 (   353 PWs)   bands (ev):

    -3.6067   0.2686   2.8036   4.1777

          k = 0.8750-0.6250 0.1250 (   356 PWs)   bands (ev):

    -2.3733  -0.8237   2.0829   3.1653

          k = 0.8750-0.1250 0.1250 (   352 PWs)   bands (ev):

    -2.5431  -0.7245   2.6957   3.4297

          k =-0.6250-0.1250-0.3750 (   353 PWs)   bands (ev):

    -3.6067   0.2686   2.8036   4.1777

          k =-0.6250 0.3750-0.3750 (   354 PWs)   bands (ev):

    -3.4130  -0.6128   3.8234   4.5359

          k = 0.1250 0.3750-0.6250 (   353 PWs)   bands (ev):

    -3.6067   0.2686   2.8036   4.1777

          k = 0.1250 0.8750-0.6250 (   356 PWs)   bands (ev):

    -2.3733  -0.8237   2.0829   3.1653

          k = 0.1250 0.6250-0.3750 (   353 PWs)   bands (ev):

    -3.6067   0.2686   2.8036   4.1777

          k = 0.1250 1.1250-0.3750 (   356 PWs)   bands (ev):

    -2.3733  -0.8237   2.0829   3.1653

          k = 0.1250-0.6250-0.3750 (   353 PWs)   bands (ev):

    -3.6067   0.2686   2.8036   4.1777

          k = 0.1250-0.1250-0.3750 (   344 PWs)   bands (ev):

    -5.0637   2.8668   4.7807   4.8505

          k = 0.6250-0.3750-0.1250 (   353 PWs)   bands (ev):

    -3.6067   0.2686   2.8036   4.1777

          k = 0.6250 0.1250-0.1250 (   345 PWs)   bands (ev):

    -4.0251   1.1511   3.4473   3.8999

          k =-0.1250 0.8750 0.1250 (   352 PWs)   bands (ev):

    -2.5431  -0.7245   2.6957   3.4297

          k =-0.1250 1.3750 0.1250 (   345 PWs)   bands (ev):

    -4.0251   1.1511   3.4473   3.8999

          k =-0.8750-0.1250-0.1250 (   352 PWs)   bands (ev):

    -2.5431  -0.7245   2.6957   3.4297

          k =-0.8750 0.3750-0.1250 (   356 PWs)   bands (ev):

    -2.3733  -0.8237   2.0829   3.1653

          k =-0.8750 0.1250 0.1250 (   352 PWs)   bands (ev):

    -2.5431  -0.7245   2.6957   3.4297

          k =-0.8750 0.6250 0.1250 (   356 PWs)   bands (ev):

    -2.3733  -0.8237   2.0829   3.1653

          k =-0.3750-0.3750 0.3750 (   353 PWs)   bands (ev):

    -4.1260   0.1802   5.0041   5.0041

          k =-0.3750 0.1250 0.3750 (   350 PWs)   bands (ev):

    -4.5617   1.4806   3.8000   5.3132

          k =-1.1250 0.3750-0.3750 (   359 PWs)   bands (ev):

    -2.9141  -0.5229   2.1440   4.2162

          k =-1.1250 0.8750-0.3750 (   345 PWs)   bands (ev):

    -4.0251   1.1511   3.4473   3.8999

          k =-0.3750 1.1250-0.3750 (   359 PWs)   bands (ev):

    -2.9141  -0.5229   2.1440   4.2162

          k =-0.3750 1.6250-0.3750 (   353 PWs)   bands (ev):

    -4.1260   0.1802   5.0041   5.0041

          k =-0.3750-1.1250-0.3750 (   359 PWs)   bands (ev):

    -2.9141  -0.5229   2.1440   4.2162

          k =-0.3750-0.6250-0.3750 (   354 PWs)   bands (ev):

    -3.4130  -0.6128   3.8234   4.5359

     highest occupied level (ev):     5.7975

     Writing output data file silicon.10.30.save

                                                                                

     bravais-lattice index     =            2
     lattice parameter (alat)  =      10.3000  a.u.
     unit-cell volume          =     273.1818 (a.u.)^3
     number of atoms/cell      =            2
     number of atomic types    =            1
     kinetic-energy cut-off    =      18.0000  Ry
     charge density cut-off    =      72.0000  Ry
     convergence threshold     =      1.0E-12
     beta                      =       0.7000
     number of iterations used =            4
     Exchange-correlation      = SLA  PW   PBE  PBE ( 1  4  3  4 0 0)


     celldm(1)=   10.30000  celldm(2)=    0.00000  celldm(3)=    0.00000
     celldm(4)=    0.00000  celldm(5)=    0.00000  celldm(6)=    0.00000

     crystal axes: (cart. coord. in units of alat)
               a(1) = ( -0.5000  0.0000  0.5000 )  
               a(2) = (  0.0000  0.5000  0.5000 )  
               a(3) = ( -0.5000  0.5000  0.0000 )  

     reciprocal axes: (cart. coord. in units 2 pi/alat)
               b(1) = ( -1.0000 -1.0000  1.0000 )  
               b(2) = (  1.0000  1.0000  1.0000 )  
               b(3) = ( -1.0000  1.0000 -1.0000 )  


     Atoms inside the unit cell: 

     Cartesian axes

     site n.  atom      mass           positions (alat units)
        1     Si  28.0860   tau(    1) = (    0.00000    0.00000    0.00000  )
        2     Si  28.0860   tau(    2) = (    0.25000    0.25000    0.25000  )

     Computing dynamical matrix for 
                    q = (   0.0000000   0.5000000   0.0000000 )

      8 Sym.Ops. (no q -> -q+G )


     G cutoff =  193.4850  (    685 G-vectors)     FFT grid: ( 20, 20, 20)
     number of k points=    80

     PseudoPot. # 1 for Si read from file:
     /home/max/quantum_espresso/qe-6.1/pseudo/si_pbe_v1.uspp.F.UPF.txt
     MD5 check sum: a056efeee980c13900f22a371efd63c1
     Pseudo is Ultrasoft + core correction, Zval =  4.0
     Generated by new atomic code, or converted to UPF format
     Using radial grid of  899 points,  6 beta functions with: 
                l(1) =   0
                l(2) =   0
                l(3) =   1
                l(4) =   1
                l(5) =   2
                l(6) =   2
     Q(r) pseudized with  8 coefficients,  rinner =    0.900   0.900   0.900
                                                       0.900   0.900

     Mode symmetry, C_4v (4mm)  point group:


     Atomic displacements:
     There are   4 irreducible representations

     Representation     1      1 modes -A_1  G_1 D_1  To be done

     Representation     2      1 modes -B_2  G_4 D_2'  To be done

     Representation     3      2 modes -E    G_5 D_5  To be done

     Representation     4      2 modes -E    G_5 D_5  To be done



     Alpha used in Ewald sum =   0.7000
     PHONON       :    19.61s CPU        20.42s WALL



     Representation #  1 mode #   1

     Self-consistent Calculation

      iter #   1 total cpu time :    20.6 secs   av.it.:   5.8
      thresh= 1.000E-02 alpha_mix =  0.700 |ddv_scf|^2 =  2.997E-03

      iter #   2 total cpu time :    20.7 secs   av.it.:   7.7
      thresh= 5.474E-03 alpha_mix =  0.700 |ddv_scf|^2 =  3.924E-02

      iter #   3 total cpu time :    20.9 secs   av.it.:   6.8
      thresh= 1.000E-02 alpha_mix =  0.700 |ddv_scf|^2 =  1.358E-07

      iter #   4 total cpu time :    21.1 secs   av.it.:   8.2
      thresh= 3.685E-05 alpha_mix =  0.700 |ddv_scf|^2 =  1.211E-08

      iter #   5 total cpu time :    21.3 secs   av.it.:   7.8
      thresh= 1.101E-05 alpha_mix =  0.700 |ddv_scf|^2 =  7.486E-10

      iter #   6 total cpu time :    21.4 secs   av.it.:   7.8
      thresh= 2.736E-06 alpha_mix =  0.700 |ddv_scf|^2 =  2.652E-12

      iter #   7 total cpu time :    21.6 secs   av.it.:   7.9
      thresh= 1.629E-07 alpha_mix =  0.700 |ddv_scf|^2 =  5.243E-13

     End of self-consistent calculation

     Convergence has been achieved 


     Representation #  2 mode #   2

     Self-consistent Calculation

      iter #   1 total cpu time :    21.8 secs   av.it.:   4.9
      thresh= 1.000E-02 alpha_mix =  0.700 |ddv_scf|^2 =  5.492E-06

      iter #   2 total cpu time :    21.9 secs   av.it.:   8.7
      thresh= 2.344E-04 alpha_mix =  0.700 |ddv_scf|^2 =  1.315E-06

      iter #   3 total cpu time :    22.1 secs   av.it.:   8.5
      thresh= 1.147E-04 alpha_mix =  0.700 |ddv_scf|^2 =  4.075E-08

      iter #   4 total cpu time :    22.3 secs   av.it.:   8.2
      thresh= 2.019E-05 alpha_mix =  0.700 |ddv_scf|^2 =  6.566E-10

      iter #   5 total cpu time :    22.5 secs   av.it.:   8.5
      thresh= 2.562E-06 alpha_mix =  0.700 |ddv_scf|^2 =  6.695E-12

      iter #   6 total cpu time :    22.7 secs   av.it.:   7.9
      thresh= 2.588E-07 alpha_mix =  0.700 |ddv_scf|^2 =  6.793E-14

     End of self-consistent calculation

     Convergence has been achieved 


     Representation #  3 modes #   3  4

     Self-consistent Calculation

      iter #   1 total cpu time :    23.0 secs   av.it.:   5.0
      thresh= 1.000E-02 alpha_mix =  0.700 |ddv_scf|^2 =  1.020E-06

      iter #   2 total cpu time :    23.4 secs   av.it.:   9.7
      thresh= 1.010E-04 alpha_mix =  0.700 |ddv_scf|^2 =  1.266E-07

      iter #   3 total cpu time :    23.8 secs   av.it.:   9.5
      thresh= 3.558E-05 alpha_mix =  0.700 |ddv_scf|^2 =  6.487E-09

      iter #   4 total cpu time :    24.1 secs   av.it.:   8.8
      thresh= 8.054E-06 alpha_mix =  0.700 |ddv_scf|^2 =  9.194E-12

      iter #   5 total cpu time :    24.5 secs   av.it.:   9.1
      thresh= 3.032E-07 alpha_mix =  0.700 |ddv_scf|^2 =  2.804E-13

     End of self-consistent calculation

     Convergence has been achieved 


     Representation #  4 modes #   5  6

     Self-consistent Calculation

      iter #   1 total cpu time :    24.8 secs   av.it.:   5.0
      thresh= 1.000E-02 alpha_mix =  0.700 |ddv_scf|^2 =  9.066E-07

      iter #   2 total cpu time :    25.2 secs   av.it.:   9.8
      thresh= 9.522E-05 alpha_mix =  0.700 |ddv_scf|^2 =  1.148E-07

      iter #   3 total cpu time :    25.6 secs   av.it.:   9.4
      thresh= 3.389E-05 alpha_mix =  0.700 |ddv_scf|^2 =  6.002E-09

      iter #   4 total cpu time :    26.0 secs   av.it.:   8.9
      thresh= 7.747E-06 alpha_mix =  0.700 |ddv_scf|^2 =  1.387E-11

      iter #   5 total cpu time :    26.3 secs   av.it.:   9.2
      thresh= 3.724E-07 alpha_mix =  0.700 |ddv_scf|^2 =  4.252E-14

     End of self-consistent calculation

     Convergence has been achieved 

     Number of q in the star =    6
     List of q in the star:
          1   0.000000000   0.500000000   0.000000000
          2   0.000000000  -0.500000000   0.000000000
          3   0.500000000   0.000000000   0.000000000
          4   0.000000000   0.000000000   0.500000000
          5   0.000000000   0.000000000  -0.500000000
          6  -0.500000000   0.000000000   0.000000000

     Diagonalizing the dynamical matrix

     q = (    0.000000000   0.500000000   0.000000000 ) 

 **************************************************************************
     freq (    1) =       4.191581 [THz] =     139.816080 [cm-1]
     freq (    2) =       4.191581 [THz] =     139.816080 [cm-1]
     freq (    3) =       7.249873 [THz] =     241.829744 [cm-1]
     freq (    4) =      13.890145 [THz] =     463.325360 [cm-1]
     freq (    5) =      13.890145 [THz] =     463.325360 [cm-1]
     freq (    6) =      14.468002 [THz] =     482.600593 [cm-1]
 **************************************************************************

     Mode symmetry, C_4v (4mm)  point group:

     freq (  1 -  2) =        139.8  [cm-1]   --> E    G_5 D_5       
     freq (  3 -  3) =        241.8  [cm-1]   --> A_1  G_1 D_1       
     freq (  4 -  5) =        463.3  [cm-1]   --> E    G_5 D_5       
     freq (  6 -  6) =        482.6  [cm-1]   --> B_2  G_4 D_2'      

     Calculation of q =    0.7500000  -0.2500000   0.7500000

   Info: using nr1, nr2, nr3 values from input

   Info: using nr1, nr2, nr3 values from input

     Parallelization info
     --------------------
     sticks:   dense  smooth     PW     G-vecs:    dense   smooth      PW
     Min          63      63     30                  684      684     216
     Max          64      64     31                  688      688     218
     Sum         253     253    121                 2741     2741     869



     bravais-lattice index     =            2
     lattice parameter (alat)  =      10.3000  a.u.
     unit-cell volume          =     273.1818 (a.u.)^3
     number of atoms/cell      =            2
     number of atomic types    =            1
     number of electrons       =         8.00
     number of Kohn-Sham states=            4
     kinetic-energy cutoff     =      18.0000  Ry
     charge density cutoff     =      72.0000  Ry
     Exchange-correlation      = SLA  PW   PBE  PBE ( 1  4  3  4 0 0)

     celldm(1)=  10.300000  celldm(2)=   0.000000  celldm(3)=   0.000000
     celldm(4)=   0.000000  celldm(5)=   0.000000  celldm(6)=   0.000000

     crystal axes: (cart. coord. in units of alat)
               a(1) = (  -0.500000   0.000000   0.500000 )  
               a(2) = (   0.000000   0.500000   0.500000 )  
               a(3) = (  -0.500000   0.500000   0.000000 )  

     reciprocal axes: (cart. coord. in units 2 pi/alat)
               b(1) = ( -1.000000 -1.000000  1.000000 )  
               b(2) = (  1.000000  1.000000  1.000000 )  
               b(3) = ( -1.000000  1.000000 -1.000000 )  


     PseudoPot. # 1 for Si read from file:
     /home/max/quantum_espresso/qe-6.1/pseudo/si_pbe_v1.uspp.F.UPF.txt
     MD5 check sum: a056efeee980c13900f22a371efd63c1
     Pseudo is Ultrasoft + core correction, Zval =  4.0
     Generated by new atomic code, or converted to UPF format
     Using radial grid of  899 points,  6 beta functions with: 
                l(1) =   0
                l(2) =   0
                l(3) =   1
                l(4) =   1
                l(5) =   2
                l(6) =   2
     Q(r) pseudized with  8 coefficients,  rinner =    0.900   0.900   0.900
                                                       0.900   0.900

     atomic species   valence    mass     pseudopotential
        Si             4.00    28.08600     Si( 1.00)

     48 Sym. Ops., with inversion, found



   Cartesian axes

     site n.     atom                  positions (alat units)
         1           Si  tau(   1) = (   0.0000000   0.0000000   0.0000000  )
         2           Si  tau(   2) = (   0.2500000   0.2500000   0.2500000  )

     number of k points=   288

     Number of k-points >= 100: set verbosity='high' to print them.

     Dense  grid:     2741 G-vectors     FFT dimensions: (  20,  20,  20)

     Estimated max dynamical RAM per process >       0.33MB

     Estimated total allocated dynamical RAM >       1.30MB

     Check: negative/imaginary core charge=   -0.000005    0.000000

     The potential is recalculated from file :
     ./_ph0/silicon.10.30.save/charge-density.dat

     Starting wfc are    8 atomic wfcs

     Band Structure Calculation
     Davidson diagonalization with overlap

     ethr =  1.25E-10,  avg # of iterations = 11.6

     total cpu time spent up to now is        3.7 secs

     End of band structure calculation

     Number of k-points >= 100: set verbosity='high' to print the bands.

     highest occupied level (ev):     5.7975

     Writing output data file silicon.10.30.save

                                                                                

     bravais-lattice index     =            2
     lattice parameter (alat)  =      10.3000  a.u.
     unit-cell volume          =     273.1818 (a.u.)^3
     number of atoms/cell      =            2
     number of atomic types    =            1
     kinetic-energy cut-off    =      18.0000  Ry
     charge density cut-off    =      72.0000  Ry
     convergence threshold     =      1.0E-12
     beta                      =       0.7000
     number of iterations used =            4
     Exchange-correlation      = SLA  PW   PBE  PBE ( 1  4  3  4 0 0)


     celldm(1)=   10.30000  celldm(2)=    0.00000  celldm(3)=    0.00000
     celldm(4)=    0.00000  celldm(5)=    0.00000  celldm(6)=    0.00000

     crystal axes: (cart. coord. in units of alat)
               a(1) = ( -0.5000  0.0000  0.5000 )  
               a(2) = (  0.0000  0.5000  0.5000 )  
               a(3) = ( -0.5000  0.5000  0.0000 )  

     reciprocal axes: (cart. coord. in units 2 pi/alat)
               b(1) = ( -1.0000 -1.0000  1.0000 )  
               b(2) = (  1.0000  1.0000  1.0000 )  
               b(3) = ( -1.0000  1.0000 -1.0000 )  


     Atoms inside the unit cell: 

     Cartesian axes

     site n.  atom      mass           positions (alat units)
        1     Si  28.0860   tau(    1) = (    0.00000    0.00000    0.00000  )
        2     Si  28.0860   tau(    2) = (    0.25000    0.25000    0.25000  )

     Computing dynamical matrix for 
                    q = (   0.7500000  -0.2500000   0.7500000 )

      2 Sym.Ops. (no q -> -q+G )


     G cutoff =  193.4850  (    685 G-vectors)     FFT grid: ( 20, 20, 20)
     number of k points=   288

     PseudoPot. # 1 for Si read from file:
     /home/max/quantum_espresso/qe-6.1/pseudo/si_pbe_v1.uspp.F.UPF.txt
     MD5 check sum: a056efeee980c13900f22a371efd63c1
     Pseudo is Ultrasoft + core correction, Zval =  4.0
     Generated by new atomic code, or converted to UPF format
     Using radial grid of  899 points,  6 beta functions with: 
                l(1) =   0
                l(2) =   0
                l(3) =   1
                l(4) =   1
                l(5) =   2
                l(6) =   2
     Q(r) pseudized with  8 coefficients,  rinner =    0.900   0.900   0.900
                                                       0.900   0.900

     Mode symmetry, C_s (m)     point group:


     Atomic displacements:
     There are   6 irreducible representations

     Representation     1      1 modes -A'  To be done

     Representation     2      1 modes -A'  To be done

     Representation     3      1 modes -A'  To be done

     Representation     4      1 modes -A'  To be done

     Representation     5      1 modes -A''  To be done

     Representation     6      1 modes -A''  To be done



     Alpha used in Ewald sum =   0.7000
     PHONON       :    27.74s CPU        28.84s WALL



     Representation #  1 mode #   1

     Self-consistent Calculation

      iter #   1 total cpu time :    29.3 secs   av.it.:   5.3
      thresh= 1.000E-02 alpha_mix =  0.700 |ddv_scf|^2 =  6.162E-05

      iter #   2 total cpu time :    30.0 secs   av.it.:   8.9
      thresh= 7.850E-04 alpha_mix =  0.700 |ddv_scf|^2 =  1.604E-04

      iter #   3 total cpu time :    30.6 secs   av.it.:   7.5
      thresh= 1.267E-03 alpha_mix =  0.700 |ddv_scf|^2 =  1.142E-06

      iter #   4 total cpu time :    31.2 secs   av.it.:   8.4
      thresh= 1.069E-04 alpha_mix =  0.700 |ddv_scf|^2 =  5.424E-08

      iter #   5 total cpu time :    31.8 secs   av.it.:   8.3
      thresh= 2.329E-05 alpha_mix =  0.700 |ddv_scf|^2 =  7.145E-09

      iter #   6 total cpu time :    32.5 secs   av.it.:   8.5
      thresh= 8.453E-06 alpha_mix =  0.700 |ddv_scf|^2 =  7.591E-11

      iter #   7 total cpu time :    33.1 secs   av.it.:   8.7
      thresh= 8.713E-07 alpha_mix =  0.700 |ddv_scf|^2 =  2.699E-12

      iter #   8 total cpu time :    33.8 secs   av.it.:   8.6
      thresh= 1.643E-07 alpha_mix =  0.700 |ddv_scf|^2 =  1.649E-13

     End of self-consistent calculation

     Convergence has been achieved 


     Representation #  2 mode #   2

     Self-consistent Calculation

      iter #   1 total cpu time :    34.3 secs   av.it.:   5.4
      thresh= 1.000E-02 alpha_mix =  0.700 |ddv_scf|^2 =  1.099E-04

      iter #   2 total cpu time :    34.9 secs   av.it.:   8.7
      thresh= 1.048E-03 alpha_mix =  0.700 |ddv_scf|^2 =  3.122E-04

      iter #   3 total cpu time :    35.5 secs   av.it.:   7.4
      thresh= 1.767E-03 alpha_mix =  0.700 |ddv_scf|^2 =  7.745E-07

      iter #   4 total cpu time :    36.2 secs   av.it.:   8.5
      thresh= 8.801E-05 alpha_mix =  0.700 |ddv_scf|^2 =  5.406E-08

      iter #   5 total cpu time :    36.8 secs   av.it.:   8.2
      thresh= 2.325E-05 alpha_mix =  0.700 |ddv_scf|^2 =  9.939E-09

      iter #   6 total cpu time :    37.4 secs   av.it.:   8.4
      thresh= 9.970E-06 alpha_mix =  0.700 |ddv_scf|^2 =  7.671E-11

      iter #   7 total cpu time :    38.1 secs   av.it.:   8.8
      thresh= 8.758E-07 alpha_mix =  0.700 |ddv_scf|^2 =  2.494E-12

      iter #   8 total cpu time :    38.7 secs   av.it.:   8.7
      thresh= 1.579E-07 alpha_mix =  0.700 |ddv_scf|^2 =  7.004E-13

     End of self-consistent calculation

     Convergence has been achieved 


     Representation #  3 mode #   3

     Self-consistent Calculation

      iter #   1 total cpu time :    39.2 secs   av.it.:   5.3
      thresh= 1.000E-02 alpha_mix =  0.700 |ddv_scf|^2 =  8.622E-05

      iter #   2 total cpu time :    39.9 secs   av.it.:   8.7
      thresh= 9.285E-04 alpha_mix =  0.700 |ddv_scf|^2 =  2.294E-04

      iter #   3 total cpu time :    40.5 secs   av.it.:   7.4
      thresh= 1.515E-03 alpha_mix =  0.700 |ddv_scf|^2 =  1.326E-06

      iter #   4 total cpu time :    41.1 secs   av.it.:   8.2
      thresh= 1.152E-04 alpha_mix =  0.700 |ddv_scf|^2 =  5.515E-08

      iter #   5 total cpu time :    41.7 secs   av.it.:   8.4
      thresh= 2.348E-05 alpha_mix =  0.700 |ddv_scf|^2 =  1.013E-08

      iter #   6 total cpu time :    42.3 secs   av.it.:   8.4
      thresh= 1.007E-05 alpha_mix =  0.700 |ddv_scf|^2 =  4.539E-11

      iter #   7 total cpu time :    43.0 secs   av.it.:   8.7
      thresh= 6.737E-07 alpha_mix =  0.700 |ddv_scf|^2 =  1.609E-12

      iter #   8 total cpu time :    43.6 secs   av.it.:   8.8
      thresh= 1.268E-07 alpha_mix =  0.700 |ddv_scf|^2 =  3.614E-13

     End of self-consistent calculation

     Convergence has been achieved 


     Representation #  4 mode #   4

     Self-consistent Calculation

      iter #   1 total cpu time :    44.2 secs   av.it.:   5.2
      thresh= 1.000E-02 alpha_mix =  0.700 |ddv_scf|^2 =  3.795E-05

      iter #   2 total cpu time :    44.8 secs   av.it.:   8.9
[...]
        k(   59) = (  -0.8750000   0.1250000  -0.1250000), wk =   0.0625000
        k(   60) = (  -1.3750000  -0.8750000  -0.1250000), wk =   0.0000000
        k(   61) = (  -1.1250000   0.3750000  -0.3750000), wk =   0.0625000
        k(   62) = (  -1.6250000  -0.6250000  -0.3750000), wk =   0.0000000
        k(   63) = (  -0.3750000   0.3750000   1.1250000), wk =   0.0625000
        k(   64) = (  -0.8750000  -0.6250000   1.1250000), wk =   0.0000000

     Dense  grid:     2741 G-vectors     FFT dimensions: (  20,  20,  20)

     Estimated max dynamical RAM per process >       0.33MB

     Estimated total allocated dynamical RAM >       1.30MB

     Check: negative/imaginary core charge=   -0.000005    0.000000

     The potential is recalculated from file :
     ./_ph0/silicon.10.30.save/charge-density.dat

     Starting wfc are    8 atomic wfcs

     Band Structure Calculation
     Davidson diagonalization with overlap

     ethr =  1.25E-10,  avg # of iterations = 11.6

     total cpu time spent up to now is        5.8 secs

     End of band structure calculation

          k =-0.1250 0.1250 0.1250 (   338 PWs)   bands (ev):

    -5.5949   4.4890   5.7975   5.7975

          k =-0.6250-0.8750 0.1250 (   356 PWs)   bands (ev):

    -2.3733  -0.8237   2.0829   3.1653

          k =-0.3750 0.3750-0.1250 (   350 PWs)   bands (ev):

    -4.5617   1.4806   3.8000   5.3132

          k =-0.8750-0.6250-0.1250 (   356 PWs)   bands (ev):

    -2.3733  -0.8237   2.0829   3.1653

          k = 0.3750-0.3750 0.6250 (   354 PWs)   bands (ev):

    -3.4130  -0.6128   3.8234   4.5359

          k =-0.1250-1.3750 0.6250 (   359 PWs)   bands (ev):

    -2.9141  -0.5229   2.1440   4.2162

          k = 0.1250-0.1250 0.3750 (   344 PWs)   bands (ev):

    -5.0637   2.8668   4.7807   4.8505

          k =-0.3750-1.1250 0.3750 (   359 PWs)   bands (ev):

    -2.9141  -0.5229   2.1440   4.2162

          k =-0.1250 0.6250 0.1250 (   345 PWs)   bands (ev):

    -4.0251   1.1511   3.4473   3.8999

          k =-0.6250-0.3750 0.1250 (   353 PWs)   bands (ev):

    -3.6067   0.2686   2.8036   4.1777

          k = 0.6250-0.1250 0.8750 (   356 PWs)   bands (ev):

    -2.3733  -0.8237   2.0829   3.1653

          k = 0.1250-1.1250 0.8750 (   352 PWs)   bands (ev):

    -2.5431  -0.7245   2.6957   3.4297

          k = 0.3750 0.1250 0.6250 (   353 PWs)   bands (ev):

    -3.6067   0.2686   2.8036   4.1777

          k =-0.1250-0.8750 0.6250 (   356 PWs)   bands (ev):

    -2.3733  -0.8237   2.0829   3.1653

          k =-0.1250-0.8750 0.1250 (   352 PWs)   bands (ev):

    -2.5431  -0.7245   2.6957   3.4297

          k =-0.6250-1.8750 0.1250 (   345 PWs)   bands (ev):

    -4.0251   1.1511   3.4473   3.8999

          k =-0.3750 0.3750 0.3750 (   353 PWs)   bands (ev):

    -4.1260   0.1802   5.0041   5.0041

          k =-0.8750-0.6250 0.3750 (   353 PWs)   bands (ev):

    -3.6067   0.2686   2.8036   4.1777

          k = 0.3750-0.3750 1.1250 (   359 PWs)   bands (ev):

    -2.9141  -0.5229   2.1440   4.2162

          k =-0.1250-1.3750 1.1250 (   356 PWs)   bands (ev):

    -2.3733  -0.8237   2.0829   3.1653

          k = 0.1250-0.3750 0.3750 (   350 PWs)   bands (ev):

    -4.5617   1.4806   3.8000   5.3132

          k =-0.3750-1.3750 0.3750 (   354 PWs)   bands (ev):

    -3.4130  -0.6128   3.8234   4.5359

          k = 0.3750-0.3750-0.1250 (   350 PWs)   bands (ev):

    -4.5617   1.4806   3.8000   5.3132

          k =-0.1250-1.3750-0.1250 (   345 PWs)   bands (ev):

    -4.0251   1.1511   3.4473   3.8999

          k =-0.6250 0.3750-0.3750 (   354 PWs)   bands (ev):

    -3.4130  -0.6128   3.8234   4.5359

          k =-1.1250-0.6250-0.3750 (   353 PWs)   bands (ev):

    -3.6067   0.2686   2.8036   4.1777

          k =-0.3750 0.3750 0.6250 (   354 PWs)   bands (ev):

    -3.4130  -0.6128   3.8234   4.5359

          k =-0.8750-0.6250 0.6250 (   350 PWs)   bands (ev):

    -4.5617   1.4806   3.8000   5.3132

          k =-0.3750 0.1250-0.1250 (   344 PWs)   bands (ev):

    -5.0637   2.8668   4.7807   4.8505

          k =-0.8750-0.8750-0.1250 (   352 PWs)   bands (ev):

    -2.5431  -0.7245   2.6957   3.4297

          k =-0.1250 0.1250 0.3750 (   344 PWs)   bands (ev):

    -5.0637   2.8668   4.7807   4.8505

          k =-0.6250-0.8750 0.3750 (   353 PWs)   bands (ev):

    -3.6067   0.2686   2.8036   4.1777

          k = 0.1250 0.6250-0.1250 (   345 PWs)   bands (ev):

    -4.0251   1.1511   3.4473   3.8999

          k =-0.3750-0.3750-0.1250 (   350 PWs)   bands (ev):

    -4.5617   1.4806   3.8000   5.3132

          k = 0.6250 0.1250-0.1250 (   345 PWs)   bands (ev):

    -4.0251   1.1511   3.4473   3.8999

          k = 0.1250-0.8750-0.1250 (   352 PWs)   bands (ev):

    -2.5431  -0.7245   2.6957   3.4297

          k =-0.8750 0.1250-0.6250 (   356 PWs)   bands (ev):

    -2.3733  -0.8237   2.0829   3.1653

          k =-1.3750-0.8750-0.6250 (   350 PWs)   bands (ev):

    -4.5617   1.4806   3.8000   5.3132

          k = 0.8750-0.1250 0.6250 (   356 PWs)   bands (ev):

    -2.3733  -0.8237   2.0829   3.1653

          k = 0.3750-1.1250 0.6250 (   353 PWs)   bands (ev):

    -3.6067   0.2686   2.8036   4.1777

          k =-0.6250 0.1250 0.8750 (   356 PWs)   bands (ev):

    -2.3733  -0.8237   2.0829   3.1653

          k =-1.1250-0.8750 0.8750 (   338 PWs)   bands (ev):

    -5.5949   4.4890   5.7975   5.7975

          k =-0.1250 0.8750 0.6250 (   356 PWs)   bands (ev):

    -2.3733  -0.8237   2.0829   3.1653

          k =-0.6250-0.1250 0.6250 (   359 PWs)   bands (ev):

    -2.9141  -0.5229   2.1440   4.2162

          k = 0.1250 0.8750-0.6250 (   356 PWs)   bands (ev):

    -2.3733  -0.8237   2.0829   3.1653

          k =-0.3750-0.1250-0.6250 (   353 PWs)   bands (ev):

    -3.6067   0.2686   2.8036   4.1777

          k =-0.6250-0.1250-0.3750 (   353 PWs)   bands (ev):

    -3.6067   0.2686   2.8036   4.1777

          k =-1.1250-1.1250-0.3750 (   345 PWs)   bands (ev):

    -4.0251   1.1511   3.4473   3.8999

          k = 0.6250 0.1250 0.3750 (   353 PWs)   bands (ev):

    -3.6067   0.2686   2.8036   4.1777

          k = 0.1250-0.8750 0.3750 (   356 PWs)   bands (ev):

    -2.3733  -0.8237   2.0829   3.1653

          k =-0.3750-0.1250 0.6250 (   353 PWs)   bands (ev):

    -3.6067   0.2686   2.8036   4.1777

          k =-0.8750-1.1250 0.6250 (   344 PWs)   bands (ev):

    -5.0637   2.8668   4.7807   4.8505

          k = 0.1250 0.6250 0.3750 (   353 PWs)   bands (ev):

    -3.6067   0.2686   2.8036   4.1777

          k =-0.3750-0.3750 0.3750 (   353 PWs)   bands (ev):

    -4.1260   0.1802   5.0041   5.0041

          k =-0.1250 0.6250-0.3750 (   353 PWs)   bands (ev):

    -3.6067   0.2686   2.8036   4.1777

          k =-0.6250-0.3750-0.3750 (   354 PWs)   bands (ev):

    -3.4130  -0.6128   3.8234   4.5359

          k = 0.1250-0.8750-0.1250 (   352 PWs)   bands (ev):

    -2.5431  -0.7245   2.6957   3.4297

          k =-0.3750-1.8750-0.1250 (   344 PWs)   bands (ev):

    -5.0637   2.8668   4.7807   4.8505

          k =-0.8750 0.1250-0.1250 (   352 PWs)   bands (ev):

    -2.5431  -0.7245   2.6957   3.4297

          k =-1.3750-0.8750-0.1250 (   356 PWs)   bands (ev):

    -2.3733  -0.8237   2.0829   3.1653

          k =-1.1250 0.3750-0.3750 (   359 PWs)   bands (ev):

    -2.9141  -0.5229   2.1440   4.2162

          k =-1.6250-0.6250-0.3750 (   354 PWs)   bands (ev):

    -3.4130  -0.6128   3.8234   4.5359

          k =-0.3750 0.3750 1.1250 (   359 PWs)   bands (ev):

    -2.9141  -0.5229   2.1440   4.2162

          k =-0.8750-0.6250 1.1250 (   344 PWs)   bands (ev):

    -5.0637   2.8668   4.7807   4.8505

     highest occupied level (ev):     5.7975

     Writing output data file silicon.10.30.save

                                                                                

     bravais-lattice index     =            2
     lattice parameter (alat)  =      10.3000  a.u.
     unit-cell volume          =     273.1818 (a.u.)^3
     number of atoms/cell      =            2
     number of atomic types    =            1
     kinetic-energy cut-off    =      18.0000  Ry
     charge density cut-off    =      72.0000  Ry
     convergence threshold     =      1.0E-12
     beta                      =       0.7000
     number of iterations used =            4
     Exchange-correlation      = SLA  PW   PBE  PBE ( 1  4  3  4 0 0)


     celldm(1)=   10.30000  celldm(2)=    0.00000  celldm(3)=    0.00000
     celldm(4)=    0.00000  celldm(5)=    0.00000  celldm(6)=    0.00000

     crystal axes: (cart. coord. in units of alat)
               a(1) = ( -0.5000  0.0000  0.5000 )  
               a(2) = (  0.0000  0.5000  0.5000 )  
               a(3) = ( -0.5000  0.5000  0.0000 )  

     reciprocal axes: (cart. coord. in units 2 pi/alat)
               b(1) = ( -1.0000 -1.0000  1.0000 )  
               b(2) = (  1.0000  1.0000  1.0000 )  
               b(3) = ( -1.0000  1.0000 -1.0000 )  


     Atoms inside the unit cell: 

     Cartesian axes

     site n.  atom      mass           positions (alat units)
        1     Si  28.0860   tau(    1) = (    0.00000    0.00000    0.00000  )
        2     Si  28.0860   tau(    2) = (    0.25000    0.25000    0.25000  )

     Computing dynamical matrix for 
                    q = (  -0.5000000  -1.0000000   0.0000000 )

      8 Sym.Ops. (no q -> -q+G )


     G cutoff =  193.4850  (    685 G-vectors)     FFT grid: ( 20, 20, 20)
     number of k points=    64

     PseudoPot. # 1 for Si read from file:
     /home/max/quantum_espresso/qe-6.1/pseudo/si_pbe_v1.uspp.F.UPF.txt
     MD5 check sum: a056efeee980c13900f22a371efd63c1
     Pseudo is Ultrasoft + core correction, Zval =  4.0
     Generated by new atomic code, or converted to UPF format
     Using radial grid of  899 points,  6 beta functions with: 
                l(1) =   0
                l(2) =   0
                l(3) =   1
                l(4) =   1
                l(5) =   2
                l(6) =   2
     Q(r) pseudized with  8 coefficients,  rinner =    0.900   0.900   0.900
                                                       0.900   0.900


     Atomic displacements:
     There are   3 irreducible representations

     Representation     1      2 modes -  To be done

     Representation     2      2 modes -  To be done

     Representation     3      2 modes -  To be done



     Alpha used in Ewald sum =   0.7000
     PHONON       :  1m 8.88s CPU     1m11.86s WALL



     Representation #  1 modes #   1  2

     Self-consistent Calculation

      iter #   1 total cpu time :    72.1 secs   av.it.:   5.3
      thresh= 1.000E-02 alpha_mix =  0.700 |ddv_scf|^2 =  6.391E-06

      iter #   2 total cpu time :    72.4 secs   av.it.:   9.8
      thresh= 2.528E-04 alpha_mix =  0.700 |ddv_scf|^2 =  3.471E-06

      iter #   3 total cpu time :    72.7 secs   av.it.:   9.2
      thresh= 1.863E-04 alpha_mix =  0.700 |ddv_scf|^2 =  8.277E-09

      iter #   4 total cpu time :    73.1 secs   av.it.:   9.1
      thresh= 9.098E-06 alpha_mix =  0.700 |ddv_scf|^2 =  1.898E-11

      iter #   5 total cpu time :    73.4 secs   av.it.:   9.1
      thresh= 4.356E-07 alpha_mix =  0.700 |ddv_scf|^2 =  5.264E-13

     End of self-consistent calculation

     Convergence has been achieved 


     Representation #  2 modes #   3  4

     Self-consistent Calculation

      iter #   1 total cpu time :    73.6 secs   av.it.:   5.2
      thresh= 1.000E-02 alpha_mix =  0.700 |ddv_scf|^2 =  9.871E-06

      iter #   2 total cpu time :    73.9 secs   av.it.:   9.9
      thresh= 3.142E-04 alpha_mix =  0.700 |ddv_scf|^2 =  1.301E-05

      iter #   3 total cpu time :    74.2 secs   av.it.:   9.1
      thresh= 3.607E-04 alpha_mix =  0.700 |ddv_scf|^2 =  9.684E-09

      iter #   4 total cpu time :    74.6 secs   av.it.:   8.9
      thresh= 9.841E-06 alpha_mix =  0.700 |ddv_scf|^2 =  7.586E-11

      iter #   5 total cpu time :    74.9 secs   av.it.:   9.4
      thresh= 8.710E-07 alpha_mix =  0.700 |ddv_scf|^2 =  1.674E-12

      iter #   6 total cpu time :    75.2 secs   av.it.:   9.1
      thresh= 1.294E-07 alpha_mix =  0.700 |ddv_scf|^2 =  1.411E-14

     End of self-consistent calculation

     Convergence has been achieved 


     Representation #  3 modes #   5  6

     Self-consistent Calculation

      iter #   1 total cpu time :    75.4 secs   av.it.:   5.1
      thresh= 1.000E-02 alpha_mix =  0.700 |ddv_scf|^2 =  2.671E-06

      iter #   2 total cpu time :    75.7 secs   av.it.:   9.7
      thresh= 1.634E-04 alpha_mix =  0.700 |ddv_scf|^2 =  1.464E-06

      iter #   3 total cpu time :    76.1 secs   av.it.:   9.1
      thresh= 1.210E-04 alpha_mix =  0.700 |ddv_scf|^2 =  8.140E-09

      iter #   4 total cpu time :    76.4 secs   av.it.:   8.8
      thresh= 9.022E-06 alpha_mix =  0.700 |ddv_scf|^2 =  4.238E-11

      iter #   5 total cpu time :    76.7 secs   av.it.:   9.1
      thresh= 6.510E-07 alpha_mix =  0.700 |ddv_scf|^2 =  7.004E-13

     End of self-consistent calculation

     Convergence has been achieved 

     Number of q in the star =    6
     List of q in the star:
          1  -0.500000000  -1.000000000   0.000000000
          2   0.000000000   1.000000000   0.500000000
          3   0.000000000  -1.000000000  -0.500000000
          4   0.500000000   1.000000000   0.000000000
          5  -1.000000000  -0.500000000   0.000000000
          6   0.000000000  -0.500000000  -1.000000000

     Diagonalizing the dynamical matrix

     q = (   -0.500000000  -1.000000000   0.000000000 ) 

 **************************************************************************
     freq (    1) =       6.928443 [THz] =     231.107968 [cm-1]
     freq (    2) =       6.928443 [THz] =     231.107968 [cm-1]
     freq (    3) =      10.868833 [THz] =     362.545242 [cm-1]
     freq (    4) =      10.868833 [THz] =     362.545242 [cm-1]
     freq (    5) =      13.958721 [THz] =     465.612807 [cm-1]
     freq (    6) =      13.958721 [THz] =     465.612807 [cm-1]
 **************************************************************************

     init_run     :      0.52s CPU      0.53s WALL (       7 calls)
     electrons    :      4.39s CPU      4.58s WALL (       7 calls)

     Called by init_run:
     wfcinit      :      0.00s CPU      0.00s WALL (       7 calls)
     potinit      :      0.02s CPU      0.02s WALL (       7 calls)

     Called by electrons:
     c_bands      :      4.39s CPU      4.56s WALL (       7 calls)
     v_of_rho     :      0.01s CPU      0.01s WALL (       8 calls)
     newd         :      0.03s CPU      0.03s WALL (       8 calls)

     Called by c_bands:
     init_us_2    :      0.66s CPU      0.69s WALL (   17588 calls)
     cegterg      :      3.69s CPU      3.84s WALL (     796 calls)

     Called by sum_band:

     Called by *egterg:
     h_psi        :     40.88s CPU     42.77s WALL (  152146 calls)
     s_psi        :      5.68s CPU      5.95s WALL (  309012 calls)
     g_psi        :      0.03s CPU      0.03s WALL (    9268 calls)
     cdiaghg      :      0.42s CPU      0.44s WALL (   10064 calls)

     Called by h_psi:
     h_psi:pot    :     40.69s CPU     42.58s WALL (  152146 calls)
     h_psi:calbec :      3.96s CPU      4.14s WALL (  152146 calls)
     vloc_psi     :     33.68s CPU     35.24s WALL (  152146 calls)
     add_vuspsi   :      2.84s CPU      2.97s WALL (  152146 calls)

     General routines
     calbec       :      8.75s CPU      9.16s WALL (  345384 calls)
     fft          :      0.28s CPU      0.28s WALL (    5239 calls)
     ffts         :      0.13s CPU      0.13s WALL (    2748 calls)
     fftw         :     38.87s CPU     40.68s WALL ( 1377250 calls)
     davcio       :      0.31s CPU      0.32s WALL (   79045 calls)

     Parallel routines
     fft_scatter  :      7.04s CPU      7.39s WALL ( 1385237 calls)

     PHONON       :  1m13.43s CPU     1m16.68s WALL

     INITIALIZATION: 
     phq_setup    :      0.05s CPU      0.05s WALL (       8 calls)
     phq_init     :      1.88s CPU      1.92s WALL (       8 calls)

     phq_init     :      1.88s CPU      1.92s WALL (       8 calls)
     set_drhoc    :      0.28s CPU      0.28s WALL (      24 calls)
     init_vloc    :      0.01s CPU      0.01s WALL (       8 calls)
     init_us_1    :      0.47s CPU      0.48s WALL (       8 calls)
     newd         :      0.03s CPU      0.03s WALL (       8 calls)
     dvanqq       :      0.22s CPU      0.22s WALL (       8 calls)
     drho         :      0.97s CPU      0.99s WALL (       8 calls)

     DYNAMICAL MATRIX:
     dynmat0      :      0.47s CPU      0.47s WALL (       8 calls)
     phqscf       :     64.20s CPU     67.16s WALL (       8 calls)
     dynmatrix    :      0.01s CPU      0.01s WALL (       8 calls)

     phqscf       :     64.20s CPU     67.16s WALL (       8 calls)
     solve_linter :     63.52s CPU     66.46s WALL (      32 calls)
     drhodv       :      0.48s CPU      0.49s WALL (      32 calls)

     dynmat0      :      0.47s CPU      0.47s WALL (       8 calls)
     dynmat_us    :      0.26s CPU      0.26s WALL (       8 calls)
     d2ionq       :      0.01s CPU      0.01s WALL (       8 calls)
     dynmatcc     :      0.20s CPU      0.20s WALL (       8 calls)

     dynmat_us    :      0.26s CPU      0.26s WALL (       8 calls)
     addusdynmat  :      0.00s CPU      0.00s WALL (       8 calls)

     phqscf       :     64.20s CPU     67.16s WALL (       8 calls)
     solve_linter :     63.52s CPU     66.46s WALL (      32 calls)

     solve_linter :     63.52s CPU     66.46s WALL (      32 calls)
     dvqpsi_us    :      1.57s CPU      1.64s WALL (    2508 calls)
     ortho        :      0.90s CPU      0.95s WALL (   15550 calls)
     cgsolve      :     49.75s CPU     52.07s WALL (   15550 calls)
     incdrhoscf   :      4.37s CPU      4.57s WALL (   15550 calls)
     addusddens   :      1.04s CPU      1.07s WALL (     228 calls)
     vpsifft      :      3.19s CPU      3.35s WALL (   12922 calls)
     dv_of_drho   :      0.19s CPU      0.20s WALL (     295 calls)
     mix_pot      :      0.05s CPU      0.06s WALL (     201 calls)
     psymdvscf    :      0.79s CPU      0.80s WALL (     196 calls)
     newdq        :      1.12s CPU      1.17s WALL (     201 calls)
     adddvscf     :      0.45s CPU      0.48s WALL (   13042 calls)
     drhodvus     :      0.00s CPU      0.00s WALL (      32 calls)

     dvqpsi_us    :      1.57s CPU      1.64s WALL (    2508 calls)
     dvqpsi_us_on :      0.81s CPU      0.84s WALL (    2508 calls)

     cgsolve      :     49.75s CPU     52.07s WALL (   15550 calls)
     ch_psi       :     48.35s CPU     50.60s WALL (  141286 calls)

     ch_psi       :     48.35s CPU     50.60s WALL (  141286 calls)
     h_psi        :     40.88s CPU     42.77s WALL (  152146 calls)
     last         :      7.56s CPU      7.91s WALL (  141286 calls)

     h_psi        :     40.88s CPU     42.77s WALL (  152146 calls)
     add_vuspsi   :      2.84s CPU      2.97s WALL (  152146 calls)

     incdrhoscf   :      4.37s CPU      4.57s WALL (   15550 calls)
     addusdbec    :      0.58s CPU      0.61s WALL (   17998 calls)

     drhodvus     :      0.00s CPU      0.00s WALL (      32 calls)

      General routines
     calbec       :      8.75s CPU      9.16s WALL (  345384 calls)
     fft          :      0.28s CPU      0.28s WALL (    5239 calls)
     ffts         :      0.13s CPU      0.13s WALL (    2748 calls)
     fftw         :     38.87s CPU     40.68s WALL ( 1377250 calls)
     davcio       :      0.31s CPU      0.32s WALL (   79045 calls)
     write_rec    :      0.20s CPU      0.21s WALL (     233 calls)


     PHONON       :  1m13.43s CPU     1m16.68s WALL


   This run was terminated on:   1:19:42   9Nov2017            

=------------------------------------------------------------------------------=
   JOB DONE.
=------------------------------------------------------------------------------=
