
     Program PWSCF v.6.1 (svn rev. 13369) starts on 10Nov2017 at 10: 3:30 

     This program is part of the open-source Quantum ESPRESSO suite
     for quantum simulation of materials; please cite
         "P. Giannozzi et al., J. Phys.:Condens. Matter 21 395502 (2009);
          URL http://www.quantum-espresso.org", 
     in publications or presentations arising from this work. More details at
     http://www.quantum-espresso.org/quote

     Parallel version (MPI), running on     4 processors
     R & G space division:  proc/nbgrp/npool/nimage =       4
     Waiting for input...
     Reading input from standard input
     Message from routine read_cards :
     DEPRECATED: no units specified in ATOMIC_POSITIONS card
     Message from routine read_cards :
     ATOMIC_POSITIONS: units set to alat

     Current dimensions of program PWSCF are:
     Max number of different atomic species (ntypx) = 10
     Max number of k-points (npk) =  40000
     Max angular momentum in pseudopotentials (lmaxx) =  3

     Subspace diagonalization in iterative solution of the eigenvalue problem:
     a serial algorithm will be used


     Parallelization info
     --------------------
     sticks:   dense  smooth     PW     G-vecs:    dense   smooth      PW
     Min         133      66     22                 2024      722     152
     Max         134      67     23                 2025      724     153
     Sum         535     265     91                 8099     2891     609



     bravais-lattice index     =            2
     lattice parameter (alat)  =      10.3990  a.u.
     unit-cell volume          =     281.1349 (a.u.)^3
     number of atoms/cell      =            2
     number of atomic types    =            1
     number of electrons       =         8.00
     number of Kohn-Sham states=            4
     kinetic-energy cutoff     =      18.0000  Ry
     charge density cutoff     =     144.0000  Ry
     convergence threshold     =      1.0E-08
     mixing beta               =       0.7000
     number of iterations used =            8  plain     mixing
     Exchange-correlation      = SLA  PW   PBE  PBE ( 1  4  3  4 0 0)

     celldm(1)=  10.399000  celldm(2)=   0.000000  celldm(3)=   0.000000
     celldm(4)=   0.000000  celldm(5)=   0.000000  celldm(6)=   0.000000

     crystal axes: (cart. coord. in units of alat)
               a(1) = (  -0.500000   0.000000   0.500000 )  
               a(2) = (   0.000000   0.500000   0.500000 )  
               a(3) = (  -0.500000   0.500000   0.000000 )  

     reciprocal axes: (cart. coord. in units 2 pi/alat)
               b(1) = ( -1.000000 -1.000000  1.000000 )  
               b(2) = (  1.000000  1.000000  1.000000 )  
               b(3) = ( -1.000000  1.000000 -1.000000 )  


     PseudoPot. # 1 for Si read from file:
     /home/max/quantum_espresso/qe-6.1/pseudo/si_pbe_v1.uspp.F.UPF.txt
     MD5 check sum: a056efeee980c13900f22a371efd63c1
     Pseudo is Ultrasoft + core correction, Zval =  4.0
     Generated by new atomic code, or converted to UPF format
     Using radial grid of  899 points,  6 beta functions with: 
                l(1) =   0
                l(2) =   0
                l(3) =   1
                l(4) =   1
                l(5) =   2
                l(6) =   2
     Q(r) pseudized with  8 coefficients,  rinner =    0.900   0.900   0.900
                                                       0.900   0.900

     atomic species   valence    mass     pseudopotential
        Si             4.00    28.08600     Si( 1.00)

     24 Sym. Ops. (no inversion) found
          (note: 24 additional sym.ops. were found but ignored
           their fractional translations are incommensurate with FFT grid)


   Cartesian axes

     site n.     atom                  positions (alat units)
         1           Si  tau(   1) = (   0.0000000   0.0000000   0.0000000  )
         2           Si  tau(   2) = (   0.2500000   0.2500000   0.2500000  )

     number of k points=    60
                       cart. coord. in units 2pi/alat
        k(    1) = (  -0.0625000   0.0625000   0.0625000), wk =   0.0078125
        k(    2) = (  -0.1875000   0.1875000  -0.0625000), wk =   0.0234375
        k(    3) = (  -0.3125000   0.3125000  -0.1875000), wk =   0.0234375
        k(    4) = (  -0.4375000   0.4375000  -0.3125000), wk =   0.0234375
        k(    5) = (   0.4375000  -0.4375000   0.5625000), wk =   0.0234375
        k(    6) = (   0.3125000  -0.3125000   0.4375000), wk =   0.0234375
        k(    7) = (   0.1875000  -0.1875000   0.3125000), wk =   0.0234375
        k(    8) = (   0.0625000  -0.0625000   0.1875000), wk =   0.0234375
        k(    9) = (  -0.0625000   0.3125000   0.0625000), wk =   0.0234375
        k(   10) = (  -0.1875000   0.4375000  -0.0625000), wk =   0.0468750
        k(   11) = (  -0.3125000   0.5625000  -0.1875000), wk =   0.0468750
        k(   12) = (   0.5625000  -0.3125000   0.6875000), wk =   0.0468750
        k(   13) = (   0.4375000  -0.1875000   0.5625000), wk =   0.0468750
        k(   14) = (   0.3125000  -0.0625000   0.4375000), wk =   0.0468750
        k(   15) = (   0.1875000   0.0625000   0.3125000), wk =   0.0468750
        k(   16) = (  -0.0625000   0.5625000   0.0625000), wk =   0.0234375
        k(   17) = (  -0.1875000   0.6875000  -0.0625000), wk =   0.0468750
        k(   18) = (   0.6875000  -0.1875000   0.8125000), wk =   0.0468750
        k(   19) = (   0.5625000  -0.0625000   0.6875000), wk =   0.0468750
        k(   20) = (   0.4375000   0.0625000   0.5625000), wk =   0.0468750
        k(   21) = (   0.3125000   0.1875000   0.4375000), wk =   0.0468750
        k(   22) = (  -0.0625000   0.8125000   0.0625000), wk =   0.0234375
        k(   23) = (   0.8125000  -0.0625000   0.9375000), wk =   0.0468750
        k(   24) = (   0.6875000   0.0625000   0.8125000), wk =   0.0468750
        k(   25) = (   0.5625000   0.1875000   0.6875000), wk =   0.0468750
        k(   26) = (   0.4375000   0.3125000   0.5625000), wk =   0.0468750
        k(   27) = (  -0.0625000  -0.9375000   0.0625000), wk =   0.0234375
        k(   28) = (  -0.1875000  -0.8125000  -0.0625000), wk =   0.0468750
        k(   29) = (  -0.3125000  -0.6875000  -0.1875000), wk =   0.0468750
        k(   30) = (  -0.0625000  -0.6875000   0.0625000), wk =   0.0234375
        k(   31) = (  -0.1875000  -0.5625000  -0.0625000), wk =   0.0468750
        k(   32) = (  -0.0625000  -0.4375000   0.0625000), wk =   0.0234375
        k(   33) = (  -0.1875000   0.1875000   0.1875000), wk =   0.0078125
        k(   34) = (  -0.3125000   0.3125000   0.0625000), wk =   0.0234375
        k(   35) = (  -0.4375000   0.4375000  -0.0625000), wk =   0.0234375
        k(   36) = (   0.4375000  -0.4375000   0.8125000), wk =   0.0234375
        k(   37) = (   0.3125000  -0.3125000   0.6875000), wk =   0.0234375
        k(   38) = (   0.1875000  -0.1875000   0.5625000), wk =   0.0234375
        k(   39) = (  -0.1875000   0.4375000   0.1875000), wk =   0.0234375
        k(   40) = (  -0.3125000   0.5625000   0.0625000), wk =   0.0468750
        k(   41) = (   0.5625000  -0.3125000   0.9375000), wk =   0.0468750
        k(   42) = (   0.4375000  -0.1875000   0.8125000), wk =   0.0468750
        k(   43) = (   0.3125000  -0.0625000   0.6875000), wk =   0.0468750
        k(   44) = (  -0.1875000   0.6875000   0.1875000), wk =   0.0234375
        k(   45) = (   0.6875000  -0.1875000   1.0625000), wk =   0.0468750
        k(   46) = (   0.5625000  -0.0625000   0.9375000), wk =   0.0468750
        k(   47) = (   0.4375000   0.0625000   0.8125000), wk =   0.0468750
        k(   48) = (  -0.1875000  -1.0625000   0.1875000), wk =   0.0234375
        k(   49) = (  -0.3125000  -0.9375000   0.0625000), wk =   0.0468750
        k(   50) = (  -0.1875000  -0.8125000   0.1875000), wk =   0.0234375
        k(   51) = (  -0.3125000   0.3125000   0.3125000), wk =   0.0078125
        k(   52) = (  -0.4375000   0.4375000   0.1875000), wk =   0.0234375
        k(   53) = (   0.4375000  -0.4375000   1.0625000), wk =   0.0234375
        k(   54) = (   0.3125000  -0.3125000   0.9375000), wk =   0.0234375
        k(   55) = (  -0.3125000   0.5625000   0.3125000), wk =   0.0234375
        k(   56) = (   0.5625000  -0.3125000   1.1875000), wk =   0.0468750
        k(   57) = (   0.4375000  -0.1875000   1.0625000), wk =   0.0468750
        k(   58) = (  -0.3125000  -1.1875000   0.3125000), wk =   0.0234375
        k(   59) = (  -0.4375000   0.4375000   0.4375000), wk =   0.0078125
        k(   60) = (   0.4375000  -0.4375000   1.3125000), wk =   0.0234375

     Dense  grid:     8099 G-vectors     FFT dimensions: (  30,  30,  30)

     Smooth grid:     2891 G-vectors     FFT dimensions: (  20,  20,  20)

     Estimated max dynamical RAM per process >       1.73MB

     Estimated total allocated dynamical RAM >       6.94MB

     Initial potential from superposition of free atoms

     starting charge    7.99866, renormalised to    8.00000
     Starting wfc are    8 randomized atomic wfcs

     total cpu time spent up to now is        0.4 secs

     per-process dynamical memory:     8.6 Mb

     Self-consistent Calculation

     iteration #  1     ecut=    18.00 Ry     beta=0.70
     Davidson diagonalization with overlap
     ethr =  1.00E-02,  avg # of iterations =  2.0

     Threshold (ethr) on eigenvalues was too large:
     Diagonalizing with lowered threshold

     Davidson diagonalization with overlap
     ethr =  6.54E-04,  avg # of iterations =  1.1

     total cpu time spent up to now is        0.7 secs

     total energy              =     -19.18913884 Ry
     Harris-Foulkes estimate   =     -19.20078687 Ry
     estimated scf accuracy    <       0.05210994 Ry

     iteration #  2     ecut=    18.00 Ry     beta=0.70
     Davidson diagonalization with overlap
     ethr =  6.51E-04,  avg # of iterations =  1.0

     total cpu time spent up to now is        0.9 secs

     total energy              =     -19.19073353 Ry
     Harris-Foulkes estimate   =     -19.19090336 Ry
     estimated scf accuracy    <       0.00245232 Ry

     iteration #  3     ecut=    18.00 Ry     beta=0.70
     Davidson diagonalization with overlap
     ethr =  3.07E-05,  avg # of iterations =  1.9

     total cpu time spent up to now is        1.3 secs

     total energy              =     -19.19099746 Ry
     Harris-Foulkes estimate   =     -19.19100962 Ry
     estimated scf accuracy    <       0.00003880 Ry

     iteration #  4     ecut=    18.00 Ry     beta=0.70
     Davidson diagonalization with overlap
     ethr =  4.85E-07,  avg # of iterations =  2.8

     total cpu time spent up to now is        1.7 secs

     total energy              =     -19.19102060 Ry
     Harris-Foulkes estimate   =     -19.19102106 Ry
     estimated scf accuracy    <       0.00000200 Ry

     iteration #  5     ecut=    18.00 Ry     beta=0.70
     Davidson diagonalization with overlap
     ethr =  2.50E-08,  avg # of iterations =  2.1

     total cpu time spent up to now is        1.9 secs

     total energy              =     -19.19102102 Ry
     Harris-Foulkes estimate   =     -19.19102103 Ry
     estimated scf accuracy    <       0.00000004 Ry

     iteration #  6     ecut=    18.00 Ry     beta=0.70
     Davidson diagonalization with overlap
     ethr =  5.57E-10,  avg # of iterations =  2.8

     total cpu time spent up to now is        2.2 secs

     End of self-consistent calculation

          k =-0.0625 0.0625 0.0625 (   338 PWs)   bands (ev):

    -5.8520   5.2554   5.7074   5.7074

          k =-0.1875 0.1875-0.0625 (   353 PWs)   bands (ev):

    -5.5908   3.7610   4.9210   5.5897

          k =-0.3125 0.3125-0.1875 (   356 PWs)   bands (ev):

    -4.9591   1.5786   4.4396   5.1369

          k =-0.4375 0.4375-0.3125 (   360 PWs)   bands (ev):

    -4.0818  -0.2641   4.2242   4.7381

          k = 0.4375-0.4375 0.5625 (   360 PWs)   bands (ev):

    -3.6490  -0.9442   4.2709   4.5257

          k = 0.3125-0.3125 0.4375 (   357 PWs)   bands (ev):

    -4.3816   0.2799   4.5478   4.5510

          k = 0.1875-0.1875 0.3125 (   357 PWs)   bands (ev):

    -5.2067   2.2932   4.8204   5.0066

          k = 0.0625-0.0625 0.1875 (   346 PWs)   bands (ev):

    -5.7205   4.5037   5.2929   5.4422

          k =-0.0625 0.3125 0.0625 (   354 PWs)   bands (ev):

    -5.4586   3.6090   4.7484   4.8233

          k =-0.1875 0.4375-0.0625 (   357 PWs)   bands (ev):

    -4.9466   2.1324   3.8000   4.5705

          k =-0.3125 0.5625-0.1875 (   361 PWs)   bands (ev):

    -4.1235   0.3208   3.3071   4.1723

          k = 0.5625-0.3125 0.6875 (   368 PWs)   bands (ev):

    -3.3863  -0.8542   3.0214   4.0821

          k = 0.4375-0.1875 0.5625 (   364 PWs)   bands (ev):

    -3.8288  -0.1848   2.9540   4.3586

          k = 0.3125-0.0625 0.4375 (   361 PWs)   bands (ev):

    -4.7051   1.4978   3.2578   4.8529

          k = 0.1875 0.0625 0.3125 (   359 PWs)   bands (ev):

    -5.3317   2.9517   4.3573   5.2167

          k =-0.0625 0.5625 0.0625 (   355 PWs)   bands (ev):

    -4.5549   1.6231   3.6614   3.7799

          k =-0.1875 0.6875-0.0625 (   359 PWs)   bands (ev):

    -3.8211   0.4109   2.8955   3.4423

          k = 0.6875-0.1875 0.8125 (   367 PWs)   bands (ev):

    -2.9489  -0.7548   2.0765   3.4113

          k = 0.5625-0.0625 0.6875 (   369 PWs)   bands (ev):

    -3.0199  -0.6625   1.7350   3.7462

          k = 0.4375 0.0625 0.5625 (   365 PWs)   bands (ev):

    -3.8916   0.2755   2.3204   4.3159

          k = 0.3125 0.1875 0.4375 (   358 PWs)   bands (ev):

    -4.5949   0.9164   3.9062   4.7553

          k =-0.0625 0.8125 0.0625 (   364 PWs)   bands (ev):

    -3.1820  -0.4364   2.9894   3.1988

          k = 0.8125-0.0625 0.9375 (   363 PWs)   bands (ev):

    -2.2947  -1.4044   2.4498   2.9636

          k = 0.6875 0.0625 0.8125 (   369 PWs)   bands (ev):

    -2.3952  -1.2392   1.7427   3.2710

          k = 0.5625 0.1875 0.6875 (   365 PWs)   bands (ev):

    -3.1354  -0.8197   2.2669   3.8570

          k = 0.4375 0.3125 0.5625 (   365 PWs)   bands (ev):

    -3.7292  -0.6591   3.7304   4.4284

          k =-0.0625-0.9375 0.0625 (   362 PWs)   bands (ev):

    -2.3435  -1.4203   2.8548   3.0800

          k =-0.1875-0.8125-0.0625 (   359 PWs)   bands (ev):

    -3.0993  -0.4984   2.6025   3.1199

          k =-0.3125-0.6875-0.1875 (   364 PWs)   bands (ev):

    -3.5624  -0.2258   2.6530   3.7041

          k =-0.0625-0.6875 0.0625 (   358 PWs)   bands (ev):

    -3.9234   0.5884   3.2588   3.4339

          k =-0.1875-0.5625-0.0625 (   356 PWs)   bands (ev):

    -4.4406   1.2908   3.3038   3.9378

          k =-0.0625-0.4375 0.0625 (   351 PWs)   bands (ev):

    -5.0686   2.6401   4.1921   4.2259

          k =-0.1875 0.1875 0.1875 (   359 PWs)   bands (ev):

    -5.4621   3.0520   5.2753   5.2753

          k =-0.3125 0.3125 0.0625 (   360 PWs)   bands (ev):

    -5.0791   2.2167   3.7981   5.2899

          k =-0.4375 0.4375-0.0625 (   362 PWs)   bands (ev):

    -4.3500   0.8687   2.7421   4.7966

          k = 0.4375-0.4375 0.8125 (   367 PWs)   bands (ev):

    -3.4803  -0.5804   2.5850   4.2784

          k = 0.3125-0.3125 0.6875 (   368 PWs)   bands (ev):

    -3.4651  -0.6083   2.8751   3.9684

          k = 0.1875-0.1875 0.5625 (   358 PWs)   bands (ev):

    -4.3327   0.8656   3.4763   3.9467

          k =-0.1875 0.4375 0.1875 (   362 PWs)   bands (ev):

    -4.8284   1.5660   4.2815   4.3561

          k =-0.3125 0.5625 0.0625 (   361 PWs)   bands (ev):

    -4.2164   0.7984   2.7976   4.1639

          k = 0.5625-0.3125 0.9375 (   367 PWs)   bands (ev):

    -3.3479  -0.2857   2.0288   3.6120

          k = 0.4375-0.1875 0.8125 (   369 PWs)   bands (ev):

    -2.8744  -0.8820   2.0282   3.3082

          k = 0.3125-0.0625 0.6875 (   362 PWs)   bands (ev):

    -3.6243   0.0957   2.4438   3.4822

          k =-0.1875 0.6875 0.1875 (   362 PWs)   bands (ev):

    -3.7306   0.1545   2.7673   3.6228

          k = 0.6875-0.1875 1.0625 (   363 PWs)   bands (ev):

    -2.9461  -0.6355   2.2084   2.9600

          k = 0.5625-0.0625 0.9375 (   370 PWs)   bands (ev):

    -2.1597  -1.3776   1.9013   2.4728

          k = 0.4375 0.0625 0.8125 (   367 PWs)   bands (ev):

    -2.7479  -0.8372   1.8908   2.9358

          k =-0.1875-1.0625 0.1875 (   364 PWs)   bands (ev):

    -2.3173  -1.3539   2.0025   3.2875

          k =-0.3125-0.9375 0.0625 (   366 PWs)   bands (ev):

    -2.2191  -1.3859   2.0940   2.6802

          k =-0.1875-0.8125 0.1875 (   362 PWs)   bands (ev):

    -3.0407  -0.5966   2.2600   3.4005

          k =-0.3125 0.3125 0.3125 (   359 PWs)   bands (ev):

    -4.7239   0.8912   4.8687   4.8687

          k =-0.4375 0.4375 0.1875 (   362 PWs)   bands (ev):

    -4.2561   0.3202   3.4324   4.7819

          k = 0.4375-0.4375 1.0625 (   367 PWs)   bands (ev):

    -3.4832  -0.2182   1.9502   4.2160

          k = 0.3125-0.3125 0.9375 (   364 PWs)   bands (ev):

    -2.6830  -0.9887   1.6246   3.6825

          k =-0.3125 0.5625 0.3125 (   368 PWs)   bands (ev):

    -3.9507  -0.2249   3.7557   4.2332

          k = 0.5625-0.3125 1.1875 (   367 PWs)   bands (ev):

    -3.3462  -0.5864   2.4819   3.7723

          k = 0.4375-0.1875 1.0625 (   370 PWs)   bands (ev):

    -2.5478  -1.0567   1.7144   3.0779

          k =-0.3125-1.1875 0.3125 (   363 PWs)   bands (ev):

    -2.9967  -0.8636   2.1033   3.7802

          k =-0.4375 0.4375 0.4375 (   356 PWs)   bands (ev):

    -3.8594  -0.7145   4.6511   4.6511

          k = 0.4375-0.4375 1.3125 (   365 PWs)   bands (ev):

    -3.5182  -0.8899   3.4471   4.3901

     highest occupied level (ev):     5.7074

!    total energy              =     -19.19102104 Ry
     Harris-Foulkes estimate   =     -19.19102104 Ry
     estimated scf accuracy    <          7.2E-09 Ry

     The total energy is the sum of the following terms:

     one-electron contribution =       4.80862368 Ry
     hartree contribution      =       1.15006112 Ry
     xc contribution           =      -8.57334871 Ry
     ewald contribution        =     -16.57635713 Ry

     convergence has been achieved in   6 iterations

     Writing output data file silicon.10.399.save

     init_run     :      0.25s CPU      0.29s WALL (       1 calls)
     electrons    :      1.16s CPU      1.77s WALL (       1 calls)

     Called by init_run:
     wfcinit      :      0.06s CPU      0.08s WALL (       1 calls)
     potinit      :      0.02s CPU      0.02s WALL (       1 calls)

     Called by electrons:
     c_bands      :      0.80s CPU      1.24s WALL (       7 calls)
     sum_band     :      0.22s CPU      0.34s WALL (       7 calls)
     v_of_rho     :      0.07s CPU      0.10s WALL (       7 calls)
     newd         :      0.07s CPU      0.09s WALL (       7 calls)
     mix_rho      :      0.00s CPU      0.01s WALL (       7 calls)

     Called by c_bands:
     init_us_2    :      0.05s CPU      0.06s WALL (     900 calls)
     cegterg      :      0.66s CPU      1.06s WALL (     420 calls)

     Called by sum_band:
     sum_band:bec :      0.00s CPU      0.01s WALL (     420 calls)
     addusdens    :      0.10s CPU      0.11s WALL (       7 calls)

     Called by *egterg:
     h_psi        :      0.48s CPU      0.76s WALL (    1300 calls)
     s_psi        :      0.05s CPU      0.06s WALL (    1300 calls)
     g_psi        :      0.00s CPU      0.00s WALL (     820 calls)
     cdiaghg      :      0.08s CPU      0.14s WALL (    1180 calls)

     Called by h_psi:
     h_psi:pot    :      0.48s CPU      0.76s WALL (    1300 calls)
     h_psi:calbec :      0.08s CPU      0.13s WALL (    1300 calls)
     vloc_psi     :      0.34s CPU      0.56s WALL (    1300 calls)
     add_vuspsi   :      0.06s CPU      0.06s WALL (    1300 calls)

     General routines
     calbec       :      0.10s CPU      0.19s WALL (    1720 calls)
     fft          :      0.09s CPU      0.14s WALL (     112 calls)
     ffts         :      0.00s CPU      0.00s WALL (      14 calls)
     fftw         :      0.32s CPU      0.58s WALL (   11622 calls)
     interpolate  :      0.01s CPU      0.01s WALL (      14 calls)
     davcio       :      0.00s CPU      0.00s WALL (      60 calls)

     Parallel routines
     fft_scatter  :      0.21s CPU      0.48s WALL (   11748 calls)

     PWSCF        :     1.67s CPU         2.34s WALL


   This run was terminated on:  10: 3:33  10Nov2017            

=------------------------------------------------------------------------------=
   JOB DONE.
=------------------------------------------------------------------------------=
