
     Program PHONON v.6.1 (svn rev. 13369) starts on  9Nov2017 at 17:39:39 

     This program is part of the open-source Quantum ESPRESSO suite
     for quantum simulation of materials; please cite
         "P. Giannozzi et al., J. Phys.:Condens. Matter 21 395502 (2009);
          URL http://www.quantum-espresso.org", 
     in publications or presentations arising from this work. More details at
     http://www.quantum-espresso.org/quote

     Parallel version (MPI), running on     4 processors
     R & G space division:  proc/nbgrp/npool/nimage =       4

     Reading data from directory:
     ./silicon.10.403.save

   Info: using nr1, nr2, nr3 values from input

   Info: using nr1, nr2, nr3 values from input

     IMPORTANT: XC functional enforced from input :
     Exchange-correlation      = SLA  PW   PBE  PBE ( 1  4  3  4 0 0)
     Any further DFT definition will be discarded
     Please, verify this is what you really want


     Parallelization info
     --------------------
     sticks:   dense  smooth     PW     G-vecs:    dense   smooth      PW
     Min          66      66     22                  722      722     152
     Max          67      67     23                  724      724     153
     Sum         265     265     91                 2891     2891     609


     Check: negative/imaginary core charge=   -0.000006    0.000000


     Dynamical matrices for ( 4, 4, 4)  uniform grid of q-points
     (   8q-points):
       N         xq(1)         xq(2)         xq(3) 
       1   0.000000000   0.000000000   0.000000000
       2  -0.250000000   0.250000000  -0.250000000
       3   0.500000000  -0.500000000   0.500000000
       4   0.000000000   0.500000000   0.000000000
       5   0.750000000  -0.250000000   0.750000000
       6   0.500000000   0.000000000   0.500000000
       7   0.000000000  -1.000000000   0.000000000
       8  -0.500000000  -1.000000000   0.000000000

     Calculation of q =    0.0000000   0.0000000   0.0000000

                                                                                

     bravais-lattice index     =            2
     lattice parameter (alat)  =      10.4030  a.u.
     unit-cell volume          =     281.4594 (a.u.)^3
     number of atoms/cell      =            2
     number of atomic types    =            1
     kinetic-energy cut-off    =      18.0000  Ry
     charge density cut-off    =      72.0000  Ry
     convergence threshold     =      1.0E-12
     beta                      =       0.7000
     number of iterations used =            4
     Exchange-correlation      = SLA  PW   PBE  PBE ( 1  4  3  4 0 0)


     celldm(1)=   10.40300  celldm(2)=    0.00000  celldm(3)=    0.00000
     celldm(4)=    0.00000  celldm(5)=    0.00000  celldm(6)=    0.00000

     crystal axes: (cart. coord. in units of alat)
               a(1) = ( -0.5000  0.0000  0.5000 )  
               a(2) = (  0.0000  0.5000  0.5000 )  
               a(3) = ( -0.5000  0.5000  0.0000 )  

     reciprocal axes: (cart. coord. in units 2 pi/alat)
               b(1) = ( -1.0000 -1.0000  1.0000 )  
               b(2) = (  1.0000  1.0000  1.0000 )  
               b(3) = ( -1.0000  1.0000 -1.0000 )  


     Atoms inside the unit cell: 

     Cartesian axes

     site n.  atom      mass           positions (alat units)
        1     Si  28.0860   tau(    1) = (    0.00000    0.00000    0.00000  )
        2     Si  28.0860   tau(    2) = (    0.25000    0.25000    0.25000  )

     Computing dynamical matrix for 
                    q = (   0.0000000   0.0000000   0.0000000 )

     49 Sym.Ops. (with q -> -q+G )


     G cutoff =  197.3740  (    722 G-vectors)     FFT grid: ( 20, 20, 20)
     number of k points=    10

     PseudoPot. # 1 for Si read from file:
     /home/max/quantum_espresso/qe-6.1/pseudo/si_pbe_v1.uspp.F.UPF.txt
     MD5 check sum: a056efeee980c13900f22a371efd63c1
     Pseudo is Ultrasoft + core correction, Zval =  4.0
     Generated by new atomic code, or converted to UPF format
     Using radial grid of  899 points,  6 beta functions with: 
                l(1) =   0
                l(2) =   0
                l(3) =   1
                l(4) =   1
                l(5) =   2
                l(6) =   2
     Q(r) pseudized with  8 coefficients,  rinner =    0.900   0.900   0.900
                                                       0.900   0.900

     Mode symmetry, O_h (m-3m)  point group:


     Electric field:
     Dielectric constant
     Born effective charges in two ways 


     Atomic displacements:
     There are   2 irreducible representations

     Representation     1      3 modes -T_2g G_25' G_5+  To be done

     Representation     2      3 modes -T_1u G_15  G_4-  To be done



     Alpha used in Ewald sum =   0.7000
     PHONON       :     0.40s CPU         0.41s WALL


     Electric Fields Calculation

      iter #   1 total cpu time :     0.8 secs   av.it.:   5.6
      thresh= 1.000E-02 alpha_mix =  0.700 |ddv_scf|^2 =  9.581E-07

      iter #   2 total cpu time :     1.0 secs   av.it.:   9.9
      thresh= 9.788E-05 alpha_mix =  0.700 |ddv_scf|^2 =  6.258E-08

      iter #   3 total cpu time :     1.3 secs   av.it.:   9.8
      thresh= 2.502E-05 alpha_mix =  0.700 |ddv_scf|^2 =  4.973E-09

      iter #   4 total cpu time :     1.5 secs   av.it.:   9.0
      thresh= 7.052E-06 alpha_mix =  0.700 |ddv_scf|^2 =  3.015E-11

      iter #   5 total cpu time :     1.6 secs   av.it.:   9.2
      thresh= 5.491E-07 alpha_mix =  0.700 |ddv_scf|^2 =  1.546E-14

     End of electric fields calculation

          Dielectric constant in cartesian axis 

          (      14.028640865      -0.000000000      -0.000000000 )
          (      -0.000000000      14.028640865       0.000000000 )
          (      -0.000000000       0.000000000      14.028640865 )

          Effective charges (d Force / dE) in cartesian axis

           atom      1   Si 
      Ex  (       -0.03353        0.00000        0.00000 )
      Ey  (        0.00000       -0.03353        0.00000 )
      Ez  (       -0.00000        0.00000       -0.03353 )
           atom      2   Si 
      Ex  (       -0.03353        0.00000        0.00000 )
      Ey  (        0.00000       -0.03353       -0.00000 )
      Ez  (        0.00000       -0.00000       -0.03353 )


     Representation #  1 modes #   1  2  3

     Self-consistent Calculation

      iter #   1 total cpu time :     2.0 secs   av.it.:   5.0
      thresh= 1.000E-02 alpha_mix =  0.700 |ddv_scf|^2 =  1.854E-07

      iter #   2 total cpu time :     2.2 secs   av.it.:  10.0
      thresh= 4.305E-05 alpha_mix =  0.700 |ddv_scf|^2 =  1.025E-08

      iter #   3 total cpu time :     2.4 secs   av.it.:   9.5
      thresh= 1.012E-05 alpha_mix =  0.700 |ddv_scf|^2 =  7.086E-10

      iter #   4 total cpu time :     2.6 secs   av.it.:   9.1
      thresh= 2.662E-06 alpha_mix =  0.700 |ddv_scf|^2 =  1.826E-12

      iter #   5 total cpu time :     2.7 secs   av.it.:   9.4
      thresh= 1.351E-07 alpha_mix =  0.700 |ddv_scf|^2 =  1.543E-14

     End of self-consistent calculation

     Convergence has been achieved 


     Representation #  2 modes #   4  5  6

     Self-consistent Calculation

      iter #   1 total cpu time :     3.0 secs   av.it.:   5.0
      thresh= 1.000E-02 alpha_mix =  0.700 |ddv_scf|^2 =  1.928E-07

      iter #   2 total cpu time :     3.3 secs   av.it.:   9.6
      thresh= 4.391E-05 alpha_mix =  0.700 |ddv_scf|^2 =  1.593E-08

      iter #   3 total cpu time :     3.5 secs   av.it.:   9.2
      thresh= 1.262E-05 alpha_mix =  0.700 |ddv_scf|^2 =  9.561E-10

      iter #   4 total cpu time :     3.6 secs   av.it.:   9.5
      thresh= 3.092E-06 alpha_mix =  0.700 |ddv_scf|^2 =  5.566E-12

      iter #   5 total cpu time :     3.8 secs   av.it.:   9.1
      thresh= 2.359E-07 alpha_mix =  0.700 |ddv_scf|^2 =  5.115E-15

     End of self-consistent calculation

     Convergence has been achieved 

     Number of q in the star =    1
     List of q in the star:
          1   0.000000000   0.000000000   0.000000000

          Dielectric constant in cartesian axis 

          (      14.028640865      -0.000000000      -0.000000000 )
          (      -0.000000000      14.028640865       0.000000000 )
          (      -0.000000000       0.000000000      14.028640865 )

          Effective charges (d Force / dE) in cartesian axis

           atom      1   Si 
      Ex  (       -0.03353        0.00000        0.00000 )
      Ey  (        0.00000       -0.03353        0.00000 )
      Ez  (       -0.00000        0.00000       -0.03353 )
           atom      2   Si 
      Ex  (       -0.03353        0.00000        0.00000 )
      Ey  (        0.00000       -0.03353       -0.00000 )
      Ez  (        0.00000       -0.00000       -0.03353 )

          Effective charges (d P / du) in cartesian axis 

           atom      1   Si 
      Px  (       -0.07601        0.00000       -0.00000 )
      Py  (        0.00000       -0.07601        0.00000 )
      Pz  (        0.00000        0.00000       -0.07601 )
           atom      2   Si 
      Px  (       -0.07601       -0.00000        0.00000 )
      Py  (       -0.00000       -0.07601        0.00000 )
      Pz  (        0.00000        0.00000       -0.07601 )

     Diagonalizing the dynamical matrix

     q = (    0.000000000   0.000000000   0.000000000 ) 

 **************************************************************************
     freq (    1) =       1.774326 [THz] =      59.185159 [cm-1]
     freq (    2) =       1.774326 [THz] =      59.185159 [cm-1]
     freq (    3) =       1.774326 [THz] =      59.185159 [cm-1]
     freq (    4) =      15.559051 [THz] =     518.994060 [cm-1]
     freq (    5) =      15.559051 [THz] =     518.994060 [cm-1]
     freq (    6) =      15.559051 [THz] =     518.994060 [cm-1]
 **************************************************************************

     Mode symmetry, O_h (m-3m)  point group:

     freq (  1 -  3) =         59.2  [cm-1]   --> T_1u G_15  G_4- I  
     freq (  4 -  6) =        519.0  [cm-1]   --> T_2g G_25' G_5+ R  

     Calculation of q =   -0.2500000   0.2500000  -0.2500000

   Info: using nr1, nr2, nr3 values from input

   Info: using nr1, nr2, nr3 values from input

     Parallelization info
     --------------------
     sticks:   dense  smooth     PW     G-vecs:    dense   smooth      PW
     Min          66      66     24                  722      722     161
     Max          67      67     25                  724      724     162
     Sum         265     265     97                 2891     2891     645



     bravais-lattice index     =            2
     lattice parameter (alat)  =      10.4030  a.u.
     unit-cell volume          =     281.4594 (a.u.)^3
     number of atoms/cell      =            2
     number of atomic types    =            1
     number of electrons       =         8.00
     number of Kohn-Sham states=            4
     kinetic-energy cutoff     =      18.0000  Ry
     charge density cutoff     =      72.0000  Ry
     Exchange-correlation      = SLA  PW   PBE  PBE ( 1  4  3  4 0 0)

     celldm(1)=  10.403000  celldm(2)=   0.000000  celldm(3)=   0.000000
     celldm(4)=   0.000000  celldm(5)=   0.000000  celldm(6)=   0.000000

     crystal axes: (cart. coord. in units of alat)
               a(1) = (  -0.500000   0.000000   0.500000 )  
               a(2) = (   0.000000   0.500000   0.500000 )  
               a(3) = (  -0.500000   0.500000   0.000000 )  

     reciprocal axes: (cart. coord. in units 2 pi/alat)
               b(1) = ( -1.000000 -1.000000  1.000000 )  
               b(2) = (  1.000000  1.000000  1.000000 )  
               b(3) = ( -1.000000  1.000000 -1.000000 )  


     PseudoPot. # 1 for Si read from file:
     /home/max/quantum_espresso/qe-6.1/pseudo/si_pbe_v1.uspp.F.UPF.txt
     MD5 check sum: a056efeee980c13900f22a371efd63c1
     Pseudo is Ultrasoft + core correction, Zval =  4.0
     Generated by new atomic code, or converted to UPF format
     Using radial grid of  899 points,  6 beta functions with: 
                l(1) =   0
                l(2) =   0
                l(3) =   1
                l(4) =   1
                l(5) =   2
                l(6) =   2
     Q(r) pseudized with  8 coefficients,  rinner =    0.900   0.900   0.900
                                                       0.900   0.900

     atomic species   valence    mass     pseudopotential
        Si             4.00    28.08600     Si( 1.00)

     48 Sym. Ops., with inversion, found



   Cartesian axes

     site n.     atom                  positions (alat units)
         1           Si  tau(   1) = (   0.0000000   0.0000000   0.0000000  )
         2           Si  tau(   2) = (   0.2500000   0.2500000   0.2500000  )

     number of k points=   120

     Number of k-points >= 100: set verbosity='high' to print them.

     Dense  grid:     2891 G-vectors     FFT dimensions: (  20,  20,  20)

     Estimated max dynamical RAM per process >       0.33MB

     Estimated total allocated dynamical RAM >       1.33MB

     Check: negative/imaginary core charge=   -0.000006    0.000000

     The potential is recalculated from file :
     ./_ph0/silicon.10.403.save/charge-density.dat

     Starting wfc are    8 atomic wfcs

     Band Structure Calculation
     Davidson diagonalization with overlap

     ethr =  1.25E-10,  avg # of iterations = 11.7

     total cpu time spent up to now is        0.8 secs

     End of band structure calculation

     Number of k-points >= 100: set verbosity='high' to print the bands.

     highest occupied level (ev):     5.5016

     Writing output data file silicon.10.403.save

                                                                                

     bravais-lattice index     =            2
     lattice parameter (alat)  =      10.4030  a.u.
     unit-cell volume          =     281.4594 (a.u.)^3
     number of atoms/cell      =            2
     number of atomic types    =            1
     kinetic-energy cut-off    =      18.0000  Ry
     charge density cut-off    =      72.0000  Ry
     convergence threshold     =      1.0E-12
     beta                      =       0.7000
     number of iterations used =            4
     Exchange-correlation      = SLA  PW   PBE  PBE ( 1  4  3  4 0 0)


     celldm(1)=   10.40300  celldm(2)=    0.00000  celldm(3)=    0.00000
     celldm(4)=    0.00000  celldm(5)=    0.00000  celldm(6)=    0.00000

     crystal axes: (cart. coord. in units of alat)
               a(1) = ( -0.5000  0.0000  0.5000 )  
               a(2) = (  0.0000  0.5000  0.5000 )  
               a(3) = ( -0.5000  0.5000  0.0000 )  

     reciprocal axes: (cart. coord. in units 2 pi/alat)
               b(1) = ( -1.0000 -1.0000  1.0000 )  
               b(2) = (  1.0000  1.0000  1.0000 )  
               b(3) = ( -1.0000  1.0000 -1.0000 )  


     Atoms inside the unit cell: 

     Cartesian axes

     site n.  atom      mass           positions (alat units)
        1     Si  28.0860   tau(    1) = (    0.00000    0.00000    0.00000  )
        2     Si  28.0860   tau(    2) = (    0.25000    0.25000    0.25000  )

     Computing dynamical matrix for 
                    q = (  -0.2500000   0.2500000  -0.2500000 )

      6 Sym.Ops. (no q -> -q+G )


     G cutoff =  197.3740  (    722 G-vectors)     FFT grid: ( 20, 20, 20)
     number of k points=   120

     PseudoPot. # 1 for Si read from file:
     /home/max/quantum_espresso/qe-6.1/pseudo/si_pbe_v1.uspp.F.UPF.txt
     MD5 check sum: a056efeee980c13900f22a371efd63c1
     Pseudo is Ultrasoft + core correction, Zval =  4.0
     Generated by new atomic code, or converted to UPF format
     Using radial grid of  899 points,  6 beta functions with: 
                l(1) =   0
                l(2) =   0
                l(3) =   1
                l(4) =   1
                l(5) =   2
                l(6) =   2
     Q(r) pseudized with  8 coefficients,  rinner =    0.900   0.900   0.900
                                                       0.900   0.900

     Mode symmetry, C_3v (3m)   point group:


     Atomic displacements:
     There are   4 irreducible representations

     Representation     1      1 modes -A_1  L_1  To be done

     Representation     2      1 modes -A_1  L_1  To be done

     Representation     3      2 modes -E    L_3  To be done

     Representation     4      2 modes -E    L_3  To be done



     Alpha used in Ewald sum =   0.7000
     PHONON       :     4.78s CPU         5.13s WALL



     Representation #  1 mode #   1

     Self-consistent Calculation

      iter #   1 total cpu time :     5.6 secs   av.it.:   5.5
      thresh= 1.000E-02 alpha_mix =  0.700 |ddv_scf|^2 =  2.427E-03

      iter #   2 total cpu time :     5.9 secs   av.it.:   7.5
      thresh= 4.926E-03 alpha_mix =  0.700 |ddv_scf|^2 =  3.692E-02

      iter #   3 total cpu time :     6.1 secs   av.it.:   6.3
      thresh= 1.000E-02 alpha_mix =  0.700 |ddv_scf|^2 =  1.682E-06

      iter #   4 total cpu time :     6.4 secs   av.it.:   8.2
      thresh= 1.297E-04 alpha_mix =  0.700 |ddv_scf|^2 =  1.132E-07

      iter #   5 total cpu time :     6.6 secs   av.it.:   8.1
      thresh= 3.364E-05 alpha_mix =  0.700 |ddv_scf|^2 =  4.649E-09

      iter #   6 total cpu time :     6.9 secs   av.it.:   8.0
      thresh= 6.818E-06 alpha_mix =  0.700 |ddv_scf|^2 =  3.512E-09

      iter #   7 total cpu time :     7.3 secs   av.it.:   6.3
      thresh= 5.926E-06 alpha_mix =  0.700 |ddv_scf|^2 =  7.294E-10

      iter #   8 total cpu time :     7.5 secs   av.it.:   7.1
      thresh= 2.701E-06 alpha_mix =  0.700 |ddv_scf|^2 =  5.408E-12

      iter #   9 total cpu time :     7.8 secs   av.it.:   7.1
      thresh= 2.326E-07 alpha_mix =  0.700 |ddv_scf|^2 =  2.996E-13

     End of self-consistent calculation

     Convergence has been achieved 


     Representation #  2 mode #   2

     Self-consistent Calculation

      iter #   1 total cpu time :     8.0 secs   av.it.:   5.5
      thresh= 1.000E-02 alpha_mix =  0.700 |ddv_scf|^2 =  2.427E-03

      iter #   2 total cpu time :     8.2 secs   av.it.:   7.5
      thresh= 4.926E-03 alpha_mix =  0.700 |ddv_scf|^2 =  3.692E-02

      iter #   3 total cpu time :     8.4 secs   av.it.:   6.3
      thresh= 1.000E-02 alpha_mix =  0.700 |ddv_scf|^2 =  1.682E-06

      iter #   4 total cpu time :     8.7 secs   av.it.:   8.2
      thresh= 1.297E-04 alpha_mix =  0.700 |ddv_scf|^2 =  1.132E-07

      iter #   5 total cpu time :     9.0 secs   av.it.:   8.1
      thresh= 3.364E-05 alpha_mix =  0.700 |ddv_scf|^2 =  4.649E-09

      iter #   6 total cpu time :     9.4 secs   av.it.:   8.0
      thresh= 6.818E-06 alpha_mix =  0.700 |ddv_scf|^2 =  3.512E-09

      iter #   7 total cpu time :     9.6 secs   av.it.:   6.3
      thresh= 5.926E-06 alpha_mix =  0.700 |ddv_scf|^2 =  7.294E-10

      iter #   8 total cpu time :     9.8 secs   av.it.:   7.1
      thresh= 2.701E-06 alpha_mix =  0.700 |ddv_scf|^2 =  5.408E-12

      iter #   9 total cpu time :    10.1 secs   av.it.:   7.1
      thresh= 2.326E-07 alpha_mix =  0.700 |ddv_scf|^2 =  2.996E-13

     End of self-consistent calculation

     Convergence has been achieved 


     Representation #  3 modes #   3  4

     Self-consistent Calculation

      iter #   1 total cpu time :    10.5 secs   av.it.:   4.9
      thresh= 1.000E-02 alpha_mix =  0.700 |ddv_scf|^2 =  5.361E-07

      iter #   2 total cpu time :    11.1 secs   av.it.:   9.6
      thresh= 7.322E-05 alpha_mix =  0.700 |ddv_scf|^2 =  4.021E-08

      iter #   3 total cpu time :    11.8 secs   av.it.:   9.3
      thresh= 2.005E-05 alpha_mix =  0.700 |ddv_scf|^2 =  3.463E-09

      iter #   4 total cpu time :    12.4 secs   av.it.:   8.9
      thresh= 5.884E-06 alpha_mix =  0.700 |ddv_scf|^2 =  1.144E-11

      iter #   5 total cpu time :    12.9 secs   av.it.:   9.2
      thresh= 3.382E-07 alpha_mix =  0.700 |ddv_scf|^2 =  5.098E-13

     End of self-consistent calculation

     Convergence has been achieved 


     Representation #  4 modes #   5  6

     Self-consistent Calculation

      iter #   1 total cpu time :    13.5 secs   av.it.:   5.0
      thresh= 1.000E-02 alpha_mix =  0.700 |ddv_scf|^2 =  5.359E-07

      iter #   2 total cpu time :    14.1 secs   av.it.:   9.7
      thresh= 7.320E-05 alpha_mix =  0.700 |ddv_scf|^2 =  4.015E-08

      iter #   3 total cpu time :    14.7 secs   av.it.:   9.4
      thresh= 2.004E-05 alpha_mix =  0.700 |ddv_scf|^2 =  3.458E-09

      iter #   4 total cpu time :    15.4 secs   av.it.:   9.1
      thresh= 5.881E-06 alpha_mix =  0.700 |ddv_scf|^2 =  1.144E-11

      iter #   5 total cpu time :    16.0 secs   av.it.:   9.3
      thresh= 3.382E-07 alpha_mix =  0.700 |ddv_scf|^2 =  5.099E-13

     End of self-consistent calculation

     Convergence has been achieved 

     Number of q in the star =    8
     List of q in the star:
          1  -0.250000000   0.250000000  -0.250000000
          2   0.250000000  -0.250000000  -0.250000000
          3   0.250000000  -0.250000000   0.250000000
          4   0.250000000   0.250000000   0.250000000
          5  -0.250000000  -0.250000000  -0.250000000
          6  -0.250000000  -0.250000000   0.250000000
          7  -0.250000000   0.250000000   0.250000000
          8   0.250000000   0.250000000  -0.250000000

     Diagonalizing the dynamical matrix

     q = (   -0.250000000   0.250000000  -0.250000000 ) 

 **************************************************************************
     freq (    1) =       3.406261 [THz] =     113.620629 [cm-1]
     freq (    2) =       3.406261 [THz] =     113.620629 [cm-1]
     freq (    3) =       6.823705 [THz] =     227.614282 [cm-1]
     freq (    4) =      14.659553 [THz] =     488.990061 [cm-1]
     freq (    5) =      14.934745 [THz] =     498.169454 [cm-1]
     freq (    6) =      14.934745 [THz] =     498.169454 [cm-1]
 **************************************************************************

     Mode symmetry, C_3v (3m)   point group:

     freq (  1 -  2) =        113.6  [cm-1]   --> E    L_3           
     freq (  3 -  3) =        227.6  [cm-1]   --> A_1  L_1           
     freq (  4 -  4) =        489.0  [cm-1]   --> A_1  L_1           
     freq (  5 -  6) =        498.2  [cm-1]   --> E    L_3           

     Calculation of q =    0.5000000  -0.5000000   0.5000000

   Info: using nr1, nr2, nr3 values from input

   Info: using nr1, nr2, nr3 values from input

     Parallelization info
     --------------------
     sticks:   dense  smooth     PW     G-vecs:    dense   smooth      PW
     Min          66      66     27                  722      722     186
     Max          67      67     28                  724      724     189
     Sum         265     265    109                 2891     2891     749



     bravais-lattice index     =            2
     lattice parameter (alat)  =      10.4030  a.u.
     unit-cell volume          =     281.4594 (a.u.)^3
     number of atoms/cell      =            2
     number of atomic types    =            1
     number of electrons       =         8.00
     number of Kohn-Sham states=            4
     kinetic-energy cutoff     =      18.0000  Ry
     charge density cutoff     =      72.0000  Ry
     Exchange-correlation      = SLA  PW   PBE  PBE ( 1  4  3  4 0 0)

     celldm(1)=  10.403000  celldm(2)=   0.000000  celldm(3)=   0.000000
     celldm(4)=   0.000000  celldm(5)=   0.000000  celldm(6)=   0.000000

     crystal axes: (cart. coord. in units of alat)
               a(1) = (  -0.500000   0.000000   0.500000 )  
               a(2) = (   0.000000   0.500000   0.500000 )  
               a(3) = (  -0.500000   0.500000   0.000000 )  

     reciprocal axes: (cart. coord. in units 2 pi/alat)
               b(1) = ( -1.000000 -1.000000  1.000000 )  
               b(2) = (  1.000000  1.000000  1.000000 )  
               b(3) = ( -1.000000  1.000000 -1.000000 )  


     PseudoPot. # 1 for Si read from file:
     /home/max/quantum_espresso/qe-6.1/pseudo/si_pbe_v1.uspp.F.UPF.txt
     MD5 check sum: a056efeee980c13900f22a371efd63c1
     Pseudo is Ultrasoft + core correction, Zval =  4.0
     Generated by new atomic code, or converted to UPF format
     Using radial grid of  899 points,  6 beta functions with: 
                l(1) =   0
                l(2) =   0
                l(3) =   1
                l(4) =   1
                l(5) =   2
                l(6) =   2
     Q(r) pseudized with  8 coefficients,  rinner =    0.900   0.900   0.900
                                                       0.900   0.900

     atomic species   valence    mass     pseudopotential
        Si             4.00    28.08600     Si( 1.00)

     48 Sym. Ops., with inversion, found



   Cartesian axes

     site n.     atom                  positions (alat units)
         1           Si  tau(   1) = (   0.0000000   0.0000000   0.0000000  )
         2           Si  tau(   2) = (   0.2500000   0.2500000   0.2500000  )

     number of k points=    60
                       cart. coord. in units 2pi/alat
        k(    1) = (  -0.1250000   0.1250000   0.1250000), wk =   0.0468750
        k(    2) = (   0.3750000  -0.3750000   0.6250000), wk =   0.0000000
        k(    3) = (  -0.3750000   0.3750000  -0.1250000), wk =   0.0468750
        k(    4) = (   0.1250000  -0.1250000   0.3750000), wk =   0.0000000
        k(    5) = (   0.3750000  -0.3750000   0.6250000), wk =   0.0468750
        k(    6) = (   0.8750000  -0.8750000   1.1250000), wk =   0.0000000
        k(    7) = (   0.1250000  -0.1250000   0.3750000), wk =   0.0468750
        k(    8) = (   0.6250000  -0.6250000   0.8750000), wk =   0.0000000
        k(    9) = (  -0.1250000   0.6250000   0.1250000), wk =   0.0937500
        k(   10) = (   0.3750000   0.1250000   0.6250000), wk =   0.0000000
        k(   11) = (   0.6250000  -0.1250000   0.8750000), wk =   0.0937500
        k(   12) = (   1.1250000  -0.6250000   1.3750000), wk =   0.0000000
        k(   13) = (   0.3750000   0.1250000   0.6250000), wk =   0.0937500
        k(   14) = (   0.8750000  -0.3750000   1.1250000), wk =   0.0000000
        k(   15) = (  -0.1250000  -0.8750000   0.1250000), wk =   0.0937500
        k(   16) = (   0.3750000  -1.3750000   0.6250000), wk =   0.0000000
        k(   17) = (  -0.3750000   0.3750000   0.3750000), wk =   0.0468750
        k(   18) = (   0.1250000  -0.1250000   0.8750000), wk =   0.0000000
        k(   19) = (   0.3750000  -0.3750000   1.1250000), wk =   0.0468750
        k(   20) = (   0.8750000  -0.8750000   1.6250000), wk =   0.0000000
        k(   21) = (   0.1250000  -0.1250000   0.1250000), wk =   0.0156250
        k(   22) = (   0.6250000  -0.6250000   0.6250000), wk =   0.0000000
        k(   23) = (  -0.3750000  -0.3750000  -0.1250000), wk =   0.0937500
        k(   24) = (   0.1250000  -0.8750000   0.3750000), wk =   0.0000000
        k(   25) = (  -0.1250000  -0.3750000   0.3750000), wk =   0.0468750
        k(   26) = (   0.3750000  -0.8750000   0.8750000), wk =   0.0000000
        k(   27) = (   0.3750000   0.3750000   0.6250000), wk =   0.0937500
        k(   28) = (   0.8750000  -0.1250000   1.1250000), wk =   0.0000000
        k(   29) = (   0.6250000   0.3750000  -0.3750000), wk =   0.0468750
        k(   30) = (   1.1250000  -0.1250000   0.1250000), wk =   0.0000000
        k(   31) = (   0.1250000   0.1250000   0.3750000), wk =   0.0937500
        k(   32) = (   0.6250000  -0.3750000   0.8750000), wk =   0.0000000
        k(   33) = (   0.3750000   0.1250000  -0.1250000), wk =   0.0468750
        k(   34) = (   0.8750000  -0.3750000   0.3750000), wk =   0.0000000
        k(   35) = (  -0.1250000  -0.6250000  -0.1250000), wk =   0.0468750
        k(   36) = (   0.3750000  -1.1250000   0.3750000), wk =   0.0000000
        k(   37) = (   0.1250000  -0.6250000   0.1250000), wk =   0.0468750
        k(   38) = (   0.6250000  -1.1250000   0.6250000), wk =   0.0000000
        k(   39) = (   0.6250000   0.1250000   0.8750000), wk =   0.0937500
        k(   40) = (   1.1250000  -0.3750000   1.3750000), wk =   0.0000000
        k(   41) = (  -0.8750000   0.1250000   0.6250000), wk =   0.0937500
        k(   42) = (  -0.3750000  -0.3750000   1.1250000), wk =   0.0000000
        k(   43) = (   0.8750000   0.1250000  -0.6250000), wk =   0.0937500
        k(   44) = (   1.3750000  -0.3750000  -0.1250000), wk =   0.0000000
        k(   45) = (   0.3750000  -0.1250000   0.6250000), wk =   0.0937500
        k(   46) = (   0.8750000  -0.6250000   1.1250000), wk =   0.0000000
        k(   47) = (  -0.6250000  -0.1250000   0.3750000), wk =   0.0937500
        k(   48) = (  -0.1250000  -0.6250000   0.8750000), wk =   0.0000000
        k(   49) = (   0.6250000  -0.1250000  -0.3750000), wk =   0.0937500
        k(   50) = (   1.1250000  -0.6250000   0.1250000), wk =   0.0000000
        k(   51) = (  -0.1250000   0.8750000  -0.1250000), wk =   0.0468750
        k(   52) = (   0.3750000   0.3750000   0.3750000), wk =   0.0000000
        k(   53) = (   0.1250000   0.8750000   0.1250000), wk =   0.0468750
        k(   54) = (   0.6250000   0.3750000   0.6250000), wk =   0.0000000
        k(   55) = (   0.3750000  -0.3750000   0.3750000), wk =   0.0156250
        k(   56) = (   0.8750000  -0.8750000   0.8750000), wk =   0.0000000
        k(   57) = (   0.3750000   0.3750000   1.1250000), wk =   0.0937500
        k(   58) = (   0.8750000  -0.1250000   1.6250000), wk =   0.0000000
        k(   59) = (   1.1250000   0.3750000  -0.3750000), wk =   0.0468750
        k(   60) = (   1.6250000  -0.1250000   0.1250000), wk =   0.0000000

     Dense  grid:     2891 G-vectors     FFT dimensions: (  20,  20,  20)

     Estimated max dynamical RAM per process >       0.33MB

     Estimated total allocated dynamical RAM >       1.33MB

     Check: negative/imaginary core charge=   -0.000006    0.000000

     The potential is recalculated from file :
     ./_ph0/silicon.10.403.save/charge-density.dat

     Starting wfc are    8 atomic wfcs

     Band Structure Calculation
     Davidson diagonalization with overlap

     ethr =  1.25E-10,  avg # of iterations = 11.7

     total cpu time spent up to now is        1.3 secs

     End of band structure calculation

          k =-0.1250 0.1250 0.1250 (   353 PWs)   bands (ev):

    -5.7039   4.1903   5.5016   5.5016

          k = 0.3750-0.3750 0.6250 (   364 PWs)   bands (ev):

    -3.5899  -0.7968   3.5642   4.2716

          k =-0.3750 0.3750-0.1250 (   362 PWs)   bands (ev):

    -4.6985   1.2321   3.5549   5.0249

          k = 0.1250-0.1250 0.3750 (   358 PWs)   bands (ev):

    -5.1863   2.5814   4.5160   4.5682

          k = 0.3750-0.3750 0.6250 (   364 PWs)   bands (ev):

    -3.5899  -0.7968   3.5642   4.2716

          k = 0.8750-0.8750 1.1250 (   353 PWs)   bands (ev):

    -5.7039   4.1903   5.5016   5.5016

          k = 0.1250-0.1250 0.3750 (   358 PWs)   bands (ev):

    -5.1863   2.5814   4.5160   4.5682

          k = 0.6250-0.6250 0.8750 (   362 PWs)   bands (ev):

    -4.6985   1.2321   3.5549   5.0249

          k =-0.1250 0.6250 0.1250 (   357 PWs)   bands (ev):

    -4.1754   0.8762   3.2185   3.6582

          k = 0.3750 0.1250 0.6250 (   365 PWs)   bands (ev):

    -3.7714   0.0328   2.5872   3.9290

          k = 0.6250-0.1250 0.8750 (   368 PWs)   bands (ev):

    -2.5754  -1.0550   1.9044   2.9529

          k = 1.1250-0.6250 1.3750 (   362 PWs)   bands (ev):

    -4.6985   1.2321   3.5549   5.0249

          k = 0.3750 0.1250 0.6250 (   365 PWs)   bands (ev):

    -3.7714   0.0328   2.5872   3.9290

          k = 0.8750-0.3750 1.1250 (   357 PWs)   bands (ev):

    -4.1754   0.8762   3.2185   3.6582

          k =-0.1250-0.8750 0.1250 (   364 PWs)   bands (ev):

    -2.7334  -0.9624   2.4966   3.1994

          k = 0.3750-1.3750 0.6250 (   364 PWs)   bands (ev):

    -3.5899  -0.7968   3.5642   4.2716

          k =-0.3750 0.3750 0.3750 (   359 PWs)   bands (ev):

    -4.2768  -0.0224   4.7244   4.7244

          k = 0.1250-0.1250 0.8750 (   364 PWs)   bands (ev):

    -2.7334  -0.9624   2.4966   3.1994

          k = 0.3750-0.3750 1.1250 (   369 PWs)   bands (ev):

    -3.1034  -0.7392   1.9527   3.9623

          k = 0.8750-0.8750 1.6250 (   357 PWs)   bands (ev):

    -4.1754   0.8762   3.2185   3.6582

          k = 0.1250-0.1250 0.1250 (   353 PWs)   bands (ev):

    -5.7039   4.1903   5.5016   5.5016

          k = 0.6250-0.6250 0.6250 (   359 PWs)   bands (ev):

    -4.2768  -0.0224   4.7244   4.7244

          k =-0.3750-0.3750-0.1250 (   362 PWs)   bands (ev):

    -4.6985   1.2321   3.5549   5.0249

          k = 0.1250-0.8750 0.3750 (   368 PWs)   bands (ev):

    -2.5754  -1.0550   1.9044   2.9529

          k =-0.1250-0.3750 0.3750 (   362 PWs)   bands (ev):

    -4.6985   1.2321   3.5549   5.0249

          k = 0.3750-0.8750 0.8750 (   357 PWs)   bands (ev):

    -4.1754   0.8762   3.2185   3.6582

          k = 0.3750 0.3750 0.6250 (   364 PWs)   bands (ev):

    -3.5899  -0.7968   3.5642   4.2716

          k = 0.8750-0.1250 1.1250 (   364 PWs)   bands (ev):

    -2.7334  -0.9624   2.4966   3.1994

          k = 0.6250 0.3750-0.3750 (   364 PWs)   bands (ev):

    -3.5899  -0.7968   3.5642   4.2716

          k = 1.1250-0.1250 0.1250 (   364 PWs)   bands (ev):

    -2.7334  -0.9624   2.4966   3.1994

          k = 0.1250 0.1250 0.3750 (   358 PWs)   bands (ev):

    -5.1863   2.5814   4.5160   4.5682

          k = 0.6250-0.3750 0.8750 (   365 PWs)   bands (ev):

    -3.7714   0.0328   2.5872   3.9290

          k = 0.3750 0.1250-0.1250 (   358 PWs)   bands (ev):

    -5.1863   2.5814   4.5160   4.5682

          k = 0.8750-0.3750 0.3750 (   369 PWs)   bands (ev):

    -3.1034  -0.7392   1.9527   3.9623

          k =-0.1250-0.6250-0.1250 (   357 PWs)   bands (ev):

    -4.1754   0.8762   3.2185   3.6582

          k = 0.3750-1.1250 0.3750 (   369 PWs)   bands (ev):

    -3.1034  -0.7392   1.9527   3.9623

          k = 0.1250-0.6250 0.1250 (   357 PWs)   bands (ev):

    -4.1754   0.8762   3.2185   3.6582

          k = 0.6250-1.1250 0.6250 (   362 PWs)   bands (ev):

    -4.6985   1.2321   3.5549   5.0249

          k = 0.6250 0.1250 0.8750 (   368 PWs)   bands (ev):

    -2.5754  -1.0550   1.9044   2.9529

          k = 1.1250-0.3750 1.3750 (   365 PWs)   bands (ev):

    -3.7714   0.0328   2.5872   3.9290

          k =-0.8750 0.1250 0.6250 (   368 PWs)   bands (ev):

    -2.5754  -1.0550   1.9044   2.9529

          k =-0.3750-0.3750 1.1250 (   369 PWs)   bands (ev):

    -3.1034  -0.7392   1.9527   3.9623

          k = 0.8750 0.1250-0.6250 (   368 PWs)   bands (ev):

    -2.5754  -1.0550   1.9044   2.9529

          k = 1.3750-0.3750-0.1250 (   365 PWs)   bands (ev):

    -3.7714   0.0328   2.5872   3.9290

          k = 0.3750-0.1250 0.6250 (   365 PWs)   bands (ev):

    -3.7714   0.0328   2.5872   3.9290

          k = 0.8750-0.6250 1.1250 (   358 PWs)   bands (ev):

    -5.1863   2.5814   4.5160   4.5682

          k =-0.6250-0.1250 0.3750 (   365 PWs)   bands (ev):

    -3.7714   0.0328   2.5872   3.9290

          k =-0.1250-0.6250 0.8750 (   368 PWs)   bands (ev):

    -2.5754  -1.0550   1.9044   2.9529

          k = 0.6250-0.1250-0.3750 (   365 PWs)   bands (ev):

    -3.7714   0.0328   2.5872   3.9290

          k = 1.1250-0.6250 0.1250 (   368 PWs)   bands (ev):

    -2.5754  -1.0550   1.9044   2.9529

          k =-0.1250 0.8750-0.1250 (   364 PWs)   bands (ev):

    -2.7334  -0.9624   2.4966   3.1994

          k = 0.3750 0.3750 0.3750 (   359 PWs)   bands (ev):

    -4.2768  -0.0224   4.7244   4.7244

          k = 0.1250 0.8750 0.1250 (   364 PWs)   bands (ev):

    -2.7334  -0.9624   2.4966   3.1994

          k = 0.6250 0.3750 0.6250 (   364 PWs)   bands (ev):

    -3.5899  -0.7968   3.5642   4.2716

          k = 0.3750-0.3750 0.3750 (   359 PWs)   bands (ev):

    -4.2768  -0.0224   4.7244   4.7244

          k = 0.8750-0.8750 0.8750 (   353 PWs)   bands (ev):

    -5.7039   4.1903   5.5016   5.5016

          k = 0.3750 0.3750 1.1250 (   369 PWs)   bands (ev):

    -3.1034  -0.7392   1.9527   3.9623

          k = 0.8750-0.1250 1.6250 (   368 PWs)   bands (ev):

    -2.5754  -1.0550   1.9044   2.9529

          k = 1.1250 0.3750-0.3750 (   369 PWs)   bands (ev):

    -3.1034  -0.7392   1.9527   3.9623

          k = 1.6250-0.1250 0.1250 (   358 PWs)   bands (ev):

    -5.1863   2.5814   4.5160   4.5682

     highest occupied level (ev):     5.5016

     Writing output data file silicon.10.403.save

                                                                                

     bravais-lattice index     =            2
     lattice parameter (alat)  =      10.4030  a.u.
     unit-cell volume          =     281.4594 (a.u.)^3
     number of atoms/cell      =            2
     number of atomic types    =            1
     kinetic-energy cut-off    =      18.0000  Ry
     charge density cut-off    =      72.0000  Ry
     convergence threshold     =      1.0E-12
     beta                      =       0.7000
     number of iterations used =            4
     Exchange-correlation      = SLA  PW   PBE  PBE ( 1  4  3  4 0 0)


     celldm(1)=   10.40300  celldm(2)=    0.00000  celldm(3)=    0.00000
     celldm(4)=    0.00000  celldm(5)=    0.00000  celldm(6)=    0.00000

     crystal axes: (cart. coord. in units of alat)
               a(1) = ( -0.5000  0.0000  0.5000 )  
               a(2) = (  0.0000  0.5000  0.5000 )  
               a(3) = ( -0.5000  0.5000  0.0000 )  

     reciprocal axes: (cart. coord. in units 2 pi/alat)
               b(1) = ( -1.0000 -1.0000  1.0000 )  
               b(2) = (  1.0000  1.0000  1.0000 )  
               b(3) = ( -1.0000  1.0000 -1.0000 )  


     Atoms inside the unit cell: 

     Cartesian axes

     site n.  atom      mass           positions (alat units)
        1     Si  28.0860   tau(    1) = (    0.00000    0.00000    0.00000  )
        2     Si  28.0860   tau(    2) = (    0.25000    0.25000    0.25000  )

     Computing dynamical matrix for 
                    q = (   0.5000000  -0.5000000   0.5000000 )

     13 Sym.Ops. (with q -> -q+G )


     G cutoff =  197.3740  (    722 G-vectors)     FFT grid: ( 20, 20, 20)
     number of k points=    60

     PseudoPot. # 1 for Si read from file:
     /home/max/quantum_espresso/qe-6.1/pseudo/si_pbe_v1.uspp.F.UPF.txt
     MD5 check sum: a056efeee980c13900f22a371efd63c1
     Pseudo is Ultrasoft + core correction, Zval =  4.0
     Generated by new atomic code, or converted to UPF format
     Using radial grid of  899 points,  6 beta functions with: 
                l(1) =   0
                l(2) =   0
                l(3) =   1
                l(4) =   1
                l(5) =   2
                l(6) =   2
     Q(r) pseudized with  8 coefficients,  rinner =    0.900   0.900   0.900
                                                       0.900   0.900


     Atomic displacements:
     There are   4 irreducible representations

     Representation     1      1 modes -  To be done

     Representation     2      1 modes -  To be done

     Representation     3      2 modes -  To be done

     Representation     4      2 modes -  To be done



     Alpha used in Ewald sum =   0.7000
     PHONON       :    15.46s CPU        16.70s WALL



     Representation #  1 mode #   1

     Self-consistent Calculation

      iter #   1 total cpu time :    16.8 secs   av.it.:   4.8
      thresh= 1.000E-02 alpha_mix =  0.700 |ddv_scf|^2 =  2.428E-05

      iter #   2 total cpu time :    17.0 secs   av.it.:   8.4
      thresh= 4.927E-04 alpha_mix =  0.700 |ddv_scf|^2 =  2.219E-05

      iter #   3 total cpu time :    17.3 secs   av.it.:   7.5
      thresh= 4.711E-04 alpha_mix =  0.700 |ddv_scf|^2 =  3.815E-08

      iter #   4 total cpu time :    17.4 secs   av.it.:   7.6
      thresh= 1.953E-05 alpha_mix =  0.700 |ddv_scf|^2 =  1.510E-10

      iter #   5 total cpu time :    17.6 secs   av.it.:   7.7
      thresh= 1.229E-06 alpha_mix =  0.700 |ddv_scf|^2 =  4.355E-12

      iter #   6 total cpu time :    17.7 secs   av.it.:   7.7
      thresh= 2.087E-07 alpha_mix =  0.700 |ddv_scf|^2 =  7.480E-14

     End of self-consistent calculation

     Convergence has been achieved 


     Representation #  2 mode #   2

     Self-consistent Calculation

      iter #   1 total cpu time :    17.8 secs   av.it.:   5.6
      thresh= 1.000E-02 alpha_mix =  0.700 |ddv_scf|^2 =  3.418E-04

      iter #   2 total cpu time :    18.0 secs   av.it.:   8.3
      thresh= 1.849E-03 alpha_mix =  0.700 |ddv_scf|^2 =  1.056E-03

      iter #   3 total cpu time :    18.1 secs   av.it.:   7.1
      thresh= 3.250E-03 alpha_mix =  0.700 |ddv_scf|^2 =  1.492E-07

      iter #   4 total cpu time :    18.3 secs   av.it.:   8.1
      thresh= 3.862E-05 alpha_mix =  0.700 |ddv_scf|^2 =  1.016E-08

      iter #   5 total cpu time :    18.4 secs   av.it.:   8.4
      thresh= 1.008E-05 alpha_mix =  0.700 |ddv_scf|^2 =  1.831E-10

      iter #   6 total cpu time :    18.5 secs   av.it.:   8.1
      thresh= 1.353E-06 alpha_mix =  0.700 |ddv_scf|^2 =  4.241E-12

      iter #   7 total cpu time :    18.7 secs   av.it.:   7.5
      thresh= 2.059E-07 alpha_mix =  0.700 |ddv_scf|^2 =  2.568E-14

     End of self-consistent calculation

     Convergence has been achieved 


     Representation #  3 modes #   3  4

     Self-consistent Calculation

      iter #   1 total cpu time :    18.9 secs   av.it.:   4.7
      thresh= 1.000E-02 alpha_mix =  0.700 |ddv_scf|^2 =  3.418E-07

      iter #   2 total cpu time :    19.3 secs   av.it.:   9.0
      thresh= 5.846E-05 alpha_mix =  0.700 |ddv_scf|^2 =  2.948E-08

      iter #   3 total cpu time :    19.6 secs   av.it.:   8.3
      thresh= 1.717E-05 alpha_mix =  0.700 |ddv_scf|^2 =  5.114E-10

      iter #   4 total cpu time :    19.9 secs   av.it.:   8.9
      thresh= 2.261E-06 alpha_mix =  0.700 |ddv_scf|^2 =  6.444E-12

      iter #   5 total cpu time :    20.2 secs   av.it.:   8.7
      thresh= 2.538E-07 alpha_mix =  0.700 |ddv_scf|^2 =  3.601E-14

     End of self-consistent calculation

     Convergence has been achieved 


     Representation #  4 modes #   5  6

     Self-consistent Calculation

      iter #   1 total cpu time :    20.4 secs   av.it.:   4.9
      thresh= 1.000E-02 alpha_mix =  0.700 |ddv_scf|^2 =  9.418E-07

      iter #   2 total cpu time :    20.7 secs   av.it.:   9.5
      thresh= 9.705E-05 alpha_mix =  0.700 |ddv_scf|^2 =  7.489E-08

      iter #   3 total cpu time :    21.1 secs   av.it.:   9.3
      thresh= 2.737E-05 alpha_mix =  0.700 |ddv_scf|^2 =  4.477E-09

      iter #   4 total cpu time :    21.5 secs   av.it.:   8.5
      thresh= 6.691E-06 alpha_mix =  0.700 |ddv_scf|^2 =  6.536E-12

      iter #   5 total cpu time :    21.8 secs   av.it.:   8.8
      thresh= 2.557E-07 alpha_mix =  0.700 |ddv_scf|^2 =  2.549E-14

     End of self-consistent calculation

     Convergence has been achieved 

     Number of q in the star =    4
     List of q in the star:
          1   0.500000000  -0.500000000   0.500000000
          2   0.500000000   0.500000000   0.500000000
          3  -0.500000000   0.500000000   0.500000000
          4   0.500000000   0.500000000  -0.500000000

     Diagonalizing the dynamical matrix

     q = (    0.500000000  -0.500000000   0.500000000 ) 

 **************************************************************************
     freq (    1) =       5.104356 [THz] =     170.262973 [cm-1]
     freq (    2) =       5.104356 [THz] =     170.262973 [cm-1]
     freq (    3) =      11.910826 [THz] =     397.302399 [cm-1]
     freq (    4) =      12.178165 [THz] =     406.219862 [cm-1]
     freq (    5) =      14.701231 [THz] =     490.380294 [cm-1]
     freq (    6) =      14.701231 [THz] =     490.380294 [cm-1]
 **************************************************************************

     Calculation of q =    0.0000000   0.5000000   0.0000000

   Info: using nr1, nr2, nr3 values from input

   Info: using nr1, nr2, nr3 values from input

     Parallelization info
     --------------------
     sticks:   dense  smooth     PW     G-vecs:    dense   smooth      PW
     Min          66      66     27                  722      722     181
     Max          67      67     28                  724      724     182
     Sum         265     265    109                 2891     2891     725



     bravais-lattice index     =            2
     lattice parameter (alat)  =      10.4030  a.u.
     unit-cell volume          =     281.4594 (a.u.)^3
     number of atoms/cell      =            2
     number of atomic types    =            1
     number of electrons       =         8.00
     number of Kohn-Sham states=            4
     kinetic-energy cutoff     =      18.0000  Ry
     charge density cutoff     =      72.0000  Ry
     Exchange-correlation      = SLA  PW   PBE  PBE ( 1  4  3  4 0 0)

     celldm(1)=  10.403000  celldm(2)=   0.000000  celldm(3)=   0.000000
     celldm(4)=   0.000000  celldm(5)=   0.000000  celldm(6)=   0.000000

     crystal axes: (cart. coord. in units of alat)
               a(1) = (  -0.500000   0.000000   0.500000 )  
               a(2) = (   0.000000   0.500000   0.500000 )  
               a(3) = (  -0.500000   0.500000   0.000000 )  

     reciprocal axes: (cart. coord. in units 2 pi/alat)
               b(1) = ( -1.000000 -1.000000  1.000000 )  
               b(2) = (  1.000000  1.000000  1.000000 )  
               b(3) = ( -1.000000  1.000000 -1.000000 )  


     PseudoPot. # 1 for Si read from file:
     /home/max/quantum_espresso/qe-6.1/pseudo/si_pbe_v1.uspp.F.UPF.txt
     MD5 check sum: a056efeee980c13900f22a371efd63c1
     Pseudo is Ultrasoft + core correction, Zval =  4.0
     Generated by new atomic code, or converted to UPF format
     Using radial grid of  899 points,  6 beta functions with: 
                l(1) =   0
                l(2) =   0
                l(3) =   1
                l(4) =   1
                l(5) =   2
                l(6) =   2
     Q(r) pseudized with  8 coefficients,  rinner =    0.900   0.900   0.900
                                                       0.900   0.900

     atomic species   valence    mass     pseudopotential
        Si             4.00    28.08600     Si( 1.00)

     48 Sym. Ops., with inversion, found



   Cartesian axes

     site n.     atom                  positions (alat units)
         1           Si  tau(   1) = (   0.0000000   0.0000000   0.0000000  )
         2           Si  tau(   2) = (   0.2500000   0.2500000   0.2500000  )

     number of k points=    80
                       cart. coord. in units 2pi/alat
        k(    1) = (  -0.1250000   0.1250000   0.1250000), wk =   0.0312500
        k(    2) = (  -0.1250000   0.6250000   0.1250000), wk =   0.0000000
        k(    3) = (  -0.3750000   0.3750000  -0.1250000), wk =   0.0625000
        k(    4) = (  -0.3750000   0.8750000  -0.1250000), wk =   0.0000000
        k(    5) = (   0.3750000  -0.3750000   0.6250000), wk =   0.0625000
        k(    6) = (   0.3750000   0.1250000   0.6250000), wk =   0.0000000
        k(    7) = (   0.1250000  -0.1250000   0.3750000), wk =   0.0625000
        k(    8) = (   0.1250000   0.3750000   0.3750000), wk =   0.0000000
        k(    9) = (  -0.1250000   0.6250000   0.1250000), wk =   0.0312500
        k(   10) = (  -0.1250000   1.1250000   0.1250000), wk =   0.0000000
        k(   11) = (   0.6250000  -0.1250000   0.8750000), wk =   0.0625000
        k(   12) = (   0.6250000   0.3750000   0.8750000), wk =   0.0000000
        k(   13) = (   0.3750000   0.1250000   0.6250000), wk =   0.0625000
        k(   14) = (   0.3750000   0.6250000   0.6250000), wk =   0.0000000
        k(   15) = (  -0.1250000  -0.8750000   0.1250000), wk =   0.0312500
        k(   16) = (  -0.1250000  -0.3750000   0.1250000), wk =   0.0000000
        k(   17) = (  -0.3750000   0.3750000   0.3750000), wk =   0.0312500
        k(   18) = (  -0.3750000   0.8750000   0.3750000), wk =   0.0000000
        k(   19) = (   0.3750000  -0.3750000   1.1250000), wk =   0.0625000
        k(   20) = (   0.3750000   0.1250000   1.1250000), wk =   0.0000000
        k(   21) = (  -0.1250000  -0.1250000   0.1250000), wk =   0.0312500
        k(   22) = (  -0.1250000   0.3750000   0.1250000), wk =   0.0000000
        k(   23) = (   0.1250000  -0.3750000   0.3750000), wk =   0.0625000
        k(   24) = (   0.1250000   0.1250000   0.3750000), wk =   0.0000000
        k(   25) = (   0.3750000  -0.1250000   0.3750000), wk =   0.0312500
        k(   26) = (   0.3750000   0.3750000   0.3750000), wk =   0.0000000
        k(   27) = (   0.3750000   0.1250000   0.3750000), wk =   0.0312500
        k(   28) = (   0.3750000   0.6250000   0.3750000), wk =   0.0000000
        k(   29) = (  -0.6250000   0.3750000  -0.3750000), wk =   0.0625000
        k(   30) = (  -0.6250000   0.8750000  -0.3750000), wk =   0.0000000
        k(   31) = (  -0.3750000   0.6250000  -0.3750000), wk =   0.0312500
        k(   32) = (  -0.3750000   1.1250000  -0.3750000), wk =   0.0000000
        k(   33) = (  -0.3750000  -0.6250000  -0.3750000), wk =   0.0312500
        k(   34) = (  -0.3750000  -0.1250000  -0.3750000), wk =   0.0000000
        k(   35) = (  -0.3750000   0.1250000  -0.1250000), wk =   0.0625000
        k(   36) = (  -0.3750000   0.6250000  -0.1250000), wk =   0.0000000
        k(   37) = (  -0.1250000   0.3750000  -0.1250000), wk =   0.0312500
        k(   38) = (  -0.1250000   0.8750000  -0.1250000), wk =   0.0000000
        k(   39) = (  -0.1250000  -0.3750000  -0.1250000), wk =   0.0312500
        k(   40) = (  -0.1250000   0.1250000  -0.1250000), wk =   0.0000000
        k(   41) = (  -0.1250000  -0.6250000   0.1250000), wk =   0.0312500
        k(   42) = (  -0.1250000  -0.1250000   0.1250000), wk =   0.0000000
        k(   43) = (   0.6250000  -0.1250000  -0.1250000), wk =   0.0625000
        k(   44) = (   0.6250000   0.3750000  -0.1250000), wk =   0.0000000
        k(   45) = (   0.6250000   0.1250000   0.1250000), wk =   0.0625000
        k(   46) = (   0.6250000   0.6250000   0.1250000), wk =   0.0000000
        k(   47) = (  -0.8750000   0.1250000  -0.6250000), wk =   0.0625000
        k(   48) = (  -0.8750000   0.6250000  -0.6250000), wk =   0.0000000
        k(   49) = (  -0.1250000   0.6250000  -0.8750000), wk =   0.0625000
        k(   50) = (  -0.1250000   1.1250000  -0.8750000), wk =   0.0000000
        k(   51) = (  -0.1250000   0.8750000  -0.6250000), wk =   0.0625000
        k(   52) = (  -0.1250000   1.3750000  -0.6250000), wk =   0.0000000
        k(   53) = (  -0.1250000  -0.8750000  -0.6250000), wk =   0.0625000
        k(   54) = (  -0.1250000  -0.3750000  -0.6250000), wk =   0.0000000
        k(   55) = (   0.8750000  -0.6250000   0.1250000), wk =   0.0625000
        k(   56) = (   0.8750000  -0.1250000   0.1250000), wk =   0.0000000
        k(   57) = (  -0.6250000  -0.1250000  -0.3750000), wk =   0.0625000
        k(   58) = (  -0.6250000   0.3750000  -0.3750000), wk =   0.0000000
        k(   59) = (   0.1250000   0.3750000  -0.6250000), wk =   0.0625000
        k(   60) = (   0.1250000   0.8750000  -0.6250000), wk =   0.0000000
        k(   61) = (   0.1250000   0.6250000  -0.3750000), wk =   0.0625000
        k(   62) = (   0.1250000   1.1250000  -0.3750000), wk =   0.0000000
        k(   63) = (   0.1250000  -0.6250000  -0.3750000), wk =   0.0625000
        k(   64) = (   0.1250000  -0.1250000  -0.3750000), wk =   0.0000000
        k(   65) = (   0.6250000  -0.3750000  -0.1250000), wk =   0.0625000
        k(   66) = (   0.6250000   0.1250000  -0.1250000), wk =   0.0000000
        k(   67) = (  -0.1250000   0.8750000   0.1250000), wk =   0.0312500
        k(   68) = (  -0.1250000   1.3750000   0.1250000), wk =   0.0000000
        k(   69) = (  -0.8750000  -0.1250000  -0.1250000), wk =   0.0625000
        k(   70) = (  -0.8750000   0.3750000  -0.1250000), wk =   0.0000000
        k(   71) = (  -0.8750000   0.1250000   0.1250000), wk =   0.0625000
        k(   72) = (  -0.8750000   0.6250000   0.1250000), wk =   0.0000000
        k(   73) = (  -0.3750000  -0.3750000   0.3750000), wk =   0.0312500
        k(   74) = (  -0.3750000   0.1250000   0.3750000), wk =   0.0000000
        k(   75) = (  -1.1250000   0.3750000  -0.3750000), wk =   0.0625000
        k(   76) = (  -1.1250000   0.8750000  -0.3750000), wk =   0.0000000
        k(   77) = (  -0.3750000   1.1250000  -0.3750000), wk =   0.0312500
        k(   78) = (  -0.3750000   1.6250000  -0.3750000), wk =   0.0000000
        k(   79) = (  -0.3750000  -1.1250000  -0.3750000), wk =   0.0312500
        k(   80) = (  -0.3750000  -0.6250000  -0.3750000), wk =   0.0000000

     Dense  grid:     2891 G-vectors     FFT dimensions: (  20,  20,  20)

     Estimated max dynamical RAM per process >       0.33MB

     Estimated total allocated dynamical RAM >       1.33MB

     Check: negative/imaginary core charge=   -0.000006    0.000000

     The potential is recalculated from file :
     ./_ph0/silicon.10.403.save/charge-density.dat

     Starting wfc are    8 atomic wfcs

     Band Structure Calculation
     Davidson diagonalization with overlap

     ethr =  1.25E-10,  avg # of iterations = 11.7

     total cpu time spent up to now is        1.9 secs

     End of band structure calculation

          k =-0.1250 0.1250 0.1250 (   353 PWs)   bands (ev):

    -5.7039   4.1903   5.5016   5.5016

          k =-0.1250 0.6250 0.1250 (   357 PWs)   bands (ev):

    -4.1754   0.8762   3.2185   3.6582

          k =-0.3750 0.3750-0.1250 (   362 PWs)   bands (ev):

    -4.6985   1.2321   3.5549   5.0249

          k =-0.3750 0.8750-0.1250 (   368 PWs)   bands (ev):

    -2.5754  -1.0550   1.9044   2.9529

          k = 0.3750-0.3750 0.6250 (   364 PWs)   bands (ev):

    -3.5899  -0.7968   3.5642   4.2716

          k = 0.3750 0.1250 0.6250 (   365 PWs)   bands (ev):

    -3.7714   0.0328   2.5872   3.9290

          k = 0.1250-0.1250 0.3750 (   358 PWs)   bands (ev):

    -5.1863   2.5814   4.5160   4.5682

          k = 0.1250 0.3750 0.3750 (   362 PWs)   bands (ev):

    -4.6985   1.2321   3.5549   5.0249

          k =-0.1250 0.6250 0.1250 (   357 PWs)   bands (ev):

    -4.1754   0.8762   3.2185   3.6582

          k =-0.1250 1.1250 0.1250 (   364 PWs)   bands (ev):

    -2.7334  -0.9624   2.4966   3.1994

          k = 0.6250-0.1250 0.8750 (   368 PWs)   bands (ev):

    -2.5754  -1.0550   1.9044   2.9529

          k = 0.6250 0.3750 0.8750 (   365 PWs)   bands (ev):

    -3.7714   0.0328   2.5872   3.9290

          k = 0.3750 0.1250 0.6250 (   365 PWs)   bands (ev):

    -3.7714   0.0328   2.5872   3.9290

          k = 0.3750 0.6250 0.6250 (   364 PWs)   bands (ev):

    -3.5899  -0.7968   3.5642   4.2716

          k =-0.1250-0.8750 0.1250 (   364 PWs)   bands (ev):

    -2.7334  -0.9624   2.4966   3.1994

          k =-0.1250-0.3750 0.1250 (   358 PWs)   bands (ev):

    -5.1863   2.5814   4.5160   4.5682

          k =-0.3750 0.3750 0.3750 (   359 PWs)   bands (ev):

    -4.2768  -0.0224   4.7244   4.7244

          k =-0.3750 0.8750 0.3750 (   369 PWs)   bands (ev):

    -3.1034  -0.7392   1.9527   3.9623

          k = 0.3750-0.3750 1.1250 (   369 PWs)   bands (ev):

    -3.1034  -0.7392   1.9527   3.9623

          k = 0.3750 0.1250 1.1250 (   368 PWs)   bands (ev):

    -2.5754  -1.0550   1.9044   2.9529

          k =-0.1250-0.1250 0.1250 (   353 PWs)   bands (ev):

    -5.7039   4.1903   5.5016   5.5016

          k =-0.1250 0.3750 0.1250 (   358 PWs)   bands (ev):

    -5.1863   2.5814   4.5160   4.5682

          k = 0.1250-0.3750 0.3750 (   362 PWs)   bands (ev):

    -4.6985   1.2321   3.5549   5.0249

          k = 0.1250 0.1250 0.3750 (   358 PWs)   bands (ev):

    -5.1863   2.5814   4.5160   4.5682

          k = 0.3750-0.1250 0.3750 (   362 PWs)   bands (ev):

    -4.6985   1.2321   3.5549   5.0249

          k = 0.3750 0.3750 0.3750 (   359 PWs)   bands (ev):

    -4.2768  -0.0224   4.7244   4.7244

          k = 0.3750 0.1250 0.3750 (   362 PWs)   bands (ev):

    -4.6985   1.2321   3.5549   5.0249

          k = 0.3750 0.6250 0.3750 (   364 PWs)   bands (ev):

    -3.5899  -0.7968   3.5642   4.2716

          k =-0.6250 0.3750-0.3750 (   364 PWs)   bands (ev):

    -3.5899  -0.7968   3.5642   4.2716

          k =-0.6250 0.8750-0.3750 (   365 PWs)   bands (ev):

    -3.7714   0.0328   2.5872   3.9290

          k =-0.3750 0.6250-0.3750 (   364 PWs)   bands (ev):

    -3.5899  -0.7968   3.5642   4.2716

          k =-0.3750 1.1250-0.3750 (   369 PWs)   bands (ev):

    -3.1034  -0.7392   1.9527   3.9623

          k =-0.3750-0.6250-0.3750 (   364 PWs)   bands (ev):

    -3.5899  -0.7968   3.5642   4.2716

          k =-0.3750-0.1250-0.3750 (   362 PWs)   bands (ev):

    -4.6985   1.2321   3.5549   5.0249

          k =-0.3750 0.1250-0.1250 (   358 PWs)   bands (ev):

    -5.1863   2.5814   4.5160   4.5682

          k =-0.3750 0.6250-0.1250 (   365 PWs)   bands (ev):

    -3.7714   0.0328   2.5872   3.9290

          k =-0.1250 0.3750-0.1250 (   358 PWs)   bands (ev):

    -5.1863   2.5814   4.5160   4.5682

          k =-0.1250 0.8750-0.1250 (   364 PWs)   bands (ev):

    -2.7334  -0.9624   2.4966   3.1994

          k =-0.1250-0.3750-0.1250 (   358 PWs)   bands (ev):

    -5.1863   2.5814   4.5160   4.5682

          k =-0.1250 0.1250-0.1250 (   353 PWs)   bands (ev):

    -5.7039   4.1903   5.5016   5.5016

          k =-0.1250-0.6250 0.1250 (   357 PWs)   bands (ev):

    -4.1754   0.8762   3.2185   3.6582

          k =-0.1250-0.1250 0.1250 (   353 PWs)   bands (ev):

    -5.7039   4.1903   5.5016   5.5016

          k = 0.6250-0.1250-0.1250 (   357 PWs)   bands (ev):

    -4.1754   0.8762   3.2185   3.6582

          k = 0.6250 0.3750-0.1250 (   365 PWs)   bands (ev):

    -3.7714   0.0328   2.5872   3.9290

          k = 0.6250 0.1250 0.1250 (   357 PWs)   bands (ev):

    -4.1754   0.8762   3.2185   3.6582

          k = 0.6250 0.6250 0.1250 (   369 PWs)   bands (ev):

    -3.1034  -0.7392   1.9527   3.9623

          k =-0.8750 0.1250-0.6250 (   368 PWs)   bands (ev):

    -2.5754  -1.0550   1.9044   2.9529

          k =-0.8750 0.6250-0.6250 (   362 PWs)   bands (ev):

    -4.6985   1.2321   3.5549   5.0249

          k =-0.1250 0.6250-0.8750 (   368 PWs)   bands (ev):

    -2.5754  -1.0550   1.9044   2.9529

          k =-0.1250 1.1250-0.8750 (   364 PWs)   bands (ev):

    -2.7334  -0.9624   2.4966   3.1994

          k =-0.1250 0.8750-0.6250 (   368 PWs)   bands (ev):

    -2.5754  -1.0550   1.9044   2.9529

          k =-0.1250 1.3750-0.6250 (   369 PWs)   bands (ev):

    -3.1034  -0.7392   1.9527   3.9623

          k =-0.1250-0.8750-0.6250 (   368 PWs)   bands (ev):

    -2.5754  -1.0550   1.9044   2.9529

          k =-0.1250-0.3750-0.6250 (   365 PWs)   bands (ev):

    -3.7714   0.0328   2.5872   3.9290

          k = 0.8750-0.6250 0.1250 (   368 PWs)   bands (ev):

    -2.5754  -1.0550   1.9044   2.9529

          k = 0.8750-0.1250 0.1250 (   364 PWs)   bands (ev):

    -2.7334  -0.9624   2.4966   3.1994

          k =-0.6250-0.1250-0.3750 (   365 PWs)   bands (ev):

    -3.7714   0.0328   2.5872   3.9290

          k =-0.6250 0.3750-0.3750 (   364 PWs)   bands (ev):

    -3.5899  -0.7968   3.5642   4.2716

          k = 0.1250 0.3750-0.6250 (   365 PWs)   bands (ev):

    -3.7714   0.0328   2.5872   3.9290

          k = 0.1250 0.8750-0.6250 (   368 PWs)   bands (ev):

    -2.5754  -1.0550   1.9044   2.9529

          k = 0.1250 0.6250-0.3750 (   365 PWs)   bands (ev):

    -3.7714   0.0328   2.5872   3.9290

          k = 0.1250 1.1250-0.3750 (   368 PWs)   bands (ev):

    -2.5754  -1.0550   1.9044   2.9529

          k = 0.1250-0.6250-0.3750 (   365 PWs)   bands (ev):

    -3.7714   0.0328   2.5872   3.9290

          k = 0.1250-0.1250-0.3750 (   358 PWs)   bands (ev):

    -5.1863   2.5814   4.5160   4.5682

          k = 0.6250-0.3750-0.1250 (   365 PWs)   bands (ev):

    -3.7714   0.0328   2.5872   3.9290

          k = 0.6250 0.1250-0.1250 (   357 PWs)   bands (ev):

    -4.1754   0.8762   3.2185   3.6582

          k =-0.1250 0.8750 0.1250 (   364 PWs)   bands (ev):

    -2.7334  -0.9624   2.4966   3.1994

          k =-0.1250 1.3750 0.1250 (   357 PWs)   bands (ev):

    -4.1754   0.8762   3.2185   3.6582

          k =-0.8750-0.1250-0.1250 (   364 PWs)   bands (ev):

    -2.7334  -0.9624   2.4966   3.1994

          k =-0.8750 0.3750-0.1250 (   368 PWs)   bands (ev):

    -2.5754  -1.0550   1.9044   2.9529

          k =-0.8750 0.1250 0.1250 (   364 PWs)   bands (ev):

    -2.7334  -0.9624   2.4966   3.1994

          k =-0.8750 0.6250 0.1250 (   368 PWs)   bands (ev):

    -2.5754  -1.0550   1.9044   2.9529

          k =-0.3750-0.3750 0.3750 (   359 PWs)   bands (ev):

    -4.2768  -0.0224   4.7244   4.7244

          k =-0.3750 0.1250 0.3750 (   362 PWs)   bands (ev):

    -4.6985   1.2321   3.5549   5.0249

          k =-1.1250 0.3750-0.3750 (   369 PWs)   bands (ev):

    -3.1034  -0.7392   1.9527   3.9623

          k =-1.1250 0.8750-0.3750 (   357 PWs)   bands (ev):

    -4.1754   0.8762   3.2185   3.6582

          k =-0.3750 1.1250-0.3750 (   369 PWs)   bands (ev):

    -3.1034  -0.7392   1.9527   3.9623

          k =-0.3750 1.6250-0.3750 (   359 PWs)   bands (ev):

    -4.2768  -0.0224   4.7244   4.7244

          k =-0.3750-1.1250-0.3750 (   369 PWs)   bands (ev):

    -3.1034  -0.7392   1.9527   3.9623

          k =-0.3750-0.6250-0.3750 (   364 PWs)   bands (ev):

    -3.5899  -0.7968   3.5642   4.2716

     highest occupied level (ev):     5.5016

     Writing output data file silicon.10.403.save

                                                                                

     bravais-lattice index     =            2
     lattice parameter (alat)  =      10.4030  a.u.
     unit-cell volume          =     281.4594 (a.u.)^3
     number of atoms/cell      =            2
     number of atomic types    =            1
     kinetic-energy cut-off    =      18.0000  Ry
     charge density cut-off    =      72.0000  Ry
     convergence threshold     =      1.0E-12
     beta                      =       0.7000
     number of iterations used =            4
     Exchange-correlation      = SLA  PW   PBE  PBE ( 1  4  3  4 0 0)


     celldm(1)=   10.40300  celldm(2)=    0.00000  celldm(3)=    0.00000
     celldm(4)=    0.00000  celldm(5)=    0.00000  celldm(6)=    0.00000

     crystal axes: (cart. coord. in units of alat)
               a(1) = ( -0.5000  0.0000  0.5000 )  
               a(2) = (  0.0000  0.5000  0.5000 )  
               a(3) = ( -0.5000  0.5000  0.0000 )  

     reciprocal axes: (cart. coord. in units 2 pi/alat)
               b(1) = ( -1.0000 -1.0000  1.0000 )  
               b(2) = (  1.0000  1.0000  1.0000 )  
               b(3) = ( -1.0000  1.0000 -1.0000 )  


     Atoms inside the unit cell: 

     Cartesian axes

     site n.  atom      mass           positions (alat units)
        1     Si  28.0860   tau(    1) = (    0.00000    0.00000    0.00000  )
        2     Si  28.0860   tau(    2) = (    0.25000    0.25000    0.25000  )

     Computing dynamical matrix for 
                    q = (   0.0000000   0.5000000   0.0000000 )

      8 Sym.Ops. (no q -> -q+G )


     G cutoff =  197.3740  (    722 G-vectors)     FFT grid: ( 20, 20, 20)
     number of k points=    80

     PseudoPot. # 1 for Si read from file:
     /home/max/quantum_espresso/qe-6.1/pseudo/si_pbe_v1.uspp.F.UPF.txt
     MD5 check sum: a056efeee980c13900f22a371efd63c1
     Pseudo is Ultrasoft + core correction, Zval =  4.0
     Generated by new atomic code, or converted to UPF format
     Using radial grid of  899 points,  6 beta functions with: 
                l(1) =   0
                l(2) =   0
                l(3) =   1
                l(4) =   1
                l(5) =   2
                l(6) =   2
     Q(r) pseudized with  8 coefficients,  rinner =    0.900   0.900   0.900
                                                       0.900   0.900

     Mode symmetry, C_4v (4mm)  point group:


     Atomic displacements:
     There are   4 irreducible representations

     Representation     1      1 modes -A_1  G_1 D_1  To be done

     Representation     2      1 modes -B_2  G_4 D_2'  To be done

     Representation     3      2 modes -E    G_5 D_5  To be done

     Representation     4      2 modes -E    G_5 D_5  To be done



     Alpha used in Ewald sum =   0.7000
     PHONON       :    20.96s CPU        22.66s WALL



     Representation #  1 mode #   1

     Self-consistent Calculation

      iter #   1 total cpu time :    22.8 secs   av.it.:   5.8
      thresh= 1.000E-02 alpha_mix =  0.700 |ddv_scf|^2 =  2.923E-03

      iter #   2 total cpu time :    23.0 secs   av.it.:   7.7
      thresh= 5.407E-03 alpha_mix =  0.700 |ddv_scf|^2 =  3.885E-02

      iter #   3 total cpu time :    23.3 secs   av.it.:   6.7
      thresh= 1.000E-02 alpha_mix =  0.700 |ddv_scf|^2 =  1.439E-07

      iter #   4 total cpu time :    23.5 secs   av.it.:   8.2
      thresh= 3.793E-05 alpha_mix =  0.700 |ddv_scf|^2 =  1.683E-08

      iter #   5 total cpu time :    23.7 secs   av.it.:   7.7
      thresh= 1.297E-05 alpha_mix =  0.700 |ddv_scf|^2 =  6.910E-10

      iter #   6 total cpu time :    23.8 secs   av.it.:   8.0
      thresh= 2.629E-06 alpha_mix =  0.700 |ddv_scf|^2 =  2.820E-12

      iter #   7 total cpu time :    24.0 secs   av.it.:   7.9
      thresh= 1.679E-07 alpha_mix =  0.700 |ddv_scf|^2 =  5.124E-13

     End of self-consistent calculation

     Convergence has been achieved 


     Representation #  2 mode #   2

     Self-consistent Calculation

      iter #   1 total cpu time :    24.2 secs   av.it.:   4.9
      thresh= 1.000E-02 alpha_mix =  0.700 |ddv_scf|^2 =  5.142E-06

      iter #   2 total cpu time :    24.4 secs   av.it.:   8.7
      thresh= 2.268E-04 alpha_mix =  0.700 |ddv_scf|^2 =  1.343E-06

      iter #   3 total cpu time :    24.6 secs   av.it.:   8.6
      thresh= 1.159E-04 alpha_mix =  0.700 |ddv_scf|^2 =  3.174E-08

      iter #   4 total cpu time :    24.7 secs   av.it.:   8.2
      thresh= 1.782E-05 alpha_mix =  0.700 |ddv_scf|^2 =  7.787E-10

      iter #   5 total cpu time :    24.9 secs   av.it.:   8.6
      thresh= 2.791E-06 alpha_mix =  0.700 |ddv_scf|^2 =  8.970E-12

      iter #   6 total cpu time :    25.3 secs   av.it.:   7.7
      thresh= 2.995E-07 alpha_mix =  0.700 |ddv_scf|^2 =  9.125E-14

     End of self-consistent calculation

     Convergence has been achieved 


     Representation #  3 modes #   3  4

     Self-consistent Calculation

      iter #   1 total cpu time :    25.6 secs   av.it.:   5.0
      thresh= 1.000E-02 alpha_mix =  0.700 |ddv_scf|^2 =  9.393E-07

      iter #   2 total cpu time :    26.0 secs   av.it.:   9.8
      thresh= 9.692E-05 alpha_mix =  0.700 |ddv_scf|^2 =  1.192E-07

      iter #   3 total cpu time :    26.4 secs   av.it.:   9.5
      thresh= 3.453E-05 alpha_mix =  0.700 |ddv_scf|^2 =  4.942E-09

      iter #   4 total cpu time :    26.7 secs   av.it.:   8.9
      thresh= 7.030E-06 alpha_mix =  0.700 |ddv_scf|^2 =  8.848E-12

      iter #   5 total cpu time :    27.3 secs   av.it.:   9.1
      thresh= 2.975E-07 alpha_mix =  0.700 |ddv_scf|^2 =  3.024E-13

     End of self-consistent calculation

     Convergence has been achieved 


     Representation #  4 modes #   5  6

     Self-consistent Calculation

      iter #   1 total cpu time :    27.6 secs   av.it.:   5.0
      thresh= 1.000E-02 alpha_mix =  0.700 |ddv_scf|^2 =  9.429E-07

      iter #   2 total cpu time :    28.0 secs   av.it.:   9.8
      thresh= 9.710E-05 alpha_mix =  0.700 |ddv_scf|^2 =  1.197E-07

      iter #   3 total cpu time :    28.4 secs   av.it.:   9.5
      thresh= 3.459E-05 alpha_mix =  0.700 |ddv_scf|^2 =  7.373E-09

      iter #   4 total cpu time :    28.7 secs   av.it.:   8.9
      thresh= 8.587E-06 alpha_mix =  0.700 |ddv_scf|^2 =  1.550E-11

      iter #   5 total cpu time :    29.3 secs   av.it.:   9.2
      thresh= 3.936E-07 alpha_mix =  0.700 |ddv_scf|^2 =  4.593E-14

     End of self-consistent calculation

     Convergence has been achieved 

     Number of q in the star =    6
     List of q in the star:
          1   0.000000000   0.500000000   0.000000000
          2   0.000000000  -0.500000000   0.000000000
          3   0.500000000   0.000000000   0.000000000
          4   0.000000000   0.000000000   0.500000000
          5   0.000000000   0.000000000  -0.500000000
          6  -0.500000000   0.000000000   0.000000000

     Diagonalizing the dynamical matrix

     q = (    0.000000000   0.500000000   0.000000000 ) 

 **************************************************************************
     freq (    1) =       4.406824 [THz] =     146.995841 [cm-1]
     freq (    2) =       4.406824 [THz] =     146.995841 [cm-1]
     freq (    3) =       7.009470 [THz] =     233.810752 [cm-1]
     freq (    4) =      14.208800 [THz] =     473.954561 [cm-1]
     freq (    5) =      14.208800 [THz] =     473.954561 [cm-1]
     freq (    6) =      14.916397 [THz] =     497.557460 [cm-1]
 **************************************************************************

     Mode symmetry, C_4v (4mm)  point group:

     freq (  1 -  2) =        147.0  [cm-1]   --> E    G_5 D_5       
     freq (  3 -  3) =        233.8  [cm-1]   --> A_1  G_1 D_1       
     freq (  4 -  5) =        474.0  [cm-1]   --> E    G_5 D_5       
     freq (  6 -  6) =        497.6  [cm-1]   --> B_2  G_4 D_2'      

     Calculation of q =    0.7500000  -0.2500000   0.7500000

   Info: using nr1, nr2, nr3 values from input

   Info: using nr1, nr2, nr3 values from input

     Parallelization info
     --------------------
     sticks:   dense  smooth     PW     G-vecs:    dense   smooth      PW
     Min          65      65     30                  722      722     216
     Max          67      67     31                  723      723     218
     Sum         265     265    121                 2891     2891     869



     bravais-lattice index     =            2
     lattice parameter (alat)  =      10.4030  a.u.
     unit-cell volume          =     281.4594 (a.u.)^3
     number of atoms/cell      =            2
     number of atomic types    =            1
     number of electrons       =         8.00
     number of Kohn-Sham states=            4
     kinetic-energy cutoff     =      18.0000  Ry
     charge density cutoff     =      72.0000  Ry
     Exchange-correlation      = SLA  PW   PBE  PBE ( 1  4  3  4 0 0)

     celldm(1)=  10.403000  celldm(2)=   0.000000  celldm(3)=   0.000000
     celldm(4)=   0.000000  celldm(5)=   0.000000  celldm(6)=   0.000000

     crystal axes: (cart. coord. in units of alat)
               a(1) = (  -0.500000   0.000000   0.500000 )  
               a(2) = (   0.000000   0.500000   0.500000 )  
               a(3) = (  -0.500000   0.500000   0.000000 )  

     reciprocal axes: (cart. coord. in units 2 pi/alat)
               b(1) = ( -1.000000 -1.000000  1.000000 )  
               b(2) = (  1.000000  1.000000  1.000000 )  
               b(3) = ( -1.000000  1.000000 -1.000000 )  


     PseudoPot. # 1 for Si read from file:
     /home/max/quantum_espresso/qe-6.1/pseudo/si_pbe_v1.uspp.F.UPF.txt
     MD5 check sum: a056efeee980c13900f22a371efd63c1
     Pseudo is Ultrasoft + core correction, Zval =  4.0
     Generated by new atomic code, or converted to UPF format
     Using radial grid of  899 points,  6 beta functions with: 
                l(1) =   0
                l(2) =   0
                l(3) =   1
                l(4) =   1
                l(5) =   2
                l(6) =   2
     Q(r) pseudized with  8 coefficients,  rinner =    0.900   0.900   0.900
                                                       0.900   0.900

     atomic species   valence    mass     pseudopotential
        Si             4.00    28.08600     Si( 1.00)

     48 Sym. Ops., with inversion, found



   Cartesian axes

     site n.     atom                  positions (alat units)
         1           Si  tau(   1) = (   0.0000000   0.0000000   0.0000000  )
         2           Si  tau(   2) = (   0.2500000   0.2500000   0.2500000  )

     number of k points=   288

     Number of k-points >= 100: set verbosity='high' to print them.

     Dense  grid:     2891 G-vectors     FFT dimensions: (  20,  20,  20)

     Estimated max dynamical RAM per process >       0.33MB

     Estimated total allocated dynamical RAM >       1.33MB

     Check: negative/imaginary core charge=   -0.000006    0.000000

     The potential is recalculated from file :
     ./_ph0/silicon.10.403.save/charge-density.dat

     Starting wfc are    8 atomic wfcs

     Band Structure Calculation
     Davidson diagonalization with overlap

     ethr =  1.25E-10,  avg # of iterations = 11.6

     total cpu time spent up to now is        4.0 secs

     End of band structure calculation

     Number of k-points >= 100: set verbosity='high' to print the bands.

     highest occupied level (ev):     5.5016

     Writing output data file silicon.10.403.save

                                                                                

     bravais-lattice index     =            2
     lattice parameter (alat)  =      10.4030  a.u.
     unit-cell volume          =     281.4594 (a.u.)^3
     number of atoms/cell      =            2
     number of atomic types    =            1
     kinetic-energy cut-off    =      18.0000  Ry
     charge density cut-off    =      72.0000  Ry
     convergence threshold     =      1.0E-12
     beta                      =       0.7000
     number of iterations used =            4
     Exchange-correlation      = SLA  PW   PBE  PBE ( 1  4  3  4 0 0)


     celldm(1)=   10.40300  celldm(2)=    0.00000  celldm(3)=    0.00000
     celldm(4)=    0.00000  celldm(5)=    0.00000  celldm(6)=    0.00000

     crystal axes: (cart. coord. in units of alat)
               a(1) = ( -0.5000  0.0000  0.5000 )  
               a(2) = (  0.0000  0.5000  0.5000 )  
               a(3) = ( -0.5000  0.5000  0.0000 )  

     reciprocal axes: (cart. coord. in units 2 pi/alat)
               b(1) = ( -1.0000 -1.0000  1.0000 )  
               b(2) = (  1.0000  1.0000  1.0000 )  
               b(3) = ( -1.0000  1.0000 -1.0000 )  


     Atoms inside the unit cell: 

     Cartesian axes

     site n.  atom      mass           positions (alat units)
        1     Si  28.0860   tau(    1) = (    0.00000    0.00000    0.00000  )
        2     Si  28.0860   tau(    2) = (    0.25000    0.25000    0.25000  )

     Computing dynamical matrix for 
                    q = (   0.7500000  -0.2500000   0.7500000 )

      2 Sym.Ops. (no q -> -q+G )


     G cutoff =  197.3740  (    723 G-vectors)     FFT grid: ( 20, 20, 20)
     number of k points=   288

     PseudoPot. # 1 for Si read from file:
     /home/max/quantum_espresso/qe-6.1/pseudo/si_pbe_v1.uspp.F.UPF.txt
     MD5 check sum: a056efeee980c13900f22a371efd63c1
     Pseudo is Ultrasoft + core correction, Zval =  4.0
     Generated by new atomic code, or converted to UPF format
     Using radial grid of  899 points,  6 beta functions with: 
                l(1) =   0
                l(2) =   0
                l(3) =   1
                l(4) =   1
                l(5) =   2
                l(6) =   2
     Q(r) pseudized with  8 coefficients,  rinner =    0.900   0.900   0.900
                                                       0.900   0.900

     Mode symmetry, C_s (m)     point group:


     Atomic displacements:
     There are   6 irreducible representations

     Representation     1      1 modes -A'  To be done

     Representation     2      1 modes -A'  To be done

     Representation     3      1 modes -A'  To be done

     Representation     4      1 modes -A'  To be done

     Representation     5      1 modes -A''  To be done

     Representation     6      1 modes -A''  To be done



     Alpha used in Ewald sum =   0.7000
     PHONON       :    29.95s CPU        32.20s WALL



     Representation #  1 mode #   1

     Self-consistent Calculation

      iter #   1 total cpu time :    32.7 secs   av.it.:   5.3
      thresh= 1.000E-02 alpha_mix =  0.700 |ddv_scf|^2 =  6.042E-05

      iter #   2 total cpu time :    33.5 secs   av.it.:   8.9
      thresh= 7.773E-04 alpha_mix =  0.700 |ddv_scf|^2 =  1.607E-04

      iter #   3 total cpu time :    34.1 secs   av.it.:   7.5
      thresh= 1.268E-03 alpha_mix =  0.700 |ddv_scf|^2 =  1.128E-06

      iter #   4 total cpu time :    34.7 secs   av.it.:   8.4
      thresh= 1.062E-04 alpha_mix =  0.700 |ddv_scf|^2 =  5.832E-08

      iter #   5 total cpu time :    35.7 secs   av.it.:   8.3
      thresh= 2.415E-05 alpha_mix =  0.700 |ddv_scf|^2 =  7.355E-09

      iter #   6 total cpu time :    36.4 secs   av.it.:   8.5
      thresh= 8.576E-06 alpha_mix =  0.700 |ddv_scf|^2 =  1.005E-10

      iter #   7 total cpu time :    37.0 secs   av.it.:   8.7
      thresh= 1.002E-06 alpha_mix =  0.700 |ddv_scf|^2 =  3.449E-12

      iter #   8 total cpu time :    37.8 secs   av.it.:   8.6
      thresh= 1.857E-07 alpha_mix =  0.700 |ddv_scf|^2 =  2.170E-13

     End of self-consistent calculation

     Convergence has been achieved 


     Representation #  2 mode #   2

     Self-consistent Calculation

      iter #   1 total cpu time :    38.4 secs   av.it.:   5.4
      thresh= 1.000E-02 alpha_mix =  0.700 |ddv_scf|^2 =  1.080E-04

      iter #   2 total cpu time :    39.0 secs   av.it.:   8.7
      thresh= 1.039E-03 alpha_mix =  0.700 |ddv_scf|^2 =  3.099E-04

      iter #   3 total cpu time :    39.8 secs   av.it.:   7.4
      thresh= 1.760E-03 alpha_mix =  0.700 |ddv_scf|^2 =  8.135E-07

      iter #   4 total cpu time :    40.4 secs   av.it.:   8.5
      thresh= 9.019E-05 alpha_mix =  0.700 |ddv_scf|^2 =  5.592E-08

      iter #   5 total cpu time :    41.0 secs   av.it.:   8.3
      thresh= 2.365E-05 alpha_mix =  0.700 |ddv_scf|^2 =  1.069E-08

      iter #   6 total cpu time :    41.8 secs   av.it.:   8.5
      thresh= 1.034E-05 alpha_mix =  0.700 |ddv_scf|^2 =  1.046E-10

      iter #   7 total cpu time :    42.5 secs   av.it.:   8.7
      thresh= 1.023E-06 alpha_mix =  0.700 |ddv_scf|^2 =  3.056E-12

      iter #   8 total cpu time :    43.3 secs   av.it.:   8.7
      thresh= 1.748E-07 alpha_mix =  0.700 |ddv_scf|^2 =  8.239E-13

     End of self-consistent calculation

     Convergence has been achieved 


     Representation #  3 mode #   3

     Self-consistent Calculation

      iter #   1 total cpu time :    43.8 secs   av.it.:   5.3
      thresh= 1.000E-02 alpha_mix =  0.700 |ddv_scf|^2 =  8.485E-05

      iter #   2 total cpu time :    44.5 secs   av.it.:   8.7
      thresh= 9.211E-04 alpha_mix =  0.700 |ddv_scf|^2 =  2.270E-04

      iter #   3 total cpu time :    45.1 secs   av.it.:   7.4
      thresh= 1.507E-03 alpha_mix =  0.700 |ddv_scf|^2 =  1.385E-06

      iter #   4 total cpu time :    45.8 secs   av.it.:   8.2
      thresh= 1.177E-04 alpha_mix =  0.700 |ddv_scf|^2 =  5.808E-08

      iter #   5 total cpu time :    46.5 secs   av.it.:   8.4
      thresh= 2.410E-05 alpha_mix =  0.700 |ddv_scf|^2 =  1.096E-08

      iter #   6 total cpu time :    47.3 secs   av.it.:   8.5
      thresh= 1.047E-05 alpha_mix =  0.700 |ddv_scf|^2 =  6.134E-11

      iter #   7 total cpu time :    47.9 secs   av.it.:   8.6
      thresh= 7.832E-07 alpha_mix =  0.700 |ddv_scf|^2 =  2.310E-12

      iter #   8 total cpu time :    48.6 secs   av.it.:   8.8
      thresh= 1.520E-07 alpha_mix =  0.700 |ddv_scf|^2 =  6.185E-13

     End of self-consistent calculation

     Convergence has been achieved 


     Representation #  4 mode #   4

     Self-consistent Calculation

      iter #   1 total cpu time :    49.1 secs   av.it.:   5.2
      thresh= 1.000E-02 alpha_mix =  0.700 |ddv_scf|^2 =  3.727E-05

      iter #   2 total cpu time :    49.9 secs   av.it.:   8.9
[...]
        k(   59) = (  -0.8750000   0.1250000  -0.1250000), wk =   0.0625000
        k(   60) = (  -1.3750000  -0.8750000  -0.1250000), wk =   0.0000000
        k(   61) = (  -1.1250000   0.3750000  -0.3750000), wk =   0.0625000
        k(   62) = (  -1.6250000  -0.6250000  -0.3750000), wk =   0.0000000
        k(   63) = (  -0.3750000   0.3750000   1.1250000), wk =   0.0625000
        k(   64) = (  -0.8750000  -0.6250000   1.1250000), wk =   0.0000000

     Dense  grid:     2891 G-vectors     FFT dimensions: (  20,  20,  20)

     Estimated max dynamical RAM per process >       0.33MB

     Estimated total allocated dynamical RAM >       1.33MB

     Check: negative/imaginary core charge=   -0.000006    0.000000

     The potential is recalculated from file :
     ./_ph0/silicon.10.403.save/charge-density.dat

     Starting wfc are    8 atomic wfcs

     Band Structure Calculation
     Davidson diagonalization with overlap

     ethr =  1.25E-10,  avg # of iterations = 11.6

     total cpu time spent up to now is        6.3 secs

     End of band structure calculation

          k =-0.1250 0.1250 0.1250 (   353 PWs)   bands (ev):

    -5.7039   4.1903   5.5016   5.5016

          k =-0.6250-0.8750 0.1250 (   368 PWs)   bands (ev):

    -2.5754  -1.0550   1.9044   2.9529

          k =-0.3750 0.3750-0.1250 (   362 PWs)   bands (ev):

    -4.6985   1.2321   3.5549   5.0249

          k =-0.8750-0.6250-0.1250 (   368 PWs)   bands (ev):

    -2.5754  -1.0550   1.9044   2.9529

          k = 0.3750-0.3750 0.6250 (   364 PWs)   bands (ev):

    -3.5899  -0.7968   3.5642   4.2716

          k =-0.1250-1.3750 0.6250 (   369 PWs)   bands (ev):

    -3.1034  -0.7392   1.9527   3.9623

          k = 0.1250-0.1250 0.3750 (   358 PWs)   bands (ev):

    -5.1863   2.5814   4.5160   4.5682

          k =-0.3750-1.1250 0.3750 (   369 PWs)   bands (ev):

    -3.1034  -0.7392   1.9527   3.9623

          k =-0.1250 0.6250 0.1250 (   357 PWs)   bands (ev):

    -4.1754   0.8762   3.2185   3.6582

          k =-0.6250-0.3750 0.1250 (   365 PWs)   bands (ev):

    -3.7714   0.0328   2.5872   3.9290

          k = 0.6250-0.1250 0.8750 (   368 PWs)   bands (ev):

    -2.5754  -1.0550   1.9044   2.9529

          k = 0.1250-1.1250 0.8750 (   364 PWs)   bands (ev):

    -2.7334  -0.9624   2.4966   3.1994

          k = 0.3750 0.1250 0.6250 (   365 PWs)   bands (ev):

    -3.7714   0.0328   2.5872   3.9290

          k =-0.1250-0.8750 0.6250 (   368 PWs)   bands (ev):

    -2.5754  -1.0550   1.9044   2.9529

          k =-0.1250-0.8750 0.1250 (   364 PWs)   bands (ev):

    -2.7334  -0.9624   2.4966   3.1994

          k =-0.6250-1.8750 0.1250 (   357 PWs)   bands (ev):

    -4.1754   0.8762   3.2185   3.6582

          k =-0.3750 0.3750 0.3750 (   359 PWs)   bands (ev):

    -4.2768  -0.0224   4.7244   4.7244

          k =-0.8750-0.6250 0.3750 (   365 PWs)   bands (ev):

    -3.7714   0.0328   2.5872   3.9290

          k = 0.3750-0.3750 1.1250 (   369 PWs)   bands (ev):

    -3.1034  -0.7392   1.9527   3.9623

          k =-0.1250-1.3750 1.1250 (   368 PWs)   bands (ev):

    -2.5754  -1.0550   1.9044   2.9529

          k = 0.1250-0.3750 0.3750 (   362 PWs)   bands (ev):

    -4.6985   1.2321   3.5549   5.0249

          k =-0.3750-1.3750 0.3750 (   364 PWs)   bands (ev):

    -3.5899  -0.7968   3.5642   4.2716

          k = 0.3750-0.3750-0.1250 (   362 PWs)   bands (ev):

    -4.6985   1.2321   3.5549   5.0249

          k =-0.1250-1.3750-0.1250 (   357 PWs)   bands (ev):

    -4.1754   0.8762   3.2185   3.6582

          k =-0.6250 0.3750-0.3750 (   364 PWs)   bands (ev):

    -3.5899  -0.7968   3.5642   4.2716

          k =-1.1250-0.6250-0.3750 (   365 PWs)   bands (ev):

    -3.7714   0.0328   2.5872   3.9290

          k =-0.3750 0.3750 0.6250 (   364 PWs)   bands (ev):

    -3.5899  -0.7968   3.5642   4.2716

          k =-0.8750-0.6250 0.6250 (   362 PWs)   bands (ev):

    -4.6985   1.2321   3.5549   5.0249

          k =-0.3750 0.1250-0.1250 (   358 PWs)   bands (ev):

    -5.1863   2.5814   4.5160   4.5682

          k =-0.8750-0.8750-0.1250 (   364 PWs)   bands (ev):

    -2.7334  -0.9624   2.4966   3.1994

          k =-0.1250 0.1250 0.3750 (   358 PWs)   bands (ev):

    -5.1863   2.5814   4.5160   4.5682

          k =-0.6250-0.8750 0.3750 (   365 PWs)   bands (ev):

    -3.7714   0.0328   2.5872   3.9290

          k = 0.1250 0.6250-0.1250 (   357 PWs)   bands (ev):

    -4.1754   0.8762   3.2185   3.6582

          k =-0.3750-0.3750-0.1250 (   362 PWs)   bands (ev):

    -4.6985   1.2321   3.5549   5.0249

          k = 0.6250 0.1250-0.1250 (   357 PWs)   bands (ev):

    -4.1754   0.8762   3.2185   3.6582

          k = 0.1250-0.8750-0.1250 (   364 PWs)   bands (ev):

    -2.7334  -0.9624   2.4966   3.1994

          k =-0.8750 0.1250-0.6250 (   368 PWs)   bands (ev):

    -2.5754  -1.0550   1.9044   2.9529

          k =-1.3750-0.8750-0.6250 (   362 PWs)   bands (ev):

    -4.6985   1.2321   3.5549   5.0249

          k = 0.8750-0.1250 0.6250 (   368 PWs)   bands (ev):

    -2.5754  -1.0550   1.9044   2.9529

          k = 0.3750-1.1250 0.6250 (   365 PWs)   bands (ev):

    -3.7714   0.0328   2.5872   3.9290

          k =-0.6250 0.1250 0.8750 (   368 PWs)   bands (ev):

    -2.5754  -1.0550   1.9044   2.9529

          k =-1.1250-0.8750 0.8750 (   353 PWs)   bands (ev):

    -5.7039   4.1903   5.5016   5.5016

          k =-0.1250 0.8750 0.6250 (   368 PWs)   bands (ev):

    -2.5754  -1.0550   1.9044   2.9529

          k =-0.6250-0.1250 0.6250 (   369 PWs)   bands (ev):

    -3.1034  -0.7392   1.9527   3.9623

          k = 0.1250 0.8750-0.6250 (   368 PWs)   bands (ev):

    -2.5754  -1.0550   1.9044   2.9529

          k =-0.3750-0.1250-0.6250 (   365 PWs)   bands (ev):

    -3.7714   0.0328   2.5872   3.9290

          k =-0.6250-0.1250-0.3750 (   365 PWs)   bands (ev):

    -3.7714   0.0328   2.5872   3.9290

          k =-1.1250-1.1250-0.3750 (   357 PWs)   bands (ev):

    -4.1754   0.8762   3.2185   3.6582

          k = 0.6250 0.1250 0.3750 (   365 PWs)   bands (ev):

    -3.7714   0.0328   2.5872   3.9290

          k = 0.1250-0.8750 0.3750 (   368 PWs)   bands (ev):

    -2.5754  -1.0550   1.9044   2.9529

          k =-0.3750-0.1250 0.6250 (   365 PWs)   bands (ev):

    -3.7714   0.0328   2.5872   3.9290

          k =-0.8750-1.1250 0.6250 (   358 PWs)   bands (ev):

    -5.1863   2.5814   4.5160   4.5682

          k = 0.1250 0.6250 0.3750 (   365 PWs)   bands (ev):

    -3.7714   0.0328   2.5872   3.9290

          k =-0.3750-0.3750 0.3750 (   359 PWs)   bands (ev):

    -4.2768  -0.0224   4.7244   4.7244

          k =-0.1250 0.6250-0.3750 (   365 PWs)   bands (ev):

    -3.7714   0.0328   2.5872   3.9290

          k =-0.6250-0.3750-0.3750 (   364 PWs)   bands (ev):

    -3.5899  -0.7968   3.5642   4.2716

          k = 0.1250-0.8750-0.1250 (   364 PWs)   bands (ev):

    -2.7334  -0.9624   2.4966   3.1994

          k =-0.3750-1.8750-0.1250 (   358 PWs)   bands (ev):

    -5.1863   2.5814   4.5160   4.5682

          k =-0.8750 0.1250-0.1250 (   364 PWs)   bands (ev):

    -2.7334  -0.9624   2.4966   3.1994

          k =-1.3750-0.8750-0.1250 (   368 PWs)   bands (ev):

    -2.5754  -1.0550   1.9044   2.9529

          k =-1.1250 0.3750-0.3750 (   369 PWs)   bands (ev):

    -3.1034  -0.7392   1.9527   3.9623

          k =-1.6250-0.6250-0.3750 (   364 PWs)   bands (ev):

    -3.5899  -0.7968   3.5642   4.2716

          k =-0.3750 0.3750 1.1250 (   369 PWs)   bands (ev):

    -3.1034  -0.7392   1.9527   3.9623

          k =-0.8750-0.6250 1.1250 (   358 PWs)   bands (ev):

    -5.1863   2.5814   4.5160   4.5682

     highest occupied level (ev):     5.5016

     Writing output data file silicon.10.403.save

                                                                                

     bravais-lattice index     =            2
     lattice parameter (alat)  =      10.4030  a.u.
     unit-cell volume          =     281.4594 (a.u.)^3
     number of atoms/cell      =            2
     number of atomic types    =            1
     kinetic-energy cut-off    =      18.0000  Ry
     charge density cut-off    =      72.0000  Ry
     convergence threshold     =      1.0E-12
     beta                      =       0.7000
     number of iterations used =            4
     Exchange-correlation      = SLA  PW   PBE  PBE ( 1  4  3  4 0 0)


     celldm(1)=   10.40300  celldm(2)=    0.00000  celldm(3)=    0.00000
     celldm(4)=    0.00000  celldm(5)=    0.00000  celldm(6)=    0.00000

     crystal axes: (cart. coord. in units of alat)
               a(1) = ( -0.5000  0.0000  0.5000 )  
               a(2) = (  0.0000  0.5000  0.5000 )  
               a(3) = ( -0.5000  0.5000  0.0000 )  

     reciprocal axes: (cart. coord. in units 2 pi/alat)
               b(1) = ( -1.0000 -1.0000  1.0000 )  
               b(2) = (  1.0000  1.0000  1.0000 )  
               b(3) = ( -1.0000  1.0000 -1.0000 )  


     Atoms inside the unit cell: 

     Cartesian axes

     site n.  atom      mass           positions (alat units)
        1     Si  28.0860   tau(    1) = (    0.00000    0.00000    0.00000  )
        2     Si  28.0860   tau(    2) = (    0.25000    0.25000    0.25000  )

     Computing dynamical matrix for 
                    q = (  -0.5000000  -1.0000000   0.0000000 )

      8 Sym.Ops. (no q -> -q+G )


     G cutoff =  197.3740  (    722 G-vectors)     FFT grid: ( 20, 20, 20)
     number of k points=    64

     PseudoPot. # 1 for Si read from file:
     /home/max/quantum_espresso/qe-6.1/pseudo/si_pbe_v1.uspp.F.UPF.txt
     MD5 check sum: a056efeee980c13900f22a371efd63c1
     Pseudo is Ultrasoft + core correction, Zval =  4.0
     Generated by new atomic code, or converted to UPF format
     Using radial grid of  899 points,  6 beta functions with: 
                l(1) =   0
                l(2) =   0
                l(3) =   1
                l(4) =   1
                l(5) =   2
                l(6) =   2
     Q(r) pseudized with  8 coefficients,  rinner =    0.900   0.900   0.900
                                                       0.900   0.900


     Atomic displacements:
     There are   3 irreducible representations

     Representation     1      2 modes -  To be done

     Representation     2      2 modes -  To be done

     Representation     3      2 modes -  To be done



     Alpha used in Ewald sum =   0.7000
     PHONON       :  1m14.91s CPU     1m20.48s WALL



     Representation #  1 modes #   1  2

     Self-consistent Calculation

      iter #   1 total cpu time :    80.7 secs   av.it.:   5.3
      thresh= 1.000E-02 alpha_mix =  0.700 |ddv_scf|^2 =  6.376E-06

      iter #   2 total cpu time :    81.1 secs   av.it.:   9.8
      thresh= 2.525E-04 alpha_mix =  0.700 |ddv_scf|^2 =  3.429E-06

      iter #   3 total cpu time :    81.7 secs   av.it.:   9.2
      thresh= 1.852E-04 alpha_mix =  0.700 |ddv_scf|^2 =  8.561E-09

      iter #   4 total cpu time :    82.0 secs   av.it.:   9.1
      thresh= 9.252E-06 alpha_mix =  0.700 |ddv_scf|^2 =  3.213E-11

      iter #   5 total cpu time :    82.3 secs   av.it.:   8.9
      thresh= 5.668E-07 alpha_mix =  0.700 |ddv_scf|^2 =  7.431E-13

     End of self-consistent calculation

     Convergence has been achieved 


     Representation #  2 modes #   3  4

     Self-consistent Calculation

      iter #   1 total cpu time :    82.6 secs   av.it.:   5.2
      thresh= 1.000E-02 alpha_mix =  0.700 |ddv_scf|^2 =  9.698E-06

      iter #   2 total cpu time :    82.9 secs   av.it.:   9.9
      thresh= 3.114E-04 alpha_mix =  0.700 |ddv_scf|^2 =  1.320E-05

      iter #   3 total cpu time :    83.4 secs   av.it.:   9.1
      thresh= 3.633E-04 alpha_mix =  0.700 |ddv_scf|^2 =  1.019E-08

      iter #   4 total cpu time :    83.7 secs   av.it.:   8.9
      thresh= 1.009E-05 alpha_mix =  0.700 |ddv_scf|^2 =  9.714E-11

      iter #   5 total cpu time :    84.0 secs   av.it.:   9.4
      thresh= 9.856E-07 alpha_mix =  0.700 |ddv_scf|^2 =  1.868E-12

      iter #   6 total cpu time :    84.3 secs   av.it.:   9.1
      thresh= 1.367E-07 alpha_mix =  0.700 |ddv_scf|^2 =  1.626E-14

     End of self-consistent calculation

     Convergence has been achieved 


     Representation #  3 modes #   5  6

     Self-consistent Calculation

      iter #   1 total cpu time :    84.5 secs   av.it.:   5.1
      thresh= 1.000E-02 alpha_mix =  0.700 |ddv_scf|^2 =  2.638E-06

      iter #   2 total cpu time :    84.9 secs   av.it.:   9.7
      thresh= 1.624E-04 alpha_mix =  0.700 |ddv_scf|^2 =  1.447E-06

      iter #   3 total cpu time :    85.5 secs   av.it.:   9.0
      thresh= 1.203E-04 alpha_mix =  0.700 |ddv_scf|^2 =  8.117E-09

      iter #   4 total cpu time :    85.8 secs   av.it.:   8.7
      thresh= 9.009E-06 alpha_mix =  0.700 |ddv_scf|^2 =  5.159E-11

      iter #   5 total cpu time :    86.1 secs   av.it.:   9.1
      thresh= 7.183E-07 alpha_mix =  0.700 |ddv_scf|^2 =  7.598E-13

     End of self-consistent calculation

     Convergence has been achieved 

     Number of q in the star =    6
     List of q in the star:
          1  -0.500000000  -1.000000000   0.000000000
          2   0.000000000   1.000000000   0.500000000
          3   0.000000000  -1.000000000  -0.500000000
          4   0.500000000   1.000000000   0.000000000
          5  -1.000000000  -0.500000000   0.000000000
          6   0.000000000  -0.500000000  -1.000000000

     Diagonalizing the dynamical matrix

     q = (   -0.500000000  -1.000000000   0.000000000 ) 

 **************************************************************************
     freq (    1) =       7.806770 [THz] =     260.405825 [cm-1]
     freq (    2) =       7.806770 [THz] =     260.405825 [cm-1]
     freq (    3) =      11.020313 [THz] =     367.598064 [cm-1]
     freq (    4) =      11.020313 [THz] =     367.598064 [cm-1]
     freq (    5) =      13.744731 [THz] =     458.474892 [cm-1]
     freq (    6) =      13.744731 [THz] =     458.474892 [cm-1]
 **************************************************************************

     init_run     :      0.59s CPU      0.60s WALL (       7 calls)
     electrons    :      4.65s CPU      4.94s WALL (       7 calls)

     Called by init_run:
     wfcinit      :      0.00s CPU      0.00s WALL (       7 calls)
     potinit      :      0.02s CPU      0.02s WALL (       7 calls)

     Called by electrons:
     c_bands      :      4.65s CPU      4.93s WALL (       7 calls)
     v_of_rho     :      0.01s CPU      0.01s WALL (       8 calls)
     newd         :      0.03s CPU      0.03s WALL (       8 calls)

     Called by c_bands:
     init_us_2    :      0.67s CPU      0.72s WALL (   17588 calls)
     cegterg      :      3.89s CPU      4.10s WALL (     796 calls)

     Called by sum_band:

     Called by *egterg:
     h_psi        :     44.12s CPU     47.36s WALL (  152204 calls)
     s_psi        :      5.84s CPU      6.18s WALL (  309128 calls)
     g_psi        :      0.03s CPU      0.03s WALL (    9268 calls)
     cdiaghg      :      0.45s CPU      0.46s WALL (   10064 calls)

     Called by h_psi:
     h_psi:pot    :     43.93s CPU     47.15s WALL (  152204 calls)
     h_psi:calbec :      4.61s CPU      4.96s WALL (  152204 calls)
     vloc_psi     :     36.20s CPU     38.86s WALL (  152204 calls)
     add_vuspsi   :      2.90s CPU      3.11s WALL (  152204 calls)

     General routines
     calbec       :     10.14s CPU     10.94s WALL (  345500 calls)
     fft          :      0.33s CPU      0.36s WALL (    5239 calls)
     ffts         :      0.13s CPU      0.13s WALL (    2748 calls)
     fftw         :     41.99s CPU     45.08s WALL ( 1378152 calls)
     davcio       :      0.32s CPU      0.34s WALL (   79045 calls)

     Parallel routines
     fft_scatter  :     10.20s CPU     11.35s WALL ( 1386139 calls)

     PHONON       :  1m20.22s CPU     1m26.17s WALL

     INITIALIZATION: 
     phq_setup    :      0.05s CPU      0.05s WALL (       8 calls)
     phq_init     :      1.95s CPU      2.04s WALL (       8 calls)

     phq_init     :      1.95s CPU      2.04s WALL (       8 calls)
     set_drhoc    :      0.29s CPU      0.32s WALL (      24 calls)
     init_vloc    :      0.01s CPU      0.01s WALL (       8 calls)
     init_us_1    :      0.54s CPU      0.54s WALL (       8 calls)
     newd         :      0.03s CPU      0.03s WALL (       8 calls)
     dvanqq       :      0.23s CPU      0.24s WALL (       8 calls)
     drho         :      0.98s CPU      1.00s WALL (       8 calls)

     DYNAMICAL MATRIX:
     dynmat0      :      0.51s CPU      0.56s WALL (       8 calls)
     phqscf       :     70.47s CPU     75.84s WALL (       8 calls)
     dynmatrix    :      0.02s CPU      0.03s WALL (       8 calls)

     phqscf       :     70.47s CPU     75.84s WALL (       8 calls)
     solve_linter :     69.76s CPU     75.10s WALL (      32 calls)
     drhodv       :      0.51s CPU      0.53s WALL (      32 calls)

     dynmat0      :      0.51s CPU      0.56s WALL (       8 calls)
     dynmat_us    :      0.28s CPU      0.30s WALL (       8 calls)
     d2ionq       :      0.01s CPU      0.01s WALL (       8 calls)
     dynmatcc     :      0.21s CPU      0.24s WALL (       8 calls)

     dynmat_us    :      0.28s CPU      0.30s WALL (       8 calls)
     addusdynmat  :      0.00s CPU      0.00s WALL (       8 calls)

     phqscf       :     70.47s CPU     75.84s WALL (       8 calls)
     solve_linter :     69.76s CPU     75.10s WALL (      32 calls)

     solve_linter :     69.76s CPU     75.10s WALL (      32 calls)
     dvqpsi_us    :      1.62s CPU      1.71s WALL (    2508 calls)
     ortho        :      1.14s CPU      1.20s WALL (   15550 calls)
     cgsolve      :     54.70s CPU     58.96s WALL (   15550 calls)
     incdrhoscf   :      4.68s CPU      5.01s WALL (   15550 calls)
     addusddens   :      1.13s CPU      1.16s WALL (     228 calls)
     vpsifft      :      3.54s CPU      3.83s WALL (   12922 calls)
     dv_of_drho   :      0.21s CPU      0.22s WALL (     295 calls)
     mix_pot      :      0.05s CPU      0.06s WALL (     201 calls)
     psymdvscf    :      0.81s CPU      0.82s WALL (     196 calls)
     newdq        :      1.22s CPU      1.36s WALL (     201 calls)
     adddvscf     :      0.46s CPU      0.50s WALL (   13042 calls)
     drhodvus     :      0.01s CPU      0.01s WALL (      32 calls)

     dvqpsi_us    :      1.62s CPU      1.71s WALL (    2508 calls)
     dvqpsi_us_on :      0.82s CPU      0.86s WALL (    2508 calls)

     cgsolve      :     54.70s CPU     58.96s WALL (   15550 calls)
     ch_psi       :     52.64s CPU     56.61s WALL (  141344 calls)

     ch_psi       :     52.64s CPU     56.61s WALL (  141344 calls)
     h_psi        :     44.12s CPU     47.36s WALL (  152204 calls)
     last         :      8.67s CPU      9.44s WALL (  141344 calls)

     h_psi        :     44.12s CPU     47.36s WALL (  152204 calls)
     add_vuspsi   :      2.90s CPU      3.11s WALL (  152204 calls)

     incdrhoscf   :      4.68s CPU      5.01s WALL (   15550 calls)
     addusdbec    :      0.67s CPU      0.72s WALL (   17998 calls)

     drhodvus     :      0.01s CPU      0.01s WALL (      32 calls)

      General routines
     calbec       :     10.14s CPU     10.94s WALL (  345500 calls)
     fft          :      0.33s CPU      0.36s WALL (    5239 calls)
     ffts         :      0.13s CPU      0.13s WALL (    2748 calls)
     fftw         :     41.99s CPU     45.08s WALL ( 1378152 calls)
     davcio       :      0.32s CPU      0.34s WALL (   79045 calls)
     write_rec    :      0.27s CPU      0.35s WALL (     233 calls)


     PHONON       :  1m20.22s CPU     1m26.17s WALL


   This run was terminated on:  17:41: 5   9Nov2017            

=------------------------------------------------------------------------------=
   JOB DONE.
=------------------------------------------------------------------------------=
