
     Program PWSCF v.6.1 (svn rev. 13369) starts on 10Nov2017 at 10:28:11 

     This program is part of the open-source Quantum ESPRESSO suite
     for quantum simulation of materials; please cite
         "P. Giannozzi et al., J. Phys.:Condens. Matter 21 395502 (2009);
          URL http://www.quantum-espresso.org", 
     in publications or presentations arising from this work. More details at
     http://www.quantum-espresso.org/quote

     Parallel version (MPI), running on     4 processors
     R & G space division:  proc/nbgrp/npool/nimage =       4
     Waiting for input...
     Reading input from standard input
     Message from routine read_cards :
     DEPRECATED: no units specified in ATOMIC_POSITIONS card
     Message from routine read_cards :
     ATOMIC_POSITIONS: units set to alat

     Current dimensions of program PWSCF are:
     Max number of different atomic species (ntypx) = 10
     Max number of k-points (npk) =  40000
     Max angular momentum in pseudopotentials (lmaxx) =  3

     Subspace diagonalization in iterative solution of the eigenvalue problem:
     a serial algorithm will be used


     Parallelization info
     --------------------
     sticks:   dense  smooth     PW     G-vecs:    dense   smooth      PW
     Min         211     107     37                 4129     1454     284
     Max         212     109     38                 4134     1455     285
     Sum         847     433    151                16529     5817    1139



     bravais-lattice index     =            2
     lattice parameter (alat)  =      10.1700  a.u.
     unit-cell volume          =     262.9680 (a.u.)^3
     number of atoms/cell      =            2
     number of atomic types    =            1
     number of electrons       =         8.00
     number of Kohn-Sham states=            4
     kinetic-energy cutoff     =      30.0000  Ry
     charge density cutoff     =     240.0000  Ry
     convergence threshold     =      1.0E-08
     mixing beta               =       0.7000
     number of iterations used =            8  plain     mixing
     Exchange-correlation      = SLA  PW   PBE  PBE ( 1  4  3  4 0 0)

     celldm(1)=  10.170000  celldm(2)=   0.000000  celldm(3)=   0.000000
     celldm(4)=   0.000000  celldm(5)=   0.000000  celldm(6)=   0.000000

     crystal axes: (cart. coord. in units of alat)
               a(1) = (  -0.500000   0.000000   0.500000 )  
               a(2) = (   0.000000   0.500000   0.500000 )  
               a(3) = (  -0.500000   0.500000   0.000000 )  

     reciprocal axes: (cart. coord. in units 2 pi/alat)
               b(1) = ( -1.000000 -1.000000  1.000000 )  
               b(2) = (  1.000000  1.000000  1.000000 )  
               b(3) = ( -1.000000  1.000000 -1.000000 )  


     PseudoPot. # 1 for Si read from file:
     /home/max/quantum_espresso/qe-6.1/pseudo/si_pbe_v1.uspp.F.UPF.txt
     MD5 check sum: a056efeee980c13900f22a371efd63c1
     Pseudo is Ultrasoft + core correction, Zval =  4.0
     Generated by new atomic code, or converted to UPF format
     Using radial grid of  899 points,  6 beta functions with: 
                l(1) =   0
                l(2) =   0
                l(3) =   1
                l(4) =   1
                l(5) =   2
                l(6) =   2
     Q(r) pseudized with  8 coefficients,  rinner =    0.900   0.900   0.900
                                                       0.900   0.900

     atomic species   valence    mass     pseudopotential
        Si             4.00    28.08600     Si( 1.00)

     48 Sym. Ops., with inversion, found (24 have fractional translation)



   Cartesian axes

     site n.     atom                  positions (alat units)
         1           Si  tau(   1) = (   0.0000000   0.0000000   0.0000000  )
         2           Si  tau(   2) = (   0.2500000   0.2500000   0.2500000  )

     number of k points=    28
                       cart. coord. in units 2pi/alat
        k(    1) = (  -0.0833333   0.0833333   0.0833333), wk =   0.0185185
        k(    2) = (  -0.2500000   0.2500000  -0.0833333), wk =   0.0555556
        k(    3) = (  -0.4166667   0.4166667  -0.2500000), wk =   0.0555556
        k(    4) = (   0.4166667  -0.4166667   0.5833333), wk =   0.0555556
        k(    5) = (   0.2500000  -0.2500000   0.4166667), wk =   0.0555556
        k(    6) = (   0.0833333  -0.0833333   0.2500000), wk =   0.0555556
        k(    7) = (  -0.0833333   0.4166667   0.0833333), wk =   0.0555556
        k(    8) = (  -0.2500000   0.5833333  -0.0833333), wk =   0.1111111
        k(    9) = (   0.5833333  -0.2500000   0.7500000), wk =   0.1111111
        k(   10) = (   0.4166667  -0.0833333   0.5833333), wk =   0.1111111
        k(   11) = (   0.2500000   0.0833333   0.4166667), wk =   0.1111111
        k(   12) = (  -0.0833333   0.7500000   0.0833333), wk =   0.0555556
        k(   13) = (   0.7500000  -0.0833333   0.9166667), wk =   0.1111111
        k(   14) = (   0.5833333   0.0833333   0.7500000), wk =   0.1111111
        k(   15) = (   0.4166667   0.2500000   0.5833333), wk =   0.1111111
        k(   16) = (  -0.0833333  -0.9166667   0.0833333), wk =   0.0555556
        k(   17) = (  -0.2500000  -0.7500000  -0.0833333), wk =   0.1111111
        k(   18) = (  -0.0833333  -0.5833333   0.0833333), wk =   0.0555556
        k(   19) = (  -0.2500000   0.2500000   0.2500000), wk =   0.0185185
        k(   20) = (  -0.4166667   0.4166667   0.0833333), wk =   0.0555556
        k(   21) = (   0.4166667  -0.4166667   0.9166667), wk =   0.0555556
        k(   22) = (   0.2500000  -0.2500000   0.7500000), wk =   0.0555556
        k(   23) = (  -0.2500000   0.5833333   0.2500000), wk =   0.0555556
        k(   24) = (   0.5833333  -0.2500000   1.0833333), wk =   0.1111111
        k(   25) = (   0.4166667  -0.0833333   0.9166667), wk =   0.1111111
        k(   26) = (  -0.2500000  -1.0833333   0.2500000), wk =   0.0555556
        k(   27) = (  -0.4166667   0.4166667   0.4166667), wk =   0.0185185
        k(   28) = (   0.4166667  -0.4166667   1.2500000), wk =   0.0555556

     Dense  grid:    16529 G-vectors     FFT dimensions: (  36,  36,  36)

     Smooth grid:     5817 G-vectors     FFT dimensions: (  25,  25,  25)

     Estimated max dynamical RAM per process >       2.96MB

     Estimated total allocated dynamical RAM >      11.83MB

     Initial potential from superposition of free atoms

     starting charge    7.99866, renormalised to    8.00000
     Starting wfc are    8 randomized atomic wfcs

     total cpu time spent up to now is        0.8 secs

     per-process dynamical memory:    10.0 Mb

     Self-consistent Calculation

     iteration #  1     ecut=    30.00 Ry     beta=0.70
     Davidson diagonalization with overlap
     ethr =  1.00E-02,  avg # of iterations =  2.0

     Threshold (ethr) on eigenvalues was too large:
     Diagonalizing with lowered threshold

     Davidson diagonalization with overlap
     ethr =  7.33E-04,  avg # of iterations =  1.0

     total cpu time spent up to now is        1.2 secs

     total energy              =     -19.18887830 Ry
     Harris-Foulkes estimate   =     -19.20336105 Ry
     estimated scf accuracy    <       0.05794740 Ry

     iteration #  2     ecut=    30.00 Ry     beta=0.70
     Davidson diagonalization with overlap
     ethr =  7.24E-04,  avg # of iterations =  1.0

     total cpu time spent up to now is        1.4 secs

     total energy              =     -19.19098661 Ry
     Harris-Foulkes estimate   =     -19.19115402 Ry
     estimated scf accuracy    <       0.00243566 Ry

     iteration #  3     ecut=    30.00 Ry     beta=0.70
     Davidson diagonalization with overlap
     ethr =  3.04E-05,  avg # of iterations =  2.1

     total cpu time spent up to now is        1.7 secs

     total energy              =     -19.19136612 Ry
     Harris-Foulkes estimate   =     -19.19138230 Ry
     estimated scf accuracy    <       0.00004975 Ry

     iteration #  4     ecut=    30.00 Ry     beta=0.70
     Davidson diagonalization with overlap
     ethr =  6.22E-07,  avg # of iterations =  3.4

     total cpu time spent up to now is        1.9 secs

     total energy              =     -19.19140852 Ry
     Harris-Foulkes estimate   =     -19.19140996 Ry
     estimated scf accuracy    <       0.00000474 Ry

     iteration #  5     ecut=    30.00 Ry     beta=0.70
     Davidson diagonalization with overlap
     ethr =  5.92E-08,  avg # of iterations =  2.0

     total cpu time spent up to now is        2.4 secs

     total energy              =     -19.19140917 Ry
     Harris-Foulkes estimate   =     -19.19140917 Ry
     estimated scf accuracy    <       0.00000002 Ry

     iteration #  6     ecut=    30.00 Ry     beta=0.70
     Davidson diagonalization with overlap
     ethr =  2.36E-10,  avg # of iterations =  3.9

     total cpu time spent up to now is        2.9 secs

     End of self-consistent calculation

          k =-0.0833 0.0833 0.0833 (   731 PWs)   bands (ev):

    -5.5756   5.6191   6.3314   6.3314

          k =-0.2500 0.2500-0.0833 (   733 PWs)   bands (ev):

    -5.0860   3.5120   5.0578   6.1206

          k =-0.4167 0.4167-0.2500 (   739 PWs)   bands (ev):

    -3.9600   0.6757   4.5925   5.4663

          k = 0.4167-0.4167 0.5833 (   732 PWs)   bands (ev):

    -3.2318  -0.5089   4.6675   5.0726

          k = 0.2500-0.2500 0.4167 (   735 PWs)   bands (ev):

    -4.3856   1.5464   5.1291   5.1809

          k = 0.0833-0.0833 0.2500 (   726 PWs)   bands (ev):

    -5.3285   4.5461   5.6617   5.8691

          k =-0.0833 0.4167 0.0833 (   730 PWs)   bands (ev):

    -4.8385   3.3470   4.9063   4.9100

          k =-0.2500 0.5833-0.0833 (   734 PWs)   bands (ev):

    -3.9019   1.4685   3.5404   4.5148

          k = 0.5833-0.2500 0.7500 (   726 PWs)   bands (ev):

    -2.7428  -0.3500   2.9329   4.2770

          k = 0.4167-0.0833 0.5833 (   731 PWs)   bands (ev):

    -3.4937   0.7508   2.8767   4.7830

          k = 0.2500 0.0833 0.4167 (   732 PWs)   bands (ev):

    -4.6063   2.4760   4.2594   5.4789

          k =-0.0833 0.7500 0.0833 (   730 PWs)   bands (ev):

    -3.1719   0.6412   3.4976   3.8541

          k = 0.7500-0.0833 0.9167 (   732 PWs)   bands (ev):

    -1.9379  -0.7322   2.6199   3.4283

          k = 0.5833 0.0833 0.7500 (   726 PWs)   bands (ev):

    -2.3114  -0.4044   2.1247   3.9920

          k = 0.4167 0.2500 0.5833 (   729 PWs)   bands (ev):

    -3.3744   0.0199   3.8671   4.8860

          k =-0.0833-0.9167 0.0833 (   732 PWs)   bands (ev):

    -2.0366  -0.7425   3.2193   3.6334

          k =-0.2500-0.7500-0.0833 (   730 PWs)   bands (ev):

    -2.9961   0.4084   2.9592   3.7784

          k =-0.0833-0.5833 0.0833 (   728 PWs)   bands (ev):

    -4.1144   2.0350   4.0629   4.2872

          k =-0.2500 0.2500 0.2500 (   733 PWs)   bands (ev):

    -4.8498   2.5014   5.7019   5.7019

          k =-0.4167 0.4167 0.0833 (   733 PWs)   bands (ev):

    -4.1509   1.5681   3.5043   5.5309

          k = 0.4167-0.4167 0.9167 (   726 PWs)   bands (ev):

    -2.9326   0.1028   2.3574   4.7174

          k = 0.2500-0.2500 0.7500 (   724 PWs)   bands (ev):

    -2.8806   0.0223   2.8576   4.2190

          k =-0.2500 0.5833 0.2500 (   729 PWs)   bands (ev):

    -3.7135   0.7336   4.0012   4.6030

          k = 0.5833-0.2500 1.0833 (   728 PWs)   bands (ev):

    -2.6798   0.0011   2.4582   3.7721

          k = 0.4167-0.0833 0.9167 (   725 PWs)   bands (ev):

    -1.8223  -0.7401   2.2774   3.0793

          k =-0.2500-1.0833 0.2500 (   725 PWs)   bands (ev):

    -2.0379  -0.6533   2.1474   4.0190

          k =-0.4167 0.4167 0.4167 (   739 PWs)   bands (ev):

    -3.6170  -0.0955   5.3068   5.3068

          k = 0.4167-0.4167 1.2500 (   735 PWs)   bands (ev):

    -2.9903  -0.3959   3.4269   4.8493

     highest occupied level (ev):     6.3314

!    total energy              =     -19.19140922 Ry
     Harris-Foulkes estimate   =     -19.19140922 Ry
     estimated scf accuracy    <          1.6E-09 Ry

     The total energy is the sum of the following terms:

     one-electron contribution =       5.32002524 Ry
     hartree contribution      =       1.09211990 Ry
     xc contribution           =      -8.65394400 Ry
     ewald contribution        =     -16.94961037 Ry

     convergence has been achieved in   6 iterations

     Writing output data file silicon.10.17.save

     init_run     :      0.36s CPU      0.73s WALL (       1 calls)
     electrons    :      1.51s CPU      2.11s WALL (       1 calls)

     Called by init_run:
     wfcinit      :      0.07s CPU      0.09s WALL (       1 calls)
     potinit      :      0.02s CPU      0.05s WALL (       1 calls)

     Called by electrons:
     c_bands      :      0.90s CPU      1.28s WALL (       7 calls)
     sum_band     :      0.36s CPU      0.46s WALL (       7 calls)
     v_of_rho     :      0.12s CPU      0.19s WALL (       7 calls)
     newd         :      0.15s CPU      0.18s WALL (       7 calls)
     mix_rho      :      0.01s CPU      0.04s WALL (       7 calls)

     Called by c_bands:
     init_us_2    :      0.05s CPU      0.06s WALL (     420 calls)
     cegterg      :      0.78s CPU      1.13s WALL (     196 calls)

     Called by sum_band:
     sum_band:bec :      0.00s CPU      0.00s WALL (     196 calls)
     addusdens    :      0.15s CPU      0.18s WALL (       7 calls)

     Called by *egterg:
     h_psi        :      0.66s CPU      0.92s WALL (     654 calls)
     s_psi        :      0.05s CPU      0.06s WALL (     654 calls)
     g_psi        :      0.00s CPU      0.00s WALL (     430 calls)
     cdiaghg      :      0.04s CPU      0.06s WALL (     598 calls)

     Called by h_psi:
     h_psi:pot    :      0.65s CPU      0.92s WALL (     654 calls)
     h_psi:calbec :      0.07s CPU      0.11s WALL (     654 calls)
     vloc_psi     :      0.53s CPU      0.75s WALL (     654 calls)
     add_vuspsi   :      0.05s CPU      0.06s WALL (     654 calls)

     General routines
     calbec       :      0.10s CPU      0.14s WALL (     850 calls)
     fft          :      0.10s CPU      0.23s WALL (     112 calls)
     ffts         :      0.00s CPU      0.01s WALL (      14 calls)
     fftw         :      0.57s CPU      0.82s WALL (    5682 calls)
     interpolate  :      0.01s CPU      0.03s WALL (      14 calls)
     davcio       :      0.00s CPU      0.00s WALL (      28 calls)

     Parallel routines
     fft_scatter  :      0.34s CPU      0.67s WALL (    5808 calls)

     PWSCF        :     2.10s CPU         3.09s WALL


   This run was terminated on:  10:28:14  10Nov2017            

=------------------------------------------------------------------------------=
   JOB DONE.
=------------------------------------------------------------------------------=
