
     Program PHONON v.6.1 (svn rev. 13369) starts on  9Nov2017 at  1:11:20 

     This program is part of the open-source Quantum ESPRESSO suite
     for quantum simulation of materials; please cite
         "P. Giannozzi et al., J. Phys.:Condens. Matter 21 395502 (2009);
          URL http://www.quantum-espresso.org", 
     in publications or presentations arising from this work. More details at
     http://www.quantum-espresso.org/quote

     Parallel version (MPI), running on     4 processors
     R & G space division:  proc/nbgrp/npool/nimage =       4

     Reading data from directory:
     ./silicon.10.25.save

   Info: using nr1, nr2, nr3 values from input

   Info: using nr1, nr2, nr3 values from input

     IMPORTANT: XC functional enforced from input :
     Exchange-correlation      = SLA  PW   PBE  PBE ( 1  4  3  4 0 0)
     Any further DFT definition will be discarded
     Please, verify this is what you really want


     Parallelization info
     --------------------
     sticks:   dense  smooth     PW     G-vecs:    dense   smooth      PW
     Min          63      63     21                  682      682     133
     Max          64      64     22                  686      686     136
     Sum         253     253     85                 2733     2733     537


     Check: negative/imaginary core charge=   -0.000005    0.000000


     Dynamical matrices for ( 4, 4, 4)  uniform grid of q-points
     (   8q-points):
       N         xq(1)         xq(2)         xq(3) 
       1   0.000000000   0.000000000   0.000000000
       2  -0.250000000   0.250000000  -0.250000000
       3   0.500000000  -0.500000000   0.500000000
       4   0.000000000   0.500000000   0.000000000
       5   0.750000000  -0.250000000   0.750000000
       6   0.500000000   0.000000000   0.500000000
       7   0.000000000  -1.000000000   0.000000000
       8  -0.500000000  -1.000000000   0.000000000

     Calculation of q =    0.0000000   0.0000000   0.0000000

                                                                                

     bravais-lattice index     =            2
     lattice parameter (alat)  =      10.2500  a.u.
     unit-cell volume          =     269.2227 (a.u.)^3
     number of atoms/cell      =            2
     number of atomic types    =            1
     kinetic-energy cut-off    =      18.0000  Ry
     charge density cut-off    =      72.0000  Ry
     convergence threshold     =      1.0E-12
     beta                      =       0.7000
     number of iterations used =            4
     Exchange-correlation      = SLA  PW   PBE  PBE ( 1  4  3  4 0 0)


     celldm(1)=   10.25000  celldm(2)=    0.00000  celldm(3)=    0.00000
     celldm(4)=    0.00000  celldm(5)=    0.00000  celldm(6)=    0.00000

     crystal axes: (cart. coord. in units of alat)
               a(1) = ( -0.5000  0.0000  0.5000 )  
               a(2) = (  0.0000  0.5000  0.5000 )  
               a(3) = ( -0.5000  0.5000  0.0000 )  

     reciprocal axes: (cart. coord. in units 2 pi/alat)
               b(1) = ( -1.0000 -1.0000  1.0000 )  
               b(2) = (  1.0000  1.0000  1.0000 )  
               b(3) = ( -1.0000  1.0000 -1.0000 )  


     Atoms inside the unit cell: 

     Cartesian axes

     site n.  atom      mass           positions (alat units)
        1     Si  28.0860   tau(    1) = (    0.00000    0.00000    0.00000  )
        2     Si  28.0860   tau(    2) = (    0.25000    0.25000    0.25000  )

     Computing dynamical matrix for 
                    q = (   0.0000000   0.0000000   0.0000000 )

     49 Sym.Ops. (with q -> -q+G )


     G cutoff =  191.6110  (    683 G-vectors)     FFT grid: ( 20, 20, 20)
     number of k points=    10

     PseudoPot. # 1 for Si read from file:
     /home/max/quantum_espresso/qe-6.1/pseudo/si_pbe_v1.uspp.F.UPF.txt
     MD5 check sum: a056efeee980c13900f22a371efd63c1
     Pseudo is Ultrasoft + core correction, Zval =  4.0
     Generated by new atomic code, or converted to UPF format
     Using radial grid of  899 points,  6 beta functions with: 
                l(1) =   0
                l(2) =   0
                l(3) =   1
                l(4) =   1
                l(5) =   2
                l(6) =   2
     Q(r) pseudized with  8 coefficients,  rinner =    0.900   0.900   0.900
                                                       0.900   0.900

     Mode symmetry, O_h (m-3m)  point group:


     Electric field:
     Dielectric constant
     Born effective charges in two ways 


     Atomic displacements:
     There are   2 irreducible representations

     Representation     1      3 modes -T_2g G_25' G_5+  To be done

     Representation     2      3 modes -T_1u G_15  G_4-  To be done



     Alpha used in Ewald sum =   0.7000
     PHONON       :     0.40s CPU         0.40s WALL


     Electric Fields Calculation

      iter #   1 total cpu time :     0.8 secs   av.it.:   5.5
      thresh= 1.000E-02 alpha_mix =  0.700 |ddv_scf|^2 =  9.007E-07

      iter #   2 total cpu time :     0.9 secs   av.it.:   9.9
      thresh= 9.491E-05 alpha_mix =  0.700 |ddv_scf|^2 =  5.385E-08

      iter #   3 total cpu time :     1.1 secs   av.it.:   9.8
      thresh= 2.321E-05 alpha_mix =  0.700 |ddv_scf|^2 =  4.015E-09

      iter #   4 total cpu time :     1.3 secs   av.it.:   9.0
      thresh= 6.337E-06 alpha_mix =  0.700 |ddv_scf|^2 =  2.292E-11

      iter #   5 total cpu time :     1.4 secs   av.it.:   9.1
      thresh= 4.788E-07 alpha_mix =  0.700 |ddv_scf|^2 =  1.178E-14

     End of electric fields calculation

          Dielectric constant in cartesian axis 

          (      13.729154811      -0.000000000      -0.000000000 )
          (       0.000000000      13.729154811       0.000000000 )
          (      -0.000000000       0.000000000      13.729154811 )

          Effective charges (d Force / dE) in cartesian axis

           atom      1   Si 
      Ex  (       -0.03666        0.00000        0.00000 )
      Ey  (        0.00000       -0.03666       -0.00000 )
      Ez  (        0.00000       -0.00000       -0.03666 )
           atom      2   Si 
      Ex  (       -0.03666        0.00000       -0.00000 )
      Ey  (        0.00000       -0.03666        0.00000 )
      Ez  (        0.00000       -0.00000       -0.03666 )


     Representation #  1 modes #   1  2  3

     Self-consistent Calculation

      iter #   1 total cpu time :     1.8 secs   av.it.:   5.0
      thresh= 1.000E-02 alpha_mix =  0.700 |ddv_scf|^2 =  2.126E-07

      iter #   2 total cpu time :     2.0 secs   av.it.:   9.8
      thresh= 4.611E-05 alpha_mix =  0.700 |ddv_scf|^2 =  1.273E-08

      iter #   3 total cpu time :     2.2 secs   av.it.:   9.3
      thresh= 1.128E-05 alpha_mix =  0.700 |ddv_scf|^2 =  8.091E-10

      iter #   4 total cpu time :     2.4 secs   av.it.:   9.0
      thresh= 2.844E-06 alpha_mix =  0.700 |ddv_scf|^2 =  1.777E-12

      iter #   5 total cpu time :     2.5 secs   av.it.:   9.4
      thresh= 1.333E-07 alpha_mix =  0.700 |ddv_scf|^2 =  1.173E-14

     End of self-consistent calculation

     Convergence has been achieved 


     Representation #  2 modes #   4  5  6

     Self-consistent Calculation

      iter #   1 total cpu time :     2.8 secs   av.it.:   5.0
      thresh= 1.000E-02 alpha_mix =  0.700 |ddv_scf|^2 =  1.761E-07

      iter #   2 total cpu time :     2.9 secs   av.it.:   9.6
      thresh= 4.196E-05 alpha_mix =  0.700 |ddv_scf|^2 =  1.383E-08

      iter #   3 total cpu time :     3.1 secs   av.it.:   9.2
      thresh= 1.176E-05 alpha_mix =  0.700 |ddv_scf|^2 =  8.522E-10

      iter #   4 total cpu time :     3.3 secs   av.it.:   9.5
      thresh= 2.919E-06 alpha_mix =  0.700 |ddv_scf|^2 =  4.932E-12

      iter #   5 total cpu time :     3.4 secs   av.it.:   8.9
      thresh= 2.221E-07 alpha_mix =  0.700 |ddv_scf|^2 =  3.657E-15

     End of self-consistent calculation

     Convergence has been achieved 

     Number of q in the star =    1
     List of q in the star:
          1   0.000000000   0.000000000   0.000000000

          Dielectric constant in cartesian axis 

          (      13.729154811      -0.000000000      -0.000000000 )
          (       0.000000000      13.729154811       0.000000000 )
          (      -0.000000000       0.000000000      13.729154811 )

          Effective charges (d Force / dE) in cartesian axis

           atom      1   Si 
      Ex  (       -0.03666        0.00000        0.00000 )
      Ey  (        0.00000       -0.03666       -0.00000 )
      Ez  (        0.00000       -0.00000       -0.03666 )
           atom      2   Si 
      Ex  (       -0.03666        0.00000       -0.00000 )
      Ey  (        0.00000       -0.03666        0.00000 )
      Ez  (        0.00000       -0.00000       -0.03666 )

          Effective charges (d P / du) in cartesian axis 

           atom      1   Si 
      Px  (       -0.07467       -0.00000       -0.00000 )
      Py  (       -0.00000       -0.07467        0.00000 )
      Pz  (        0.00000       -0.00000       -0.07467 )
           atom      2   Si 
      Px  (       -0.07467       -0.00000        0.00000 )
      Py  (        0.00000       -0.07467       -0.00000 )
      Pz  (       -0.00000       -0.00000       -0.07467 )

     Diagonalizing the dynamical matrix

     q = (    0.000000000   0.000000000   0.000000000 ) 

 **************************************************************************
     freq (    1) =       1.737455 [THz] =      57.955275 [cm-1]
     freq (    2) =       1.737455 [THz] =      57.955275 [cm-1]
     freq (    3) =       1.737455 [THz] =      57.955275 [cm-1]
     freq (    4) =      15.493102 [THz] =     516.794247 [cm-1]
     freq (    5) =      15.493102 [THz] =     516.794247 [cm-1]
     freq (    6) =      15.493102 [THz] =     516.794247 [cm-1]
 **************************************************************************

     Mode symmetry, O_h (m-3m)  point group:

     freq (  1 -  3) =         58.0  [cm-1]   --> T_1u G_15  G_4- I  
     freq (  4 -  6) =        516.8  [cm-1]   --> T_2g G_25' G_5+ R  

     Calculation of q =   -0.2500000   0.2500000  -0.2500000

   Info: using nr1, nr2, nr3 values from input

   Info: using nr1, nr2, nr3 values from input

     Parallelization info
     --------------------
     sticks:   dense  smooth     PW     G-vecs:    dense   smooth      PW
     Min          63      63     24                  682      682     161
     Max          64      64     25                  686      686     162
     Sum         253     253     97                 2733     2733     645



     bravais-lattice index     =            2
     lattice parameter (alat)  =      10.2500  a.u.
     unit-cell volume          =     269.2227 (a.u.)^3
     number of atoms/cell      =            2
     number of atomic types    =            1
     number of electrons       =         8.00
     number of Kohn-Sham states=            4
     kinetic-energy cutoff     =      18.0000  Ry
     charge density cutoff     =      72.0000  Ry
     Exchange-correlation      = SLA  PW   PBE  PBE ( 1  4  3  4 0 0)

     celldm(1)=  10.250000  celldm(2)=   0.000000  celldm(3)=   0.000000
     celldm(4)=   0.000000  celldm(5)=   0.000000  celldm(6)=   0.000000

     crystal axes: (cart. coord. in units of alat)
               a(1) = (  -0.500000   0.000000   0.500000 )  
               a(2) = (   0.000000   0.500000   0.500000 )  
               a(3) = (  -0.500000   0.500000   0.000000 )  

     reciprocal axes: (cart. coord. in units 2 pi/alat)
               b(1) = ( -1.000000 -1.000000  1.000000 )  
               b(2) = (  1.000000  1.000000  1.000000 )  
               b(3) = ( -1.000000  1.000000 -1.000000 )  


     PseudoPot. # 1 for Si read from file:
     /home/max/quantum_espresso/qe-6.1/pseudo/si_pbe_v1.uspp.F.UPF.txt
     MD5 check sum: a056efeee980c13900f22a371efd63c1
     Pseudo is Ultrasoft + core correction, Zval =  4.0
     Generated by new atomic code, or converted to UPF format
     Using radial grid of  899 points,  6 beta functions with: 
                l(1) =   0
                l(2) =   0
                l(3) =   1
                l(4) =   1
                l(5) =   2
                l(6) =   2
     Q(r) pseudized with  8 coefficients,  rinner =    0.900   0.900   0.900
                                                       0.900   0.900

     atomic species   valence    mass     pseudopotential
        Si             4.00    28.08600     Si( 1.00)

     48 Sym. Ops., with inversion, found



   Cartesian axes

     site n.     atom                  positions (alat units)
         1           Si  tau(   1) = (   0.0000000   0.0000000   0.0000000  )
         2           Si  tau(   2) = (   0.2500000   0.2500000   0.2500000  )

     number of k points=   120

     Number of k-points >= 100: set verbosity='high' to print them.

     Dense  grid:     2733 G-vectors     FFT dimensions: (  20,  20,  20)

     Estimated max dynamical RAM per process >       0.32MB

     Estimated total allocated dynamical RAM >       1.29MB

     Check: negative/imaginary core charge=   -0.000005    0.000000

     The potential is recalculated from file :
     ./_ph0/silicon.10.25.save/charge-density.dat

     Starting wfc are    8 atomic wfcs

     Band Structure Calculation
     Davidson diagonalization with overlap

     ethr =  1.25E-10,  avg # of iterations = 11.6

     total cpu time spent up to now is        0.8 secs

     End of band structure calculation

     Number of k-points >= 100: set verbosity='high' to print the bands.

     highest occupied level (ev):     5.9444

     Writing output data file silicon.10.25.save

                                                                                

     bravais-lattice index     =            2
     lattice parameter (alat)  =      10.2500  a.u.
     unit-cell volume          =     269.2227 (a.u.)^3
     number of atoms/cell      =            2
     number of atomic types    =            1
     kinetic-energy cut-off    =      18.0000  Ry
     charge density cut-off    =      72.0000  Ry
     convergence threshold     =      1.0E-12
     beta                      =       0.7000
     number of iterations used =            4
     Exchange-correlation      = SLA  PW   PBE  PBE ( 1  4  3  4 0 0)


     celldm(1)=   10.25000  celldm(2)=    0.00000  celldm(3)=    0.00000
     celldm(4)=    0.00000  celldm(5)=    0.00000  celldm(6)=    0.00000

     crystal axes: (cart. coord. in units of alat)
               a(1) = ( -0.5000  0.0000  0.5000 )  
               a(2) = (  0.0000  0.5000  0.5000 )  
               a(3) = ( -0.5000  0.5000  0.0000 )  

     reciprocal axes: (cart. coord. in units 2 pi/alat)
               b(1) = ( -1.0000 -1.0000  1.0000 )  
               b(2) = (  1.0000  1.0000  1.0000 )  
               b(3) = ( -1.0000  1.0000 -1.0000 )  


     Atoms inside the unit cell: 

     Cartesian axes

     site n.  atom      mass           positions (alat units)
        1     Si  28.0860   tau(    1) = (    0.00000    0.00000    0.00000  )
        2     Si  28.0860   tau(    2) = (    0.25000    0.25000    0.25000  )

     Computing dynamical matrix for 
                    q = (  -0.2500000   0.2500000  -0.2500000 )

      6 Sym.Ops. (no q -> -q+G )


     G cutoff =  191.6110  (    683 G-vectors)     FFT grid: ( 20, 20, 20)
     number of k points=   120

     PseudoPot. # 1 for Si read from file:
     /home/max/quantum_espresso/qe-6.1/pseudo/si_pbe_v1.uspp.F.UPF.txt
     MD5 check sum: a056efeee980c13900f22a371efd63c1
     Pseudo is Ultrasoft + core correction, Zval =  4.0
     Generated by new atomic code, or converted to UPF format
     Using radial grid of  899 points,  6 beta functions with: 
                l(1) =   0
                l(2) =   0
                l(3) =   1
                l(4) =   1
                l(5) =   2
                l(6) =   2
     Q(r) pseudized with  8 coefficients,  rinner =    0.900   0.900   0.900
                                                       0.900   0.900

     Mode symmetry, C_3v (3m)   point group:


     Atomic displacements:
     There are   4 irreducible representations

     Representation     1      1 modes -A_1  L_1  To be done

     Representation     2      1 modes -A_1  L_1  To be done

     Representation     3      2 modes -E    L_3  To be done

     Representation     4      2 modes -E    L_3  To be done



     Alpha used in Ewald sum =   0.7000
     PHONON       :     4.52s CPU         4.68s WALL



     Representation #  1 mode #   1

     Self-consistent Calculation

      iter #   1 total cpu time :     4.9 secs   av.it.:   5.5
      thresh= 1.000E-02 alpha_mix =  0.700 |ddv_scf|^2 =  2.533E-03

      iter #   2 total cpu time :     5.1 secs   av.it.:   7.4
      thresh= 5.033E-03 alpha_mix =  0.700 |ddv_scf|^2 =  3.793E-02

      iter #   3 total cpu time :     5.3 secs   av.it.:   6.3
      thresh= 1.000E-02 alpha_mix =  0.700 |ddv_scf|^2 =  1.695E-06

      iter #   4 total cpu time :     5.6 secs   av.it.:   8.2
      thresh= 1.302E-04 alpha_mix =  0.700 |ddv_scf|^2 =  1.092E-07

      iter #   5 total cpu time :     5.9 secs   av.it.:   8.1
      thresh= 3.304E-05 alpha_mix =  0.700 |ddv_scf|^2 =  4.832E-09

      iter #   6 total cpu time :     6.1 secs   av.it.:   7.8
      thresh= 6.951E-06 alpha_mix =  0.700 |ddv_scf|^2 =  1.204E-08

      iter #   7 total cpu time :     6.3 secs   av.it.:   5.8
      thresh= 1.097E-05 alpha_mix =  0.700 |ddv_scf|^2 =  1.550E-10

      iter #   8 total cpu time :     6.6 secs   av.it.:   7.7
      thresh= 1.245E-06 alpha_mix =  0.700 |ddv_scf|^2 =  4.390E-12

      iter #   9 total cpu time :     6.8 secs   av.it.:   7.0
      thresh= 2.095E-07 alpha_mix =  0.700 |ddv_scf|^2 =  1.751E-13

     End of self-consistent calculation

     Convergence has been achieved 


     Representation #  2 mode #   2

     Self-consistent Calculation

      iter #   1 total cpu time :     7.0 secs   av.it.:   5.5
      thresh= 1.000E-02 alpha_mix =  0.700 |ddv_scf|^2 =  2.533E-03

      iter #   2 total cpu time :     7.3 secs   av.it.:   7.4
      thresh= 5.033E-03 alpha_mix =  0.700 |ddv_scf|^2 =  3.793E-02

      iter #   3 total cpu time :     7.5 secs   av.it.:   6.3
      thresh= 1.000E-02 alpha_mix =  0.700 |ddv_scf|^2 =  1.695E-06

      iter #   4 total cpu time :     7.7 secs   av.it.:   8.2
      thresh= 1.302E-04 alpha_mix =  0.700 |ddv_scf|^2 =  1.092E-07

      iter #   5 total cpu time :     8.0 secs   av.it.:   8.1
      thresh= 3.304E-05 alpha_mix =  0.700 |ddv_scf|^2 =  4.832E-09

      iter #   6 total cpu time :     8.2 secs   av.it.:   7.8
      thresh= 6.951E-06 alpha_mix =  0.700 |ddv_scf|^2 =  1.204E-08

      iter #   7 total cpu time :     8.4 secs   av.it.:   5.8
      thresh= 1.097E-05 alpha_mix =  0.700 |ddv_scf|^2 =  1.550E-10

      iter #   8 total cpu time :     8.7 secs   av.it.:   7.7
      thresh= 1.245E-06 alpha_mix =  0.700 |ddv_scf|^2 =  4.390E-12

      iter #   9 total cpu time :     8.9 secs   av.it.:   7.0
      thresh= 2.095E-07 alpha_mix =  0.700 |ddv_scf|^2 =  1.751E-13

     End of self-consistent calculation

     Convergence has been achieved 


     Representation #  3 modes #   3  4

     Self-consistent Calculation

      iter #   1 total cpu time :     9.3 secs   av.it.:   5.0
      thresh= 1.000E-02 alpha_mix =  0.700 |ddv_scf|^2 =  5.497E-07

      iter #   2 total cpu time :     9.9 secs   av.it.:   9.4
      thresh= 7.414E-05 alpha_mix =  0.700 |ddv_scf|^2 =  4.042E-08

      iter #   3 total cpu time :    10.4 secs   av.it.:   9.2
      thresh= 2.010E-05 alpha_mix =  0.700 |ddv_scf|^2 =  3.430E-09

      iter #   4 total cpu time :    11.0 secs   av.it.:   8.9
      thresh= 5.856E-06 alpha_mix =  0.700 |ddv_scf|^2 =  1.046E-11

      iter #   5 total cpu time :    11.5 secs   av.it.:   9.1
      thresh= 3.234E-07 alpha_mix =  0.700 |ddv_scf|^2 =  4.806E-13

     End of self-consistent calculation

     Convergence has been achieved 


     Representation #  4 modes #   5  6

     Self-consistent Calculation

      iter #   1 total cpu time :    12.0 secs   av.it.:   5.0
      thresh= 1.000E-02 alpha_mix =  0.700 |ddv_scf|^2 =  5.495E-07

      iter #   2 total cpu time :    12.5 secs   av.it.:   9.6
      thresh= 7.413E-05 alpha_mix =  0.700 |ddv_scf|^2 =  4.037E-08

      iter #   3 total cpu time :    13.1 secs   av.it.:   9.4
      thresh= 2.009E-05 alpha_mix =  0.700 |ddv_scf|^2 =  3.426E-09

      iter #   4 total cpu time :    13.6 secs   av.it.:   9.1
      thresh= 5.853E-06 alpha_mix =  0.700 |ddv_scf|^2 =  1.046E-11

      iter #   5 total cpu time :    14.2 secs   av.it.:   9.2
      thresh= 3.234E-07 alpha_mix =  0.700 |ddv_scf|^2 =  4.807E-13

     End of self-consistent calculation

     Convergence has been achieved 

     Number of q in the star =    8
     List of q in the star:
          1  -0.250000000   0.250000000  -0.250000000
          2   0.250000000  -0.250000000  -0.250000000
          3   0.250000000  -0.250000000   0.250000000
          4   0.250000000   0.250000000   0.250000000
          5  -0.250000000  -0.250000000  -0.250000000
          6  -0.250000000  -0.250000000   0.250000000
          7  -0.250000000   0.250000000   0.250000000
          8   0.250000000   0.250000000  -0.250000000

     Diagonalizing the dynamical matrix

     q = (   -0.250000000   0.250000000  -0.250000000 ) 

 **************************************************************************
     freq (    1) =       3.265231 [THz] =     108.916367 [cm-1]
     freq (    2) =       3.265231 [THz] =     108.916367 [cm-1]
     freq (    3) =       7.080216 [THz] =     236.170593 [cm-1]
     freq (    4) =      14.552080 [THz] =     485.405156 [cm-1]
     freq (    5) =      14.913622 [THz] =     497.464885 [cm-1]
     freq (    6) =      14.913622 [THz] =     497.464885 [cm-1]
 **************************************************************************

     Mode symmetry, C_3v (3m)   point group:

     freq (  1 -  2) =        108.9  [cm-1]   --> E    L_3           
     freq (  3 -  3) =        236.2  [cm-1]   --> A_1  L_1           
     freq (  4 -  4) =        485.4  [cm-1]   --> A_1  L_1           
     freq (  5 -  6) =        497.5  [cm-1]   --> E    L_3           

     Calculation of q =    0.5000000  -0.5000000   0.5000000

   Info: using nr1, nr2, nr3 values from input

   Info: using nr1, nr2, nr3 values from input

     Parallelization info
     --------------------
     sticks:   dense  smooth     PW     G-vecs:    dense   smooth      PW
     Min          63      63     27                  682      682     186
     Max          64      64     28                  686      686     189
     Sum         253     253    109                 2733     2733     749



     bravais-lattice index     =            2
     lattice parameter (alat)  =      10.2500  a.u.
     unit-cell volume          =     269.2227 (a.u.)^3
     number of atoms/cell      =            2
     number of atomic types    =            1
     number of electrons       =         8.00
     number of Kohn-Sham states=            4
     kinetic-energy cutoff     =      18.0000  Ry
     charge density cutoff     =      72.0000  Ry
     Exchange-correlation      = SLA  PW   PBE  PBE ( 1  4  3  4 0 0)

     celldm(1)=  10.250000  celldm(2)=   0.000000  celldm(3)=   0.000000
     celldm(4)=   0.000000  celldm(5)=   0.000000  celldm(6)=   0.000000

     crystal axes: (cart. coord. in units of alat)
               a(1) = (  -0.500000   0.000000   0.500000 )  
               a(2) = (   0.000000   0.500000   0.500000 )  
               a(3) = (  -0.500000   0.500000   0.000000 )  

     reciprocal axes: (cart. coord. in units 2 pi/alat)
               b(1) = ( -1.000000 -1.000000  1.000000 )  
               b(2) = (  1.000000  1.000000  1.000000 )  
               b(3) = ( -1.000000  1.000000 -1.000000 )  


     PseudoPot. # 1 for Si read from file:
     /home/max/quantum_espresso/qe-6.1/pseudo/si_pbe_v1.uspp.F.UPF.txt
     MD5 check sum: a056efeee980c13900f22a371efd63c1
     Pseudo is Ultrasoft + core correction, Zval =  4.0
     Generated by new atomic code, or converted to UPF format
     Using radial grid of  899 points,  6 beta functions with: 
                l(1) =   0
                l(2) =   0
                l(3) =   1
                l(4) =   1
                l(5) =   2
                l(6) =   2
     Q(r) pseudized with  8 coefficients,  rinner =    0.900   0.900   0.900
                                                       0.900   0.900

     atomic species   valence    mass     pseudopotential
        Si             4.00    28.08600     Si( 1.00)

     48 Sym. Ops., with inversion, found



   Cartesian axes

     site n.     atom                  positions (alat units)
         1           Si  tau(   1) = (   0.0000000   0.0000000   0.0000000  )
         2           Si  tau(   2) = (   0.2500000   0.2500000   0.2500000  )

     number of k points=    60
                       cart. coord. in units 2pi/alat
        k(    1) = (  -0.1250000   0.1250000   0.1250000), wk =   0.0468750
        k(    2) = (   0.3750000  -0.3750000   0.6250000), wk =   0.0000000
        k(    3) = (  -0.3750000   0.3750000  -0.1250000), wk =   0.0468750
        k(    4) = (   0.1250000  -0.1250000   0.3750000), wk =   0.0000000
        k(    5) = (   0.3750000  -0.3750000   0.6250000), wk =   0.0468750
        k(    6) = (   0.8750000  -0.8750000   1.1250000), wk =   0.0000000
        k(    7) = (   0.1250000  -0.1250000   0.3750000), wk =   0.0468750
        k(    8) = (   0.6250000  -0.6250000   0.8750000), wk =   0.0000000
        k(    9) = (  -0.1250000   0.6250000   0.1250000), wk =   0.0937500
        k(   10) = (   0.3750000   0.1250000   0.6250000), wk =   0.0000000
        k(   11) = (   0.6250000  -0.1250000   0.8750000), wk =   0.0937500
        k(   12) = (   1.1250000  -0.6250000   1.3750000), wk =   0.0000000
        k(   13) = (   0.3750000   0.1250000   0.6250000), wk =   0.0937500
        k(   14) = (   0.8750000  -0.3750000   1.1250000), wk =   0.0000000
        k(   15) = (  -0.1250000  -0.8750000   0.1250000), wk =   0.0937500
        k(   16) = (   0.3750000  -1.3750000   0.6250000), wk =   0.0000000
        k(   17) = (  -0.3750000   0.3750000   0.3750000), wk =   0.0468750
        k(   18) = (   0.1250000  -0.1250000   0.8750000), wk =   0.0000000
        k(   19) = (   0.3750000  -0.3750000   1.1250000), wk =   0.0468750
        k(   20) = (   0.8750000  -0.8750000   1.6250000), wk =   0.0000000
        k(   21) = (   0.1250000  -0.1250000   0.1250000), wk =   0.0156250
        k(   22) = (   0.6250000  -0.6250000   0.6250000), wk =   0.0000000
        k(   23) = (  -0.3750000  -0.3750000  -0.1250000), wk =   0.0937500
        k(   24) = (   0.1250000  -0.8750000   0.3750000), wk =   0.0000000
        k(   25) = (  -0.1250000  -0.3750000   0.3750000), wk =   0.0468750
        k(   26) = (   0.3750000  -0.8750000   0.8750000), wk =   0.0000000
        k(   27) = (   0.3750000   0.3750000   0.6250000), wk =   0.0937500
        k(   28) = (   0.8750000  -0.1250000   1.1250000), wk =   0.0000000
        k(   29) = (   0.6250000   0.3750000  -0.3750000), wk =   0.0468750
        k(   30) = (   1.1250000  -0.1250000   0.1250000), wk =   0.0000000
        k(   31) = (   0.1250000   0.1250000   0.3750000), wk =   0.0937500
        k(   32) = (   0.6250000  -0.3750000   0.8750000), wk =   0.0000000
        k(   33) = (   0.3750000   0.1250000  -0.1250000), wk =   0.0468750
        k(   34) = (   0.8750000  -0.3750000   0.3750000), wk =   0.0000000
        k(   35) = (  -0.1250000  -0.6250000  -0.1250000), wk =   0.0468750
        k(   36) = (   0.3750000  -1.1250000   0.3750000), wk =   0.0000000
        k(   37) = (   0.1250000  -0.6250000   0.1250000), wk =   0.0468750
        k(   38) = (   0.6250000  -1.1250000   0.6250000), wk =   0.0000000
        k(   39) = (   0.6250000   0.1250000   0.8750000), wk =   0.0937500
        k(   40) = (   1.1250000  -0.3750000   1.3750000), wk =   0.0000000
        k(   41) = (  -0.8750000   0.1250000   0.6250000), wk =   0.0937500
        k(   42) = (  -0.3750000  -0.3750000   1.1250000), wk =   0.0000000
        k(   43) = (   0.8750000   0.1250000  -0.6250000), wk =   0.0937500
        k(   44) = (   1.3750000  -0.3750000  -0.1250000), wk =   0.0000000
        k(   45) = (   0.3750000  -0.1250000   0.6250000), wk =   0.0937500
        k(   46) = (   0.8750000  -0.6250000   1.1250000), wk =   0.0000000
        k(   47) = (  -0.6250000  -0.1250000   0.3750000), wk =   0.0937500
        k(   48) = (  -0.1250000  -0.6250000   0.8750000), wk =   0.0000000
        k(   49) = (   0.6250000  -0.1250000  -0.3750000), wk =   0.0937500
        k(   50) = (   1.1250000  -0.6250000   0.1250000), wk =   0.0000000
        k(   51) = (  -0.1250000   0.8750000  -0.1250000), wk =   0.0468750
        k(   52) = (   0.3750000   0.3750000   0.3750000), wk =   0.0000000
        k(   53) = (   0.1250000   0.8750000   0.1250000), wk =   0.0468750
        k(   54) = (   0.6250000   0.3750000   0.6250000), wk =   0.0000000
        k(   55) = (   0.3750000  -0.3750000   0.3750000), wk =   0.0156250
        k(   56) = (   0.8750000  -0.8750000   0.8750000), wk =   0.0000000
        k(   57) = (   0.3750000   0.3750000   1.1250000), wk =   0.0937500
        k(   58) = (   0.8750000  -0.1250000   1.6250000), wk =   0.0000000
        k(   59) = (   1.1250000   0.3750000  -0.3750000), wk =   0.0468750
        k(   60) = (   1.6250000  -0.1250000   0.1250000), wk =   0.0000000

     Dense  grid:     2733 G-vectors     FFT dimensions: (  20,  20,  20)

     Estimated max dynamical RAM per process >       0.32MB

     Estimated total allocated dynamical RAM >       1.29MB

     Check: negative/imaginary core charge=   -0.000005    0.000000

     The potential is recalculated from file :
     ./_ph0/silicon.10.25.save/charge-density.dat

     Starting wfc are    8 atomic wfcs

     Band Structure Calculation
     Davidson diagonalization with overlap

     ethr =  1.25E-10,  avg # of iterations = 11.6

     total cpu time spent up to now is        1.3 secs

     End of band structure calculation

          k =-0.1250 0.1250 0.1250 (   335 PWs)   bands (ev):

    -5.5418   4.6356   5.9444   5.9444

          k = 0.3750-0.3750 0.6250 (   348 PWs)   bands (ev):

    -3.3254  -0.5224   3.9527   4.6673

          k =-0.3750 0.3750-0.1250 (   345 PWs)   bands (ev):

    -4.4944   1.6026   3.9217   5.4567

          k = 0.1250-0.1250 0.3750 (   343 PWs)   bands (ev):

    -5.0038   3.0066   4.9121   4.9907

          k = 0.3750-0.3750 0.6250 (   348 PWs)   bands (ev):

    -3.3254  -0.5224   3.9527   4.6673

          k = 0.8750-0.8750 1.1250 (   335 PWs)   bands (ev):

    -5.5418   4.6356   5.9444   5.9444

          k = 0.1250-0.1250 0.3750 (   343 PWs)   bands (ev):

    -5.0038   3.0066   4.9121   4.9907

          k = 0.6250-0.6250 0.8750 (   345 PWs)   bands (ev):

    -4.4944   1.6026   3.9217   5.4567

          k =-0.1250 0.6250 0.1250 (   340 PWs)   bands (ev):

    -3.9513   1.2866   3.5608   4.0206

          k = 0.3750 0.1250 0.6250 (   348 PWs)   bands (ev):

    -3.5254   0.3847   2.9109   4.3012

          k = 0.6250-0.1250 0.8750 (   352 PWs)   bands (ev):

    -2.2731  -0.7096   2.1711   3.2705

          k = 1.1250-0.6250 1.3750 (   345 PWs)   bands (ev):

    -4.4944   1.6026   3.9217   5.4567

          k = 0.3750 0.1250 0.6250 (   348 PWs)   bands (ev):

    -3.5254   0.3847   2.9109   4.3012

          k = 0.8750-0.3750 1.1250 (   340 PWs)   bands (ev):

    -3.9513   1.2866   3.5608   4.0206

          k =-0.1250-0.8750 0.1250 (   348 PWs)   bands (ev):

    -2.4492  -0.6069   2.7944   3.5447

          k = 0.3750-1.3750 0.6250 (   348 PWs)   bands (ev):

    -3.3254  -0.5224   3.9527   4.6673

          k =-0.3750 0.3750 0.3750 (   353 PWs)   bands (ev):

    -4.0514   0.2795   5.1432   5.1432

          k = 0.1250-0.1250 0.8750 (   348 PWs)   bands (ev):

    -2.4492  -0.6069   2.7944   3.5447

          k = 0.3750-0.3750 1.1250 (   355 PWs)   bands (ev):

    -2.8202  -0.4169   2.2388   4.3424

          k = 0.8750-0.8750 1.6250 (   340 PWs)   bands (ev):

    -3.9513   1.2866   3.5608   4.0206

          k = 0.1250-0.1250 0.1250 (   335 PWs)   bands (ev):

    -5.5418   4.6356   5.9444   5.9444

          k = 0.6250-0.6250 0.6250 (   353 PWs)   bands (ev):

    -4.0514   0.2795   5.1432   5.1432

          k =-0.3750-0.3750-0.1250 (   345 PWs)   bands (ev):

    -4.4944   1.6026   3.9217   5.4567

          k = 0.1250-0.8750 0.3750 (   352 PWs)   bands (ev):

    -2.2731  -0.7096   2.1711   3.2705

          k =-0.1250-0.3750 0.3750 (   345 PWs)   bands (ev):

    -4.4944   1.6026   3.9217   5.4567

          k = 0.3750-0.8750 0.8750 (   340 PWs)   bands (ev):

    -3.9513   1.2866   3.5608   4.0206

          k = 0.3750 0.3750 0.6250 (   348 PWs)   bands (ev):

    -3.3254  -0.5224   3.9527   4.6673

          k = 0.8750-0.1250 1.1250 (   348 PWs)   bands (ev):

    -2.4492  -0.6069   2.7944   3.5447

          k = 0.6250 0.3750-0.3750 (   348 PWs)   bands (ev):

    -3.3254  -0.5224   3.9527   4.6673

          k = 1.1250-0.1250 0.1250 (   348 PWs)   bands (ev):

    -2.4492  -0.6069   2.7944   3.5447

          k = 0.1250 0.1250 0.3750 (   343 PWs)   bands (ev):

    -5.0038   3.0066   4.9121   4.9907

          k = 0.6250-0.3750 0.8750 (   348 PWs)   bands (ev):

    -3.5254   0.3847   2.9109   4.3012

          k = 0.3750 0.1250-0.1250 (   343 PWs)   bands (ev):

    -5.0038   3.0066   4.9121   4.9907

          k = 0.8750-0.3750 0.3750 (   355 PWs)   bands (ev):

    -2.8202  -0.4169   2.2388   4.3424

          k =-0.1250-0.6250-0.1250 (   340 PWs)   bands (ev):

    -3.9513   1.2866   3.5608   4.0206

          k = 0.3750-1.1250 0.3750 (   355 PWs)   bands (ev):

    -2.8202  -0.4169   2.2388   4.3424

          k = 0.1250-0.6250 0.1250 (   340 PWs)   bands (ev):

    -3.9513   1.2866   3.5608   4.0206

          k = 0.6250-1.1250 0.6250 (   345 PWs)   bands (ev):

    -4.4944   1.6026   3.9217   5.4567

          k = 0.6250 0.1250 0.8750 (   352 PWs)   bands (ev):

    -2.2731  -0.7096   2.1711   3.2705

          k = 1.1250-0.3750 1.3750 (   348 PWs)   bands (ev):

    -3.5254   0.3847   2.9109   4.3012

          k =-0.8750 0.1250 0.6250 (   352 PWs)   bands (ev):

    -2.2731  -0.7096   2.1711   3.2705

          k =-0.3750-0.3750 1.1250 (   355 PWs)   bands (ev):

    -2.8202  -0.4169   2.2388   4.3424

          k = 0.8750 0.1250-0.6250 (   352 PWs)   bands (ev):

    -2.2731  -0.7096   2.1711   3.2705

          k = 1.3750-0.3750-0.1250 (   348 PWs)   bands (ev):

    -3.5254   0.3847   2.9109   4.3012

          k = 0.3750-0.1250 0.6250 (   348 PWs)   bands (ev):

    -3.5254   0.3847   2.9109   4.3012

          k = 0.8750-0.6250 1.1250 (   343 PWs)   bands (ev):

    -5.0038   3.0066   4.9121   4.9907

          k =-0.6250-0.1250 0.3750 (   348 PWs)   bands (ev):

    -3.5254   0.3847   2.9109   4.3012

          k =-0.1250-0.6250 0.8750 (   352 PWs)   bands (ev):

    -2.2731  -0.7096   2.1711   3.2705

          k = 0.6250-0.1250-0.3750 (   348 PWs)   bands (ev):

    -3.5254   0.3847   2.9109   4.3012

          k = 1.1250-0.6250 0.1250 (   352 PWs)   bands (ev):

    -2.2731  -0.7096   2.1711   3.2705

          k =-0.1250 0.8750-0.1250 (   348 PWs)   bands (ev):

    -2.4492  -0.6069   2.7944   3.5447

          k = 0.3750 0.3750 0.3750 (   353 PWs)   bands (ev):

    -4.0514   0.2795   5.1432   5.1432

          k = 0.1250 0.8750 0.1250 (   348 PWs)   bands (ev):

    -2.4492  -0.6069   2.7944   3.5447

          k = 0.6250 0.3750 0.6250 (   348 PWs)   bands (ev):

    -3.3254  -0.5224   3.9527   4.6673

          k = 0.3750-0.3750 0.3750 (   353 PWs)   bands (ev):

    -4.0514   0.2795   5.1432   5.1432

          k = 0.8750-0.8750 0.8750 (   335 PWs)   bands (ev):

    -5.5418   4.6356   5.9444   5.9444

          k = 0.3750 0.3750 1.1250 (   355 PWs)   bands (ev):

    -2.8202  -0.4169   2.2388   4.3424

          k = 0.8750-0.1250 1.6250 (   352 PWs)   bands (ev):

    -2.2731  -0.7096   2.1711   3.2705

          k = 1.1250 0.3750-0.3750 (   355 PWs)   bands (ev):

    -2.8202  -0.4169   2.2388   4.3424

          k = 1.6250-0.1250 0.1250 (   343 PWs)   bands (ev):

    -5.0038   3.0066   4.9121   4.9907

     highest occupied level (ev):     5.9444

     Writing output data file silicon.10.25.save

                                                                                

     bravais-lattice index     =            2
     lattice parameter (alat)  =      10.2500  a.u.
     unit-cell volume          =     269.2227 (a.u.)^3
     number of atoms/cell      =            2
     number of atomic types    =            1
     kinetic-energy cut-off    =      18.0000  Ry
     charge density cut-off    =      72.0000  Ry
     convergence threshold     =      1.0E-12
     beta                      =       0.7000
     number of iterations used =            4
     Exchange-correlation      = SLA  PW   PBE  PBE ( 1  4  3  4 0 0)


     celldm(1)=   10.25000  celldm(2)=    0.00000  celldm(3)=    0.00000
     celldm(4)=    0.00000  celldm(5)=    0.00000  celldm(6)=    0.00000

     crystal axes: (cart. coord. in units of alat)
               a(1) = ( -0.5000  0.0000  0.5000 )  
               a(2) = (  0.0000  0.5000  0.5000 )  
               a(3) = ( -0.5000  0.5000  0.0000 )  

     reciprocal axes: (cart. coord. in units 2 pi/alat)
               b(1) = ( -1.0000 -1.0000  1.0000 )  
               b(2) = (  1.0000  1.0000  1.0000 )  
               b(3) = ( -1.0000  1.0000 -1.0000 )  


     Atoms inside the unit cell: 

     Cartesian axes

     site n.  atom      mass           positions (alat units)
        1     Si  28.0860   tau(    1) = (    0.00000    0.00000    0.00000  )
        2     Si  28.0860   tau(    2) = (    0.25000    0.25000    0.25000  )

     Computing dynamical matrix for 
                    q = (   0.5000000  -0.5000000   0.5000000 )

     13 Sym.Ops. (with q -> -q+G )


     G cutoff =  191.6110  (    683 G-vectors)     FFT grid: ( 20, 20, 20)
     number of k points=    60

     PseudoPot. # 1 for Si read from file:
     /home/max/quantum_espresso/qe-6.1/pseudo/si_pbe_v1.uspp.F.UPF.txt
     MD5 check sum: a056efeee980c13900f22a371efd63c1
     Pseudo is Ultrasoft + core correction, Zval =  4.0
     Generated by new atomic code, or converted to UPF format
     Using radial grid of  899 points,  6 beta functions with: 
                l(1) =   0
                l(2) =   0
                l(3) =   1
                l(4) =   1
                l(5) =   2
                l(6) =   2
     Q(r) pseudized with  8 coefficients,  rinner =    0.900   0.900   0.900
                                                       0.900   0.900


     Atomic displacements:
     There are   4 irreducible representations

     Representation     1      1 modes -  To be done

     Representation     2      1 modes -  To be done

     Representation     3      2 modes -  To be done

     Representation     4      2 modes -  To be done



     Alpha used in Ewald sum =   0.7000
     PHONON       :    14.24s CPU        14.92s WALL



     Representation #  1 mode #   1

     Self-consistent Calculation

      iter #   1 total cpu time :    15.0 secs   av.it.:   4.8
      thresh= 1.000E-02 alpha_mix =  0.700 |ddv_scf|^2 =  2.528E-05

      iter #   2 total cpu time :    15.2 secs   av.it.:   8.3
      thresh= 5.028E-04 alpha_mix =  0.700 |ddv_scf|^2 =  2.213E-05

      iter #   3 total cpu time :    15.3 secs   av.it.:   7.5
      thresh= 4.705E-04 alpha_mix =  0.700 |ddv_scf|^2 =  3.818E-08

      iter #   4 total cpu time :    15.4 secs   av.it.:   7.6
      thresh= 1.954E-05 alpha_mix =  0.700 |ddv_scf|^2 =  1.425E-10

      iter #   5 total cpu time :    15.6 secs   av.it.:   7.9
      thresh= 1.194E-06 alpha_mix =  0.700 |ddv_scf|^2 =  3.660E-12

      iter #   6 total cpu time :    15.7 secs   av.it.:   7.7
      thresh= 1.913E-07 alpha_mix =  0.700 |ddv_scf|^2 =  5.174E-14

     End of self-consistent calculation

     Convergence has been achieved 


     Representation #  2 mode #   2

     Self-consistent Calculation

      iter #   1 total cpu time :    15.8 secs   av.it.:   5.6
      thresh= 1.000E-02 alpha_mix =  0.700 |ddv_scf|^2 =  3.544E-04

      iter #   2 total cpu time :    16.0 secs   av.it.:   8.3
      thresh= 1.883E-03 alpha_mix =  0.700 |ddv_scf|^2 =  1.086E-03

      iter #   3 total cpu time :    16.1 secs   av.it.:   7.1
      thresh= 3.296E-03 alpha_mix =  0.700 |ddv_scf|^2 =  1.117E-07

      iter #   4 total cpu time :    16.3 secs   av.it.:   8.1
      thresh= 3.343E-05 alpha_mix =  0.700 |ddv_scf|^2 =  6.640E-09

      iter #   5 total cpu time :    16.4 secs   av.it.:   8.5
      thresh= 8.149E-06 alpha_mix =  0.700 |ddv_scf|^2 =  1.277E-10

      iter #   6 total cpu time :    16.5 secs   av.it.:   8.3
      thresh= 1.130E-06 alpha_mix =  0.700 |ddv_scf|^2 =  2.040E-12

      iter #   7 total cpu time :    16.7 secs   av.it.:   7.8
      thresh= 1.428E-07 alpha_mix =  0.700 |ddv_scf|^2 =  4.379E-15

     End of self-consistent calculation

     Convergence has been achieved 


     Representation #  3 modes #   3  4

     Self-consistent Calculation

      iter #   1 total cpu time :    16.9 secs   av.it.:   4.7
      thresh= 1.000E-02 alpha_mix =  0.700 |ddv_scf|^2 =  3.065E-07

      iter #   2 total cpu time :    17.2 secs   av.it.:   9.0
      thresh= 5.536E-05 alpha_mix =  0.700 |ddv_scf|^2 =  2.514E-08

      iter #   3 total cpu time :    17.5 secs   av.it.:   8.4
      thresh= 1.586E-05 alpha_mix =  0.700 |ddv_scf|^2 =  4.790E-10

      iter #   4 total cpu time :    17.8 secs   av.it.:   8.8
      thresh= 2.189E-06 alpha_mix =  0.700 |ddv_scf|^2 =  5.946E-12

      iter #   5 total cpu time :    18.0 secs   av.it.:   8.7
      thresh= 2.438E-07 alpha_mix =  0.700 |ddv_scf|^2 =  2.985E-14

     End of self-consistent calculation

     Convergence has been achieved 


     Representation #  4 modes #   5  6

     Self-consistent Calculation

      iter #   1 total cpu time :    18.3 secs   av.it.:   5.0
      thresh= 1.000E-02 alpha_mix =  0.700 |ddv_scf|^2 =  9.773E-07

      iter #   2 total cpu time :    18.6 secs   av.it.:   9.5
      thresh= 9.886E-05 alpha_mix =  0.700 |ddv_scf|^2 =  7.636E-08

      iter #   3 total cpu time :    18.9 secs   av.it.:   9.3
      thresh= 2.763E-05 alpha_mix =  0.700 |ddv_scf|^2 =  4.749E-09

      iter #   4 total cpu time :    19.1 secs   av.it.:   8.5
      thresh= 6.891E-06 alpha_mix =  0.700 |ddv_scf|^2 =  6.134E-12

      iter #   5 total cpu time :    19.4 secs   av.it.:   8.8
      thresh= 2.477E-07 alpha_mix =  0.700 |ddv_scf|^2 =  2.097E-14

     End of self-consistent calculation

     Convergence has been achieved 

     Number of q in the star =    4
     List of q in the star:
          1   0.500000000  -0.500000000   0.500000000
          2   0.500000000   0.500000000   0.500000000
          3  -0.500000000   0.500000000   0.500000000
          4   0.500000000   0.500000000  -0.500000000

     Diagonalizing the dynamical matrix

     q = (    0.500000000  -0.500000000   0.500000000 ) 

 **************************************************************************
     freq (    1) =       4.491042 [THz] =     149.805047 [cm-1]
     freq (    2) =       4.491042 [THz] =     149.805047 [cm-1]
     freq (    3) =      11.717186 [THz] =     390.843260 [cm-1]
     freq (    4) =      12.558904 [THz] =     418.919960 [cm-1]
     freq (    5) =      14.882437 [THz] =     496.424662 [cm-1]
     freq (    6) =      14.882437 [THz] =     496.424662 [cm-1]
 **************************************************************************

     Calculation of q =    0.0000000   0.5000000   0.0000000

   Info: using nr1, nr2, nr3 values from input

   Info: using nr1, nr2, nr3 values from input

     Parallelization info
     --------------------
     sticks:   dense  smooth     PW     G-vecs:    dense   smooth      PW
     Min          63      63     24                  682      682     161
     Max          64      64     25                  686      686     162
     Sum         253     253     97                 2733     2733     645



     bravais-lattice index     =            2
     lattice parameter (alat)  =      10.2500  a.u.
     unit-cell volume          =     269.2227 (a.u.)^3
     number of atoms/cell      =            2
     number of atomic types    =            1
     number of electrons       =         8.00
     number of Kohn-Sham states=            4
     kinetic-energy cutoff     =      18.0000  Ry
     charge density cutoff     =      72.0000  Ry
     Exchange-correlation      = SLA  PW   PBE  PBE ( 1  4  3  4 0 0)

     celldm(1)=  10.250000  celldm(2)=   0.000000  celldm(3)=   0.000000
     celldm(4)=   0.000000  celldm(5)=   0.000000  celldm(6)=   0.000000

     crystal axes: (cart. coord. in units of alat)
               a(1) = (  -0.500000   0.000000   0.500000 )  
               a(2) = (   0.000000   0.500000   0.500000 )  
               a(3) = (  -0.500000   0.500000   0.000000 )  

     reciprocal axes: (cart. coord. in units 2 pi/alat)
               b(1) = ( -1.000000 -1.000000  1.000000 )  
               b(2) = (  1.000000  1.000000  1.000000 )  
               b(3) = ( -1.000000  1.000000 -1.000000 )  


     PseudoPot. # 1 for Si read from file:
     /home/max/quantum_espresso/qe-6.1/pseudo/si_pbe_v1.uspp.F.UPF.txt
     MD5 check sum: a056efeee980c13900f22a371efd63c1
     Pseudo is Ultrasoft + core correction, Zval =  4.0
     Generated by new atomic code, or converted to UPF format
     Using radial grid of  899 points,  6 beta functions with: 
                l(1) =   0
                l(2) =   0
                l(3) =   1
                l(4) =   1
                l(5) =   2
                l(6) =   2
     Q(r) pseudized with  8 coefficients,  rinner =    0.900   0.900   0.900
                                                       0.900   0.900

     atomic species   valence    mass     pseudopotential
        Si             4.00    28.08600     Si( 1.00)

     48 Sym. Ops., with inversion, found



   Cartesian axes

     site n.     atom                  positions (alat units)
         1           Si  tau(   1) = (   0.0000000   0.0000000   0.0000000  )
         2           Si  tau(   2) = (   0.2500000   0.2500000   0.2500000  )

     number of k points=    80
                       cart. coord. in units 2pi/alat
        k(    1) = (  -0.1250000   0.1250000   0.1250000), wk =   0.0312500
        k(    2) = (  -0.1250000   0.6250000   0.1250000), wk =   0.0000000
        k(    3) = (  -0.3750000   0.3750000  -0.1250000), wk =   0.0625000
        k(    4) = (  -0.3750000   0.8750000  -0.1250000), wk =   0.0000000
        k(    5) = (   0.3750000  -0.3750000   0.6250000), wk =   0.0625000
        k(    6) = (   0.3750000   0.1250000   0.6250000), wk =   0.0000000
        k(    7) = (   0.1250000  -0.1250000   0.3750000), wk =   0.0625000
        k(    8) = (   0.1250000   0.3750000   0.3750000), wk =   0.0000000
        k(    9) = (  -0.1250000   0.6250000   0.1250000), wk =   0.0312500
        k(   10) = (  -0.1250000   1.1250000   0.1250000), wk =   0.0000000
        k(   11) = (   0.6250000  -0.1250000   0.8750000), wk =   0.0625000
        k(   12) = (   0.6250000   0.3750000   0.8750000), wk =   0.0000000
        k(   13) = (   0.3750000   0.1250000   0.6250000), wk =   0.0625000
        k(   14) = (   0.3750000   0.6250000   0.6250000), wk =   0.0000000
        k(   15) = (  -0.1250000  -0.8750000   0.1250000), wk =   0.0312500
        k(   16) = (  -0.1250000  -0.3750000   0.1250000), wk =   0.0000000
        k(   17) = (  -0.3750000   0.3750000   0.3750000), wk =   0.0312500
        k(   18) = (  -0.3750000   0.8750000   0.3750000), wk =   0.0000000
        k(   19) = (   0.3750000  -0.3750000   1.1250000), wk =   0.0625000
        k(   20) = (   0.3750000   0.1250000   1.1250000), wk =   0.0000000
        k(   21) = (  -0.1250000  -0.1250000   0.1250000), wk =   0.0312500
        k(   22) = (  -0.1250000   0.3750000   0.1250000), wk =   0.0000000
        k(   23) = (   0.1250000  -0.3750000   0.3750000), wk =   0.0625000
        k(   24) = (   0.1250000   0.1250000   0.3750000), wk =   0.0000000
        k(   25) = (   0.3750000  -0.1250000   0.3750000), wk =   0.0312500
        k(   26) = (   0.3750000   0.3750000   0.3750000), wk =   0.0000000
        k(   27) = (   0.3750000   0.1250000   0.3750000), wk =   0.0312500
        k(   28) = (   0.3750000   0.6250000   0.3750000), wk =   0.0000000
        k(   29) = (  -0.6250000   0.3750000  -0.3750000), wk =   0.0625000
        k(   30) = (  -0.6250000   0.8750000  -0.3750000), wk =   0.0000000
        k(   31) = (  -0.3750000   0.6250000  -0.3750000), wk =   0.0312500
        k(   32) = (  -0.3750000   1.1250000  -0.3750000), wk =   0.0000000
        k(   33) = (  -0.3750000  -0.6250000  -0.3750000), wk =   0.0312500
        k(   34) = (  -0.3750000  -0.1250000  -0.3750000), wk =   0.0000000
        k(   35) = (  -0.3750000   0.1250000  -0.1250000), wk =   0.0625000
        k(   36) = (  -0.3750000   0.6250000  -0.1250000), wk =   0.0000000
        k(   37) = (  -0.1250000   0.3750000  -0.1250000), wk =   0.0312500
        k(   38) = (  -0.1250000   0.8750000  -0.1250000), wk =   0.0000000
        k(   39) = (  -0.1250000  -0.3750000  -0.1250000), wk =   0.0312500
        k(   40) = (  -0.1250000   0.1250000  -0.1250000), wk =   0.0000000
        k(   41) = (  -0.1250000  -0.6250000   0.1250000), wk =   0.0312500
        k(   42) = (  -0.1250000  -0.1250000   0.1250000), wk =   0.0000000
        k(   43) = (   0.6250000  -0.1250000  -0.1250000), wk =   0.0625000
        k(   44) = (   0.6250000   0.3750000  -0.1250000), wk =   0.0000000
        k(   45) = (   0.6250000   0.1250000   0.1250000), wk =   0.0625000
        k(   46) = (   0.6250000   0.6250000   0.1250000), wk =   0.0000000
        k(   47) = (  -0.8750000   0.1250000  -0.6250000), wk =   0.0625000
        k(   48) = (  -0.8750000   0.6250000  -0.6250000), wk =   0.0000000
        k(   49) = (  -0.1250000   0.6250000  -0.8750000), wk =   0.0625000
        k(   50) = (  -0.1250000   1.1250000  -0.8750000), wk =   0.0000000
        k(   51) = (  -0.1250000   0.8750000  -0.6250000), wk =   0.0625000
        k(   52) = (  -0.1250000   1.3750000  -0.6250000), wk =   0.0000000
        k(   53) = (  -0.1250000  -0.8750000  -0.6250000), wk =   0.0625000
        k(   54) = (  -0.1250000  -0.3750000  -0.6250000), wk =   0.0000000
        k(   55) = (   0.8750000  -0.6250000   0.1250000), wk =   0.0625000
        k(   56) = (   0.8750000  -0.1250000   0.1250000), wk =   0.0000000
        k(   57) = (  -0.6250000  -0.1250000  -0.3750000), wk =   0.0625000
        k(   58) = (  -0.6250000   0.3750000  -0.3750000), wk =   0.0000000
        k(   59) = (   0.1250000   0.3750000  -0.6250000), wk =   0.0625000
        k(   60) = (   0.1250000   0.8750000  -0.6250000), wk =   0.0000000
        k(   61) = (   0.1250000   0.6250000  -0.3750000), wk =   0.0625000
        k(   62) = (   0.1250000   1.1250000  -0.3750000), wk =   0.0000000
        k(   63) = (   0.1250000  -0.6250000  -0.3750000), wk =   0.0625000
        k(   64) = (   0.1250000  -0.1250000  -0.3750000), wk =   0.0000000
        k(   65) = (   0.6250000  -0.3750000  -0.1250000), wk =   0.0625000
        k(   66) = (   0.6250000   0.1250000  -0.1250000), wk =   0.0000000
        k(   67) = (  -0.1250000   0.8750000   0.1250000), wk =   0.0312500
        k(   68) = (  -0.1250000   1.3750000   0.1250000), wk =   0.0000000
        k(   69) = (  -0.8750000  -0.1250000  -0.1250000), wk =   0.0625000
        k(   70) = (  -0.8750000   0.3750000  -0.1250000), wk =   0.0000000
        k(   71) = (  -0.8750000   0.1250000   0.1250000), wk =   0.0625000
        k(   72) = (  -0.8750000   0.6250000   0.1250000), wk =   0.0000000
        k(   73) = (  -0.3750000  -0.3750000   0.3750000), wk =   0.0312500
        k(   74) = (  -0.3750000   0.1250000   0.3750000), wk =   0.0000000
        k(   75) = (  -1.1250000   0.3750000  -0.3750000), wk =   0.0625000
        k(   76) = (  -1.1250000   0.8750000  -0.3750000), wk =   0.0000000
        k(   77) = (  -0.3750000   1.1250000  -0.3750000), wk =   0.0312500
        k(   78) = (  -0.3750000   1.6250000  -0.3750000), wk =   0.0000000
        k(   79) = (  -0.3750000  -1.1250000  -0.3750000), wk =   0.0312500
        k(   80) = (  -0.3750000  -0.6250000  -0.3750000), wk =   0.0000000

     Dense  grid:     2733 G-vectors     FFT dimensions: (  20,  20,  20)

     Estimated max dynamical RAM per process >       0.32MB

     Estimated total allocated dynamical RAM >       1.29MB

     Check: negative/imaginary core charge=   -0.000005    0.000000

     The potential is recalculated from file :
     ./_ph0/silicon.10.25.save/charge-density.dat

     Starting wfc are    8 atomic wfcs

     Band Structure Calculation
     Davidson diagonalization with overlap

     ethr =  1.25E-10,  avg # of iterations = 11.6

     total cpu time spent up to now is        1.9 secs

     End of band structure calculation

          k =-0.1250 0.1250 0.1250 (   335 PWs)   bands (ev):

    -5.5418   4.6356   5.9444   5.9444

          k =-0.1250 0.6250 0.1250 (   340 PWs)   bands (ev):

    -3.9513   1.2866   3.5608   4.0206

          k =-0.3750 0.3750-0.1250 (   345 PWs)   bands (ev):

    -4.4944   1.6026   3.9217   5.4567

          k =-0.3750 0.8750-0.1250 (   352 PWs)   bands (ev):

    -2.2731  -0.7096   2.1711   3.2705

          k = 0.3750-0.3750 0.6250 (   348 PWs)   bands (ev):

    -3.3254  -0.5224   3.9527   4.6673

          k = 0.3750 0.1250 0.6250 (   348 PWs)   bands (ev):

    -3.5254   0.3847   2.9109   4.3012

          k = 0.1250-0.1250 0.3750 (   343 PWs)   bands (ev):

    -5.0038   3.0066   4.9121   4.9907

          k = 0.1250 0.3750 0.3750 (   345 PWs)   bands (ev):

    -4.4944   1.6026   3.9217   5.4567

          k =-0.1250 0.6250 0.1250 (   340 PWs)   bands (ev):

    -3.9513   1.2866   3.5608   4.0206

          k =-0.1250 1.1250 0.1250 (   348 PWs)   bands (ev):

    -2.4492  -0.6069   2.7944   3.5447

          k = 0.6250-0.1250 0.8750 (   352 PWs)   bands (ev):

    -2.2731  -0.7096   2.1711   3.2705

          k = 0.6250 0.3750 0.8750 (   348 PWs)   bands (ev):

    -3.5254   0.3847   2.9109   4.3012

          k = 0.3750 0.1250 0.6250 (   348 PWs)   bands (ev):

    -3.5254   0.3847   2.9109   4.3012

          k = 0.3750 0.6250 0.6250 (   348 PWs)   bands (ev):

    -3.3254  -0.5224   3.9527   4.6673

          k =-0.1250-0.8750 0.1250 (   348 PWs)   bands (ev):

    -2.4492  -0.6069   2.7944   3.5447

          k =-0.1250-0.3750 0.1250 (   343 PWs)   bands (ev):

    -5.0038   3.0066   4.9121   4.9907

          k =-0.3750 0.3750 0.3750 (   353 PWs)   bands (ev):

    -4.0514   0.2795   5.1432   5.1432

          k =-0.3750 0.8750 0.3750 (   355 PWs)   bands (ev):

    -2.8202  -0.4169   2.2388   4.3424

          k = 0.3750-0.3750 1.1250 (   355 PWs)   bands (ev):

    -2.8202  -0.4169   2.2388   4.3424

          k = 0.3750 0.1250 1.1250 (   352 PWs)   bands (ev):

    -2.2731  -0.7096   2.1711   3.2705

          k =-0.1250-0.1250 0.1250 (   335 PWs)   bands (ev):

    -5.5418   4.6356   5.9444   5.9444

          k =-0.1250 0.3750 0.1250 (   343 PWs)   bands (ev):

    -5.0038   3.0066   4.9121   4.9907

          k = 0.1250-0.3750 0.3750 (   345 PWs)   bands (ev):

    -4.4944   1.6026   3.9217   5.4567

          k = 0.1250 0.1250 0.3750 (   343 PWs)   bands (ev):

    -5.0038   3.0066   4.9121   4.9907

          k = 0.3750-0.1250 0.3750 (   345 PWs)   bands (ev):

    -4.4944   1.6026   3.9217   5.4567

          k = 0.3750 0.3750 0.3750 (   353 PWs)   bands (ev):

    -4.0514   0.2795   5.1432   5.1432

          k = 0.3750 0.1250 0.3750 (   345 PWs)   bands (ev):

    -4.4944   1.6026   3.9217   5.4567

          k = 0.3750 0.6250 0.3750 (   348 PWs)   bands (ev):

    -3.3254  -0.5224   3.9527   4.6673

          k =-0.6250 0.3750-0.3750 (   348 PWs)   bands (ev):

    -3.3254  -0.5224   3.9527   4.6673

          k =-0.6250 0.8750-0.3750 (   348 PWs)   bands (ev):

    -3.5254   0.3847   2.9109   4.3012

          k =-0.3750 0.6250-0.3750 (   348 PWs)   bands (ev):

    -3.3254  -0.5224   3.9527   4.6673

          k =-0.3750 1.1250-0.3750 (   355 PWs)   bands (ev):

    -2.8202  -0.4169   2.2388   4.3424

          k =-0.3750-0.6250-0.3750 (   348 PWs)   bands (ev):

    -3.3254  -0.5224   3.9527   4.6673

          k =-0.3750-0.1250-0.3750 (   345 PWs)   bands (ev):

    -4.4944   1.6026   3.9217   5.4567

          k =-0.3750 0.1250-0.1250 (   343 PWs)   bands (ev):

    -5.0038   3.0066   4.9121   4.9907

          k =-0.3750 0.6250-0.1250 (   348 PWs)   bands (ev):

    -3.5254   0.3847   2.9109   4.3012

          k =-0.1250 0.3750-0.1250 (   343 PWs)   bands (ev):

    -5.0038   3.0066   4.9121   4.9907

          k =-0.1250 0.8750-0.1250 (   348 PWs)   bands (ev):

    -2.4492  -0.6069   2.7944   3.5447

          k =-0.1250-0.3750-0.1250 (   343 PWs)   bands (ev):

    -5.0038   3.0066   4.9121   4.9907

          k =-0.1250 0.1250-0.1250 (   335 PWs)   bands (ev):

    -5.5418   4.6356   5.9444   5.9444

          k =-0.1250-0.6250 0.1250 (   340 PWs)   bands (ev):

    -3.9513   1.2866   3.5608   4.0206

          k =-0.1250-0.1250 0.1250 (   335 PWs)   bands (ev):

    -5.5418   4.6356   5.9444   5.9444

          k = 0.6250-0.1250-0.1250 (   340 PWs)   bands (ev):

    -3.9513   1.2866   3.5608   4.0206

          k = 0.6250 0.3750-0.1250 (   348 PWs)   bands (ev):

    -3.5254   0.3847   2.9109   4.3012

          k = 0.6250 0.1250 0.1250 (   340 PWs)   bands (ev):

    -3.9513   1.2866   3.5608   4.0206

          k = 0.6250 0.6250 0.1250 (   355 PWs)   bands (ev):

    -2.8202  -0.4169   2.2388   4.3424

          k =-0.8750 0.1250-0.6250 (   352 PWs)   bands (ev):

    -2.2731  -0.7096   2.1711   3.2705

          k =-0.8750 0.6250-0.6250 (   345 PWs)   bands (ev):

    -4.4944   1.6026   3.9217   5.4567

          k =-0.1250 0.6250-0.8750 (   352 PWs)   bands (ev):

    -2.2731  -0.7096   2.1711   3.2705

          k =-0.1250 1.1250-0.8750 (   348 PWs)   bands (ev):

    -2.4492  -0.6069   2.7944   3.5447

          k =-0.1250 0.8750-0.6250 (   352 PWs)   bands (ev):

    -2.2731  -0.7096   2.1711   3.2705

          k =-0.1250 1.3750-0.6250 (   355 PWs)   bands (ev):

    -2.8202  -0.4169   2.2388   4.3424

          k =-0.1250-0.8750-0.6250 (   352 PWs)   bands (ev):

    -2.2731  -0.7096   2.1711   3.2705

          k =-0.1250-0.3750-0.6250 (   348 PWs)   bands (ev):

    -3.5254   0.3847   2.9109   4.3012

          k = 0.8750-0.6250 0.1250 (   352 PWs)   bands (ev):

    -2.2731  -0.7096   2.1711   3.2705

          k = 0.8750-0.1250 0.1250 (   348 PWs)   bands (ev):

    -2.4492  -0.6069   2.7944   3.5447

          k =-0.6250-0.1250-0.3750 (   348 PWs)   bands (ev):

    -3.5254   0.3847   2.9109   4.3012

          k =-0.6250 0.3750-0.3750 (   348 PWs)   bands (ev):

    -3.3254  -0.5224   3.9527   4.6673

          k = 0.1250 0.3750-0.6250 (   348 PWs)   bands (ev):

    -3.5254   0.3847   2.9109   4.3012

          k = 0.1250 0.8750-0.6250 (   352 PWs)   bands (ev):

    -2.2731  -0.7096   2.1711   3.2705

          k = 0.1250 0.6250-0.3750 (   348 PWs)   bands (ev):

    -3.5254   0.3847   2.9109   4.3012

          k = 0.1250 1.1250-0.3750 (   352 PWs)   bands (ev):

    -2.2731  -0.7096   2.1711   3.2705

          k = 0.1250-0.6250-0.3750 (   348 PWs)   bands (ev):

    -3.5254   0.3847   2.9109   4.3012

          k = 0.1250-0.1250-0.3750 (   343 PWs)   bands (ev):

    -5.0038   3.0066   4.9121   4.9907

          k = 0.6250-0.3750-0.1250 (   348 PWs)   bands (ev):

    -3.5254   0.3847   2.9109   4.3012

          k = 0.6250 0.1250-0.1250 (   340 PWs)   bands (ev):

    -3.9513   1.2866   3.5608   4.0206

          k =-0.1250 0.8750 0.1250 (   348 PWs)   bands (ev):

    -2.4492  -0.6069   2.7944   3.5447

          k =-0.1250 1.3750 0.1250 (   340 PWs)   bands (ev):

    -3.9513   1.2866   3.5608   4.0206

          k =-0.8750-0.1250-0.1250 (   348 PWs)   bands (ev):

    -2.4492  -0.6069   2.7944   3.5447

          k =-0.8750 0.3750-0.1250 (   352 PWs)   bands (ev):

    -2.2731  -0.7096   2.1711   3.2705

          k =-0.8750 0.1250 0.1250 (   348 PWs)   bands (ev):

    -2.4492  -0.6069   2.7944   3.5447

          k =-0.8750 0.6250 0.1250 (   352 PWs)   bands (ev):

    -2.2731  -0.7096   2.1711   3.2705

          k =-0.3750-0.3750 0.3750 (   353 PWs)   bands (ev):

    -4.0514   0.2795   5.1432   5.1432

          k =-0.3750 0.1250 0.3750 (   345 PWs)   bands (ev):

    -4.4944   1.6026   3.9217   5.4567

          k =-1.1250 0.3750-0.3750 (   355 PWs)   bands (ev):

    -2.8202  -0.4169   2.2388   4.3424

          k =-1.1250 0.8750-0.3750 (   340 PWs)   bands (ev):

    -3.9513   1.2866   3.5608   4.0206

          k =-0.3750 1.1250-0.3750 (   355 PWs)   bands (ev):

    -2.8202  -0.4169   2.2388   4.3424

          k =-0.3750 1.6250-0.3750 (   353 PWs)   bands (ev):

    -4.0514   0.2795   5.1432   5.1432

          k =-0.3750-1.1250-0.3750 (   355 PWs)   bands (ev):

    -2.8202  -0.4169   2.2388   4.3424

          k =-0.3750-0.6250-0.3750 (   348 PWs)   bands (ev):

    -3.3254  -0.5224   3.9527   4.6673

     highest occupied level (ev):     5.9444

     Writing output data file silicon.10.25.save

                                                                                

     bravais-lattice index     =            2
     lattice parameter (alat)  =      10.2500  a.u.
     unit-cell volume          =     269.2227 (a.u.)^3
     number of atoms/cell      =            2
     number of atomic types    =            1
     kinetic-energy cut-off    =      18.0000  Ry
     charge density cut-off    =      72.0000  Ry
     convergence threshold     =      1.0E-12
     beta                      =       0.7000
     number of iterations used =            4
     Exchange-correlation      = SLA  PW   PBE  PBE ( 1  4  3  4 0 0)


     celldm(1)=   10.25000  celldm(2)=    0.00000  celldm(3)=    0.00000
     celldm(4)=    0.00000  celldm(5)=    0.00000  celldm(6)=    0.00000

     crystal axes: (cart. coord. in units of alat)
               a(1) = ( -0.5000  0.0000  0.5000 )  
               a(2) = (  0.0000  0.5000  0.5000 )  
               a(3) = ( -0.5000  0.5000  0.0000 )  

     reciprocal axes: (cart. coord. in units 2 pi/alat)
               b(1) = ( -1.0000 -1.0000  1.0000 )  
               b(2) = (  1.0000  1.0000  1.0000 )  
               b(3) = ( -1.0000  1.0000 -1.0000 )  


     Atoms inside the unit cell: 

     Cartesian axes

     site n.  atom      mass           positions (alat units)
        1     Si  28.0860   tau(    1) = (    0.00000    0.00000    0.00000  )
        2     Si  28.0860   tau(    2) = (    0.25000    0.25000    0.25000  )

     Computing dynamical matrix for 
                    q = (   0.0000000   0.5000000   0.0000000 )

      8 Sym.Ops. (no q -> -q+G )


     G cutoff =  191.6110  (    683 G-vectors)     FFT grid: ( 20, 20, 20)
     number of k points=    80

     PseudoPot. # 1 for Si read from file:
     /home/max/quantum_espresso/qe-6.1/pseudo/si_pbe_v1.uspp.F.UPF.txt
     MD5 check sum: a056efeee980c13900f22a371efd63c1
     Pseudo is Ultrasoft + core correction, Zval =  4.0
     Generated by new atomic code, or converted to UPF format
     Using radial grid of  899 points,  6 beta functions with: 
                l(1) =   0
                l(2) =   0
                l(3) =   1
                l(4) =   1
                l(5) =   2
                l(6) =   2
     Q(r) pseudized with  8 coefficients,  rinner =    0.900   0.900   0.900
                                                       0.900   0.900

     Mode symmetry, C_4v (4mm)  point group:


     Atomic displacements:
     There are   4 irreducible representations

     Representation     1      1 modes -A_1  G_1 D_1  To be done

     Representation     2      1 modes -B_2  G_4 D_2'  To be done

     Representation     3      2 modes -E    G_5 D_5  To be done

     Representation     4      2 modes -E    G_5 D_5  To be done



     Alpha used in Ewald sum =   0.7000
     PHONON       :    19.39s CPU        20.29s WALL



     Representation #  1 mode #   1

     Self-consistent Calculation

      iter #   1 total cpu time :    20.4 secs   av.it.:   5.8
      thresh= 1.000E-02 alpha_mix =  0.700 |ddv_scf|^2 =  3.041E-03

      iter #   2 total cpu time :    20.6 secs   av.it.:   7.6
      thresh= 5.514E-03 alpha_mix =  0.700 |ddv_scf|^2 =  3.959E-02

      iter #   3 total cpu time :    20.8 secs   av.it.:   6.7
      thresh= 1.000E-02 alpha_mix =  0.700 |ddv_scf|^2 =  1.377E-07

      iter #   4 total cpu time :    20.9 secs   av.it.:   8.2
      thresh= 3.710E-05 alpha_mix =  0.700 |ddv_scf|^2 =  1.223E-08

      iter #   5 total cpu time :    21.1 secs   av.it.:   7.8
      thresh= 1.106E-05 alpha_mix =  0.700 |ddv_scf|^2 =  7.553E-10

      iter #   6 total cpu time :    21.3 secs   av.it.:   7.8
      thresh= 2.748E-06 alpha_mix =  0.700 |ddv_scf|^2 =  2.907E-12

      iter #   7 total cpu time :    21.5 secs   av.it.:   8.0
      thresh= 1.705E-07 alpha_mix =  0.700 |ddv_scf|^2 =  5.653E-13

     End of self-consistent calculation

     Convergence has been achieved 


     Representation #  2 mode #   2

     Self-consistent Calculation

      iter #   1 total cpu time :    21.6 secs   av.it.:   4.9
      thresh= 1.000E-02 alpha_mix =  0.700 |ddv_scf|^2 =  5.435E-06

      iter #   2 total cpu time :    21.8 secs   av.it.:   8.6
      thresh= 2.331E-04 alpha_mix =  0.700 |ddv_scf|^2 =  1.285E-06

      iter #   3 total cpu time :    22.0 secs   av.it.:   8.6
      thresh= 1.133E-04 alpha_mix =  0.700 |ddv_scf|^2 =  3.683E-08

      iter #   4 total cpu time :    22.2 secs   av.it.:   8.1
      thresh= 1.919E-05 alpha_mix =  0.700 |ddv_scf|^2 =  5.968E-10

      iter #   5 total cpu time :    22.3 secs   av.it.:   8.5
      thresh= 2.443E-06 alpha_mix =  0.700 |ddv_scf|^2 =  6.329E-12

      iter #   6 total cpu time :    22.5 secs   av.it.:   7.9
      thresh= 2.516E-07 alpha_mix =  0.700 |ddv_scf|^2 =  6.306E-14

     End of self-consistent calculation

     Convergence has been achieved 


     Representation #  3 modes #   3  4

     Self-consistent Calculation

      iter #   1 total cpu time :    22.8 secs   av.it.:   5.0
      thresh= 1.000E-02 alpha_mix =  0.700 |ddv_scf|^2 =  1.009E-06

      iter #   2 total cpu time :    23.2 secs   av.it.:   9.7
      thresh= 1.004E-04 alpha_mix =  0.700 |ddv_scf|^2 =  1.257E-07

      iter #   3 total cpu time :    23.6 secs   av.it.:   9.4
      thresh= 3.546E-05 alpha_mix =  0.700 |ddv_scf|^2 =  6.065E-09

      iter #   4 total cpu time :    23.9 secs   av.it.:   8.7
      thresh= 7.788E-06 alpha_mix =  0.700 |ddv_scf|^2 =  8.843E-12

      iter #   5 total cpu time :    24.3 secs   av.it.:   9.1
      thresh= 2.974E-07 alpha_mix =  0.700 |ddv_scf|^2 =  2.709E-13

     End of self-consistent calculation

     Convergence has been achieved 


     Representation #  4 modes #   5  6

     Self-consistent Calculation

      iter #   1 total cpu time :    24.6 secs   av.it.:   5.0
      thresh= 1.000E-02 alpha_mix =  0.700 |ddv_scf|^2 =  9.270E-07

      iter #   2 total cpu time :    25.0 secs   av.it.:   9.7
      thresh= 9.628E-05 alpha_mix =  0.700 |ddv_scf|^2 =  1.168E-07

      iter #   3 total cpu time :    25.4 secs   av.it.:   9.4
      thresh= 3.418E-05 alpha_mix =  0.700 |ddv_scf|^2 =  6.342E-09

      iter #   4 total cpu time :    25.7 secs   av.it.:   8.9
      thresh= 7.964E-06 alpha_mix =  0.700 |ddv_scf|^2 =  1.375E-11

      iter #   5 total cpu time :    26.1 secs   av.it.:   9.1
      thresh= 3.708E-07 alpha_mix =  0.700 |ddv_scf|^2 =  4.034E-14

     End of self-consistent calculation

     Convergence has been achieved 

     Number of q in the star =    6
     List of q in the star:
          1   0.000000000   0.500000000   0.000000000
          2   0.000000000  -0.500000000   0.000000000
          3   0.500000000   0.000000000   0.000000000
          4   0.000000000   0.000000000   0.500000000
          5   0.000000000   0.000000000  -0.500000000
          6  -0.500000000   0.000000000   0.000000000

     Diagonalizing the dynamical matrix

     q = (    0.000000000   0.500000000   0.000000000 ) 

 **************************************************************************
     freq (    1) =       4.152087 [THz] =     138.498710 [cm-1]
     freq (    2) =       4.152087 [THz] =     138.498710 [cm-1]
     freq (    3) =       7.328314 [THz] =     244.446234 [cm-1]
     freq (    4) =      14.245051 [THz] =     475.163748 [cm-1]
     freq (    5) =      14.245051 [THz] =     475.163748 [cm-1]
     freq (    6) =      14.789488 [THz] =     493.324234 [cm-1]
 **************************************************************************

     Mode symmetry, C_4v (4mm)  point group:

     freq (  1 -  2) =        138.5  [cm-1]   --> E    G_5 D_5       
     freq (  3 -  3) =        244.4  [cm-1]   --> A_1  G_1 D_1       
     freq (  4 -  5) =        475.2  [cm-1]   --> E    G_5 D_5       
     freq (  6 -  6) =        493.3  [cm-1]   --> B_2  G_4 D_2'      

     Calculation of q =    0.7500000  -0.2500000   0.7500000

   Info: using nr1, nr2, nr3 values from input

   Info: using nr1, nr2, nr3 values from input

     Parallelization info
     --------------------
     sticks:   dense  smooth     PW     G-vecs:    dense   smooth      PW
     Min          63      63     30                  682      682     216
     Max          64      64     31                  686      686     218
     Sum         253     253    121                 2733     2733     869



     bravais-lattice index     =            2
     lattice parameter (alat)  =      10.2500  a.u.
     unit-cell volume          =     269.2227 (a.u.)^3
     number of atoms/cell      =            2
     number of atomic types    =            1
     number of electrons       =         8.00
     number of Kohn-Sham states=            4
     kinetic-energy cutoff     =      18.0000  Ry
     charge density cutoff     =      72.0000  Ry
     Exchange-correlation      = SLA  PW   PBE  PBE ( 1  4  3  4 0 0)

     celldm(1)=  10.250000  celldm(2)=   0.000000  celldm(3)=   0.000000
     celldm(4)=   0.000000  celldm(5)=   0.000000  celldm(6)=   0.000000

     crystal axes: (cart. coord. in units of alat)
               a(1) = (  -0.500000   0.000000   0.500000 )  
               a(2) = (   0.000000   0.500000   0.500000 )  
               a(3) = (  -0.500000   0.500000   0.000000 )  

     reciprocal axes: (cart. coord. in units 2 pi/alat)
               b(1) = ( -1.000000 -1.000000  1.000000 )  
               b(2) = (  1.000000  1.000000  1.000000 )  
               b(3) = ( -1.000000  1.000000 -1.000000 )  


     PseudoPot. # 1 for Si read from file:
     /home/max/quantum_espresso/qe-6.1/pseudo/si_pbe_v1.uspp.F.UPF.txt
     MD5 check sum: a056efeee980c13900f22a371efd63c1
     Pseudo is Ultrasoft + core correction, Zval =  4.0
     Generated by new atomic code, or converted to UPF format
     Using radial grid of  899 points,  6 beta functions with: 
                l(1) =   0
                l(2) =   0
                l(3) =   1
                l(4) =   1
                l(5) =   2
                l(6) =   2
     Q(r) pseudized with  8 coefficients,  rinner =    0.900   0.900   0.900
                                                       0.900   0.900

     atomic species   valence    mass     pseudopotential
        Si             4.00    28.08600     Si( 1.00)

     48 Sym. Ops., with inversion, found



   Cartesian axes

     site n.     atom                  positions (alat units)
         1           Si  tau(   1) = (   0.0000000   0.0000000   0.0000000  )
         2           Si  tau(   2) = (   0.2500000   0.2500000   0.2500000  )

     number of k points=   288

     Number of k-points >= 100: set verbosity='high' to print them.

     Dense  grid:     2733 G-vectors     FFT dimensions: (  20,  20,  20)

     Estimated max dynamical RAM per process >       0.32MB

     Estimated total allocated dynamical RAM >       1.29MB

     Check: negative/imaginary core charge=   -0.000005    0.000000

     The potential is recalculated from file :
     ./_ph0/silicon.10.25.save/charge-density.dat

     Starting wfc are    8 atomic wfcs

     Band Structure Calculation
     Davidson diagonalization with overlap

     ethr =  1.25E-10,  avg # of iterations = 11.5

     total cpu time spent up to now is        3.7 secs

     End of band structure calculation

     Number of k-points >= 100: set verbosity='high' to print the bands.

     highest occupied level (ev):     5.9444

     Writing output data file silicon.10.25.save

                                                                                

     bravais-lattice index     =            2
     lattice parameter (alat)  =      10.2500  a.u.
     unit-cell volume          =     269.2227 (a.u.)^3
     number of atoms/cell      =            2
     number of atomic types    =            1
     kinetic-energy cut-off    =      18.0000  Ry
     charge density cut-off    =      72.0000  Ry
     convergence threshold     =      1.0E-12
     beta                      =       0.7000
     number of iterations used =            4
     Exchange-correlation      = SLA  PW   PBE  PBE ( 1  4  3  4 0 0)


     celldm(1)=   10.25000  celldm(2)=    0.00000  celldm(3)=    0.00000
     celldm(4)=    0.00000  celldm(5)=    0.00000  celldm(6)=    0.00000

     crystal axes: (cart. coord. in units of alat)
               a(1) = ( -0.5000  0.0000  0.5000 )  
               a(2) = (  0.0000  0.5000  0.5000 )  
               a(3) = ( -0.5000  0.5000  0.0000 )  

     reciprocal axes: (cart. coord. in units 2 pi/alat)
               b(1) = ( -1.0000 -1.0000  1.0000 )  
               b(2) = (  1.0000  1.0000  1.0000 )  
               b(3) = ( -1.0000  1.0000 -1.0000 )  


     Atoms inside the unit cell: 

     Cartesian axes

     site n.  atom      mass           positions (alat units)
        1     Si  28.0860   tau(    1) = (    0.00000    0.00000    0.00000  )
        2     Si  28.0860   tau(    2) = (    0.25000    0.25000    0.25000  )

     Computing dynamical matrix for 
                    q = (   0.7500000  -0.2500000   0.7500000 )

      2 Sym.Ops. (no q -> -q+G )


     G cutoff =  191.6110  (    683 G-vectors)     FFT grid: ( 20, 20, 20)
     number of k points=   288

     PseudoPot. # 1 for Si read from file:
     /home/max/quantum_espresso/qe-6.1/pseudo/si_pbe_v1.uspp.F.UPF.txt
     MD5 check sum: a056efeee980c13900f22a371efd63c1
     Pseudo is Ultrasoft + core correction, Zval =  4.0
     Generated by new atomic code, or converted to UPF format
     Using radial grid of  899 points,  6 beta functions with: 
                l(1) =   0
                l(2) =   0
                l(3) =   1
                l(4) =   1
                l(5) =   2
                l(6) =   2
     Q(r) pseudized with  8 coefficients,  rinner =    0.900   0.900   0.900
                                                       0.900   0.900

     Mode symmetry, C_s (m)     point group:


     Atomic displacements:
     There are   6 irreducible representations

     Representation     1      1 modes -A'  To be done

     Representation     2      1 modes -A'  To be done

     Representation     3      1 modes -A'  To be done

     Representation     4      1 modes -A'  To be done

     Representation     5      1 modes -A''  To be done

     Representation     6      1 modes -A''  To be done



     Alpha used in Ewald sum =   0.7000
     PHONON       :    27.31s CPU        28.61s WALL



     Representation #  1 mode #   1

     Self-consistent Calculation

      iter #   1 total cpu time :    29.1 secs   av.it.:   5.3
      thresh= 1.000E-02 alpha_mix =  0.700 |ddv_scf|^2 =  6.241E-05

      iter #   2 total cpu time :    29.8 secs   av.it.:   8.9
      thresh= 7.900E-04 alpha_mix =  0.700 |ddv_scf|^2 =  1.614E-04

      iter #   3 total cpu time :    30.3 secs   av.it.:   7.5
      thresh= 1.270E-03 alpha_mix =  0.700 |ddv_scf|^2 =  1.150E-06

      iter #   4 total cpu time :    31.0 secs   av.it.:   8.3
      thresh= 1.073E-04 alpha_mix =  0.700 |ddv_scf|^2 =  5.331E-08

      iter #   5 total cpu time :    31.6 secs   av.it.:   8.3
      thresh= 2.309E-05 alpha_mix =  0.700 |ddv_scf|^2 =  7.098E-09

      iter #   6 total cpu time :    32.2 secs   av.it.:   8.5
      thresh= 8.425E-06 alpha_mix =  0.700 |ddv_scf|^2 =  7.203E-11

      iter #   7 total cpu time :    32.9 secs   av.it.:   8.7
      thresh= 8.487E-07 alpha_mix =  0.700 |ddv_scf|^2 =  2.500E-12

      iter #   8 total cpu time :    33.5 secs   av.it.:   8.6
      thresh= 1.581E-07 alpha_mix =  0.700 |ddv_scf|^2 =  1.867E-13

     End of self-consistent calculation

     Convergence has been achieved 


     Representation #  2 mode #   2

     Self-consistent Calculation

      iter #   1 total cpu time :    34.0 secs   av.it.:   5.4
      thresh= 1.000E-02 alpha_mix =  0.700 |ddv_scf|^2 =  1.117E-04

      iter #   2 total cpu time :    34.7 secs   av.it.:   8.7
      thresh= 1.057E-03 alpha_mix =  0.700 |ddv_scf|^2 =  3.158E-04

      iter #   3 total cpu time :    35.2 secs   av.it.:   7.4
      thresh= 1.777E-03 alpha_mix =  0.700 |ddv_scf|^2 =  7.694E-07

      iter #   4 total cpu time :    35.9 secs   av.it.:   8.6
      thresh= 8.771E-05 alpha_mix =  0.700 |ddv_scf|^2 =  5.309E-08

      iter #   5 total cpu time :    36.5 secs   av.it.:   8.2
      thresh= 2.304E-05 alpha_mix =  0.700 |ddv_scf|^2 =  9.664E-09

      iter #   6 total cpu time :    37.1 secs   av.it.:   8.4
      thresh= 9.831E-06 alpha_mix =  0.700 |ddv_scf|^2 =  7.504E-11

      iter #   7 total cpu time :    37.8 secs   av.it.:   8.7
      thresh= 8.662E-07 alpha_mix =  0.700 |ddv_scf|^2 =  2.179E-12

      iter #   8 total cpu time :    38.4 secs   av.it.:   8.7
      thresh= 1.476E-07 alpha_mix =  0.700 |ddv_scf|^2 =  3.118E-13

     End of self-consistent calculation

     Convergence has been achieved 


     Representation #  3 mode #   3

     Self-consistent Calculation

      iter #   1 total cpu time :    38.9 secs   av.it.:   5.4
      thresh= 1.000E-02 alpha_mix =  0.700 |ddv_scf|^2 =  8.772E-05

      iter #   2 total cpu time :    39.6 secs   av.it.:   8.7
      thresh= 9.366E-04 alpha_mix =  0.700 |ddv_scf|^2 =  2.325E-04

      iter #   3 total cpu time :    40.1 secs   av.it.:   7.4
      thresh= 1.525E-03 alpha_mix =  0.700 |ddv_scf|^2 =  1.321E-06

      iter #   4 total cpu time :    40.8 secs   av.it.:   8.2
      thresh= 1.149E-04 alpha_mix =  0.700 |ddv_scf|^2 =  5.423E-08

      iter #   5 total cpu time :    41.4 secs   av.it.:   8.4
      thresh= 2.329E-05 alpha_mix =  0.700 |ddv_scf|^2 =  9.739E-09

      iter #   6 total cpu time :    42.0 secs   av.it.:   8.4
      thresh= 9.869E-06 alpha_mix =  0.700 |ddv_scf|^2 =  4.501E-11

      iter #   7 total cpu time :    42.6 secs   av.it.:   8.7
      thresh= 6.709E-07 alpha_mix =  0.700 |ddv_scf|^2 =  1.548E-12

      iter #   8 total cpu time :    43.3 secs   av.it.:   8.8
      thresh= 1.244E-07 alpha_mix =  0.700 |ddv_scf|^2 =  2.561E-13

     End of self-consistent calculation

     Convergence has been achieved 


     Representation #  4 mode #   4

     Self-consistent Calculation

      iter #   1 total cpu time :    43.8 secs   av.it.:   5.2
      thresh= 1.000E-02 alpha_mix =  0.700 |ddv_scf|^2 =  3.844E-05

      iter #   2 total cpu time :    44.5 secs   av.it.:   8.9
[...]
        k(   59) = (  -0.8750000   0.1250000  -0.1250000), wk =   0.0625000
        k(   60) = (  -1.3750000  -0.8750000  -0.1250000), wk =   0.0000000
        k(   61) = (  -1.1250000   0.3750000  -0.3750000), wk =   0.0625000
        k(   62) = (  -1.6250000  -0.6250000  -0.3750000), wk =   0.0000000
        k(   63) = (  -0.3750000   0.3750000   1.1250000), wk =   0.0625000
        k(   64) = (  -0.8750000  -0.6250000   1.1250000), wk =   0.0000000

     Dense  grid:     2733 G-vectors     FFT dimensions: (  20,  20,  20)

     Estimated max dynamical RAM per process >       0.32MB

     Estimated total allocated dynamical RAM >       1.29MB

     Check: negative/imaginary core charge=   -0.000005    0.000000

     The potential is recalculated from file :
     ./_ph0/silicon.10.25.save/charge-density.dat

     Starting wfc are    8 atomic wfcs

     Band Structure Calculation
     Davidson diagonalization with overlap

     ethr =  1.25E-10,  avg # of iterations = 11.5

     total cpu time spent up to now is        5.8 secs

     End of band structure calculation

          k =-0.1250 0.1250 0.1250 (   335 PWs)   bands (ev):

    -5.5418   4.6356   5.9444   5.9444

          k =-0.6250-0.8750 0.1250 (   352 PWs)   bands (ev):

    -2.2731  -0.7096   2.1711   3.2705

          k =-0.3750 0.3750-0.1250 (   345 PWs)   bands (ev):

    -4.4944   1.6026   3.9217   5.4567

          k =-0.8750-0.6250-0.1250 (   352 PWs)   bands (ev):

    -2.2731  -0.7096   2.1711   3.2705

          k = 0.3750-0.3750 0.6250 (   348 PWs)   bands (ev):

    -3.3254  -0.5224   3.9527   4.6673

          k =-0.1250-1.3750 0.6250 (   355 PWs)   bands (ev):

    -2.8202  -0.4169   2.2388   4.3424

          k = 0.1250-0.1250 0.3750 (   343 PWs)   bands (ev):

    -5.0038   3.0066   4.9121   4.9907

          k =-0.3750-1.1250 0.3750 (   355 PWs)   bands (ev):

    -2.8202  -0.4169   2.2388   4.3424

          k =-0.1250 0.6250 0.1250 (   340 PWs)   bands (ev):

    -3.9513   1.2866   3.5608   4.0206

          k =-0.6250-0.3750 0.1250 (   348 PWs)   bands (ev):

    -3.5254   0.3847   2.9109   4.3012

          k = 0.6250-0.1250 0.8750 (   352 PWs)   bands (ev):

    -2.2731  -0.7096   2.1711   3.2705

          k = 0.1250-1.1250 0.8750 (   348 PWs)   bands (ev):

    -2.4492  -0.6069   2.7944   3.5447

          k = 0.3750 0.1250 0.6250 (   348 PWs)   bands (ev):

    -3.5254   0.3847   2.9109   4.3012

          k =-0.1250-0.8750 0.6250 (   352 PWs)   bands (ev):

    -2.2731  -0.7096   2.1711   3.2705

          k =-0.1250-0.8750 0.1250 (   348 PWs)   bands (ev):

    -2.4492  -0.6069   2.7944   3.5447

          k =-0.6250-1.8750 0.1250 (   340 PWs)   bands (ev):

    -3.9513   1.2866   3.5608   4.0206

          k =-0.3750 0.3750 0.3750 (   353 PWs)   bands (ev):

    -4.0514   0.2795   5.1432   5.1432

          k =-0.8750-0.6250 0.3750 (   348 PWs)   bands (ev):

    -3.5254   0.3847   2.9109   4.3012

          k = 0.3750-0.3750 1.1250 (   355 PWs)   bands (ev):

    -2.8202  -0.4169   2.2388   4.3424

          k =-0.1250-1.3750 1.1250 (   352 PWs)   bands (ev):

    -2.2731  -0.7096   2.1711   3.2705

          k = 0.1250-0.3750 0.3750 (   345 PWs)   bands (ev):

    -4.4944   1.6026   3.9217   5.4567

          k =-0.3750-1.3750 0.3750 (   348 PWs)   bands (ev):

    -3.3254  -0.5224   3.9527   4.6673

          k = 0.3750-0.3750-0.1250 (   345 PWs)   bands (ev):

    -4.4944   1.6026   3.9217   5.4567

          k =-0.1250-1.3750-0.1250 (   340 PWs)   bands (ev):

    -3.9513   1.2866   3.5608   4.0206

          k =-0.6250 0.3750-0.3750 (   348 PWs)   bands (ev):

    -3.3254  -0.5224   3.9527   4.6673

          k =-1.1250-0.6250-0.3750 (   348 PWs)   bands (ev):

    -3.5254   0.3847   2.9109   4.3012

          k =-0.3750 0.3750 0.6250 (   348 PWs)   bands (ev):

    -3.3254  -0.5224   3.9527   4.6673

          k =-0.8750-0.6250 0.6250 (   345 PWs)   bands (ev):

    -4.4944   1.6026   3.9217   5.4567

          k =-0.3750 0.1250-0.1250 (   343 PWs)   bands (ev):

    -5.0038   3.0066   4.9121   4.9907

          k =-0.8750-0.8750-0.1250 (   348 PWs)   bands (ev):

    -2.4492  -0.6069   2.7944   3.5447

          k =-0.1250 0.1250 0.3750 (   343 PWs)   bands (ev):

    -5.0038   3.0066   4.9121   4.9907

          k =-0.6250-0.8750 0.3750 (   348 PWs)   bands (ev):

    -3.5254   0.3847   2.9109   4.3012

          k = 0.1250 0.6250-0.1250 (   340 PWs)   bands (ev):

    -3.9513   1.2866   3.5608   4.0206

          k =-0.3750-0.3750-0.1250 (   345 PWs)   bands (ev):

    -4.4944   1.6026   3.9217   5.4567

          k = 0.6250 0.1250-0.1250 (   340 PWs)   bands (ev):

    -3.9513   1.2866   3.5608   4.0206

          k = 0.1250-0.8750-0.1250 (   348 PWs)   bands (ev):

    -2.4492  -0.6069   2.7944   3.5447

          k =-0.8750 0.1250-0.6250 (   352 PWs)   bands (ev):

    -2.2731  -0.7096   2.1711   3.2705

          k =-1.3750-0.8750-0.6250 (   345 PWs)   bands (ev):

    -4.4944   1.6026   3.9217   5.4567

          k = 0.8750-0.1250 0.6250 (   352 PWs)   bands (ev):

    -2.2731  -0.7096   2.1711   3.2705

          k = 0.3750-1.1250 0.6250 (   348 PWs)   bands (ev):

    -3.5254   0.3847   2.9109   4.3012

          k =-0.6250 0.1250 0.8750 (   352 PWs)   bands (ev):

    -2.2731  -0.7096   2.1711   3.2705

          k =-1.1250-0.8750 0.8750 (   335 PWs)   bands (ev):

    -5.5418   4.6356   5.9444   5.9444

          k =-0.1250 0.8750 0.6250 (   352 PWs)   bands (ev):

    -2.2731  -0.7096   2.1711   3.2705

          k =-0.6250-0.1250 0.6250 (   355 PWs)   bands (ev):

    -2.8202  -0.4169   2.2388   4.3424

          k = 0.1250 0.8750-0.6250 (   352 PWs)   bands (ev):

    -2.2731  -0.7096   2.1711   3.2705

          k =-0.3750-0.1250-0.6250 (   348 PWs)   bands (ev):

    -3.5254   0.3847   2.9109   4.3012

          k =-0.6250-0.1250-0.3750 (   348 PWs)   bands (ev):

    -3.5254   0.3847   2.9109   4.3012

          k =-1.1250-1.1250-0.3750 (   340 PWs)   bands (ev):

    -3.9513   1.2866   3.5608   4.0206

          k = 0.6250 0.1250 0.3750 (   348 PWs)   bands (ev):

    -3.5254   0.3847   2.9109   4.3012

          k = 0.1250-0.8750 0.3750 (   352 PWs)   bands (ev):

    -2.2731  -0.7096   2.1711   3.2705

          k =-0.3750-0.1250 0.6250 (   348 PWs)   bands (ev):

    -3.5254   0.3847   2.9109   4.3012

          k =-0.8750-1.1250 0.6250 (   343 PWs)   bands (ev):

    -5.0038   3.0066   4.9121   4.9907

          k = 0.1250 0.6250 0.3750 (   348 PWs)   bands (ev):

    -3.5254   0.3847   2.9109   4.3012

          k =-0.3750-0.3750 0.3750 (   353 PWs)   bands (ev):

    -4.0514   0.2795   5.1432   5.1432

          k =-0.1250 0.6250-0.3750 (   348 PWs)   bands (ev):

    -3.5254   0.3847   2.9109   4.3012

          k =-0.6250-0.3750-0.3750 (   348 PWs)   bands (ev):

    -3.3254  -0.5224   3.9527   4.6673

          k = 0.1250-0.8750-0.1250 (   348 PWs)   bands (ev):

    -2.4492  -0.6069   2.7944   3.5447

          k =-0.3750-1.8750-0.1250 (   343 PWs)   bands (ev):

    -5.0038   3.0066   4.9121   4.9907

          k =-0.8750 0.1250-0.1250 (   348 PWs)   bands (ev):

    -2.4492  -0.6069   2.7944   3.5447

          k =-1.3750-0.8750-0.1250 (   352 PWs)   bands (ev):

    -2.2731  -0.7096   2.1711   3.2705

          k =-1.1250 0.3750-0.3750 (   355 PWs)   bands (ev):

    -2.8202  -0.4169   2.2388   4.3424

          k =-1.6250-0.6250-0.3750 (   348 PWs)   bands (ev):

    -3.3254  -0.5224   3.9527   4.6673

          k =-0.3750 0.3750 1.1250 (   355 PWs)   bands (ev):

    -2.8202  -0.4169   2.2388   4.3424

          k =-0.8750-0.6250 1.1250 (   343 PWs)   bands (ev):

    -5.0038   3.0066   4.9121   4.9907

     highest occupied level (ev):     5.9444

     Writing output data file silicon.10.25.save

                                                                                

     bravais-lattice index     =            2
     lattice parameter (alat)  =      10.2500  a.u.
     unit-cell volume          =     269.2227 (a.u.)^3
     number of atoms/cell      =            2
     number of atomic types    =            1
     kinetic-energy cut-off    =      18.0000  Ry
     charge density cut-off    =      72.0000  Ry
     convergence threshold     =      1.0E-12
     beta                      =       0.7000
     number of iterations used =            4
     Exchange-correlation      = SLA  PW   PBE  PBE ( 1  4  3  4 0 0)


     celldm(1)=   10.25000  celldm(2)=    0.00000  celldm(3)=    0.00000
     celldm(4)=    0.00000  celldm(5)=    0.00000  celldm(6)=    0.00000

     crystal axes: (cart. coord. in units of alat)
               a(1) = ( -0.5000  0.0000  0.5000 )  
               a(2) = (  0.0000  0.5000  0.5000 )  
               a(3) = ( -0.5000  0.5000  0.0000 )  

     reciprocal axes: (cart. coord. in units 2 pi/alat)
               b(1) = ( -1.0000 -1.0000  1.0000 )  
               b(2) = (  1.0000  1.0000  1.0000 )  
               b(3) = ( -1.0000  1.0000 -1.0000 )  


     Atoms inside the unit cell: 

     Cartesian axes

     site n.  atom      mass           positions (alat units)
        1     Si  28.0860   tau(    1) = (    0.00000    0.00000    0.00000  )
        2     Si  28.0860   tau(    2) = (    0.25000    0.25000    0.25000  )

     Computing dynamical matrix for 
                    q = (  -0.5000000  -1.0000000   0.0000000 )

      8 Sym.Ops. (no q -> -q+G )


     G cutoff =  191.6110  (    683 G-vectors)     FFT grid: ( 20, 20, 20)
     number of k points=    64

     PseudoPot. # 1 for Si read from file:
     /home/max/quantum_espresso/qe-6.1/pseudo/si_pbe_v1.uspp.F.UPF.txt
     MD5 check sum: a056efeee980c13900f22a371efd63c1
     Pseudo is Ultrasoft + core correction, Zval =  4.0
     Generated by new atomic code, or converted to UPF format
     Using radial grid of  899 points,  6 beta functions with: 
                l(1) =   0
                l(2) =   0
                l(3) =   1
                l(4) =   1
                l(5) =   2
                l(6) =   2
     Q(r) pseudized with  8 coefficients,  rinner =    0.900   0.900   0.900
                                                       0.900   0.900


     Atomic displacements:
     There are   3 irreducible representations

     Representation     1      2 modes -  To be done

     Representation     2      2 modes -  To be done

     Representation     3      2 modes -  To be done



     Alpha used in Ewald sum =   0.7000
     PHONON       :  1m 8.26s CPU     1m11.42s WALL



     Representation #  1 modes #   1  2

     Self-consistent Calculation

      iter #   1 total cpu time :    71.7 secs   av.it.:   5.3
      thresh= 1.000E-02 alpha_mix =  0.700 |ddv_scf|^2 =  6.506E-06

      iter #   2 total cpu time :    72.0 secs   av.it.:   9.9
      thresh= 2.551E-04 alpha_mix =  0.700 |ddv_scf|^2 =  3.548E-06

      iter #   3 total cpu time :    72.3 secs   av.it.:   9.2
      thresh= 1.884E-04 alpha_mix =  0.700 |ddv_scf|^2 =  8.278E-09

      iter #   4 total cpu time :    72.6 secs   av.it.:   9.1
      thresh= 9.098E-06 alpha_mix =  0.700 |ddv_scf|^2 =  1.962E-11

      iter #   5 total cpu time :    72.9 secs   av.it.:   9.1
      thresh= 4.430E-07 alpha_mix =  0.700 |ddv_scf|^2 =  5.464E-13

     End of self-consistent calculation

     Convergence has been achieved 


     Representation #  2 modes #   3  4

     Self-consistent Calculation

      iter #   1 total cpu time :    73.2 secs   av.it.:   5.3
      thresh= 1.000E-02 alpha_mix =  0.700 |ddv_scf|^2 =  9.966E-06

      iter #   2 total cpu time :    73.5 secs   av.it.:   9.9
      thresh= 3.157E-04 alpha_mix =  0.700 |ddv_scf|^2 =  1.295E-05

      iter #   3 total cpu time :    73.8 secs   av.it.:   9.1
      thresh= 3.599E-04 alpha_mix =  0.700 |ddv_scf|^2 =  9.643E-09

      iter #   4 total cpu time :    74.1 secs   av.it.:   8.9
      thresh= 9.820E-06 alpha_mix =  0.700 |ddv_scf|^2 =  6.880E-11

      iter #   5 total cpu time :    74.4 secs   av.it.:   9.4
      thresh= 8.294E-07 alpha_mix =  0.700 |ddv_scf|^2 =  1.574E-12

      iter #   6 total cpu time :    74.7 secs   av.it.:   9.1
      thresh= 1.255E-07 alpha_mix =  0.700 |ddv_scf|^2 =  1.362E-14

     End of self-consistent calculation

     Convergence has been achieved 


     Representation #  3 modes #   5  6

     Self-consistent Calculation

      iter #   1 total cpu time :    75.0 secs   av.it.:   5.1
      thresh= 1.000E-02 alpha_mix =  0.700 |ddv_scf|^2 =  2.712E-06

      iter #   2 total cpu time :    75.3 secs   av.it.:   9.7
      thresh= 1.647E-04 alpha_mix =  0.700 |ddv_scf|^2 =  1.493E-06

      iter #   3 total cpu time :    75.6 secs   av.it.:   9.1
      thresh= 1.222E-04 alpha_mix =  0.700 |ddv_scf|^2 =  7.986E-09

      iter #   4 total cpu time :    75.9 secs   av.it.:   8.8
      thresh= 8.937E-06 alpha_mix =  0.700 |ddv_scf|^2 =  4.291E-11

      iter #   5 total cpu time :    76.2 secs   av.it.:   9.1
      thresh= 6.551E-07 alpha_mix =  0.700 |ddv_scf|^2 =  6.966E-13

     End of self-consistent calculation

     Convergence has been achieved 

     Number of q in the star =    6
     List of q in the star:
          1  -0.500000000  -1.000000000   0.000000000
          2   0.000000000   1.000000000   0.500000000
          3   0.000000000  -1.000000000  -0.500000000
          4   0.500000000   1.000000000   0.000000000
          5  -1.000000000  -0.500000000   0.000000000
          6   0.000000000  -0.500000000  -1.000000000

     Diagonalizing the dynamical matrix

     q = (   -0.500000000  -1.000000000   0.000000000 ) 

 **************************************************************************
     freq (    1) =       7.004115 [THz] =     233.632136 [cm-1]
     freq (    2) =       7.004115 [THz] =     233.632136 [cm-1]
     freq (    3) =      11.075558 [THz] =     369.440852 [cm-1]
     freq (    4) =      11.075558 [THz] =     369.440852 [cm-1]
     freq (    5) =      14.261724 [THz] =     475.719900 [cm-1]
     freq (    6) =      14.261724 [THz] =     475.719900 [cm-1]
 **************************************************************************

     init_run     :      0.51s CPU      0.53s WALL (       7 calls)
     electrons    :      4.38s CPU      4.58s WALL (       7 calls)

     Called by init_run:
     wfcinit      :      0.00s CPU      0.00s WALL (       7 calls)
     potinit      :      0.02s CPU      0.02s WALL (       7 calls)

     Called by electrons:
     c_bands      :      4.38s CPU      4.57s WALL (       7 calls)
     v_of_rho     :      0.01s CPU      0.01s WALL (       8 calls)
     newd         :      0.02s CPU      0.03s WALL (       8 calls)

     Called by c_bands:
     init_us_2    :      0.64s CPU      0.67s WALL (   17588 calls)
     cegterg      :      3.69s CPU      3.84s WALL (     796 calls)

     Called by sum_band:

     Called by *egterg:
     h_psi        :     40.56s CPU     42.50s WALL (  151964 calls)
     s_psi        :      5.58s CPU      5.86s WALL (  308726 calls)
     g_psi        :      0.03s CPU      0.03s WALL (    9190 calls)
     cdiaghg      :      0.42s CPU      0.44s WALL (    9986 calls)

     Called by h_psi:
     h_psi:pot    :     40.38s CPU     42.31s WALL (  151964 calls)
     h_psi:calbec :      3.85s CPU      4.03s WALL (  151964 calls)
     vloc_psi     :     33.53s CPU     35.14s WALL (  151964 calls)
     add_vuspsi   :      2.79s CPU      2.93s WALL (  151964 calls)

     General routines
     calbec       :      8.51s CPU      8.92s WALL (  345098 calls)
     fft          :      0.27s CPU      0.28s WALL (    5239 calls)
     ffts         :      0.12s CPU      0.13s WALL (    2748 calls)
     fftw         :     38.74s CPU     40.58s WALL ( 1376688 calls)
     davcio       :      0.31s CPU      0.33s WALL (   79045 calls)

     Parallel routines
     fft_scatter  :      6.83s CPU      7.19s WALL ( 1384675 calls)

     PHONON       :  1m12.88s CPU     1m16.23s WALL

     INITIALIZATION: 
     phq_setup    :      0.05s CPU      0.05s WALL (       8 calls)
     phq_init     :      1.88s CPU      1.90s WALL (       8 calls)

     phq_init     :      1.88s CPU      1.90s WALL (       8 calls)
     set_drhoc    :      0.27s CPU      0.28s WALL (      24 calls)
     init_vloc    :      0.01s CPU      0.01s WALL (       8 calls)
     init_us_1    :      0.47s CPU      0.48s WALL (       8 calls)
     newd         :      0.02s CPU      0.03s WALL (       8 calls)
     dvanqq       :      0.22s CPU      0.22s WALL (       8 calls)
     drho         :      0.97s CPU      0.98s WALL (       8 calls)

     DYNAMICAL MATRIX:
     dynmat0      :      0.47s CPU      0.47s WALL (       8 calls)
     phqscf       :     63.69s CPU     66.71s WALL (       8 calls)
     dynmatrix    :      0.01s CPU      0.02s WALL (       8 calls)

     phqscf       :     63.69s CPU     66.71s WALL (       8 calls)
     solve_linter :     63.03s CPU     66.02s WALL (      32 calls)
     drhodv       :      0.47s CPU      0.49s WALL (      32 calls)

     dynmat0      :      0.47s CPU      0.47s WALL (       8 calls)
     dynmat_us    :      0.26s CPU      0.26s WALL (       8 calls)
     d2ionq       :      0.01s CPU      0.01s WALL (       8 calls)
     dynmatcc     :      0.20s CPU      0.20s WALL (       8 calls)

     dynmat_us    :      0.26s CPU      0.26s WALL (       8 calls)
     addusdynmat  :      0.00s CPU      0.00s WALL (       8 calls)

     phqscf       :     63.69s CPU     66.71s WALL (       8 calls)
     solve_linter :     63.03s CPU     66.02s WALL (      32 calls)

     solve_linter :     63.03s CPU     66.02s WALL (      32 calls)
     dvqpsi_us    :      1.57s CPU      1.64s WALL (    2508 calls)
     ortho        :      0.89s CPU      0.93s WALL (   15550 calls)
     cgsolve      :     49.31s CPU     51.68s WALL (   15550 calls)
     incdrhoscf   :      4.34s CPU      4.55s WALL (   15550 calls)
     addusddens   :      1.05s CPU      1.06s WALL (     228 calls)
     vpsifft      :      3.18s CPU      3.33s WALL (   12922 calls)
     dv_of_drho   :      0.19s CPU      0.20s WALL (     295 calls)
     mix_pot      :      0.05s CPU      0.06s WALL (     201 calls)
     psymdvscf    :      0.79s CPU      0.80s WALL (     196 calls)
     newdq        :      1.11s CPU      1.16s WALL (     201 calls)
     adddvscf     :      0.45s CPU      0.47s WALL (   13042 calls)
     drhodvus     :      0.00s CPU      0.00s WALL (      32 calls)

     dvqpsi_us    :      1.57s CPU      1.64s WALL (    2508 calls)
     dvqpsi_us_on :      0.81s CPU      0.84s WALL (    2508 calls)

     cgsolve      :     49.31s CPU     51.68s WALL (   15550 calls)
     ch_psi       :     47.89s CPU     50.19s WALL (  141182 calls)

     ch_psi       :     47.89s CPU     50.19s WALL (  141182 calls)
     h_psi        :     40.56s CPU     42.50s WALL (  151964 calls)
     last         :      7.44s CPU      7.80s WALL (  141182 calls)

     h_psi        :     40.56s CPU     42.50s WALL (  151964 calls)
     add_vuspsi   :      2.79s CPU      2.93s WALL (  151964 calls)

     incdrhoscf   :      4.34s CPU      4.55s WALL (   15550 calls)
     addusdbec    :      0.56s CPU      0.59s WALL (   17998 calls)

     drhodvus     :      0.00s CPU      0.00s WALL (      32 calls)

      General routines
     calbec       :      8.51s CPU      8.92s WALL (  345098 calls)
     fft          :      0.27s CPU      0.28s WALL (    5239 calls)
     ffts         :      0.12s CPU      0.13s WALL (    2748 calls)
     fftw         :     38.74s CPU     40.58s WALL ( 1376688 calls)
     davcio       :      0.31s CPU      0.33s WALL (   79045 calls)
     write_rec    :      0.20s CPU      0.21s WALL (     233 calls)


     PHONON       :  1m12.88s CPU     1m16.23s WALL


   This run was terminated on:   1:12:36   9Nov2017            

=------------------------------------------------------------------------------=
   JOB DONE.
=------------------------------------------------------------------------------=
