
     Program PHONON v.6.1 (svn rev. 13369) starts on  9Nov2017 at 16: 5:10 

     This program is part of the open-source Quantum ESPRESSO suite
     for quantum simulation of materials; please cite
         "P. Giannozzi et al., J. Phys.:Condens. Matter 21 395502 (2009);
          URL http://www.quantum-espresso.org", 
     in publications or presentations arising from this work. More details at
     http://www.quantum-espresso.org/quote

     Parallel version (MPI), running on     4 processors
     R & G space division:  proc/nbgrp/npool/nimage =       4

     Reading data from directory:
     ./silicon.10.3408.save

   Info: using nr1, nr2, nr3 values from input

   Info: using nr1, nr2, nr3 values from input

     IMPORTANT: XC functional enforced from input :
     Exchange-correlation      = SLA  PW   PBE  PBE ( 1  4  3  4 0 0)
     Any further DFT definition will be discarded
     Please, verify this is what you really want


     Parallelization info
     --------------------
     sticks:   dense  smooth     PW     G-vecs:    dense   smooth      PW
     Min          64      64     22                  709      709     140
     Max          67      67     23                  710      710     141
     Sum         265     265     91                 2837     2837     561


     Check: negative/imaginary core charge=   -0.000006    0.000000


     Dynamical matrices for ( 4, 4, 4)  uniform grid of q-points
     (   8q-points):
       N         xq(1)         xq(2)         xq(3) 
       1   0.000000000   0.000000000   0.000000000
       2  -0.250000000   0.250000000  -0.250000000
       3   0.500000000  -0.500000000   0.500000000
       4   0.000000000   0.500000000   0.000000000
       5   0.750000000  -0.250000000   0.750000000
       6   0.500000000   0.000000000   0.500000000
       7   0.000000000  -1.000000000   0.000000000
       8  -0.500000000  -1.000000000   0.000000000

     Calculation of q =    0.0000000   0.0000000   0.0000000

                                                                                

     bravais-lattice index     =            2
     lattice parameter (alat)  =      10.3408  a.u.
     unit-cell volume          =     276.4410 (a.u.)^3
     number of atoms/cell      =            2
     number of atomic types    =            1
     kinetic-energy cut-off    =      18.0000  Ry
     charge density cut-off    =      72.0000  Ry
     convergence threshold     =      1.0E-12
     beta                      =       0.7000
     number of iterations used =            4
     Exchange-correlation      = SLA  PW   PBE  PBE ( 1  4  3  4 0 0)


     celldm(1)=   10.34080  celldm(2)=    0.00000  celldm(3)=    0.00000
     celldm(4)=    0.00000  celldm(5)=    0.00000  celldm(6)=    0.00000

     crystal axes: (cart. coord. in units of alat)
               a(1) = ( -0.5000  0.0000  0.5000 )  
               a(2) = (  0.0000  0.5000  0.5000 )  
               a(3) = ( -0.5000  0.5000  0.0000 )  

     reciprocal axes: (cart. coord. in units 2 pi/alat)
               b(1) = ( -1.0000 -1.0000  1.0000 )  
               b(2) = (  1.0000  1.0000  1.0000 )  
               b(3) = ( -1.0000  1.0000 -1.0000 )  


     Atoms inside the unit cell: 

     Cartesian axes

     site n.  atom      mass           positions (alat units)
        1     Si  28.0860   tau(    1) = (    0.00000    0.00000    0.00000  )
        2     Si  28.0860   tau(    2) = (    0.25000    0.25000    0.25000  )

     Computing dynamical matrix for 
                    q = (   0.0000000   0.0000000   0.0000000 )

     49 Sym.Ops. (with q -> -q+G )


     G cutoff =  195.0208  (    710 G-vectors)     FFT grid: ( 20, 20, 20)
     number of k points=    10

     PseudoPot. # 1 for Si read from file:
     /home/max/quantum_espresso/qe-6.1/pseudo/si_pbe_v1.uspp.F.UPF.txt
     MD5 check sum: a056efeee980c13900f22a371efd63c1
     Pseudo is Ultrasoft + core correction, Zval =  4.0
     Generated by new atomic code, or converted to UPF format
     Using radial grid of  899 points,  6 beta functions with: 
                l(1) =   0
                l(2) =   0
                l(3) =   1
                l(4) =   1
                l(5) =   2
                l(6) =   2
     Q(r) pseudized with  8 coefficients,  rinner =    0.900   0.900   0.900
                                                       0.900   0.900

     Mode symmetry, O_h (m-3m)  point group:


     Electric field:
     Dielectric constant
     Born effective charges in two ways 


     Atomic displacements:
     There are   2 irreducible representations

     Representation     1      3 modes -T_2g G_25' G_5+  To be done

     Representation     2      3 modes -T_1u G_15  G_4-  To be done



     Alpha used in Ewald sum =   0.7000
     PHONON       :     0.41s CPU         0.41s WALL


     Electric Fields Calculation

      iter #   1 total cpu time :     0.8 secs   av.it.:   5.6
      thresh= 1.000E-02 alpha_mix =  0.700 |ddv_scf|^2 =  9.343E-07

      iter #   2 total cpu time :     1.0 secs   av.it.:   9.9
      thresh= 9.666E-05 alpha_mix =  0.700 |ddv_scf|^2 =  5.948E-08

      iter #   3 total cpu time :     1.1 secs   av.it.:   9.8
      thresh= 2.439E-05 alpha_mix =  0.700 |ddv_scf|^2 =  4.675E-09

      iter #   4 total cpu time :     1.3 secs   av.it.:   8.9
      thresh= 6.838E-06 alpha_mix =  0.700 |ddv_scf|^2 =  2.808E-11

      iter #   5 total cpu time :     1.5 secs   av.it.:   9.1
      thresh= 5.299E-07 alpha_mix =  0.700 |ddv_scf|^2 =  1.458E-14

     End of electric fields calculation

          Dielectric constant in cartesian axis 

          (      13.883864919       0.000000000       0.000000000 )
          (       0.000000000      13.883864919       0.000000000 )
          (      -0.000000000       0.000000000      13.883864919 )

          Effective charges (d Force / dE) in cartesian axis

           atom      1   Si 
      Ex  (       -0.03565       -0.00000       -0.00000 )
      Ey  (       -0.00000       -0.03565        0.00000 )
      Ez  (       -0.00000        0.00000       -0.03565 )
           atom      2   Si 
      Ex  (       -0.03565       -0.00000       -0.00000 )
      Ey  (       -0.00000       -0.03565        0.00000 )
      Ez  (       -0.00000        0.00000       -0.03565 )


     Representation #  1 modes #   1  2  3

     Self-consistent Calculation

      iter #   1 total cpu time :     2.0 secs   av.it.:   5.0
      thresh= 1.000E-02 alpha_mix =  0.700 |ddv_scf|^2 =  2.232E-07

      iter #   2 total cpu time :     2.2 secs   av.it.:   9.9
      thresh= 4.725E-05 alpha_mix =  0.700 |ddv_scf|^2 =  1.381E-08

      iter #   3 total cpu time :     2.4 secs   av.it.:   9.3
      thresh= 1.175E-05 alpha_mix =  0.700 |ddv_scf|^2 =  8.578E-10

      iter #   4 total cpu time :     2.6 secs   av.it.:   9.0
      thresh= 2.929E-06 alpha_mix =  0.700 |ddv_scf|^2 =  1.896E-12

      iter #   5 total cpu time :     2.7 secs   av.it.:   9.5
      thresh= 1.377E-07 alpha_mix =  0.700 |ddv_scf|^2 =  1.333E-14

     End of self-consistent calculation

     Convergence has been achieved 


     Representation #  2 modes #   4  5  6

     Self-consistent Calculation

      iter #   1 total cpu time :     3.0 secs   av.it.:   5.0
      thresh= 1.000E-02 alpha_mix =  0.700 |ddv_scf|^2 =  1.848E-07

      iter #   2 total cpu time :     3.2 secs   av.it.:   9.6
      thresh= 4.299E-05 alpha_mix =  0.700 |ddv_scf|^2 =  1.498E-08

      iter #   3 total cpu time :     3.3 secs   av.it.:   9.3
      thresh= 1.224E-05 alpha_mix =  0.700 |ddv_scf|^2 =  9.111E-10

      iter #   4 total cpu time :     3.5 secs   av.it.:   9.5
      thresh= 3.018E-06 alpha_mix =  0.700 |ddv_scf|^2 =  5.312E-12

      iter #   5 total cpu time :     3.8 secs   av.it.:   9.0
      thresh= 2.305E-07 alpha_mix =  0.700 |ddv_scf|^2 =  4.653E-15

     End of self-consistent calculation

     Convergence has been achieved 

     Number of q in the star =    1
     List of q in the star:
          1   0.000000000   0.000000000   0.000000000

          Dielectric constant in cartesian axis 

          (      13.883864919       0.000000000       0.000000000 )
          (       0.000000000      13.883864919       0.000000000 )
          (      -0.000000000       0.000000000      13.883864919 )

          Effective charges (d Force / dE) in cartesian axis

           atom      1   Si 
      Ex  (       -0.03565       -0.00000       -0.00000 )
      Ey  (       -0.00000       -0.03565        0.00000 )
      Ez  (       -0.00000        0.00000       -0.03565 )
           atom      2   Si 
      Ex  (       -0.03565       -0.00000       -0.00000 )
      Ey  (       -0.00000       -0.03565        0.00000 )
      Ez  (       -0.00000        0.00000       -0.03565 )

          Effective charges (d P / du) in cartesian axis 

           atom      1   Si 
      Px  (       -0.07507        0.00000        0.00000 )
      Py  (        0.00000       -0.07507        0.00000 )
      Pz  (        0.00000        0.00000       -0.07507 )
           atom      2   Si 
      Px  (       -0.07507       -0.00000       -0.00000 )
      Py  (       -0.00000       -0.07507        0.00000 )
      Pz  (       -0.00000        0.00000       -0.07507 )

     Diagonalizing the dynamical matrix

     q = (    0.000000000   0.000000000   0.000000000 ) 

 **************************************************************************
     freq (    1) =       1.896071 [THz] =      63.246119 [cm-1]
     freq (    2) =       1.896071 [THz] =      63.246119 [cm-1]
     freq (    3) =       1.896071 [THz] =      63.246119 [cm-1]
     freq (    4) =      15.355052 [THz] =     512.189412 [cm-1]
     freq (    5) =      15.355052 [THz] =     512.189412 [cm-1]
     freq (    6) =      15.355052 [THz] =     512.189412 [cm-1]
 **************************************************************************

     Mode symmetry, O_h (m-3m)  point group:

     freq (  1 -  3) =         63.2  [cm-1]   --> T_1u G_15  G_4- I  
     freq (  4 -  6) =        512.2  [cm-1]   --> T_2g G_25' G_5+ R  

     Calculation of q =   -0.2500000   0.2500000  -0.2500000

   Info: using nr1, nr2, nr3 values from input

   Info: using nr1, nr2, nr3 values from input

     Parallelization info
     --------------------
     sticks:   dense  smooth     PW     G-vecs:    dense   smooth      PW
     Min          64      64     24                  709      709     161
     Max          67      67     25                  710      710     162
     Sum         265     265     97                 2837     2837     645



     bravais-lattice index     =            2
     lattice parameter (alat)  =      10.3408  a.u.
     unit-cell volume          =     276.4410 (a.u.)^3
     number of atoms/cell      =            2
     number of atomic types    =            1
     number of electrons       =         8.00
     number of Kohn-Sham states=            4
     kinetic-energy cutoff     =      18.0000  Ry
     charge density cutoff     =      72.0000  Ry
     Exchange-correlation      = SLA  PW   PBE  PBE ( 1  4  3  4 0 0)

     celldm(1)=  10.340800  celldm(2)=   0.000000  celldm(3)=   0.000000
     celldm(4)=   0.000000  celldm(5)=   0.000000  celldm(6)=   0.000000

     crystal axes: (cart. coord. in units of alat)
               a(1) = (  -0.500000   0.000000   0.500000 )  
               a(2) = (   0.000000   0.500000   0.500000 )  
               a(3) = (  -0.500000   0.500000   0.000000 )  

     reciprocal axes: (cart. coord. in units 2 pi/alat)
               b(1) = ( -1.000000 -1.000000  1.000000 )  
               b(2) = (  1.000000  1.000000  1.000000 )  
               b(3) = ( -1.000000  1.000000 -1.000000 )  


     PseudoPot. # 1 for Si read from file:
     /home/max/quantum_espresso/qe-6.1/pseudo/si_pbe_v1.uspp.F.UPF.txt
     MD5 check sum: a056efeee980c13900f22a371efd63c1
     Pseudo is Ultrasoft + core correction, Zval =  4.0
     Generated by new atomic code, or converted to UPF format
     Using radial grid of  899 points,  6 beta functions with: 
                l(1) =   0
                l(2) =   0
                l(3) =   1
                l(4) =   1
                l(5) =   2
                l(6) =   2
     Q(r) pseudized with  8 coefficients,  rinner =    0.900   0.900   0.900
                                                       0.900   0.900

     atomic species   valence    mass     pseudopotential
        Si             4.00    28.08600     Si( 1.00)

     48 Sym. Ops., with inversion, found



   Cartesian axes

     site n.     atom                  positions (alat units)
         1           Si  tau(   1) = (   0.0000000   0.0000000   0.0000000  )
         2           Si  tau(   2) = (   0.2500000   0.2500000   0.2500000  )

     number of k points=   120

     Number of k-points >= 100: set verbosity='high' to print them.

     Dense  grid:     2837 G-vectors     FFT dimensions: (  20,  20,  20)

     Estimated max dynamical RAM per process >       0.33MB

     Estimated total allocated dynamical RAM >       1.32MB

     Check: negative/imaginary core charge=   -0.000006    0.000000

     The potential is recalculated from file :
     ./_ph0/silicon.10.3408.save/charge-density.dat

     Starting wfc are    8 atomic wfcs

     Band Structure Calculation
     Davidson diagonalization with overlap

     ethr =  1.25E-10,  avg # of iterations = 11.7

     total cpu time spent up to now is        0.8 secs

     End of band structure calculation

     Number of k-points >= 100: set verbosity='high' to print the bands.

     highest occupied level (ev):     5.6791

     Writing output data file silicon.10.3408.save

                                                                                

     bravais-lattice index     =            2
     lattice parameter (alat)  =      10.3408  a.u.
     unit-cell volume          =     276.4410 (a.u.)^3
     number of atoms/cell      =            2
     number of atomic types    =            1
     kinetic-energy cut-off    =      18.0000  Ry
     charge density cut-off    =      72.0000  Ry
     convergence threshold     =      1.0E-12
     beta                      =       0.7000
     number of iterations used =            4
     Exchange-correlation      = SLA  PW   PBE  PBE ( 1  4  3  4 0 0)


     celldm(1)=   10.34080  celldm(2)=    0.00000  celldm(3)=    0.00000
     celldm(4)=    0.00000  celldm(5)=    0.00000  celldm(6)=    0.00000

     crystal axes: (cart. coord. in units of alat)
               a(1) = ( -0.5000  0.0000  0.5000 )  
               a(2) = (  0.0000  0.5000  0.5000 )  
               a(3) = ( -0.5000  0.5000  0.0000 )  

     reciprocal axes: (cart. coord. in units 2 pi/alat)
               b(1) = ( -1.0000 -1.0000  1.0000 )  
               b(2) = (  1.0000  1.0000  1.0000 )  
               b(3) = ( -1.0000  1.0000 -1.0000 )  


     Atoms inside the unit cell: 

     Cartesian axes

     site n.  atom      mass           positions (alat units)
        1     Si  28.0860   tau(    1) = (    0.00000    0.00000    0.00000  )
        2     Si  28.0860   tau(    2) = (    0.25000    0.25000    0.25000  )

     Computing dynamical matrix for 
                    q = (  -0.2500000   0.2500000  -0.2500000 )

      6 Sym.Ops. (no q -> -q+G )


     G cutoff =  195.0208  (    710 G-vectors)     FFT grid: ( 20, 20, 20)
     number of k points=   120

     PseudoPot. # 1 for Si read from file:
     /home/max/quantum_espresso/qe-6.1/pseudo/si_pbe_v1.uspp.F.UPF.txt
     MD5 check sum: a056efeee980c13900f22a371efd63c1
     Pseudo is Ultrasoft + core correction, Zval =  4.0
     Generated by new atomic code, or converted to UPF format
     Using radial grid of  899 points,  6 beta functions with: 
                l(1) =   0
                l(2) =   0
                l(3) =   1
                l(4) =   1
                l(5) =   2
                l(6) =   2
     Q(r) pseudized with  8 coefficients,  rinner =    0.900   0.900   0.900
                                                       0.900   0.900

     Mode symmetry, C_3v (3m)   point group:


     Atomic displacements:
     There are   4 irreducible representations

     Representation     1      1 modes -A_1  L_1  To be done

     Representation     2      1 modes -A_1  L_1  To be done

     Representation     3      2 modes -E    L_3  To be done

     Representation     4      2 modes -E    L_3  To be done



     Alpha used in Ewald sum =   0.7000
     PHONON       :     4.86s CPU         5.04s WALL



     Representation #  1 mode #   1

     Self-consistent Calculation

      iter #   1 total cpu time :     5.3 secs   av.it.:   5.5
      thresh= 1.000E-02 alpha_mix =  0.700 |ddv_scf|^2 =  2.467E-03

      iter #   2 total cpu time :     5.7 secs   av.it.:   7.5
      thresh= 4.967E-03 alpha_mix =  0.700 |ddv_scf|^2 =  3.725E-02

      iter #   3 total cpu time :     5.9 secs   av.it.:   6.3
      thresh= 1.000E-02 alpha_mix =  0.700 |ddv_scf|^2 =  1.715E-06

      iter #   4 total cpu time :     6.1 secs   av.it.:   8.2
      thresh= 1.309E-04 alpha_mix =  0.700 |ddv_scf|^2 =  1.159E-07

      iter #   5 total cpu time :     6.4 secs   av.it.:   8.1
      thresh= 3.405E-05 alpha_mix =  0.700 |ddv_scf|^2 =  4.741E-09

      iter #   6 total cpu time :     6.6 secs   av.it.:   8.0
      thresh= 6.886E-06 alpha_mix =  0.700 |ddv_scf|^2 =  5.379E-09

      iter #   7 total cpu time :     6.9 secs   av.it.:   6.0
      thresh= 7.334E-06 alpha_mix =  0.700 |ddv_scf|^2 =  4.034E-10

      iter #   8 total cpu time :     7.1 secs   av.it.:   7.3
      thresh= 2.009E-06 alpha_mix =  0.700 |ddv_scf|^2 =  3.935E-12

      iter #   9 total cpu time :     7.3 secs   av.it.:   7.1
      thresh= 1.984E-07 alpha_mix =  0.700 |ddv_scf|^2 =  1.536E-13

     End of self-consistent calculation

     Convergence has been achieved 


     Representation #  2 mode #   2

     Self-consistent Calculation

      iter #   1 total cpu time :     7.7 secs   av.it.:   5.5
      thresh= 1.000E-02 alpha_mix =  0.700 |ddv_scf|^2 =  2.467E-03

      iter #   2 total cpu time :     8.0 secs   av.it.:   7.5
      thresh= 4.967E-03 alpha_mix =  0.700 |ddv_scf|^2 =  3.725E-02

      iter #   3 total cpu time :     8.2 secs   av.it.:   6.3
      thresh= 1.000E-02 alpha_mix =  0.700 |ddv_scf|^2 =  1.715E-06

      iter #   4 total cpu time :     8.5 secs   av.it.:   8.2
      thresh= 1.309E-04 alpha_mix =  0.700 |ddv_scf|^2 =  1.159E-07

      iter #   5 total cpu time :     8.7 secs   av.it.:   8.1
      thresh= 3.405E-05 alpha_mix =  0.700 |ddv_scf|^2 =  4.741E-09

      iter #   6 total cpu time :     9.0 secs   av.it.:   8.0
      thresh= 6.886E-06 alpha_mix =  0.700 |ddv_scf|^2 =  5.379E-09

      iter #   7 total cpu time :     9.2 secs   av.it.:   6.0
      thresh= 7.334E-06 alpha_mix =  0.700 |ddv_scf|^2 =  4.034E-10

      iter #   8 total cpu time :     9.4 secs   av.it.:   7.3
      thresh= 2.009E-06 alpha_mix =  0.700 |ddv_scf|^2 =  3.935E-12

      iter #   9 total cpu time :     9.8 secs   av.it.:   7.1
      thresh= 1.984E-07 alpha_mix =  0.700 |ddv_scf|^2 =  1.536E-13

     End of self-consistent calculation

     Convergence has been achieved 


     Representation #  3 modes #   3  4

     Self-consistent Calculation

      iter #   1 total cpu time :    10.2 secs   av.it.:   4.9
      thresh= 1.000E-02 alpha_mix =  0.700 |ddv_scf|^2 =  5.706E-07

      iter #   2 total cpu time :    10.8 secs   av.it.:   9.4
      thresh= 7.553E-05 alpha_mix =  0.700 |ddv_scf|^2 =  4.288E-08

      iter #   3 total cpu time :    11.4 secs   av.it.:   9.2
      thresh= 2.071E-05 alpha_mix =  0.700 |ddv_scf|^2 =  3.708E-09

      iter #   4 total cpu time :    12.1 secs   av.it.:   8.9
      thresh= 6.089E-06 alpha_mix =  0.700 |ddv_scf|^2 =  1.113E-11

      iter #   5 total cpu time :    12.6 secs   av.it.:   9.2
      thresh= 3.336E-07 alpha_mix =  0.700 |ddv_scf|^2 =  4.979E-13

     End of self-consistent calculation

     Convergence has been achieved 


     Representation #  4 modes #   5  6

     Self-consistent Calculation

      iter #   1 total cpu time :    13.0 secs   av.it.:   5.0
      thresh= 1.000E-02 alpha_mix =  0.700 |ddv_scf|^2 =  5.704E-07

      iter #   2 total cpu time :    13.8 secs   av.it.:   9.6
      thresh= 7.553E-05 alpha_mix =  0.700 |ddv_scf|^2 =  4.284E-08

      iter #   3 total cpu time :    14.3 secs   av.it.:   9.4
      thresh= 2.070E-05 alpha_mix =  0.700 |ddv_scf|^2 =  3.705E-09

      iter #   4 total cpu time :    14.9 secs   av.it.:   9.1
      thresh= 6.087E-06 alpha_mix =  0.700 |ddv_scf|^2 =  1.113E-11

      iter #   5 total cpu time :    15.5 secs   av.it.:   9.2
      thresh= 3.337E-07 alpha_mix =  0.700 |ddv_scf|^2 =  4.980E-13

     End of self-consistent calculation

     Convergence has been achieved 

     Number of q in the star =    8
     List of q in the star:
          1  -0.250000000   0.250000000  -0.250000000
          2   0.250000000  -0.250000000  -0.250000000
          3   0.250000000  -0.250000000   0.250000000
          4   0.250000000   0.250000000   0.250000000
          5  -0.250000000  -0.250000000  -0.250000000
          6  -0.250000000  -0.250000000   0.250000000
          7  -0.250000000   0.250000000   0.250000000
          8   0.250000000   0.250000000  -0.250000000

     Diagonalizing the dynamical matrix

     q = (   -0.250000000   0.250000000  -0.250000000 ) 

 **************************************************************************
     freq (    1) =       3.397416 [THz] =     113.325591 [cm-1]
     freq (    2) =       3.397416 [THz] =     113.325591 [cm-1]
     freq (    3) =       6.927796 [THz] =     231.086404 [cm-1]
     freq (    4) =      14.433439 [THz] =     481.447713 [cm-1]
     freq (    5) =      14.744078 [THz] =     491.809496 [cm-1]
     freq (    6) =      14.744078 [THz] =     491.809496 [cm-1]
 **************************************************************************

     Mode symmetry, C_3v (3m)   point group:

     freq (  1 -  2) =        113.3  [cm-1]   --> E    L_3           
     freq (  3 -  3) =        231.1  [cm-1]   --> A_1  L_1           
     freq (  4 -  4) =        481.4  [cm-1]   --> A_1  L_1           
     freq (  5 -  6) =        491.8  [cm-1]   --> E    L_3           

     Calculation of q =    0.5000000  -0.5000000   0.5000000

   Info: using nr1, nr2, nr3 values from input

   Info: using nr1, nr2, nr3 values from input

     Parallelization info
     --------------------
     sticks:   dense  smooth     PW     G-vecs:    dense   smooth      PW
     Min          64      64     27                  709      709     186
     Max          67      67     28                  710      710     189
     Sum         265     265    109                 2837     2837     749



     bravais-lattice index     =            2
     lattice parameter (alat)  =      10.3408  a.u.
     unit-cell volume          =     276.4410 (a.u.)^3
     number of atoms/cell      =            2
     number of atomic types    =            1
     number of electrons       =         8.00
     number of Kohn-Sham states=            4
     kinetic-energy cutoff     =      18.0000  Ry
     charge density cutoff     =      72.0000  Ry
     Exchange-correlation      = SLA  PW   PBE  PBE ( 1  4  3  4 0 0)

     celldm(1)=  10.340800  celldm(2)=   0.000000  celldm(3)=   0.000000
     celldm(4)=   0.000000  celldm(5)=   0.000000  celldm(6)=   0.000000

     crystal axes: (cart. coord. in units of alat)
               a(1) = (  -0.500000   0.000000   0.500000 )  
               a(2) = (   0.000000   0.500000   0.500000 )  
               a(3) = (  -0.500000   0.500000   0.000000 )  

     reciprocal axes: (cart. coord. in units 2 pi/alat)
               b(1) = ( -1.000000 -1.000000  1.000000 )  
               b(2) = (  1.000000  1.000000  1.000000 )  
               b(3) = ( -1.000000  1.000000 -1.000000 )  


     PseudoPot. # 1 for Si read from file:
     /home/max/quantum_espresso/qe-6.1/pseudo/si_pbe_v1.uspp.F.UPF.txt
     MD5 check sum: a056efeee980c13900f22a371efd63c1
     Pseudo is Ultrasoft + core correction, Zval =  4.0
     Generated by new atomic code, or converted to UPF format
     Using radial grid of  899 points,  6 beta functions with: 
                l(1) =   0
                l(2) =   0
                l(3) =   1
                l(4) =   1
                l(5) =   2
                l(6) =   2
     Q(r) pseudized with  8 coefficients,  rinner =    0.900   0.900   0.900
                                                       0.900   0.900

     atomic species   valence    mass     pseudopotential
        Si             4.00    28.08600     Si( 1.00)

     48 Sym. Ops., with inversion, found



   Cartesian axes

     site n.     atom                  positions (alat units)
         1           Si  tau(   1) = (   0.0000000   0.0000000   0.0000000  )
         2           Si  tau(   2) = (   0.2500000   0.2500000   0.2500000  )

     number of k points=    60
                       cart. coord. in units 2pi/alat
        k(    1) = (  -0.1250000   0.1250000   0.1250000), wk =   0.0468750
        k(    2) = (   0.3750000  -0.3750000   0.6250000), wk =   0.0000000
        k(    3) = (  -0.3750000   0.3750000  -0.1250000), wk =   0.0468750
        k(    4) = (   0.1250000  -0.1250000   0.3750000), wk =   0.0000000
        k(    5) = (   0.3750000  -0.3750000   0.6250000), wk =   0.0468750
        k(    6) = (   0.8750000  -0.8750000   1.1250000), wk =   0.0000000
        k(    7) = (   0.1250000  -0.1250000   0.3750000), wk =   0.0468750
        k(    8) = (   0.6250000  -0.6250000   0.8750000), wk =   0.0000000
        k(    9) = (  -0.1250000   0.6250000   0.1250000), wk =   0.0937500
        k(   10) = (   0.3750000   0.1250000   0.6250000), wk =   0.0000000
        k(   11) = (   0.6250000  -0.1250000   0.8750000), wk =   0.0937500
        k(   12) = (   1.1250000  -0.6250000   1.3750000), wk =   0.0000000
        k(   13) = (   0.3750000   0.1250000   0.6250000), wk =   0.0937500
        k(   14) = (   0.8750000  -0.3750000   1.1250000), wk =   0.0000000
        k(   15) = (  -0.1250000  -0.8750000   0.1250000), wk =   0.0937500
        k(   16) = (   0.3750000  -1.3750000   0.6250000), wk =   0.0000000
        k(   17) = (  -0.3750000   0.3750000   0.3750000), wk =   0.0468750
        k(   18) = (   0.1250000  -0.1250000   0.8750000), wk =   0.0000000
        k(   19) = (   0.3750000  -0.3750000   1.1250000), wk =   0.0468750
        k(   20) = (   0.8750000  -0.8750000   1.6250000), wk =   0.0000000
        k(   21) = (   0.1250000  -0.1250000   0.1250000), wk =   0.0156250
        k(   22) = (   0.6250000  -0.6250000   0.6250000), wk =   0.0000000
        k(   23) = (  -0.3750000  -0.3750000  -0.1250000), wk =   0.0937500
        k(   24) = (   0.1250000  -0.8750000   0.3750000), wk =   0.0000000
        k(   25) = (  -0.1250000  -0.3750000   0.3750000), wk =   0.0468750
        k(   26) = (   0.3750000  -0.8750000   0.8750000), wk =   0.0000000
        k(   27) = (   0.3750000   0.3750000   0.6250000), wk =   0.0937500
        k(   28) = (   0.8750000  -0.1250000   1.1250000), wk =   0.0000000
        k(   29) = (   0.6250000   0.3750000  -0.3750000), wk =   0.0468750
        k(   30) = (   1.1250000  -0.1250000   0.1250000), wk =   0.0000000
        k(   31) = (   0.1250000   0.1250000   0.3750000), wk =   0.0937500
        k(   32) = (   0.6250000  -0.3750000   0.8750000), wk =   0.0000000
        k(   33) = (   0.3750000   0.1250000  -0.1250000), wk =   0.0468750
        k(   34) = (   0.8750000  -0.3750000   0.3750000), wk =   0.0000000
        k(   35) = (  -0.1250000  -0.6250000  -0.1250000), wk =   0.0468750
        k(   36) = (   0.3750000  -1.1250000   0.3750000), wk =   0.0000000
        k(   37) = (   0.1250000  -0.6250000   0.1250000), wk =   0.0468750
        k(   38) = (   0.6250000  -1.1250000   0.6250000), wk =   0.0000000
        k(   39) = (   0.6250000   0.1250000   0.8750000), wk =   0.0937500
        k(   40) = (   1.1250000  -0.3750000   1.3750000), wk =   0.0000000
        k(   41) = (  -0.8750000   0.1250000   0.6250000), wk =   0.0937500
        k(   42) = (  -0.3750000  -0.3750000   1.1250000), wk =   0.0000000
        k(   43) = (   0.8750000   0.1250000  -0.6250000), wk =   0.0937500
        k(   44) = (   1.3750000  -0.3750000  -0.1250000), wk =   0.0000000
        k(   45) = (   0.3750000  -0.1250000   0.6250000), wk =   0.0937500
        k(   46) = (   0.8750000  -0.6250000   1.1250000), wk =   0.0000000
        k(   47) = (  -0.6250000  -0.1250000   0.3750000), wk =   0.0937500
        k(   48) = (  -0.1250000  -0.6250000   0.8750000), wk =   0.0000000
        k(   49) = (   0.6250000  -0.1250000  -0.3750000), wk =   0.0937500
        k(   50) = (   1.1250000  -0.6250000   0.1250000), wk =   0.0000000
        k(   51) = (  -0.1250000   0.8750000  -0.1250000), wk =   0.0468750
        k(   52) = (   0.3750000   0.3750000   0.3750000), wk =   0.0000000
        k(   53) = (   0.1250000   0.8750000   0.1250000), wk =   0.0468750
        k(   54) = (   0.6250000   0.3750000   0.6250000), wk =   0.0000000
        k(   55) = (   0.3750000  -0.3750000   0.3750000), wk =   0.0156250
        k(   56) = (   0.8750000  -0.8750000   0.8750000), wk =   0.0000000
        k(   57) = (   0.3750000   0.3750000   1.1250000), wk =   0.0937500
        k(   58) = (   0.8750000  -0.1250000   1.6250000), wk =   0.0000000
        k(   59) = (   1.1250000   0.3750000  -0.3750000), wk =   0.0468750
        k(   60) = (   1.6250000  -0.1250000   0.1250000), wk =   0.0000000

     Dense  grid:     2837 G-vectors     FFT dimensions: (  20,  20,  20)

     Estimated max dynamical RAM per process >       0.33MB

     Estimated total allocated dynamical RAM >       1.32MB

     Check: negative/imaginary core charge=   -0.000006    0.000000

     The potential is recalculated from file :
     ./_ph0/silicon.10.3408.save/charge-density.dat

     Starting wfc are    8 atomic wfcs

     Band Structure Calculation
     Davidson diagonalization with overlap

     ethr =  1.25E-10,  avg # of iterations = 11.7

     total cpu time spent up to now is        1.4 secs

     End of band structure calculation

          k =-0.1250 0.1250 0.1250 (   338 PWs)   bands (ev):

    -5.6379   4.3705   5.6791   5.6791

          k = 0.3750-0.3750 0.6250 (   361 PWs)   bands (ev):

    -3.4836  -0.6862   3.7193   4.4297

          k =-0.3750 0.3750-0.1250 (   352 PWs)   bands (ev):

    -4.6161   1.3817   3.7020   5.1977

          k = 0.1250-0.1250 0.3750 (   353 PWs)   bands (ev):

    -5.1126   2.7530   4.6746   4.7370

          k = 0.3750-0.3750 0.6250 (   361 PWs)   bands (ev):

    -3.4836  -0.6862   3.7193   4.4297

          k = 0.8750-0.8750 1.1250 (   338 PWs)   bands (ev):

    -5.6379   4.3705   5.6791   5.6791

          k = 0.1250-0.1250 0.3750 (   353 PWs)   bands (ev):

    -5.1126   2.7530   4.6746   4.7370

          k = 0.6250-0.6250 0.8750 (   352 PWs)   bands (ev):

    -4.6161   1.3817   3.7020   5.1977

          k =-0.1250 0.6250 0.1250 (   351 PWs)   bands (ev):

    -4.0853   1.0416   3.3558   3.8032

          k = 0.3750 0.1250 0.6250 (   357 PWs)   bands (ev):

    -3.6725   0.1751   2.7169   4.0782

          k = 0.6250-0.1250 0.8750 (   361 PWs)   bands (ev):

    -2.4537  -0.9161   2.0114   3.0802

          k = 1.1250-0.6250 1.3750 (   352 PWs)   bands (ev):

    -4.6161   1.3817   3.7020   5.1977

          k = 0.3750 0.1250 0.6250 (   357 PWs)   bands (ev):

    -3.6725   0.1751   2.7169   4.0782

          k = 0.8750-0.3750 1.1250 (   351 PWs)   bands (ev):

    -4.0853   1.0416   3.3558   3.8032

          k =-0.1250-0.8750 0.1250 (   358 PWs)   bands (ev):

    -2.6192  -0.8195   2.6160   3.3376

          k = 0.3750-1.3750 0.6250 (   361 PWs)   bands (ev):

    -3.4836  -0.6862   3.7193   4.4297

          k =-0.3750 0.3750 0.3750 (   353 PWs)   bands (ev):

    -4.1861   0.0996   4.8922   4.8922

          k = 0.1250-0.1250 0.8750 (   358 PWs)   bands (ev):

    -2.6192  -0.8195   2.6160   3.3376

          k = 0.3750-0.3750 1.1250 (   361 PWs)   bands (ev):

    -2.9894  -0.6088   2.0673   4.1147

          k = 0.8750-0.8750 1.6250 (   351 PWs)   bands (ev):

    -4.0853   1.0416   3.3558   3.8032

          k = 0.1250-0.1250 0.1250 (   338 PWs)   bands (ev):

    -5.6379   4.3705   5.6791   5.6791

          k = 0.6250-0.6250 0.6250 (   353 PWs)   bands (ev):

    -4.1861   0.0996   4.8922   4.8922

          k =-0.3750-0.3750-0.1250 (   352 PWs)   bands (ev):

    -4.6161   1.3817   3.7020   5.1977

          k = 0.1250-0.8750 0.3750 (   361 PWs)   bands (ev):

    -2.4537  -0.9161   2.0114   3.0802

          k =-0.1250-0.3750 0.3750 (   352 PWs)   bands (ev):

    -4.6161   1.3817   3.7020   5.1977

          k = 0.3750-0.8750 0.8750 (   351 PWs)   bands (ev):

    -4.0853   1.0416   3.3558   3.8032

          k = 0.3750 0.3750 0.6250 (   361 PWs)   bands (ev):

    -3.4836  -0.6862   3.7193   4.4297

          k = 0.8750-0.1250 1.1250 (   358 PWs)   bands (ev):

    -2.6192  -0.8195   2.6160   3.3376

          k = 0.6250 0.3750-0.3750 (   361 PWs)   bands (ev):

    -3.4836  -0.6862   3.7193   4.4297

          k = 1.1250-0.1250 0.1250 (   358 PWs)   bands (ev):

    -2.6192  -0.8195   2.6160   3.3376

          k = 0.1250 0.1250 0.3750 (   353 PWs)   bands (ev):

    -5.1126   2.7530   4.6746   4.7370

          k = 0.6250-0.3750 0.8750 (   357 PWs)   bands (ev):

    -3.6725   0.1751   2.7169   4.0782

          k = 0.3750 0.1250-0.1250 (   353 PWs)   bands (ev):

    -5.1126   2.7530   4.6746   4.7370

          k = 0.8750-0.3750 0.3750 (   361 PWs)   bands (ev):

    -2.9894  -0.6088   2.0673   4.1147

          k =-0.1250-0.6250-0.1250 (   351 PWs)   bands (ev):

    -4.0853   1.0416   3.3558   3.8032

          k = 0.3750-1.1250 0.3750 (   361 PWs)   bands (ev):

    -2.9894  -0.6088   2.0673   4.1147

          k = 0.1250-0.6250 0.1250 (   351 PWs)   bands (ev):

    -4.0853   1.0416   3.3558   3.8032

          k = 0.6250-1.1250 0.6250 (   352 PWs)   bands (ev):

    -4.6161   1.3817   3.7020   5.1977

          k = 0.6250 0.1250 0.8750 (   361 PWs)   bands (ev):

    -2.4537  -0.9161   2.0114   3.0802

          k = 1.1250-0.3750 1.3750 (   357 PWs)   bands (ev):

    -3.6725   0.1751   2.7169   4.0782

          k =-0.8750 0.1250 0.6250 (   361 PWs)   bands (ev):

    -2.4537  -0.9161   2.0114   3.0802

          k =-0.3750-0.3750 1.1250 (   361 PWs)   bands (ev):

    -2.9894  -0.6088   2.0673   4.1147

          k = 0.8750 0.1250-0.6250 (   361 PWs)   bands (ev):

    -2.4537  -0.9161   2.0114   3.0802

          k = 1.3750-0.3750-0.1250 (   357 PWs)   bands (ev):

    -3.6725   0.1751   2.7169   4.0782

          k = 0.3750-0.1250 0.6250 (   357 PWs)   bands (ev):

    -3.6725   0.1751   2.7169   4.0782

          k = 0.8750-0.6250 1.1250 (   353 PWs)   bands (ev):

    -5.1126   2.7530   4.6746   4.7370

          k =-0.6250-0.1250 0.3750 (   357 PWs)   bands (ev):

    -3.6725   0.1751   2.7169   4.0782

          k =-0.1250-0.6250 0.8750 (   361 PWs)   bands (ev):

    -2.4537  -0.9161   2.0114   3.0802

          k = 0.6250-0.1250-0.3750 (   357 PWs)   bands (ev):

    -3.6725   0.1751   2.7169   4.0782

          k = 1.1250-0.6250 0.1250 (   361 PWs)   bands (ev):

    -2.4537  -0.9161   2.0114   3.0802

          k =-0.1250 0.8750-0.1250 (   358 PWs)   bands (ev):

    -2.6192  -0.8195   2.6160   3.3376

          k = 0.3750 0.3750 0.3750 (   353 PWs)   bands (ev):

    -4.1861   0.0996   4.8922   4.8922

          k = 0.1250 0.8750 0.1250 (   358 PWs)   bands (ev):

    -2.6192  -0.8195   2.6160   3.3376

          k = 0.6250 0.3750 0.6250 (   361 PWs)   bands (ev):

    -3.4836  -0.6862   3.7193   4.4297

          k = 0.3750-0.3750 0.3750 (   353 PWs)   bands (ev):

    -4.1861   0.0996   4.8922   4.8922

          k = 0.8750-0.8750 0.8750 (   338 PWs)   bands (ev):

    -5.6379   4.3705   5.6791   5.6791

          k = 0.3750 0.3750 1.1250 (   361 PWs)   bands (ev):

    -2.9894  -0.6088   2.0673   4.1147

          k = 0.8750-0.1250 1.6250 (   361 PWs)   bands (ev):

    -2.4537  -0.9161   2.0114   3.0802

          k = 1.1250 0.3750-0.3750 (   361 PWs)   bands (ev):

    -2.9894  -0.6088   2.0673   4.1147

          k = 1.6250-0.1250 0.1250 (   353 PWs)   bands (ev):

    -5.1126   2.7530   4.6746   4.7370

     highest occupied level (ev):     5.6791

     Writing output data file silicon.10.3408.save

                                                                                

     bravais-lattice index     =            2
     lattice parameter (alat)  =      10.3408  a.u.
     unit-cell volume          =     276.4410 (a.u.)^3
     number of atoms/cell      =            2
     number of atomic types    =            1
     kinetic-energy cut-off    =      18.0000  Ry
     charge density cut-off    =      72.0000  Ry
     convergence threshold     =      1.0E-12
     beta                      =       0.7000
     number of iterations used =            4
     Exchange-correlation      = SLA  PW   PBE  PBE ( 1  4  3  4 0 0)


     celldm(1)=   10.34080  celldm(2)=    0.00000  celldm(3)=    0.00000
     celldm(4)=    0.00000  celldm(5)=    0.00000  celldm(6)=    0.00000

     crystal axes: (cart. coord. in units of alat)
               a(1) = ( -0.5000  0.0000  0.5000 )  
               a(2) = (  0.0000  0.5000  0.5000 )  
               a(3) = ( -0.5000  0.5000  0.0000 )  

     reciprocal axes: (cart. coord. in units 2 pi/alat)
               b(1) = ( -1.0000 -1.0000  1.0000 )  
               b(2) = (  1.0000  1.0000  1.0000 )  
               b(3) = ( -1.0000  1.0000 -1.0000 )  


     Atoms inside the unit cell: 

     Cartesian axes

     site n.  atom      mass           positions (alat units)
        1     Si  28.0860   tau(    1) = (    0.00000    0.00000    0.00000  )
        2     Si  28.0860   tau(    2) = (    0.25000    0.25000    0.25000  )

     Computing dynamical matrix for 
                    q = (   0.5000000  -0.5000000   0.5000000 )

     13 Sym.Ops. (with q -> -q+G )


     G cutoff =  195.0208  (    710 G-vectors)     FFT grid: ( 20, 20, 20)
     number of k points=    60

     PseudoPot. # 1 for Si read from file:
     /home/max/quantum_espresso/qe-6.1/pseudo/si_pbe_v1.uspp.F.UPF.txt
     MD5 check sum: a056efeee980c13900f22a371efd63c1
     Pseudo is Ultrasoft + core correction, Zval =  4.0
     Generated by new atomic code, or converted to UPF format
     Using radial grid of  899 points,  6 beta functions with: 
                l(1) =   0
                l(2) =   0
                l(3) =   1
                l(4) =   1
                l(5) =   2
                l(6) =   2
     Q(r) pseudized with  8 coefficients,  rinner =    0.900   0.900   0.900
                                                       0.900   0.900


     Atomic displacements:
     There are   4 irreducible representations

     Representation     1      1 modes -  To be done

     Representation     2      1 modes -  To be done

     Representation     3      2 modes -  To be done

     Representation     4      2 modes -  To be done



     Alpha used in Ewald sum =   0.7000
     PHONON       :    15.49s CPU        16.32s WALL



     Representation #  1 mode #   1

     Self-consistent Calculation

      iter #   1 total cpu time :    16.4 secs   av.it.:   4.8
      thresh= 1.000E-02 alpha_mix =  0.700 |ddv_scf|^2 =  2.485E-05

      iter #   2 total cpu time :    16.6 secs   av.it.:   8.3
      thresh= 4.985E-04 alpha_mix =  0.700 |ddv_scf|^2 =  2.213E-05

      iter #   3 total cpu time :    16.7 secs   av.it.:   7.5
      thresh= 4.705E-04 alpha_mix =  0.700 |ddv_scf|^2 =  4.351E-08

      iter #   4 total cpu time :    16.8 secs   av.it.:   7.4
      thresh= 2.086E-05 alpha_mix =  0.700 |ddv_scf|^2 =  1.337E-10

      iter #   5 total cpu time :    17.0 secs   av.it.:   7.9
      thresh= 1.156E-06 alpha_mix =  0.700 |ddv_scf|^2 =  3.554E-12

      iter #   6 total cpu time :    17.1 secs   av.it.:   7.9
      thresh= 1.885E-07 alpha_mix =  0.700 |ddv_scf|^2 =  4.297E-14

     End of self-consistent calculation

     Convergence has been achieved 


     Representation #  2 mode #   2

     Self-consistent Calculation

      iter #   1 total cpu time :    17.2 secs   av.it.:   5.6
      thresh= 1.000E-02 alpha_mix =  0.700 |ddv_scf|^2 =  3.452E-04

      iter #   2 total cpu time :    17.4 secs   av.it.:   8.3
      thresh= 1.858E-03 alpha_mix =  0.700 |ddv_scf|^2 =  1.064E-03

      iter #   3 total cpu time :    17.6 secs   av.it.:   7.1
      thresh= 3.262E-03 alpha_mix =  0.700 |ddv_scf|^2 =  1.302E-07

      iter #   4 total cpu time :    17.8 secs   av.it.:   8.2
      thresh= 3.609E-05 alpha_mix =  0.700 |ddv_scf|^2 =  8.367E-09

      iter #   5 total cpu time :    18.0 secs   av.it.:   8.5
      thresh= 9.147E-06 alpha_mix =  0.700 |ddv_scf|^2 =  1.346E-10

      iter #   6 total cpu time :    18.1 secs   av.it.:   8.2
      thresh= 1.160E-06 alpha_mix =  0.700 |ddv_scf|^2 =  2.500E-12

      iter #   7 total cpu time :    18.2 secs   av.it.:   7.9
      thresh= 1.581E-07 alpha_mix =  0.700 |ddv_scf|^2 =  4.889E-15

     End of self-consistent calculation

     Convergence has been achieved 


     Representation #  3 modes #   3  4

     Self-consistent Calculation

      iter #   1 total cpu time :    18.5 secs   av.it.:   4.7
      thresh= 1.000E-02 alpha_mix =  0.700 |ddv_scf|^2 =  3.322E-07

      iter #   2 total cpu time :    18.7 secs   av.it.:   9.0
      thresh= 5.764E-05 alpha_mix =  0.700 |ddv_scf|^2 =  2.813E-08

      iter #   3 total cpu time :    19.0 secs   av.it.:   8.3
      thresh= 1.677E-05 alpha_mix =  0.700 |ddv_scf|^2 =  4.999E-10

      iter #   4 total cpu time :    19.3 secs   av.it.:   8.8
      thresh= 2.236E-06 alpha_mix =  0.700 |ddv_scf|^2 =  6.195E-12

      iter #   5 total cpu time :    19.8 secs   av.it.:   8.7
      thresh= 2.489E-07 alpha_mix =  0.700 |ddv_scf|^2 =  3.101E-14

     End of self-consistent calculation

     Convergence has been achieved 


     Representation #  4 modes #   5  6

     Self-consistent Calculation

      iter #   1 total cpu time :    20.0 secs   av.it.:   5.0
      thresh= 1.000E-02 alpha_mix =  0.700 |ddv_scf|^2 =  9.857E-07

      iter #   2 total cpu time :    20.3 secs   av.it.:   9.4
      thresh= 9.928E-05 alpha_mix =  0.700 |ddv_scf|^2 =  7.742E-08

      iter #   3 total cpu time :    20.6 secs   av.it.:   9.3
      thresh= 2.782E-05 alpha_mix =  0.700 |ddv_scf|^2 =  5.011E-09

      iter #   4 total cpu time :    20.9 secs   av.it.:   8.5
      thresh= 7.079E-06 alpha_mix =  0.700 |ddv_scf|^2 =  6.429E-12

      iter #   5 total cpu time :    21.2 secs   av.it.:   8.8
      thresh= 2.535E-07 alpha_mix =  0.700 |ddv_scf|^2 =  2.327E-14

     End of self-consistent calculation

     Convergence has been achieved 

     Number of q in the star =    4
     List of q in the star:
          1   0.500000000  -0.500000000   0.500000000
          2   0.500000000   0.500000000   0.500000000
          3  -0.500000000   0.500000000   0.500000000
          4   0.500000000   0.500000000  -0.500000000

     Diagonalizing the dynamical matrix

     q = (    0.500000000  -0.500000000   0.500000000 ) 

 **************************************************************************
     freq (    1) =       4.775942 [THz] =     159.308263 [cm-1]
     freq (    2) =       4.775942 [THz] =     159.308263 [cm-1]
     freq (    3) =      11.809658 [THz] =     393.927792 [cm-1]
     freq (    4) =      12.140211 [THz] =     404.953864 [cm-1]
     freq (    5) =      14.669391 [THz] =     489.318227 [cm-1]
     freq (    6) =      14.669391 [THz] =     489.318227 [cm-1]
 **************************************************************************

     Calculation of q =    0.0000000   0.5000000   0.0000000

   Info: using nr1, nr2, nr3 values from input

   Info: using nr1, nr2, nr3 values from input

     Parallelization info
     --------------------
     sticks:   dense  smooth     PW     G-vecs:    dense   smooth      PW
     Min          64      64     27                  709      709     175
     Max          67      67     28                  710      710     176
     Sum         265     265    109                 2837     2837     701



     bravais-lattice index     =            2
     lattice parameter (alat)  =      10.3408  a.u.
     unit-cell volume          =     276.4410 (a.u.)^3
     number of atoms/cell      =            2
     number of atomic types    =            1
     number of electrons       =         8.00
     number of Kohn-Sham states=            4
     kinetic-energy cutoff     =      18.0000  Ry
     charge density cutoff     =      72.0000  Ry
     Exchange-correlation      = SLA  PW   PBE  PBE ( 1  4  3  4 0 0)

     celldm(1)=  10.340800  celldm(2)=   0.000000  celldm(3)=   0.000000
     celldm(4)=   0.000000  celldm(5)=   0.000000  celldm(6)=   0.000000

     crystal axes: (cart. coord. in units of alat)
               a(1) = (  -0.500000   0.000000   0.500000 )  
               a(2) = (   0.000000   0.500000   0.500000 )  
               a(3) = (  -0.500000   0.500000   0.000000 )  

     reciprocal axes: (cart. coord. in units 2 pi/alat)
               b(1) = ( -1.000000 -1.000000  1.000000 )  
               b(2) = (  1.000000  1.000000  1.000000 )  
               b(3) = ( -1.000000  1.000000 -1.000000 )  


     PseudoPot. # 1 for Si read from file:
     /home/max/quantum_espresso/qe-6.1/pseudo/si_pbe_v1.uspp.F.UPF.txt
     MD5 check sum: a056efeee980c13900f22a371efd63c1
     Pseudo is Ultrasoft + core correction, Zval =  4.0
     Generated by new atomic code, or converted to UPF format
     Using radial grid of  899 points,  6 beta functions with: 
                l(1) =   0
                l(2) =   0
                l(3) =   1
                l(4) =   1
                l(5) =   2
                l(6) =   2
     Q(r) pseudized with  8 coefficients,  rinner =    0.900   0.900   0.900
                                                       0.900   0.900

     atomic species   valence    mass     pseudopotential
        Si             4.00    28.08600     Si( 1.00)

     48 Sym. Ops., with inversion, found



   Cartesian axes

     site n.     atom                  positions (alat units)
         1           Si  tau(   1) = (   0.0000000   0.0000000   0.0000000  )
         2           Si  tau(   2) = (   0.2500000   0.2500000   0.2500000  )

     number of k points=    80
                       cart. coord. in units 2pi/alat
        k(    1) = (  -0.1250000   0.1250000   0.1250000), wk =   0.0312500
        k(    2) = (  -0.1250000   0.6250000   0.1250000), wk =   0.0000000
        k(    3) = (  -0.3750000   0.3750000  -0.1250000), wk =   0.0625000
        k(    4) = (  -0.3750000   0.8750000  -0.1250000), wk =   0.0000000
        k(    5) = (   0.3750000  -0.3750000   0.6250000), wk =   0.0625000
        k(    6) = (   0.3750000   0.1250000   0.6250000), wk =   0.0000000
        k(    7) = (   0.1250000  -0.1250000   0.3750000), wk =   0.0625000
        k(    8) = (   0.1250000   0.3750000   0.3750000), wk =   0.0000000
        k(    9) = (  -0.1250000   0.6250000   0.1250000), wk =   0.0312500
        k(   10) = (  -0.1250000   1.1250000   0.1250000), wk =   0.0000000
        k(   11) = (   0.6250000  -0.1250000   0.8750000), wk =   0.0625000
        k(   12) = (   0.6250000   0.3750000   0.8750000), wk =   0.0000000
        k(   13) = (   0.3750000   0.1250000   0.6250000), wk =   0.0625000
        k(   14) = (   0.3750000   0.6250000   0.6250000), wk =   0.0000000
        k(   15) = (  -0.1250000  -0.8750000   0.1250000), wk =   0.0312500
        k(   16) = (  -0.1250000  -0.3750000   0.1250000), wk =   0.0000000
        k(   17) = (  -0.3750000   0.3750000   0.3750000), wk =   0.0312500
        k(   18) = (  -0.3750000   0.8750000   0.3750000), wk =   0.0000000
        k(   19) = (   0.3750000  -0.3750000   1.1250000), wk =   0.0625000
        k(   20) = (   0.3750000   0.1250000   1.1250000), wk =   0.0000000
        k(   21) = (  -0.1250000  -0.1250000   0.1250000), wk =   0.0312500
        k(   22) = (  -0.1250000   0.3750000   0.1250000), wk =   0.0000000
        k(   23) = (   0.1250000  -0.3750000   0.3750000), wk =   0.0625000
        k(   24) = (   0.1250000   0.1250000   0.3750000), wk =   0.0000000
        k(   25) = (   0.3750000  -0.1250000   0.3750000), wk =   0.0312500
        k(   26) = (   0.3750000   0.3750000   0.3750000), wk =   0.0000000
        k(   27) = (   0.3750000   0.1250000   0.3750000), wk =   0.0312500
        k(   28) = (   0.3750000   0.6250000   0.3750000), wk =   0.0000000
        k(   29) = (  -0.6250000   0.3750000  -0.3750000), wk =   0.0625000
        k(   30) = (  -0.6250000   0.8750000  -0.3750000), wk =   0.0000000
        k(   31) = (  -0.3750000   0.6250000  -0.3750000), wk =   0.0312500
        k(   32) = (  -0.3750000   1.1250000  -0.3750000), wk =   0.0000000
        k(   33) = (  -0.3750000  -0.6250000  -0.3750000), wk =   0.0312500
        k(   34) = (  -0.3750000  -0.1250000  -0.3750000), wk =   0.0000000
        k(   35) = (  -0.3750000   0.1250000  -0.1250000), wk =   0.0625000
        k(   36) = (  -0.3750000   0.6250000  -0.1250000), wk =   0.0000000
        k(   37) = (  -0.1250000   0.3750000  -0.1250000), wk =   0.0312500
        k(   38) = (  -0.1250000   0.8750000  -0.1250000), wk =   0.0000000
        k(   39) = (  -0.1250000  -0.3750000  -0.1250000), wk =   0.0312500
        k(   40) = (  -0.1250000   0.1250000  -0.1250000), wk =   0.0000000
        k(   41) = (  -0.1250000  -0.6250000   0.1250000), wk =   0.0312500
        k(   42) = (  -0.1250000  -0.1250000   0.1250000), wk =   0.0000000
        k(   43) = (   0.6250000  -0.1250000  -0.1250000), wk =   0.0625000
        k(   44) = (   0.6250000   0.3750000  -0.1250000), wk =   0.0000000
        k(   45) = (   0.6250000   0.1250000   0.1250000), wk =   0.0625000
        k(   46) = (   0.6250000   0.6250000   0.1250000), wk =   0.0000000
        k(   47) = (  -0.8750000   0.1250000  -0.6250000), wk =   0.0625000
        k(   48) = (  -0.8750000   0.6250000  -0.6250000), wk =   0.0000000
        k(   49) = (  -0.1250000   0.6250000  -0.8750000), wk =   0.0625000
        k(   50) = (  -0.1250000   1.1250000  -0.8750000), wk =   0.0000000
        k(   51) = (  -0.1250000   0.8750000  -0.6250000), wk =   0.0625000
        k(   52) = (  -0.1250000   1.3750000  -0.6250000), wk =   0.0000000
        k(   53) = (  -0.1250000  -0.8750000  -0.6250000), wk =   0.0625000
        k(   54) = (  -0.1250000  -0.3750000  -0.6250000), wk =   0.0000000
        k(   55) = (   0.8750000  -0.6250000   0.1250000), wk =   0.0625000
        k(   56) = (   0.8750000  -0.1250000   0.1250000), wk =   0.0000000
        k(   57) = (  -0.6250000  -0.1250000  -0.3750000), wk =   0.0625000
        k(   58) = (  -0.6250000   0.3750000  -0.3750000), wk =   0.0000000
        k(   59) = (   0.1250000   0.3750000  -0.6250000), wk =   0.0625000
        k(   60) = (   0.1250000   0.8750000  -0.6250000), wk =   0.0000000
        k(   61) = (   0.1250000   0.6250000  -0.3750000), wk =   0.0625000
        k(   62) = (   0.1250000   1.1250000  -0.3750000), wk =   0.0000000
        k(   63) = (   0.1250000  -0.6250000  -0.3750000), wk =   0.0625000
        k(   64) = (   0.1250000  -0.1250000  -0.3750000), wk =   0.0000000
        k(   65) = (   0.6250000  -0.3750000  -0.1250000), wk =   0.0625000
        k(   66) = (   0.6250000   0.1250000  -0.1250000), wk =   0.0000000
        k(   67) = (  -0.1250000   0.8750000   0.1250000), wk =   0.0312500
        k(   68) = (  -0.1250000   1.3750000   0.1250000), wk =   0.0000000
        k(   69) = (  -0.8750000  -0.1250000  -0.1250000), wk =   0.0625000
        k(   70) = (  -0.8750000   0.3750000  -0.1250000), wk =   0.0000000
        k(   71) = (  -0.8750000   0.1250000   0.1250000), wk =   0.0625000
        k(   72) = (  -0.8750000   0.6250000   0.1250000), wk =   0.0000000
        k(   73) = (  -0.3750000  -0.3750000   0.3750000), wk =   0.0312500
        k(   74) = (  -0.3750000   0.1250000   0.3750000), wk =   0.0000000
        k(   75) = (  -1.1250000   0.3750000  -0.3750000), wk =   0.0625000
        k(   76) = (  -1.1250000   0.8750000  -0.3750000), wk =   0.0000000
        k(   77) = (  -0.3750000   1.1250000  -0.3750000), wk =   0.0312500
        k(   78) = (  -0.3750000   1.6250000  -0.3750000), wk =   0.0000000
        k(   79) = (  -0.3750000  -1.1250000  -0.3750000), wk =   0.0312500
        k(   80) = (  -0.3750000  -0.6250000  -0.3750000), wk =   0.0000000

     Dense  grid:     2837 G-vectors     FFT dimensions: (  20,  20,  20)

     Estimated max dynamical RAM per process >       0.33MB

     Estimated total allocated dynamical RAM >       1.32MB

     Check: negative/imaginary core charge=   -0.000006    0.000000

     The potential is recalculated from file :
     ./_ph0/silicon.10.3408.save/charge-density.dat

     Starting wfc are    8 atomic wfcs

     Band Structure Calculation
     Davidson diagonalization with overlap

     ethr =  1.25E-10,  avg # of iterations = 11.7

     total cpu time spent up to now is        2.2 secs

     End of band structure calculation

          k =-0.1250 0.1250 0.1250 (   338 PWs)   bands (ev):

    -5.6379   4.3705   5.6791   5.6791

          k =-0.1250 0.6250 0.1250 (   351 PWs)   bands (ev):

    -4.0853   1.0416   3.3558   3.8032

          k =-0.3750 0.3750-0.1250 (   352 PWs)   bands (ev):

    -4.6161   1.3817   3.7020   5.1977

          k =-0.3750 0.8750-0.1250 (   361 PWs)   bands (ev):

    -2.4537  -0.9161   2.0114   3.0802

          k = 0.3750-0.3750 0.6250 (   361 PWs)   bands (ev):

    -3.4836  -0.6862   3.7193   4.4297

          k = 0.3750 0.1250 0.6250 (   357 PWs)   bands (ev):

    -3.6725   0.1751   2.7169   4.0782

          k = 0.1250-0.1250 0.3750 (   353 PWs)   bands (ev):

    -5.1126   2.7530   4.6746   4.7370

          k = 0.1250 0.3750 0.3750 (   352 PWs)   bands (ev):

    -4.6161   1.3817   3.7020   5.1977

          k =-0.1250 0.6250 0.1250 (   351 PWs)   bands (ev):

    -4.0853   1.0416   3.3558   3.8032

          k =-0.1250 1.1250 0.1250 (   358 PWs)   bands (ev):

    -2.6192  -0.8195   2.6160   3.3376

          k = 0.6250-0.1250 0.8750 (   361 PWs)   bands (ev):

    -2.4537  -0.9161   2.0114   3.0802

          k = 0.6250 0.3750 0.8750 (   357 PWs)   bands (ev):

    -3.6725   0.1751   2.7169   4.0782

          k = 0.3750 0.1250 0.6250 (   357 PWs)   bands (ev):

    -3.6725   0.1751   2.7169   4.0782

          k = 0.3750 0.6250 0.6250 (   361 PWs)   bands (ev):

    -3.4836  -0.6862   3.7193   4.4297

          k =-0.1250-0.8750 0.1250 (   358 PWs)   bands (ev):

    -2.6192  -0.8195   2.6160   3.3376

          k =-0.1250-0.3750 0.1250 (   353 PWs)   bands (ev):

    -5.1126   2.7530   4.6746   4.7370

          k =-0.3750 0.3750 0.3750 (   353 PWs)   bands (ev):

    -4.1861   0.0996   4.8922   4.8922

          k =-0.3750 0.8750 0.3750 (   361 PWs)   bands (ev):

    -2.9894  -0.6088   2.0673   4.1147

          k = 0.3750-0.3750 1.1250 (   361 PWs)   bands (ev):

    -2.9894  -0.6088   2.0673   4.1147

          k = 0.3750 0.1250 1.1250 (   361 PWs)   bands (ev):

    -2.4537  -0.9161   2.0114   3.0802

          k =-0.1250-0.1250 0.1250 (   338 PWs)   bands (ev):

    -5.6379   4.3705   5.6791   5.6791

          k =-0.1250 0.3750 0.1250 (   353 PWs)   bands (ev):

    -5.1126   2.7530   4.6746   4.7370

          k = 0.1250-0.3750 0.3750 (   352 PWs)   bands (ev):

    -4.6161   1.3817   3.7020   5.1977

          k = 0.1250 0.1250 0.3750 (   353 PWs)   bands (ev):

    -5.1126   2.7530   4.6746   4.7370

          k = 0.3750-0.1250 0.3750 (   352 PWs)   bands (ev):

    -4.6161   1.3817   3.7020   5.1977

          k = 0.3750 0.3750 0.3750 (   353 PWs)   bands (ev):

    -4.1861   0.0996   4.8922   4.8922

          k = 0.3750 0.1250 0.3750 (   352 PWs)   bands (ev):

    -4.6161   1.3817   3.7020   5.1977

          k = 0.3750 0.6250 0.3750 (   361 PWs)   bands (ev):

    -3.4836  -0.6862   3.7193   4.4297

          k =-0.6250 0.3750-0.3750 (   361 PWs)   bands (ev):

    -3.4836  -0.6862   3.7193   4.4297

          k =-0.6250 0.8750-0.3750 (   357 PWs)   bands (ev):

    -3.6725   0.1751   2.7169   4.0782

          k =-0.3750 0.6250-0.3750 (   361 PWs)   bands (ev):

    -3.4836  -0.6862   3.7193   4.4297

          k =-0.3750 1.1250-0.3750 (   361 PWs)   bands (ev):

    -2.9894  -0.6088   2.0673   4.1147

          k =-0.3750-0.6250-0.3750 (   361 PWs)   bands (ev):

    -3.4836  -0.6862   3.7193   4.4297

          k =-0.3750-0.1250-0.3750 (   352 PWs)   bands (ev):

    -4.6161   1.3817   3.7020   5.1977

          k =-0.3750 0.1250-0.1250 (   353 PWs)   bands (ev):

    -5.1126   2.7530   4.6746   4.7370

          k =-0.3750 0.6250-0.1250 (   357 PWs)   bands (ev):

    -3.6725   0.1751   2.7169   4.0782

          k =-0.1250 0.3750-0.1250 (   353 PWs)   bands (ev):

    -5.1126   2.7530   4.6746   4.7370

          k =-0.1250 0.8750-0.1250 (   358 PWs)   bands (ev):

    -2.6192  -0.8195   2.6160   3.3376

          k =-0.1250-0.3750-0.1250 (   353 PWs)   bands (ev):

    -5.1126   2.7530   4.6746   4.7370

          k =-0.1250 0.1250-0.1250 (   338 PWs)   bands (ev):

    -5.6379   4.3705   5.6791   5.6791

          k =-0.1250-0.6250 0.1250 (   351 PWs)   bands (ev):

    -4.0853   1.0416   3.3558   3.8032

          k =-0.1250-0.1250 0.1250 (   338 PWs)   bands (ev):

    -5.6379   4.3705   5.6791   5.6791

          k = 0.6250-0.1250-0.1250 (   351 PWs)   bands (ev):

    -4.0853   1.0416   3.3558   3.8032

          k = 0.6250 0.3750-0.1250 (   357 PWs)   bands (ev):

    -3.6725   0.1751   2.7169   4.0782

          k = 0.6250 0.1250 0.1250 (   351 PWs)   bands (ev):

    -4.0853   1.0416   3.3558   3.8032

          k = 0.6250 0.6250 0.1250 (   361 PWs)   bands (ev):

    -2.9894  -0.6088   2.0673   4.1147

          k =-0.8750 0.1250-0.6250 (   361 PWs)   bands (ev):

    -2.4537  -0.9161   2.0114   3.0802

          k =-0.8750 0.6250-0.6250 (   352 PWs)   bands (ev):

    -4.6161   1.3817   3.7020   5.1977

          k =-0.1250 0.6250-0.8750 (   361 PWs)   bands (ev):

    -2.4537  -0.9161   2.0114   3.0802

          k =-0.1250 1.1250-0.8750 (   358 PWs)   bands (ev):

    -2.6192  -0.8195   2.6160   3.3376

          k =-0.1250 0.8750-0.6250 (   361 PWs)   bands (ev):

    -2.4537  -0.9161   2.0114   3.0802

          k =-0.1250 1.3750-0.6250 (   361 PWs)   bands (ev):

    -2.9894  -0.6088   2.0673   4.1147

          k =-0.1250-0.8750-0.6250 (   361 PWs)   bands (ev):

    -2.4537  -0.9161   2.0114   3.0802

          k =-0.1250-0.3750-0.6250 (   357 PWs)   bands (ev):

    -3.6725   0.1751   2.7169   4.0782

          k = 0.8750-0.6250 0.1250 (   361 PWs)   bands (ev):

    -2.4537  -0.9161   2.0114   3.0802

          k = 0.8750-0.1250 0.1250 (   358 PWs)   bands (ev):

    -2.6192  -0.8195   2.6160   3.3376

          k =-0.6250-0.1250-0.3750 (   357 PWs)   bands (ev):

    -3.6725   0.1751   2.7169   4.0782

          k =-0.6250 0.3750-0.3750 (   361 PWs)   bands (ev):

    -3.4836  -0.6862   3.7193   4.4297

          k = 0.1250 0.3750-0.6250 (   357 PWs)   bands (ev):

    -3.6725   0.1751   2.7169   4.0782

          k = 0.1250 0.8750-0.6250 (   361 PWs)   bands (ev):

    -2.4537  -0.9161   2.0114   3.0802

          k = 0.1250 0.6250-0.3750 (   357 PWs)   bands (ev):

    -3.6725   0.1751   2.7169   4.0782

          k = 0.1250 1.1250-0.3750 (   361 PWs)   bands (ev):

    -2.4537  -0.9161   2.0114   3.0802

          k = 0.1250-0.6250-0.3750 (   357 PWs)   bands (ev):

    -3.6725   0.1751   2.7169   4.0782

          k = 0.1250-0.1250-0.3750 (   353 PWs)   bands (ev):

    -5.1126   2.7530   4.6746   4.7370

          k = 0.6250-0.3750-0.1250 (   357 PWs)   bands (ev):

    -3.6725   0.1751   2.7169   4.0782

          k = 0.6250 0.1250-0.1250 (   351 PWs)   bands (ev):

    -4.0853   1.0416   3.3558   3.8032

          k =-0.1250 0.8750 0.1250 (   358 PWs)   bands (ev):

    -2.6192  -0.8195   2.6160   3.3376

          k =-0.1250 1.3750 0.1250 (   351 PWs)   bands (ev):

    -4.0853   1.0416   3.3558   3.8032

          k =-0.8750-0.1250-0.1250 (   358 PWs)   bands (ev):

    -2.6192  -0.8195   2.6160   3.3376

          k =-0.8750 0.3750-0.1250 (   361 PWs)   bands (ev):

    -2.4537  -0.9161   2.0114   3.0802

          k =-0.8750 0.1250 0.1250 (   358 PWs)   bands (ev):

    -2.6192  -0.8195   2.6160   3.3376

          k =-0.8750 0.6250 0.1250 (   361 PWs)   bands (ev):

    -2.4537  -0.9161   2.0114   3.0802

          k =-0.3750-0.3750 0.3750 (   353 PWs)   bands (ev):

    -4.1861   0.0996   4.8922   4.8922

          k =-0.3750 0.1250 0.3750 (   352 PWs)   bands (ev):

    -4.6161   1.3817   3.7020   5.1977

          k =-1.1250 0.3750-0.3750 (   361 PWs)   bands (ev):

    -2.9894  -0.6088   2.0673   4.1147

          k =-1.1250 0.8750-0.3750 (   351 PWs)   bands (ev):

    -4.0853   1.0416   3.3558   3.8032

          k =-0.3750 1.1250-0.3750 (   361 PWs)   bands (ev):

    -2.9894  -0.6088   2.0673   4.1147

          k =-0.3750 1.6250-0.3750 (   353 PWs)   bands (ev):

    -4.1861   0.0996   4.8922   4.8922

          k =-0.3750-1.1250-0.3750 (   361 PWs)   bands (ev):

    -2.9894  -0.6088   2.0673   4.1147

          k =-0.3750-0.6250-0.3750 (   361 PWs)   bands (ev):

    -3.4836  -0.6862   3.7193   4.4297

     highest occupied level (ev):     5.6791

     Writing output data file silicon.10.3408.save

                                                                                

     bravais-lattice index     =            2
     lattice parameter (alat)  =      10.3408  a.u.
     unit-cell volume          =     276.4410 (a.u.)^3
     number of atoms/cell      =            2
     number of atomic types    =            1
     kinetic-energy cut-off    =      18.0000  Ry
     charge density cut-off    =      72.0000  Ry
     convergence threshold     =      1.0E-12
     beta                      =       0.7000
     number of iterations used =            4
     Exchange-correlation      = SLA  PW   PBE  PBE ( 1  4  3  4 0 0)


     celldm(1)=   10.34080  celldm(2)=    0.00000  celldm(3)=    0.00000
     celldm(4)=    0.00000  celldm(5)=    0.00000  celldm(6)=    0.00000

     crystal axes: (cart. coord. in units of alat)
               a(1) = ( -0.5000  0.0000  0.5000 )  
               a(2) = (  0.0000  0.5000  0.5000 )  
               a(3) = ( -0.5000  0.5000  0.0000 )  

     reciprocal axes: (cart. coord. in units 2 pi/alat)
               b(1) = ( -1.0000 -1.0000  1.0000 )  
               b(2) = (  1.0000  1.0000  1.0000 )  
               b(3) = ( -1.0000  1.0000 -1.0000 )  


     Atoms inside the unit cell: 

     Cartesian axes

     site n.  atom      mass           positions (alat units)
        1     Si  28.0860   tau(    1) = (    0.00000    0.00000    0.00000  )
        2     Si  28.0860   tau(    2) = (    0.25000    0.25000    0.25000  )

     Computing dynamical matrix for 
                    q = (   0.0000000   0.5000000   0.0000000 )

      8 Sym.Ops. (no q -> -q+G )


     G cutoff =  195.0208  (    710 G-vectors)     FFT grid: ( 20, 20, 20)
     number of k points=    80

     PseudoPot. # 1 for Si read from file:
     /home/max/quantum_espresso/qe-6.1/pseudo/si_pbe_v1.uspp.F.UPF.txt
     MD5 check sum: a056efeee980c13900f22a371efd63c1
     Pseudo is Ultrasoft + core correction, Zval =  4.0
     Generated by new atomic code, or converted to UPF format
     Using radial grid of  899 points,  6 beta functions with: 
                l(1) =   0
                l(2) =   0
                l(3) =   1
                l(4) =   1
                l(5) =   2
                l(6) =   2
     Q(r) pseudized with  8 coefficients,  rinner =    0.900   0.900   0.900
                                                       0.900   0.900

     Mode symmetry, C_4v (4mm)  point group:


     Atomic displacements:
     There are   4 irreducible representations

     Representation     1      1 modes -A_1  G_1 D_1  To be done

     Representation     2      1 modes -B_2  G_4 D_2'  To be done

     Representation     3      2 modes -E    G_5 D_5  To be done

     Representation     4      2 modes -E    G_5 D_5  To be done



     Alpha used in Ewald sum =   0.7000
     PHONON       :    20.99s CPU        22.22s WALL



     Representation #  1 mode #   1

     Self-consistent Calculation

      iter #   1 total cpu time :    22.4 secs   av.it.:   5.8
      thresh= 1.000E-02 alpha_mix =  0.700 |ddv_scf|^2 =  2.967E-03

      iter #   2 total cpu time :    22.6 secs   av.it.:   7.7
      thresh= 5.447E-03 alpha_mix =  0.700 |ddv_scf|^2 =  3.906E-02

      iter #   3 total cpu time :    22.7 secs   av.it.:   6.8
      thresh= 1.000E-02 alpha_mix =  0.700 |ddv_scf|^2 =  1.480E-07

      iter #   4 total cpu time :    22.9 secs   av.it.:   8.1
      thresh= 3.846E-05 alpha_mix =  0.700 |ddv_scf|^2 =  1.422E-08

      iter #   5 total cpu time :    23.1 secs   av.it.:   7.7
      thresh= 1.192E-05 alpha_mix =  0.700 |ddv_scf|^2 =  7.176E-10

      iter #   6 total cpu time :    23.2 secs   av.it.:   7.9
      thresh= 2.679E-06 alpha_mix =  0.700 |ddv_scf|^2 =  2.778E-12

      iter #   7 total cpu time :    23.4 secs   av.it.:   7.9
      thresh= 1.667E-07 alpha_mix =  0.700 |ddv_scf|^2 =  5.355E-13

     End of self-consistent calculation

     Convergence has been achieved 


     Representation #  2 mode #   2

     Self-consistent Calculation

      iter #   1 total cpu time :    23.7 secs   av.it.:   4.9
      thresh= 1.000E-02 alpha_mix =  0.700 |ddv_scf|^2 =  5.508E-06

      iter #   2 total cpu time :    23.9 secs   av.it.:   8.7
      thresh= 2.347E-04 alpha_mix =  0.700 |ddv_scf|^2 =  1.340E-06

      iter #   3 total cpu time :    24.1 secs   av.it.:   8.5
      thresh= 1.158E-04 alpha_mix =  0.700 |ddv_scf|^2 =  4.266E-08

      iter #   4 total cpu time :    24.3 secs   av.it.:   8.2
      thresh= 2.065E-05 alpha_mix =  0.700 |ddv_scf|^2 =  7.165E-10

      iter #   5 total cpu time :    24.5 secs   av.it.:   8.6
      thresh= 2.677E-06 alpha_mix =  0.700 |ddv_scf|^2 =  6.847E-12

      iter #   6 total cpu time :    24.7 secs   av.it.:   8.0
      thresh= 2.617E-07 alpha_mix =  0.700 |ddv_scf|^2 =  7.404E-14

     End of self-consistent calculation

     Convergence has been achieved 


     Representation #  3 modes #   3  4

     Self-consistent Calculation

      iter #   1 total cpu time :    24.9 secs   av.it.:   5.0
      thresh= 1.000E-02 alpha_mix =  0.700 |ddv_scf|^2 =  1.022E-06

      iter #   2 total cpu time :    25.3 secs   av.it.:   9.8
      thresh= 1.011E-04 alpha_mix =  0.700 |ddv_scf|^2 =  1.269E-07

      iter #   3 total cpu time :    25.9 secs   av.it.:   9.5
      thresh= 3.562E-05 alpha_mix =  0.700 |ddv_scf|^2 =  6.699E-09

      iter #   4 total cpu time :    26.3 secs   av.it.:   8.8
      thresh= 8.185E-06 alpha_mix =  0.700 |ddv_scf|^2 =  9.523E-12

      iter #   5 total cpu time :    26.7 secs   av.it.:   9.1
      thresh= 3.086E-07 alpha_mix =  0.700 |ddv_scf|^2 =  2.994E-13

     End of self-consistent calculation

     Convergence has been achieved 


     Representation #  4 modes #   5  6

     Self-consistent Calculation

      iter #   1 total cpu time :    27.0 secs   av.it.:   5.0
      thresh= 1.000E-02 alpha_mix =  0.700 |ddv_scf|^2 =  9.383E-07

      iter #   2 total cpu time :    27.4 secs   av.it.:   9.8
      thresh= 9.686E-05 alpha_mix =  0.700 |ddv_scf|^2 =  1.188E-07

      iter #   3 total cpu time :    27.9 secs   av.it.:   9.4
      thresh= 3.446E-05 alpha_mix =  0.700 |ddv_scf|^2 =  7.004E-09

      iter #   4 total cpu time :    28.3 secs   av.it.:   8.9
      thresh= 8.369E-06 alpha_mix =  0.700 |ddv_scf|^2 =  1.481E-11

      iter #   5 total cpu time :    28.7 secs   av.it.:   9.2
      thresh= 3.848E-07 alpha_mix =  0.700 |ddv_scf|^2 =  4.411E-14

     End of self-consistent calculation

     Convergence has been achieved 

     Number of q in the star =    6
     List of q in the star:
          1   0.000000000   0.500000000   0.000000000
          2   0.000000000  -0.500000000   0.000000000
          3   0.500000000   0.000000000   0.000000000
          4   0.000000000   0.000000000   0.500000000
          5   0.000000000   0.000000000  -0.500000000
          6  -0.500000000   0.000000000   0.000000000

     Diagonalizing the dynamical matrix

     q = (    0.000000000   0.500000000   0.000000000 ) 

 **************************************************************************
     freq (    1) =       4.297746 [THz] =     143.357389 [cm-1]
     freq (    2) =       4.297746 [THz] =     143.357389 [cm-1]
     freq (    3) =       7.152305 [THz] =     238.575225 [cm-1]
     freq (    4) =      14.045644 [THz] =     468.512250 [cm-1]
     freq (    5) =      14.045644 [THz] =     468.512250 [cm-1]
     freq (    6) =      14.673704 [THz] =     489.462086 [cm-1]
 **************************************************************************

     Mode symmetry, C_4v (4mm)  point group:

     freq (  1 -  2) =        143.4  [cm-1]   --> E    G_5 D_5       
     freq (  3 -  3) =        238.6  [cm-1]   --> A_1  G_1 D_1       
     freq (  4 -  5) =        468.5  [cm-1]   --> E    G_5 D_5       
     freq (  6 -  6) =        489.5  [cm-1]   --> B_2  G_4 D_2'      

     Calculation of q =    0.7500000  -0.2500000   0.7500000

   Info: using nr1, nr2, nr3 values from input

   Info: using nr1, nr2, nr3 values from input

     Parallelization info
     --------------------
     sticks:   dense  smooth     PW     G-vecs:    dense   smooth      PW
     Min          64      64     30                  709      709     216
     Max          67      67     31                  710      710     218
     Sum         265     265    121                 2837     2837     869



     bravais-lattice index     =            2
     lattice parameter (alat)  =      10.3408  a.u.
     unit-cell volume          =     276.4410 (a.u.)^3
     number of atoms/cell      =            2
     number of atomic types    =            1
     number of electrons       =         8.00
     number of Kohn-Sham states=            4
     kinetic-energy cutoff     =      18.0000  Ry
     charge density cutoff     =      72.0000  Ry
     Exchange-correlation      = SLA  PW   PBE  PBE ( 1  4  3  4 0 0)

     celldm(1)=  10.340800  celldm(2)=   0.000000  celldm(3)=   0.000000
     celldm(4)=   0.000000  celldm(5)=   0.000000  celldm(6)=   0.000000

     crystal axes: (cart. coord. in units of alat)
               a(1) = (  -0.500000   0.000000   0.500000 )  
               a(2) = (   0.000000   0.500000   0.500000 )  
               a(3) = (  -0.500000   0.500000   0.000000 )  

     reciprocal axes: (cart. coord. in units 2 pi/alat)
               b(1) = ( -1.000000 -1.000000  1.000000 )  
               b(2) = (  1.000000  1.000000  1.000000 )  
               b(3) = ( -1.000000  1.000000 -1.000000 )  


     PseudoPot. # 1 for Si read from file:
     /home/max/quantum_espresso/qe-6.1/pseudo/si_pbe_v1.uspp.F.UPF.txt
     MD5 check sum: a056efeee980c13900f22a371efd63c1
     Pseudo is Ultrasoft + core correction, Zval =  4.0
     Generated by new atomic code, or converted to UPF format
     Using radial grid of  899 points,  6 beta functions with: 
                l(1) =   0
                l(2) =   0
                l(3) =   1
                l(4) =   1
                l(5) =   2
                l(6) =   2
     Q(r) pseudized with  8 coefficients,  rinner =    0.900   0.900   0.900
                                                       0.900   0.900

     atomic species   valence    mass     pseudopotential
        Si             4.00    28.08600     Si( 1.00)

     48 Sym. Ops., with inversion, found



   Cartesian axes

     site n.     atom                  positions (alat units)
         1           Si  tau(   1) = (   0.0000000   0.0000000   0.0000000  )
         2           Si  tau(   2) = (   0.2500000   0.2500000   0.2500000  )

     number of k points=   288

     Number of k-points >= 100: set verbosity='high' to print them.

     Dense  grid:     2837 G-vectors     FFT dimensions: (  20,  20,  20)

     Estimated max dynamical RAM per process >       0.33MB

     Estimated total allocated dynamical RAM >       1.32MB

     Check: negative/imaginary core charge=   -0.000006    0.000000

     The potential is recalculated from file :
     ./_ph0/silicon.10.3408.save/charge-density.dat

     Starting wfc are    8 atomic wfcs

     Band Structure Calculation
     Davidson diagonalization with overlap

     ethr =  1.25E-10,  avg # of iterations = 11.6

     total cpu time spent up to now is        4.2 secs

     End of band structure calculation

     Number of k-points >= 100: set verbosity='high' to print the bands.

     highest occupied level (ev):     5.6791

     Writing output data file silicon.10.3408.save

                                                                                

     bravais-lattice index     =            2
     lattice parameter (alat)  =      10.3408  a.u.
     unit-cell volume          =     276.4410 (a.u.)^3
     number of atoms/cell      =            2
     number of atomic types    =            1
     kinetic-energy cut-off    =      18.0000  Ry
     charge density cut-off    =      72.0000  Ry
     convergence threshold     =      1.0E-12
     beta                      =       0.7000
     number of iterations used =            4
     Exchange-correlation      = SLA  PW   PBE  PBE ( 1  4  3  4 0 0)


     celldm(1)=   10.34080  celldm(2)=    0.00000  celldm(3)=    0.00000
     celldm(4)=    0.00000  celldm(5)=    0.00000  celldm(6)=    0.00000

     crystal axes: (cart. coord. in units of alat)
               a(1) = ( -0.5000  0.0000  0.5000 )  
               a(2) = (  0.0000  0.5000  0.5000 )  
               a(3) = ( -0.5000  0.5000  0.0000 )  

     reciprocal axes: (cart. coord. in units 2 pi/alat)
               b(1) = ( -1.0000 -1.0000  1.0000 )  
               b(2) = (  1.0000  1.0000  1.0000 )  
               b(3) = ( -1.0000  1.0000 -1.0000 )  


     Atoms inside the unit cell: 

     Cartesian axes

     site n.  atom      mass           positions (alat units)
        1     Si  28.0860   tau(    1) = (    0.00000    0.00000    0.00000  )
        2     Si  28.0860   tau(    2) = (    0.25000    0.25000    0.25000  )

     Computing dynamical matrix for 
                    q = (   0.7500000  -0.2500000   0.7500000 )

      2 Sym.Ops. (no q -> -q+G )


     G cutoff =  195.0208  (    710 G-vectors)     FFT grid: ( 20, 20, 20)
     number of k points=   288

     PseudoPot. # 1 for Si read from file:
     /home/max/quantum_espresso/qe-6.1/pseudo/si_pbe_v1.uspp.F.UPF.txt
     MD5 check sum: a056efeee980c13900f22a371efd63c1
     Pseudo is Ultrasoft + core correction, Zval =  4.0
     Generated by new atomic code, or converted to UPF format
     Using radial grid of  899 points,  6 beta functions with: 
                l(1) =   0
                l(2) =   0
                l(3) =   1
                l(4) =   1
                l(5) =   2
                l(6) =   2
     Q(r) pseudized with  8 coefficients,  rinner =    0.900   0.900   0.900
                                                       0.900   0.900

     Mode symmetry, C_s (m)     point group:


     Atomic displacements:
     There are   6 irreducible representations

     Representation     1      1 modes -A'  To be done

     Representation     2      1 modes -A'  To be done

     Representation     3      1 modes -A'  To be done

     Representation     4      1 modes -A'  To be done

     Representation     5      1 modes -A''  To be done

     Representation     6      1 modes -A''  To be done



     Alpha used in Ewald sum =   0.7000
     PHONON       :    29.54s CPU        31.34s WALL



     Representation #  1 mode #   1

     Self-consistent Calculation

      iter #   1 total cpu time :    32.0 secs   av.it.:   5.3
      thresh= 1.000E-02 alpha_mix =  0.700 |ddv_scf|^2 =  6.124E-05

      iter #   2 total cpu time :    32.6 secs   av.it.:   8.9
      thresh= 7.826E-04 alpha_mix =  0.700 |ddv_scf|^2 =  1.604E-04

      iter #   3 total cpu time :    33.2 secs   av.it.:   7.6
      thresh= 1.266E-03 alpha_mix =  0.700 |ddv_scf|^2 =  1.148E-06

      iter #   4 total cpu time :    34.0 secs   av.it.:   8.4
      thresh= 1.071E-04 alpha_mix =  0.700 |ddv_scf|^2 =  6.156E-08

      iter #   5 total cpu time :    34.6 secs   av.it.:   8.3
      thresh= 2.481E-05 alpha_mix =  0.700 |ddv_scf|^2 =  7.540E-09

      iter #   6 total cpu time :    35.3 secs   av.it.:   8.5
      thresh= 8.683E-06 alpha_mix =  0.700 |ddv_scf|^2 =  8.317E-11

      iter #   7 total cpu time :    36.1 secs   av.it.:   8.8
      thresh= 9.120E-07 alpha_mix =  0.700 |ddv_scf|^2 =  2.992E-12

      iter #   8 total cpu time :    36.7 secs   av.it.:   8.6
      thresh= 1.730E-07 alpha_mix =  0.700 |ddv_scf|^2 =  1.922E-13

     End of self-consistent calculation

     Convergence has been achieved 


     Representation #  2 mode #   2

     Self-consistent Calculation

      iter #   1 total cpu time :    37.2 secs   av.it.:   5.4
      thresh= 1.000E-02 alpha_mix =  0.700 |ddv_scf|^2 =  1.090E-04

      iter #   2 total cpu time :    38.0 secs   av.it.:   8.7
      thresh= 1.044E-03 alpha_mix =  0.700 |ddv_scf|^2 =  3.109E-04

      iter #   3 total cpu time :    38.6 secs   av.it.:   7.4
      thresh= 1.763E-03 alpha_mix =  0.700 |ddv_scf|^2 =  7.932E-07

      iter #   4 total cpu time :    39.2 secs   av.it.:   8.6
      thresh= 8.906E-05 alpha_mix =  0.700 |ddv_scf|^2 =  6.007E-08

      iter #   5 total cpu time :    40.0 secs   av.it.:   8.2
      thresh= 2.451E-05 alpha_mix =  0.700 |ddv_scf|^2 =  1.070E-08

      iter #   6 total cpu time :    40.7 secs   av.it.:   8.5
      thresh= 1.035E-05 alpha_mix =  0.700 |ddv_scf|^2 =  8.349E-11

      iter #   7 total cpu time :    41.3 secs   av.it.:   8.7
      thresh= 9.137E-07 alpha_mix =  0.700 |ddv_scf|^2 =  2.680E-12

      iter #   8 total cpu time :    42.1 secs   av.it.:   8.7
      thresh= 1.637E-07 alpha_mix =  0.700 |ddv_scf|^2 =  7.171E-13

     End of self-consistent calculation

     Convergence has been achieved 


     Representation #  3 mode #   3

     Self-consistent Calculation

      iter #   1 total cpu time :    42.7 secs   av.it.:   5.3
      thresh= 1.000E-02 alpha_mix =  0.700 |ddv_scf|^2 =  8.555E-05

      iter #   2 total cpu time :    43.3 secs   av.it.:   8.8
      thresh= 9.249E-04 alpha_mix =  0.700 |ddv_scf|^2 =  2.281E-04

      iter #   3 total cpu time :    44.0 secs   av.it.:   7.4
      thresh= 1.510E-03 alpha_mix =  0.700 |ddv_scf|^2 =  1.352E-06

      iter #   4 total cpu time :    44.7 secs   av.it.:   8.2
      thresh= 1.163E-04 alpha_mix =  0.700 |ddv_scf|^2 =  6.169E-08

      iter #   5 total cpu time :    45.3 secs   av.it.:   8.4
      thresh= 2.484E-05 alpha_mix =  0.700 |ddv_scf|^2 =  1.101E-08

      iter #   6 total cpu time :    46.1 secs   av.it.:   8.5
      thresh= 1.049E-05 alpha_mix =  0.700 |ddv_scf|^2 =  4.795E-11

      iter #   7 total cpu time :    46.8 secs   av.it.:   8.7
      thresh= 6.925E-07 alpha_mix =  0.700 |ddv_scf|^2 =  1.735E-12

      iter #   8 total cpu time :    47.4 secs   av.it.:   8.8
      thresh= 1.317E-07 alpha_mix =  0.700 |ddv_scf|^2 =  3.147E-13

     End of self-consistent calculation

     Convergence has been achieved 


     Representation #  4 mode #   4

     Self-consistent Calculation

      iter #   1 total cpu time :    48.1 secs   av.it.:   5.2
      thresh= 1.000E-02 alpha_mix =  0.700 |ddv_scf|^2 =  3.778E-05

      iter #   2 total cpu time :    48.8 secs   av.it.:   8.9
[...]
        k(   59) = (  -0.8750000   0.1250000  -0.1250000), wk =   0.0625000
        k(   60) = (  -1.3750000  -0.8750000  -0.1250000), wk =   0.0000000
        k(   61) = (  -1.1250000   0.3750000  -0.3750000), wk =   0.0625000
        k(   62) = (  -1.6250000  -0.6250000  -0.3750000), wk =   0.0000000
        k(   63) = (  -0.3750000   0.3750000   1.1250000), wk =   0.0625000
        k(   64) = (  -0.8750000  -0.6250000   1.1250000), wk =   0.0000000

     Dense  grid:     2837 G-vectors     FFT dimensions: (  20,  20,  20)

     Estimated max dynamical RAM per process >       0.33MB

     Estimated total allocated dynamical RAM >       1.32MB

     Check: negative/imaginary core charge=   -0.000006    0.000000

     The potential is recalculated from file :
     ./_ph0/silicon.10.3408.save/charge-density.dat

     Starting wfc are    8 atomic wfcs

     Band Structure Calculation
     Davidson diagonalization with overlap

     ethr =  1.25E-10,  avg # of iterations = 11.6

     total cpu time spent up to now is        6.5 secs

     End of band structure calculation

          k =-0.1250 0.1250 0.1250 (   338 PWs)   bands (ev):

    -5.6379   4.3705   5.6791   5.6791

          k =-0.6250-0.8750 0.1250 (   361 PWs)   bands (ev):

    -2.4537  -0.9161   2.0114   3.0802

          k =-0.3750 0.3750-0.1250 (   352 PWs)   bands (ev):

    -4.6161   1.3817   3.7020   5.1977

          k =-0.8750-0.6250-0.1250 (   361 PWs)   bands (ev):

    -2.4537  -0.9161   2.0114   3.0802

          k = 0.3750-0.3750 0.6250 (   361 PWs)   bands (ev):

    -3.4836  -0.6862   3.7193   4.4297

          k =-0.1250-1.3750 0.6250 (   361 PWs)   bands (ev):

    -2.9894  -0.6088   2.0673   4.1147

          k = 0.1250-0.1250 0.3750 (   353 PWs)   bands (ev):

    -5.1126   2.7530   4.6746   4.7370

          k =-0.3750-1.1250 0.3750 (   361 PWs)   bands (ev):

    -2.9894  -0.6088   2.0673   4.1147

          k =-0.1250 0.6250 0.1250 (   351 PWs)   bands (ev):

    -4.0853   1.0416   3.3558   3.8032

          k =-0.6250-0.3750 0.1250 (   357 PWs)   bands (ev):

    -3.6725   0.1751   2.7169   4.0782

          k = 0.6250-0.1250 0.8750 (   361 PWs)   bands (ev):

    -2.4537  -0.9161   2.0114   3.0802

          k = 0.1250-1.1250 0.8750 (   358 PWs)   bands (ev):

    -2.6192  -0.8195   2.6160   3.3376

          k = 0.3750 0.1250 0.6250 (   357 PWs)   bands (ev):

    -3.6725   0.1751   2.7169   4.0782

          k =-0.1250-0.8750 0.6250 (   361 PWs)   bands (ev):

    -2.4537  -0.9161   2.0114   3.0802

          k =-0.1250-0.8750 0.1250 (   358 PWs)   bands (ev):

    -2.6192  -0.8195   2.6160   3.3376

          k =-0.6250-1.8750 0.1250 (   351 PWs)   bands (ev):

    -4.0853   1.0416   3.3558   3.8032

          k =-0.3750 0.3750 0.3750 (   353 PWs)   bands (ev):

    -4.1861   0.0996   4.8922   4.8922

          k =-0.8750-0.6250 0.3750 (   357 PWs)   bands (ev):

    -3.6725   0.1751   2.7169   4.0782

          k = 0.3750-0.3750 1.1250 (   361 PWs)   bands (ev):

    -2.9894  -0.6088   2.0673   4.1147

          k =-0.1250-1.3750 1.1250 (   361 PWs)   bands (ev):

    -2.4537  -0.9161   2.0114   3.0802

          k = 0.1250-0.3750 0.3750 (   352 PWs)   bands (ev):

    -4.6161   1.3817   3.7020   5.1977

          k =-0.3750-1.3750 0.3750 (   361 PWs)   bands (ev):

    -3.4836  -0.6862   3.7193   4.4297

          k = 0.3750-0.3750-0.1250 (   352 PWs)   bands (ev):

    -4.6161   1.3817   3.7020   5.1977

          k =-0.1250-1.3750-0.1250 (   351 PWs)   bands (ev):

    -4.0853   1.0416   3.3558   3.8032

          k =-0.6250 0.3750-0.3750 (   361 PWs)   bands (ev):

    -3.4836  -0.6862   3.7193   4.4297

          k =-1.1250-0.6250-0.3750 (   357 PWs)   bands (ev):

    -3.6725   0.1751   2.7169   4.0782

          k =-0.3750 0.3750 0.6250 (   361 PWs)   bands (ev):

    -3.4836  -0.6862   3.7193   4.4297

          k =-0.8750-0.6250 0.6250 (   352 PWs)   bands (ev):

    -4.6161   1.3817   3.7020   5.1977

          k =-0.3750 0.1250-0.1250 (   353 PWs)   bands (ev):

    -5.1126   2.7530   4.6746   4.7370

          k =-0.8750-0.8750-0.1250 (   358 PWs)   bands (ev):

    -2.6192  -0.8195   2.6160   3.3376

          k =-0.1250 0.1250 0.3750 (   353 PWs)   bands (ev):

    -5.1126   2.7530   4.6746   4.7370

          k =-0.6250-0.8750 0.3750 (   357 PWs)   bands (ev):

    -3.6725   0.1751   2.7169   4.0782

          k = 0.1250 0.6250-0.1250 (   351 PWs)   bands (ev):

    -4.0853   1.0416   3.3558   3.8032

          k =-0.3750-0.3750-0.1250 (   352 PWs)   bands (ev):

    -4.6161   1.3817   3.7020   5.1977

          k = 0.6250 0.1250-0.1250 (   351 PWs)   bands (ev):

    -4.0853   1.0416   3.3558   3.8032

          k = 0.1250-0.8750-0.1250 (   358 PWs)   bands (ev):

    -2.6192  -0.8195   2.6160   3.3376

          k =-0.8750 0.1250-0.6250 (   361 PWs)   bands (ev):

    -2.4537  -0.9161   2.0114   3.0802

          k =-1.3750-0.8750-0.6250 (   352 PWs)   bands (ev):

    -4.6161   1.3817   3.7020   5.1977

          k = 0.8750-0.1250 0.6250 (   361 PWs)   bands (ev):

    -2.4537  -0.9161   2.0114   3.0802

          k = 0.3750-1.1250 0.6250 (   357 PWs)   bands (ev):

    -3.6725   0.1751   2.7169   4.0782

          k =-0.6250 0.1250 0.8750 (   361 PWs)   bands (ev):

    -2.4537  -0.9161   2.0114   3.0802

          k =-1.1250-0.8750 0.8750 (   338 PWs)   bands (ev):

    -5.6379   4.3705   5.6791   5.6791

          k =-0.1250 0.8750 0.6250 (   361 PWs)   bands (ev):

    -2.4537  -0.9161   2.0114   3.0802

          k =-0.6250-0.1250 0.6250 (   361 PWs)   bands (ev):

    -2.9894  -0.6088   2.0673   4.1147

          k = 0.1250 0.8750-0.6250 (   361 PWs)   bands (ev):

    -2.4537  -0.9161   2.0114   3.0802

          k =-0.3750-0.1250-0.6250 (   357 PWs)   bands (ev):

    -3.6725   0.1751   2.7169   4.0782

          k =-0.6250-0.1250-0.3750 (   357 PWs)   bands (ev):

    -3.6725   0.1751   2.7169   4.0782

          k =-1.1250-1.1250-0.3750 (   351 PWs)   bands (ev):

    -4.0853   1.0416   3.3558   3.8032

          k = 0.6250 0.1250 0.3750 (   357 PWs)   bands (ev):

    -3.6725   0.1751   2.7169   4.0782

          k = 0.1250-0.8750 0.3750 (   361 PWs)   bands (ev):

    -2.4537  -0.9161   2.0114   3.0802

          k =-0.3750-0.1250 0.6250 (   357 PWs)   bands (ev):

    -3.6725   0.1751   2.7169   4.0782

          k =-0.8750-1.1250 0.6250 (   353 PWs)   bands (ev):

    -5.1126   2.7530   4.6746   4.7370

          k = 0.1250 0.6250 0.3750 (   357 PWs)   bands (ev):

    -3.6725   0.1751   2.7169   4.0782

          k =-0.3750-0.3750 0.3750 (   353 PWs)   bands (ev):

    -4.1861   0.0996   4.8922   4.8922

          k =-0.1250 0.6250-0.3750 (   357 PWs)   bands (ev):

    -3.6725   0.1751   2.7169   4.0782

          k =-0.6250-0.3750-0.3750 (   361 PWs)   bands (ev):

    -3.4836  -0.6862   3.7193   4.4297

          k = 0.1250-0.8750-0.1250 (   358 PWs)   bands (ev):

    -2.6192  -0.8195   2.6160   3.3376

          k =-0.3750-1.8750-0.1250 (   353 PWs)   bands (ev):

    -5.1126   2.7530   4.6746   4.7370

          k =-0.8750 0.1250-0.1250 (   358 PWs)   bands (ev):

    -2.6192  -0.8195   2.6160   3.3376

          k =-1.3750-0.8750-0.1250 (   361 PWs)   bands (ev):

    -2.4537  -0.9161   2.0114   3.0802

          k =-1.1250 0.3750-0.3750 (   361 PWs)   bands (ev):

    -2.9894  -0.6088   2.0673   4.1147

          k =-1.6250-0.6250-0.3750 (   361 PWs)   bands (ev):

    -3.4836  -0.6862   3.7193   4.4297

          k =-0.3750 0.3750 1.1250 (   361 PWs)   bands (ev):

    -2.9894  -0.6088   2.0673   4.1147

          k =-0.8750-0.6250 1.1250 (   353 PWs)   bands (ev):

    -5.1126   2.7530   4.6746   4.7370

     highest occupied level (ev):     5.6791

     Writing output data file silicon.10.3408.save

                                                                                

     bravais-lattice index     =            2
     lattice parameter (alat)  =      10.3408  a.u.
     unit-cell volume          =     276.4410 (a.u.)^3
     number of atoms/cell      =            2
     number of atomic types    =            1
     kinetic-energy cut-off    =      18.0000  Ry
     charge density cut-off    =      72.0000  Ry
     convergence threshold     =      1.0E-12
     beta                      =       0.7000
     number of iterations used =            4
     Exchange-correlation      = SLA  PW   PBE  PBE ( 1  4  3  4 0 0)


     celldm(1)=   10.34080  celldm(2)=    0.00000  celldm(3)=    0.00000
     celldm(4)=    0.00000  celldm(5)=    0.00000  celldm(6)=    0.00000

     crystal axes: (cart. coord. in units of alat)
               a(1) = ( -0.5000  0.0000  0.5000 )  
               a(2) = (  0.0000  0.5000  0.5000 )  
               a(3) = ( -0.5000  0.5000  0.0000 )  

     reciprocal axes: (cart. coord. in units 2 pi/alat)
               b(1) = ( -1.0000 -1.0000  1.0000 )  
               b(2) = (  1.0000  1.0000  1.0000 )  
               b(3) = ( -1.0000  1.0000 -1.0000 )  


     Atoms inside the unit cell: 

     Cartesian axes

     site n.  atom      mass           positions (alat units)
        1     Si  28.0860   tau(    1) = (    0.00000    0.00000    0.00000  )
        2     Si  28.0860   tau(    2) = (    0.25000    0.25000    0.25000  )

     Computing dynamical matrix for 
                    q = (  -0.5000000  -1.0000000   0.0000000 )

      8 Sym.Ops. (no q -> -q+G )


     G cutoff =  195.0208  (    710 G-vectors)     FFT grid: ( 20, 20, 20)
     number of k points=    64

     PseudoPot. # 1 for Si read from file:
     /home/max/quantum_espresso/qe-6.1/pseudo/si_pbe_v1.uspp.F.UPF.txt
     MD5 check sum: a056efeee980c13900f22a371efd63c1
     Pseudo is Ultrasoft + core correction, Zval =  4.0
     Generated by new atomic code, or converted to UPF format
     Using radial grid of  899 points,  6 beta functions with: 
                l(1) =   0
                l(2) =   0
                l(3) =   1
                l(4) =   1
                l(5) =   2
                l(6) =   2
     Q(r) pseudized with  8 coefficients,  rinner =    0.900   0.900   0.900
                                                       0.900   0.900


     Atomic displacements:
     There are   3 irreducible representations

     Representation     1      2 modes -  To be done

     Representation     2      2 modes -  To be done

     Representation     3      2 modes -  To be done



     Alpha used in Ewald sum =   0.7000
     PHONON       :  1m13.17s CPU     1m18.44s WALL



     Representation #  1 modes #   1  2

     Self-consistent Calculation

      iter #   1 total cpu time :    78.7 secs   av.it.:   5.3
      thresh= 1.000E-02 alpha_mix =  0.700 |ddv_scf|^2 =  6.367E-06

      iter #   2 total cpu time :    79.0 secs   av.it.:   9.9
      thresh= 2.523E-04 alpha_mix =  0.700 |ddv_scf|^2 =  3.436E-06

      iter #   3 total cpu time :    79.3 secs   av.it.:   9.2
      thresh= 1.854E-04 alpha_mix =  0.700 |ddv_scf|^2 =  9.059E-09

      iter #   4 total cpu time :    79.8 secs   av.it.:   9.1
      thresh= 9.518E-06 alpha_mix =  0.700 |ddv_scf|^2 =  1.955E-11

      iter #   5 total cpu time :    80.1 secs   av.it.:   9.2
      thresh= 4.421E-07 alpha_mix =  0.700 |ddv_scf|^2 =  5.733E-13

     End of self-consistent calculation

     Convergence has been achieved 


     Representation #  2 modes #   3  4

     Self-consistent Calculation

      iter #   1 total cpu time :    80.3 secs   av.it.:   5.2
      thresh= 1.000E-02 alpha_mix =  0.700 |ddv_scf|^2 =  9.810E-06

      iter #   2 total cpu time :    80.7 secs   av.it.:   9.9
      thresh= 3.132E-04 alpha_mix =  0.700 |ddv_scf|^2 =  1.308E-05

      iter #   3 total cpu time :    81.0 secs   av.it.:   9.1
      thresh= 3.617E-04 alpha_mix =  0.700 |ddv_scf|^2 =  1.054E-08

      iter #   4 total cpu time :    81.3 secs   av.it.:   8.8
      thresh= 1.027E-05 alpha_mix =  0.700 |ddv_scf|^2 =  8.441E-11

      iter #   5 total cpu time :    81.8 secs   av.it.:   9.4
      thresh= 9.187E-07 alpha_mix =  0.700 |ddv_scf|^2 =  1.798E-12

      iter #   6 total cpu time :    82.1 secs   av.it.:   9.1
      thresh= 1.341E-07 alpha_mix =  0.700 |ddv_scf|^2 =  1.471E-14

     End of self-consistent calculation

     Convergence has been achieved 


     Representation #  3 modes #   5  6

     Self-consistent Calculation

      iter #   1 total cpu time :    82.3 secs   av.it.:   5.1
      thresh= 1.000E-02 alpha_mix =  0.700 |ddv_scf|^2 =  2.669E-06

      iter #   2 total cpu time :    82.7 secs   av.it.:   9.7
      thresh= 1.634E-04 alpha_mix =  0.700 |ddv_scf|^2 =  1.451E-06

      iter #   3 total cpu time :    83.0 secs   av.it.:   9.0
      thresh= 1.205E-04 alpha_mix =  0.700 |ddv_scf|^2 =  8.773E-09

      iter #   4 total cpu time :    83.3 secs   av.it.:   8.7
      thresh= 9.366E-06 alpha_mix =  0.700 |ddv_scf|^2 =  4.388E-11

      iter #   5 total cpu time :    83.7 secs   av.it.:   9.0
      thresh= 6.624E-07 alpha_mix =  0.700 |ddv_scf|^2 =  6.899E-13

     End of self-consistent calculation

     Convergence has been achieved 

     Number of q in the star =    6
     List of q in the star:
          1  -0.500000000  -1.000000000   0.000000000
          2   0.000000000   1.000000000   0.500000000
          3   0.000000000  -1.000000000  -0.500000000
          4   0.500000000   1.000000000   0.000000000
          5  -1.000000000  -0.500000000   0.000000000
          6   0.000000000  -0.500000000  -1.000000000

     Diagonalizing the dynamical matrix

     q = (   -0.500000000  -1.000000000   0.000000000 ) 

 **************************************************************************
     freq (    1) =       7.325939 [THz] =     244.367009 [cm-1]
     freq (    2) =       7.325939 [THz] =     244.367009 [cm-1]
     freq (    3) =      10.950511 [THz] =     365.269716 [cm-1]
     freq (    4) =      10.950511 [THz] =     365.269716 [cm-1]
     freq (    5) =      13.878480 [THz] =     462.936270 [cm-1]
     freq (    6) =      13.878480 [THz] =     462.936270 [cm-1]
 **************************************************************************

     init_run     :      0.59s CPU      0.62s WALL (       7 calls)
     electrons    :      4.78s CPU      5.12s WALL (       7 calls)

     Called by init_run:
     wfcinit      :      0.00s CPU      0.00s WALL (       7 calls)
     potinit      :      0.01s CPU      0.02s WALL (       7 calls)

     Called by electrons:
     c_bands      :      4.77s CPU      5.10s WALL (       7 calls)
     v_of_rho     :      0.01s CPU      0.01s WALL (       8 calls)
     newd         :      0.04s CPU      0.04s WALL (       8 calls)

     Called by c_bands:
     init_us_2    :      0.67s CPU      0.71s WALL (   17588 calls)
     cegterg      :      4.00s CPU      4.26s WALL (     796 calls)

     Called by sum_band:

     Called by *egterg:
     h_psi        :     42.83s CPU     45.97s WALL (  152102 calls)
     s_psi        :      5.74s CPU      6.16s WALL (  308924 calls)
     g_psi        :      0.03s CPU      0.03s WALL (    9268 calls)
     cdiaghg      :      0.44s CPU      0.46s WALL (   10064 calls)

     Called by h_psi:
     h_psi:pot    :     42.65s CPU     45.76s WALL (  152102 calls)
     h_psi:calbec :      4.40s CPU      4.77s WALL (  152102 calls)
     vloc_psi     :     35.17s CPU     37.74s WALL (  152102 calls)
     add_vuspsi   :      2.87s CPU      3.04s WALL (  152102 calls)

     General routines
     calbec       :      9.58s CPU     10.40s WALL (  345296 calls)
     fft          :      0.60s CPU      0.67s WALL (    5239 calls)
     ffts         :      0.19s CPU      0.21s WALL (    2748 calls)
     fftw         :     40.79s CPU     43.81s WALL ( 1377462 calls)
     davcio       :      0.32s CPU      0.34s WALL (   79045 calls)

     Parallel routines
     fft_scatter  :      9.31s CPU     10.35s WALL ( 1385449 calls)

     PHONON       :  1m18.05s CPU     1m23.75s WALL

     INITIALIZATION: 
     phq_setup    :      0.05s CPU      0.05s WALL (       8 calls)
     phq_init     :      1.92s CPU      1.96s WALL (       8 calls)

     phq_init     :      1.92s CPU      1.96s WALL (       8 calls)
     set_drhoc    :      0.29s CPU      0.29s WALL (      24 calls)
     init_vloc    :      0.01s CPU      0.01s WALL (       8 calls)
     init_us_1    :      0.53s CPU      0.54s WALL (       8 calls)
     newd         :      0.04s CPU      0.04s WALL (       8 calls)
     dvanqq       :      0.23s CPU      0.23s WALL (       8 calls)
     drho         :      0.98s CPU      1.00s WALL (       8 calls)

     DYNAMICAL MATRIX:
     dynmat0      :      0.48s CPU      0.49s WALL (       8 calls)
     phqscf       :     68.13s CPU     73.36s WALL (       8 calls)
     dynmatrix    :      0.01s CPU      0.02s WALL (       8 calls)

     phqscf       :     68.13s CPU     73.36s WALL (       8 calls)
     solve_linter :     67.45s CPU     72.63s WALL (      32 calls)
     drhodv       :      0.48s CPU      0.51s WALL (      32 calls)

     dynmat0      :      0.48s CPU      0.49s WALL (       8 calls)
     dynmat_us    :      0.26s CPU      0.27s WALL (       8 calls)
     d2ionq       :      0.01s CPU      0.01s WALL (       8 calls)
     dynmatcc     :      0.21s CPU      0.21s WALL (       8 calls)

     dynmat_us    :      0.26s CPU      0.27s WALL (       8 calls)
     addusdynmat  :      0.00s CPU      0.00s WALL (       8 calls)

     phqscf       :     68.13s CPU     73.36s WALL (       8 calls)
     solve_linter :     67.45s CPU     72.63s WALL (      32 calls)

     solve_linter :     67.45s CPU     72.63s WALL (      32 calls)
     dvqpsi_us    :      1.73s CPU      1.87s WALL (    2508 calls)
     ortho        :      1.02s CPU      1.08s WALL (   15550 calls)
     cgsolve      :     52.59s CPU     56.72s WALL (   15550 calls)
     incdrhoscf   :      4.60s CPU      4.95s WALL (   15550 calls)
     addusddens   :      1.15s CPU      1.18s WALL (     228 calls)
     vpsifft      :      3.36s CPU      3.62s WALL (   12922 calls)
     dv_of_drho   :      0.22s CPU      0.24s WALL (     295 calls)
     mix_pot      :      0.05s CPU      0.06s WALL (     201 calls)
     psymdvscf    :      0.82s CPU      0.84s WALL (     196 calls)
     newdq        :      1.32s CPU      1.40s WALL (     201 calls)
     adddvscf     :      0.46s CPU      0.49s WALL (   13042 calls)
     drhodvus     :      0.00s CPU      0.00s WALL (      32 calls)

     dvqpsi_us    :      1.73s CPU      1.87s WALL (    2508 calls)
     dvqpsi_us_on :      0.82s CPU      0.87s WALL (    2508 calls)

     cgsolve      :     52.59s CPU     56.72s WALL (   15550 calls)
     ch_psi       :     50.77s CPU     54.67s WALL (  141242 calls)

     ch_psi       :     50.77s CPU     54.67s WALL (  141242 calls)
     h_psi        :     42.83s CPU     45.97s WALL (  152102 calls)
     last         :      8.29s CPU      9.11s WALL (  141242 calls)

     h_psi        :     42.83s CPU     45.97s WALL (  152102 calls)
     add_vuspsi   :      2.87s CPU      3.04s WALL (  152102 calls)

     incdrhoscf   :      4.60s CPU      4.95s WALL (   15550 calls)
     addusdbec    :      0.62s CPU      0.67s WALL (   17998 calls)

     drhodvus     :      0.00s CPU      0.00s WALL (      32 calls)

      General routines
     calbec       :      9.58s CPU     10.40s WALL (  345296 calls)
     fft          :      0.60s CPU      0.67s WALL (    5239 calls)
     ffts         :      0.19s CPU      0.21s WALL (    2748 calls)
     fftw         :     40.79s CPU     43.81s WALL ( 1377462 calls)
     davcio       :      0.32s CPU      0.34s WALL (   79045 calls)
     write_rec    :      0.21s CPU      0.22s WALL (     233 calls)


     PHONON       :  1m18.05s CPU     1m23.75s WALL


   This run was terminated on:  16: 6:34   9Nov2017            

=------------------------------------------------------------------------------=
   JOB DONE.
=------------------------------------------------------------------------------=
