
     Program PWSCF v.6.1 (svn rev. 13369) starts on 10Nov2017 at 10:28:41 

     This program is part of the open-source Quantum ESPRESSO suite
     for quantum simulation of materials; please cite
         "P. Giannozzi et al., J. Phys.:Condens. Matter 21 395502 (2009);
          URL http://www.quantum-espresso.org", 
     in publications or presentations arising from this work. More details at
     http://www.quantum-espresso.org/quote

     Parallel version (MPI), running on     4 processors
     R & G space division:  proc/nbgrp/npool/nimage =       4
     Waiting for input...
     Reading input from standard input
     Message from routine read_cards :
     DEPRECATED: no units specified in ATOMIC_POSITIONS card
     Message from routine read_cards :
     ATOMIC_POSITIONS: units set to alat

     Current dimensions of program PWSCF are:
     Max number of different atomic species (ntypx) = 10
     Max number of k-points (npk) =  40000
     Max angular momentum in pseudopotentials (lmaxx) =  3

     Subspace diagonalization in iterative solution of the eigenvalue problem:
     a serial algorithm will be used


     Parallelization info
     --------------------
     sticks:   dense  smooth     PW     G-vecs:    dense   smooth      PW
     Min         214     108     37                 4221     1495     284
     Max         215     109     38                 4224     1498     285
     Sum         859     433    151                16889     5985    1139



     bravais-lattice index     =            2
     lattice parameter (alat)  =      10.2700  a.u.
     unit-cell volume          =     270.8017 (a.u.)^3
     number of atoms/cell      =            2
     number of atomic types    =            1
     number of electrons       =         8.00
     number of Kohn-Sham states=            4
     kinetic-energy cutoff     =      30.0000  Ry
     charge density cutoff     =     240.0000  Ry
     convergence threshold     =      1.0E-08
     mixing beta               =       0.7000
     number of iterations used =            8  plain     mixing
     Exchange-correlation      = SLA  PW   PBE  PBE ( 1  4  3  4 0 0)

     celldm(1)=  10.270000  celldm(2)=   0.000000  celldm(3)=   0.000000
     celldm(4)=   0.000000  celldm(5)=   0.000000  celldm(6)=   0.000000

     crystal axes: (cart. coord. in units of alat)
               a(1) = (  -0.500000   0.000000   0.500000 )  
               a(2) = (   0.000000   0.500000   0.500000 )  
               a(3) = (  -0.500000   0.500000   0.000000 )  

     reciprocal axes: (cart. coord. in units 2 pi/alat)
               b(1) = ( -1.000000 -1.000000  1.000000 )  
               b(2) = (  1.000000  1.000000  1.000000 )  
               b(3) = ( -1.000000  1.000000 -1.000000 )  


     PseudoPot. # 1 for Si read from file:
     /home/max/quantum_espresso/qe-6.1/pseudo/si_pbe_v1.uspp.F.UPF.txt
     MD5 check sum: a056efeee980c13900f22a371efd63c1
     Pseudo is Ultrasoft + core correction, Zval =  4.0
     Generated by new atomic code, or converted to UPF format
     Using radial grid of  899 points,  6 beta functions with: 
                l(1) =   0
                l(2) =   0
                l(3) =   1
                l(4) =   1
                l(5) =   2
                l(6) =   2
     Q(r) pseudized with  8 coefficients,  rinner =    0.900   0.900   0.900
                                                       0.900   0.900

     atomic species   valence    mass     pseudopotential
        Si             4.00    28.08600     Si( 1.00)

     48 Sym. Ops., with inversion, found (24 have fractional translation)



   Cartesian axes

     site n.     atom                  positions (alat units)
         1           Si  tau(   1) = (   0.0000000   0.0000000   0.0000000  )
         2           Si  tau(   2) = (   0.2500000   0.2500000   0.2500000  )

     number of k points=    28
                       cart. coord. in units 2pi/alat
        k(    1) = (  -0.0833333   0.0833333   0.0833333), wk =   0.0185185
        k(    2) = (  -0.2500000   0.2500000  -0.0833333), wk =   0.0555556
        k(    3) = (  -0.4166667   0.4166667  -0.2500000), wk =   0.0555556
        k(    4) = (   0.4166667  -0.4166667   0.5833333), wk =   0.0555556
        k(    5) = (   0.2500000  -0.2500000   0.4166667), wk =   0.0555556
        k(    6) = (   0.0833333  -0.0833333   0.2500000), wk =   0.0555556
        k(    7) = (  -0.0833333   0.4166667   0.0833333), wk =   0.0555556
        k(    8) = (  -0.2500000   0.5833333  -0.0833333), wk =   0.1111111
        k(    9) = (   0.5833333  -0.2500000   0.7500000), wk =   0.1111111
        k(   10) = (   0.4166667  -0.0833333   0.5833333), wk =   0.1111111
        k(   11) = (   0.2500000   0.0833333   0.4166667), wk =   0.1111111
        k(   12) = (  -0.0833333   0.7500000   0.0833333), wk =   0.0555556
        k(   13) = (   0.7500000  -0.0833333   0.9166667), wk =   0.1111111
        k(   14) = (   0.5833333   0.0833333   0.7500000), wk =   0.1111111
        k(   15) = (   0.4166667   0.2500000   0.5833333), wk =   0.1111111
        k(   16) = (  -0.0833333  -0.9166667   0.0833333), wk =   0.0555556
        k(   17) = (  -0.2500000  -0.7500000  -0.0833333), wk =   0.1111111
        k(   18) = (  -0.0833333  -0.5833333   0.0833333), wk =   0.0555556
        k(   19) = (  -0.2500000   0.2500000   0.2500000), wk =   0.0185185
        k(   20) = (  -0.4166667   0.4166667   0.0833333), wk =   0.0555556
        k(   21) = (   0.4166667  -0.4166667   0.9166667), wk =   0.0555556
        k(   22) = (   0.2500000  -0.2500000   0.7500000), wk =   0.0555556
        k(   23) = (  -0.2500000   0.5833333   0.2500000), wk =   0.0555556
        k(   24) = (   0.5833333  -0.2500000   1.0833333), wk =   0.1111111
        k(   25) = (   0.4166667  -0.0833333   0.9166667), wk =   0.1111111
        k(   26) = (  -0.2500000  -1.0833333   0.2500000), wk =   0.0555556
        k(   27) = (  -0.4166667   0.4166667   0.4166667), wk =   0.0185185
        k(   28) = (   0.4166667  -0.4166667   1.2500000), wk =   0.0555556

     Dense  grid:    16889 G-vectors     FFT dimensions: (  36,  36,  36)

     Smooth grid:     5985 G-vectors     FFT dimensions: (  25,  25,  25)

     Estimated max dynamical RAM per process >       3.01MB

     Estimated total allocated dynamical RAM >      12.03MB

     Initial potential from superposition of free atoms

     starting charge    7.99866, renormalised to    8.00000
     Starting wfc are    8 randomized atomic wfcs

     total cpu time spent up to now is        0.7 secs

     per-process dynamical memory:    10.1 Mb

     Self-consistent Calculation

     iteration #  1     ecut=    30.00 Ry     beta=0.70
     Davidson diagonalization with overlap
     ethr =  1.00E-02,  avg # of iterations =  2.0

     Threshold (ethr) on eigenvalues was too large:
     Diagonalizing with lowered threshold

     Davidson diagonalization with overlap
     ethr =  6.98E-04,  avg # of iterations =  1.0

     total cpu time spent up to now is        1.5 secs

     total energy              =     -19.19082172 Ry
     Harris-Foulkes estimate   =     -19.20403052 Ry
     estimated scf accuracy    <       0.05528237 Ry

     iteration #  2     ecut=    30.00 Ry     beta=0.70
     Davidson diagonalization with overlap
     ethr =  6.91E-04,  avg # of iterations =  1.0

     total cpu time spent up to now is        1.7 secs

     total energy              =     -19.19270083 Ry
     Harris-Foulkes estimate   =     -19.19287014 Ry
     estimated scf accuracy    <       0.00244242 Ry

     iteration #  3     ecut=    30.00 Ry     beta=0.70
     Davidson diagonalization with overlap
     ethr =  3.05E-05,  avg # of iterations =  2.0

     total cpu time spent up to now is        1.9 secs

     total energy              =     -19.19304549 Ry
     Harris-Foulkes estimate   =     -19.19305969 Ry
     estimated scf accuracy    <       0.00004528 Ry

     iteration #  4     ecut=    30.00 Ry     beta=0.70
     Davidson diagonalization with overlap
     ethr =  5.66E-07,  avg # of iterations =  3.5

     total cpu time spent up to now is        2.2 secs

     total energy              =     -19.19308596 Ry
     Harris-Foulkes estimate   =     -19.19308707 Ry
     estimated scf accuracy    <       0.00000385 Ry

     iteration #  5     ecut=    30.00 Ry     beta=0.70
     Davidson diagonalization with overlap
     ethr =  4.81E-08,  avg # of iterations =  2.0

     total cpu time spent up to now is        2.5 secs

     total energy              =     -19.19308646 Ry
     Harris-Foulkes estimate   =     -19.19308645 Ry
     estimated scf accuracy    <       0.00000001 Ry

     iteration #  6     ecut=    30.00 Ry     beta=0.70
     Davidson diagonalization with overlap
     ethr =  1.37E-10,  avg # of iterations =  4.1

     total cpu time spent up to now is        3.4 secs

     End of self-consistent calculation

          k =-0.0833 0.0833 0.0833 (   737 PWs)   bands (ev):

    -5.6834   5.3111   6.0260   6.0260

          k =-0.2500 0.2500-0.0833 (   756 PWs)   bands (ev):

    -5.2062   3.2294   4.7875   5.8161

          k =-0.4167 0.4167-0.2500 (   756 PWs)   bands (ev):

    -4.1122   0.4620   4.3238   5.1778

          k = 0.4167-0.4167 0.5833 (   755 PWs)   bands (ev):

    -3.4120  -0.6848   4.3912   4.7961

          k = 0.2500-0.2500 0.4167 (   760 PWs)   bands (ev):

    -4.5247   1.3102   4.8555   4.8915

          k = 0.0833-0.0833 0.2500 (   755 PWs)   bands (ev):

    -5.4425   4.2427   5.3779   5.5670

          k =-0.0833 0.4167 0.0833 (   752 PWs)   bands (ev):

    -4.9647   3.0447   4.6328   4.6463

          k =-0.2500 0.5833-0.0833 (   752 PWs)   bands (ev):

    -4.0531   1.2026   3.3105   4.2591

          k = 0.5833-0.2500 0.7500 (   749 PWs)   bands (ev):

    -2.9342  -0.5534   2.7089   4.0309

          k = 0.4167-0.0833 0.5833 (   755 PWs)   bands (ev):

    -3.6578   0.5077   2.6656   4.5191

          k = 0.2500 0.0833 0.4167 (   757 PWs)   bands (ev):

    -4.7390   2.2046   4.0092   5.1898

          k =-0.0833 0.7500 0.0833 (   752 PWs)   bands (ev):

    -3.3407   0.3763   3.2740   3.6156

          k = 0.7500-0.0833 0.9167 (   746 PWs)   bands (ev):

    -2.1426  -0.9657   2.4289   3.2072

          k = 0.5833 0.0833 0.7500 (   745 PWs)   bands (ev):

    -2.5136  -0.6312   1.9449   3.7541

          k = 0.4167 0.2500 0.5833 (   755 PWs)   bands (ev):

    -3.5453  -0.1813   3.6122   4.6174

          k =-0.0833-0.9167 0.0833 (   749 PWs)   bands (ev):

    -2.2349  -0.9740   3.0038   3.3999

          k =-0.2500-0.7500-0.0833 (   753 PWs)   bands (ev):

    -3.1717   0.1521   2.7521   3.5482

          k =-0.0833-0.5833 0.0833 (   745 PWs)   bands (ev):

    -4.2590   1.7437   3.8206   4.0386

          k =-0.2500 0.2500 0.2500 (   754 PWs)   bands (ev):

    -4.9763   2.2477   5.4112   5.4112

          k =-0.4167 0.4167 0.0833 (   750 PWs)   bands (ev):

    -4.2962   1.3154   3.2745   5.2419

          k = 0.4167-0.4167 0.9167 (   751 PWs)   bands (ev):

    -3.1151  -0.1268   2.1643   4.4533

          k = 0.2500-0.2500 0.7500 (   748 PWs)   bands (ev):

    -3.0629  -0.2061   2.6449   3.9699

          k =-0.2500 0.5833 0.2500 (   757 PWs)   bands (ev):

    -3.8715   0.5056   3.7425   4.3438

          k = 0.5833-0.2500 1.0833 (   747 PWs)   bands (ev):

    -2.8678  -0.2385   2.2644   3.5456

          k = 0.4167-0.0833 0.9167 (   745 PWs)   bands (ev):

    -2.0353  -0.9735   2.0984   2.8760

          k =-0.2500-1.0833 0.2500 (   747 PWs)   bands (ev):

    -2.2461  -0.8802   1.9719   3.7749

          k =-0.4167 0.4167 0.4167 (   760 PWs)   bands (ev):

    -3.7822  -0.2836   5.0223   5.0223

          k = 0.4167-0.4167 1.2500 (   753 PWs)   bands (ev):

    -3.1761  -0.5851   3.1854   4.5806

     highest occupied level (ev):     6.0260

!    total energy              =     -19.19308650 Ry
     Harris-Foulkes estimate   =     -19.19308650 Ry
     estimated scf accuracy    <          8.3E-10 Ry

     The total energy is the sum of the following terms:

     one-electron contribution =       5.09239748 Ry
     hartree contribution      =       1.11766484 Ry
     xc contribution           =      -8.61857847 Ry
     ewald contribution        =     -16.78457035 Ry

     convergence has been achieved in   6 iterations

     Writing output data file silicon.10.27.save

     init_run     :      0.41s CPU      0.57s WALL (       1 calls)
     electrons    :      1.73s CPU      2.73s WALL (       1 calls)

     Called by init_run:
     wfcinit      :      0.12s CPU      0.24s WALL (       1 calls)
     potinit      :      0.03s CPU      0.05s WALL (       1 calls)

     Called by electrons:
     c_bands      :      1.11s CPU      2.06s WALL (       7 calls)
     sum_band     :      0.36s CPU      0.38s WALL (       7 calls)
     v_of_rho     :      0.11s CPU      0.14s WALL (       7 calls)
     newd         :      0.18s CPU      0.20s WALL (       7 calls)
     mix_rho      :      0.01s CPU      0.01s WALL (       7 calls)

     Called by c_bands:
     init_us_2    :      0.05s CPU      0.06s WALL (     420 calls)
     cegterg      :      0.98s CPU      1.89s WALL (     196 calls)

     Called by sum_band:
     sum_band:bec :      0.00s CPU      0.00s WALL (     196 calls)
     addusdens    :      0.16s CPU      0.17s WALL (       7 calls)

     Called by *egterg:
     h_psi        :      0.81s CPU      1.53s WALL (     660 calls)
     s_psi        :      0.05s CPU      0.06s WALL (     660 calls)
     g_psi        :      0.00s CPU      0.00s WALL (     436 calls)
     cdiaghg      :      0.06s CPU      0.12s WALL (     604 calls)

     Called by h_psi:
     h_psi:pot    :      0.80s CPU      1.53s WALL (     660 calls)
     h_psi:calbec :      0.10s CPU      0.18s WALL (     660 calls)
     vloc_psi     :      0.66s CPU      1.29s WALL (     660 calls)
     add_vuspsi   :      0.05s CPU      0.06s WALL (     660 calls)

     General routines
     calbec       :      0.12s CPU      0.21s WALL (     856 calls)
     fft          :      0.09s CPU      0.13s WALL (     112 calls)
     ffts         :      0.00s CPU      0.00s WALL (      14 calls)
     fftw         :      0.68s CPU      1.30s WALL (    5714 calls)
     interpolate  :      0.01s CPU      0.01s WALL (      14 calls)
     davcio       :      0.00s CPU      0.00s WALL (      28 calls)

     Parallel routines
     fft_scatter  :      0.44s CPU      1.04s WALL (    5840 calls)

     PWSCF        :     2.35s CPU         3.54s WALL


   This run was terminated on:  10:28:44  10Nov2017            

=------------------------------------------------------------------------------=
   JOB DONE.
=------------------------------------------------------------------------------=
