
     Program PWSCF v.6.1 (svn rev. 13369) starts on 10Nov2017 at 10:28:36 

     This program is part of the open-source Quantum ESPRESSO suite
     for quantum simulation of materials; please cite
         "P. Giannozzi et al., J. Phys.:Condens. Matter 21 395502 (2009);
          URL http://www.quantum-espresso.org", 
     in publications or presentations arising from this work. More details at
     http://www.quantum-espresso.org/quote

     Parallel version (MPI), running on     4 processors
     R & G space division:  proc/nbgrp/npool/nimage =       4
     Waiting for input...
     Reading input from standard input
     Message from routine read_cards :
     DEPRECATED: no units specified in ATOMIC_POSITIONS card
     Message from routine read_cards :
     ATOMIC_POSITIONS: units set to alat

     Current dimensions of program PWSCF are:
     Max number of different atomic species (ntypx) = 10
     Max number of k-points (npk) =  40000
     Max angular momentum in pseudopotentials (lmaxx) =  3

     Subspace diagonalization in iterative solution of the eigenvalue problem:
     a serial algorithm will be used


     Parallelization info
     --------------------
     sticks:   dense  smooth     PW     G-vecs:    dense   smooth      PW
     Min         214     108     37                 4215     1489     284
     Max         215     109     38                 4218     1492     285
     Sum         859     433    151                16865     5961    1139



     bravais-lattice index     =            2
     lattice parameter (alat)  =      10.2500  a.u.
     unit-cell volume          =     269.2227 (a.u.)^3
     number of atoms/cell      =            2
     number of atomic types    =            1
     number of electrons       =         8.00
     number of Kohn-Sham states=            4
     kinetic-energy cutoff     =      30.0000  Ry
     charge density cutoff     =     240.0000  Ry
     convergence threshold     =      1.0E-08
     mixing beta               =       0.7000
     number of iterations used =            8  plain     mixing
     Exchange-correlation      = SLA  PW   PBE  PBE ( 1  4  3  4 0 0)

     celldm(1)=  10.250000  celldm(2)=   0.000000  celldm(3)=   0.000000
     celldm(4)=   0.000000  celldm(5)=   0.000000  celldm(6)=   0.000000

     crystal axes: (cart. coord. in units of alat)
               a(1) = (  -0.500000   0.000000   0.500000 )  
               a(2) = (   0.000000   0.500000   0.500000 )  
               a(3) = (  -0.500000   0.500000   0.000000 )  

     reciprocal axes: (cart. coord. in units 2 pi/alat)
               b(1) = ( -1.000000 -1.000000  1.000000 )  
               b(2) = (  1.000000  1.000000  1.000000 )  
               b(3) = ( -1.000000  1.000000 -1.000000 )  


     PseudoPot. # 1 for Si read from file:
     /home/max/quantum_espresso/qe-6.1/pseudo/si_pbe_v1.uspp.F.UPF.txt
     MD5 check sum: a056efeee980c13900f22a371efd63c1
     Pseudo is Ultrasoft + core correction, Zval =  4.0
     Generated by new atomic code, or converted to UPF format
     Using radial grid of  899 points,  6 beta functions with: 
                l(1) =   0
                l(2) =   0
                l(3) =   1
                l(4) =   1
                l(5) =   2
                l(6) =   2
     Q(r) pseudized with  8 coefficients,  rinner =    0.900   0.900   0.900
                                                       0.900   0.900

     atomic species   valence    mass     pseudopotential
        Si             4.00    28.08600     Si( 1.00)

     48 Sym. Ops., with inversion, found (24 have fractional translation)



   Cartesian axes

     site n.     atom                  positions (alat units)
         1           Si  tau(   1) = (   0.0000000   0.0000000   0.0000000  )
         2           Si  tau(   2) = (   0.2500000   0.2500000   0.2500000  )

     number of k points=    28
                       cart. coord. in units 2pi/alat
        k(    1) = (  -0.0833333   0.0833333   0.0833333), wk =   0.0185185
        k(    2) = (  -0.2500000   0.2500000  -0.0833333), wk =   0.0555556
        k(    3) = (  -0.4166667   0.4166667  -0.2500000), wk =   0.0555556
        k(    4) = (   0.4166667  -0.4166667   0.5833333), wk =   0.0555556
        k(    5) = (   0.2500000  -0.2500000   0.4166667), wk =   0.0555556
        k(    6) = (   0.0833333  -0.0833333   0.2500000), wk =   0.0555556
        k(    7) = (  -0.0833333   0.4166667   0.0833333), wk =   0.0555556
        k(    8) = (  -0.2500000   0.5833333  -0.0833333), wk =   0.1111111
        k(    9) = (   0.5833333  -0.2500000   0.7500000), wk =   0.1111111
        k(   10) = (   0.4166667  -0.0833333   0.5833333), wk =   0.1111111
        k(   11) = (   0.2500000   0.0833333   0.4166667), wk =   0.1111111
        k(   12) = (  -0.0833333   0.7500000   0.0833333), wk =   0.0555556
        k(   13) = (   0.7500000  -0.0833333   0.9166667), wk =   0.1111111
        k(   14) = (   0.5833333   0.0833333   0.7500000), wk =   0.1111111
        k(   15) = (   0.4166667   0.2500000   0.5833333), wk =   0.1111111
        k(   16) = (  -0.0833333  -0.9166667   0.0833333), wk =   0.0555556
        k(   17) = (  -0.2500000  -0.7500000  -0.0833333), wk =   0.1111111
        k(   18) = (  -0.0833333  -0.5833333   0.0833333), wk =   0.0555556
        k(   19) = (  -0.2500000   0.2500000   0.2500000), wk =   0.0185185
        k(   20) = (  -0.4166667   0.4166667   0.0833333), wk =   0.0555556
        k(   21) = (   0.4166667  -0.4166667   0.9166667), wk =   0.0555556
        k(   22) = (   0.2500000  -0.2500000   0.7500000), wk =   0.0555556
        k(   23) = (  -0.2500000   0.5833333   0.2500000), wk =   0.0555556
        k(   24) = (   0.5833333  -0.2500000   1.0833333), wk =   0.1111111
        k(   25) = (   0.4166667  -0.0833333   0.9166667), wk =   0.1111111
        k(   26) = (  -0.2500000  -1.0833333   0.2500000), wk =   0.0555556
        k(   27) = (  -0.4166667   0.4166667   0.4166667), wk =   0.0185185
        k(   28) = (   0.4166667  -0.4166667   1.2500000), wk =   0.0555556

     Dense  grid:    16865 G-vectors     FFT dimensions: (  36,  36,  36)

     Smooth grid:     5961 G-vectors     FFT dimensions: (  25,  25,  25)

     Estimated max dynamical RAM per process >       3.00MB

     Estimated total allocated dynamical RAM >      12.01MB

     Initial potential from superposition of free atoms

     starting charge    7.99866, renormalised to    8.00000
     Starting wfc are    8 randomized atomic wfcs

     total cpu time spent up to now is        0.7 secs

     per-process dynamical memory:    10.1 Mb

     Self-consistent Calculation

     iteration #  1     ecut=    30.00 Ry     beta=0.70
     Davidson diagonalization with overlap
     ethr =  1.00E-02,  avg # of iterations =  2.0

     Threshold (ethr) on eigenvalues was too large:
     Diagonalizing with lowered threshold

     Davidson diagonalization with overlap
     ethr =  7.05E-04,  avg # of iterations =  1.0

     total cpu time spent up to now is        1.1 secs

     total energy              =     -19.19053430 Ry
     Harris-Foulkes estimate   =     -19.20400447 Ry
     estimated scf accuracy    <       0.05583362 Ry

     iteration #  2     ecut=    30.00 Ry     beta=0.70
     Davidson diagonalization with overlap
     ethr =  6.98E-04,  avg # of iterations =  1.0

     total cpu time spent up to now is        1.3 secs

     total energy              =     -19.19247433 Ry
     Harris-Foulkes estimate   =     -19.19264172 Ry
     estimated scf accuracy    <       0.00243866 Ry

     iteration #  3     ecut=    30.00 Ry     beta=0.70
     Davidson diagonalization with overlap
     ethr =  3.05E-05,  avg # of iterations =  2.0

     total cpu time spent up to now is        1.5 secs

     total energy              =     -19.19283401 Ry
     Harris-Foulkes estimate   =     -19.19284785 Ry
     estimated scf accuracy    <       0.00004487 Ry

     iteration #  4     ecut=    30.00 Ry     beta=0.70
     Davidson diagonalization with overlap
     ethr =  5.61E-07,  avg # of iterations =  3.4

     total cpu time spent up to now is        2.1 secs

     total energy              =     -19.19287436 Ry
     Harris-Foulkes estimate   =     -19.19287535 Ry
     estimated scf accuracy    <       0.00000358 Ry

     iteration #  5     ecut=    30.00 Ry     beta=0.70
     Davidson diagonalization with overlap
     ethr =  4.47E-08,  avg # of iterations =  2.0

     total cpu time spent up to now is        2.6 secs

     End of self-consistent calculation

          k =-0.0833 0.0833 0.0833 (   737 PWs)   bands (ev):

    -5.6620   5.3722   6.0865   6.0865

          k =-0.2500 0.2500-0.0833 (   754 PWs)   bands (ev):

    -5.1823   3.2856   4.8410   5.8763

          k =-0.4167 0.4167-0.2500 (   752 PWs)   bands (ev):

    -4.0820   0.5045   4.3769   5.2348

          k = 0.4167-0.4167 0.5833 (   749 PWs)   bands (ev):

    -3.3763  -0.6498   4.4458   4.8508

          k = 0.2500-0.2500 0.4167 (   756 PWs)   bands (ev):

    -4.4971   1.3571   4.9096   4.9487

          k = 0.0833-0.0833 0.2500 (   751 PWs)   bands (ev):

    -5.4198   4.3030   5.4341   5.6268

          k =-0.0833 0.4167 0.0833 (   745 PWs)   bands (ev):

    -4.9396   3.1048   4.6869   4.6985

          k =-0.2500 0.5833-0.0833 (   748 PWs)   bands (ev):

    -4.0231   1.2554   3.3559   4.3097

          k = 0.5833-0.2500 0.7500 (   743 PWs)   bands (ev):

    -2.8962  -0.5129   2.7531   4.0796

          k = 0.4167-0.0833 0.5833 (   751 PWs)   bands (ev):

    -3.6252   0.5560   2.7073   4.5713

          k = 0.2500 0.0833 0.4167 (   754 PWs)   bands (ev):

    -4.7126   2.2585   4.0586   5.2470

          k =-0.0833 0.7500 0.0833 (   748 PWs)   bands (ev):

    -3.3072   0.4289   3.3182   3.6628

          k = 0.7500-0.0833 0.9167 (   743 PWs)   bands (ev):

    -2.1020  -0.9194   2.4667   3.2509

          k = 0.5833 0.0833 0.7500 (   741 PWs)   bands (ev):

    -2.4735  -0.5862   1.9804   3.8012

          k = 0.4167 0.2500 0.5833 (   750 PWs)   bands (ev):

    -3.5114  -0.1413   3.6625   4.6706

          k =-0.0833-0.9167 0.0833 (   747 PWs)   bands (ev):

    -2.1955  -0.9280   3.0464   3.4461

          k =-0.2500-0.7500-0.0833 (   748 PWs)   bands (ev):

    -3.1368   0.2030   2.7931   3.5938

          k =-0.0833-0.5833 0.0833 (   741 PWs)   bands (ev):

    -4.2303   1.8015   3.8685   4.0878

          k =-0.2500 0.2500 0.2500 (   754 PWs)   bands (ev):

    -4.9512   2.2981   5.4687   5.4687

          k =-0.4167 0.4167 0.0833 (   746 PWs)   bands (ev):

    -4.2674   1.3656   3.3198   5.2991

          k = 0.4167-0.4167 0.9167 (   744 PWs)   bands (ev):

    -3.0788  -0.0812   2.2024   4.5055

          k = 0.2500-0.2500 0.7500 (   748 PWs)   bands (ev):

    -3.0267  -0.1607   2.6869   4.0192

          k =-0.2500 0.5833 0.2500 (   752 PWs)   bands (ev):

    -3.8402   0.5509   3.7936   4.3951

          k = 0.5833-0.2500 1.0833 (   742 PWs)   bands (ev):

    -2.8305  -0.1909   2.3026   3.5904

          k = 0.4167-0.0833 0.9167 (   743 PWs)   bands (ev):

    -1.9930  -0.9272   2.1338   2.9162

          k =-0.2500-1.0833 0.2500 (   742 PWs)   bands (ev):

    -2.2048  -0.8351   2.0066   3.8232

          k =-0.4167 0.4167 0.4167 (   760 PWs)   bands (ev):

    -3.7494  -0.2462   5.0786   5.0786

          k = 0.4167-0.4167 1.2500 (   747 PWs)   bands (ev):

    -3.1392  -0.5474   3.2331   4.6337

     highest occupied level (ev):     6.0865

!    total energy              =     -19.19287481 Ry
     Harris-Foulkes estimate   =     -19.19287480 Ry
     estimated scf accuracy    <          9.3E-09 Ry

     The total energy is the sum of the following terms:

     one-electron contribution =       5.13747702 Ry
     hartree contribution      =       1.11250317 Ry
     xc contribution           =      -8.62553427 Ry
     ewald contribution        =     -16.81732073 Ry

     convergence has been achieved in   5 iterations

     Writing output data file silicon.10.25.save

     init_run     :      0.38s CPU      0.49s WALL (       1 calls)
     electrons    :      1.28s CPU      1.90s WALL (       1 calls)

     Called by init_run:
     wfcinit      :      0.08s CPU      0.09s WALL (       1 calls)
     potinit      :      0.02s CPU      0.02s WALL (       1 calls)

     Called by electrons:
     c_bands      :      0.79s CPU      1.11s WALL (       6 calls)
     sum_band     :      0.28s CPU      0.52s WALL (       6 calls)
     v_of_rho     :      0.10s CPU      0.11s WALL (       6 calls)
     newd         :      0.13s CPU      0.16s WALL (       6 calls)
     mix_rho      :      0.01s CPU      0.02s WALL (       6 calls)

     Called by c_bands:
     init_us_2    :      0.04s CPU      0.05s WALL (     364 calls)
     cegterg      :      0.68s CPU      0.97s WALL (     168 calls)

     Called by sum_band:
     sum_band:bec :      0.00s CPU      0.00s WALL (     168 calls)
     addusdens    :      0.13s CPU      0.18s WALL (       6 calls)

     Called by *egterg:
     h_psi        :      0.59s CPU      0.83s WALL (     519 calls)
     s_psi        :      0.04s CPU      0.05s WALL (     519 calls)
     g_psi        :      0.00s CPU      0.00s WALL (     323 calls)
     cdiaghg      :      0.04s CPU      0.05s WALL (     463 calls)

     Called by h_psi:
     h_psi:pot    :      0.58s CPU      0.83s WALL (     519 calls)
     h_psi:calbec :      0.06s CPU      0.09s WALL (     519 calls)
     vloc_psi     :      0.48s CPU      0.69s WALL (     519 calls)
     add_vuspsi   :      0.04s CPU      0.05s WALL (     519 calls)

     General routines
     calbec       :      0.08s CPU      0.14s WALL (     687 calls)
     fft          :      0.07s CPU      0.12s WALL (      96 calls)
     ffts         :      0.00s CPU      0.00s WALL (      12 calls)
     fftw         :      0.49s CPU      0.82s WALL (    4618 calls)
     interpolate  :      0.01s CPU      0.02s WALL (      12 calls)
     davcio       :      0.00s CPU      0.00s WALL (      28 calls)

     Parallel routines
     fft_scatter  :      0.30s CPU      0.61s WALL (    4726 calls)

     PWSCF        :     1.87s CPU         2.71s WALL


   This run was terminated on:  10:28:38  10Nov2017            

=------------------------------------------------------------------------------=
   JOB DONE.
=------------------------------------------------------------------------------=
