
     Program PHONON v.6.1 (svn rev. 13369) starts on 10Nov2017 at 15:36:53 

     This program is part of the open-source Quantum ESPRESSO suite
     for quantum simulation of materials; please cite
         "P. Giannozzi et al., J. Phys.:Condens. Matter 21 395502 (2009);
          URL http://www.quantum-espresso.org", 
     in publications or presentations arising from this work. More details at
     http://www.quantum-espresso.org/quote

     Parallel version (MPI), running on     4 processors
     R & G space division:  proc/nbgrp/npool/nimage =       4

     Reading data from directory:
     ./silicon.10.332.save

   Info: using nr1, nr2, nr3 values from input

   Info: using nr1, nr2, nr3 values from input

     IMPORTANT: XC functional enforced from input :
     Exchange-correlation      = SLA  PW   PBE  PBE ( 1  4  3  4 0 0)
     Any further DFT definition will be discarded
     Please, verify this is what you really want


     Parallelization info
     --------------------
     sticks:   dense  smooth     PW     G-vecs:    dense   smooth      PW
     Min         219     109     37                 4315     1545     284
     Max         220     110     38                 4316     1546     285
     Sum         877     439    151                17261     6183    1139



     Dynamical matrices for ( 4, 4, 4)  uniform grid of q-points
     (   8q-points):
       N         xq(1)         xq(2)         xq(3) 
       1   0.000000000   0.000000000   0.000000000
       2  -0.250000000   0.250000000  -0.250000000
       3   0.500000000  -0.500000000   0.500000000
       4   0.000000000   0.500000000   0.000000000
       5   0.750000000  -0.250000000   0.750000000
       6   0.500000000   0.000000000   0.500000000
       7   0.000000000  -1.000000000   0.000000000
       8  -0.500000000  -1.000000000   0.000000000

     Calculation of q =    0.0000000   0.0000000   0.0000000

                                                                                

     bravais-lattice index     =            2
     lattice parameter (alat)  =      10.3320  a.u.
     unit-cell volume          =     275.7358 (a.u.)^3
     number of atoms/cell      =            2
     number of atomic types    =            1
     kinetic-energy cut-off    =      30.0000  Ry
     charge density cut-off    =     240.0000  Ry
     convergence threshold     =      1.0E-12
     beta                      =       0.7000
     number of iterations used =            4
     Exchange-correlation      = SLA  PW   PBE  PBE ( 1  4  3  4 0 0)


     celldm(1)=   10.33200  celldm(2)=    0.00000  celldm(3)=    0.00000
     celldm(4)=    0.00000  celldm(5)=    0.00000  celldm(6)=    0.00000

     crystal axes: (cart. coord. in units of alat)
               a(1) = ( -0.5000  0.0000  0.5000 )  
               a(2) = (  0.0000  0.5000  0.5000 )  
               a(3) = ( -0.5000  0.5000  0.0000 )  

     reciprocal axes: (cart. coord. in units 2 pi/alat)
               b(1) = ( -1.0000 -1.0000  1.0000 )  
               b(2) = (  1.0000  1.0000  1.0000 )  
               b(3) = ( -1.0000  1.0000 -1.0000 )  


     Atoms inside the unit cell: 

     Cartesian axes

     site n.  atom      mass           positions (alat units)
        1     Si  28.0860   tau(    1) = (    0.00000    0.00000    0.00000  )
        2     Si  28.0860   tau(    2) = (    0.25000    0.25000    0.25000  )

     Computing dynamical matrix for 
                    q = (   0.0000000   0.0000000   0.0000000 )

     49 Sym.Ops. (with q -> -q+G )


     G cutoff =  648.9635  (   4315 G-vectors)     FFT grid: ( 40, 40, 40)
     G cutoff =  324.4818  (   1546 G-vectors)  smooth grid: ( 25, 25, 25)
     number of k points=    10

     PseudoPot. # 1 for Si read from file:
     /home/s1333534/quantum_espresso/qe-6.1/pseudo/si_pbe_v1.uspp.F.UPF.txt
     MD5 check sum: a056efeee980c13900f22a371efd63c1
     Pseudo is Ultrasoft + core correction, Zval =  4.0
     Generated by new atomic code, or converted to UPF format
     Using radial grid of  899 points,  6 beta functions with: 
                l(1) =   0
                l(2) =   0
                l(3) =   1
                l(4) =   1
                l(5) =   2
                l(6) =   2
     Q(r) pseudized with  8 coefficients,  rinner =    0.900   0.900   0.900
                                                       0.900   0.900

     Mode symmetry, O_h (m-3m)  point group:


     Electric field:
     Dielectric constant
     Born effective charges in two ways 


     Atomic displacements:
     There are   2 irreducible representations

     Representation     1      3 modes -T_2g G_25' G_5+  To be done

     Representation     2      3 modes -T_1u G_15  G_4-  To be done



     Alpha used in Ewald sum =   2.5000
     PHONON       :     0.96s CPU         1.36s WALL


     Electric Fields Calculation

      iter #   1 total cpu time :     2.4 secs   av.it.:   5.7
      thresh= 1.000E-02 alpha_mix =  0.700 |ddv_scf|^2 =  9.700E-08

      iter #   2 total cpu time :     3.3 secs   av.it.:  11.9
      thresh= 3.115E-05 alpha_mix =  0.700 |ddv_scf|^2 =  5.711E-09

      iter #   3 total cpu time :     4.2 secs   av.it.:  11.7
      thresh= 7.557E-06 alpha_mix =  0.700 |ddv_scf|^2 =  3.811E-10

      iter #   4 total cpu time :     5.1 secs   av.it.:  10.6
      thresh= 1.952E-06 alpha_mix =  0.700 |ddv_scf|^2 =  2.503E-12

      iter #   5 total cpu time :     5.7 secs   av.it.:  11.2
      thresh= 1.582E-07 alpha_mix =  0.700 |ddv_scf|^2 =  2.492E-15

     End of electric fields calculation

          Dielectric constant in cartesian axis 

          (      13.962979070       0.000000000       0.000000000 )
          (       0.000000000      13.962979070      -0.000000000 )
          (       0.000000000      -0.000000000      13.962979070 )

          Effective charges (d Force / dE) in cartesian axis

           atom      1   Si 
      Ex  (       -0.03854       -0.00000        0.00000 )
      Ey  (       -0.00000       -0.03854        0.00000 )
      Ez  (        0.00000        0.00000       -0.03854 )
           atom      2   Si 
      Ex  (       -0.03854       -0.00000       -0.00000 )
      Ey  (       -0.00000       -0.03854        0.00000 )
      Ez  (       -0.00000        0.00000       -0.03854 )


     Representation #  1 modes #   1  2  3

     Self-consistent Calculation

      iter #   1 total cpu time :     7.1 secs   av.it.:   5.1
      thresh= 1.000E-02 alpha_mix =  0.700 |ddv_scf|^2 =  1.714E-08

      iter #   2 total cpu time :     7.9 secs   av.it.:  11.8
      thresh= 1.309E-05 alpha_mix =  0.700 |ddv_scf|^2 =  7.015E-10

      iter #   3 total cpu time :     8.8 secs   av.it.:  11.3
      thresh= 2.649E-06 alpha_mix =  0.700 |ddv_scf|^2 =  4.772E-11

      iter #   4 total cpu time :     9.5 secs   av.it.:  10.4
      thresh= 6.908E-07 alpha_mix =  0.700 |ddv_scf|^2 =  1.178E-13

     End of self-consistent calculation

     Convergence has been achieved 


     Representation #  2 modes #   4  5  6

     Self-consistent Calculation

      iter #   1 total cpu time :    10.5 secs   av.it.:   5.2
      thresh= 1.000E-02 alpha_mix =  0.700 |ddv_scf|^2 =  1.352E-08

      iter #   2 total cpu time :    11.5 secs   av.it.:  11.7
      thresh= 1.163E-05 alpha_mix =  0.700 |ddv_scf|^2 =  7.960E-10

      iter #   3 total cpu time :    12.4 secs   av.it.:  11.4
      thresh= 2.821E-06 alpha_mix =  0.700 |ddv_scf|^2 =  4.935E-11

      iter #   4 total cpu time :    13.1 secs   av.it.:  11.5
      thresh= 7.025E-07 alpha_mix =  0.700 |ddv_scf|^2 =  1.906E-13

     End of self-consistent calculation

     Convergence has been achieved 

     Number of q in the star =    1
     List of q in the star:
          1   0.000000000   0.000000000   0.000000000

          Dielectric constant in cartesian axis 

          (      13.962979070       0.000000000       0.000000000 )
          (       0.000000000      13.962979070      -0.000000000 )
          (       0.000000000      -0.000000000      13.962979070 )

          Effective charges (d Force / dE) in cartesian axis

           atom      1   Si 
      Ex  (       -0.03854       -0.00000        0.00000 )
      Ey  (       -0.00000       -0.03854        0.00000 )
      Ez  (        0.00000        0.00000       -0.03854 )
           atom      2   Si 
      Ex  (       -0.03854       -0.00000       -0.00000 )
      Ey  (       -0.00000       -0.03854        0.00000 )
      Ez  (       -0.00000        0.00000       -0.03854 )

          Effective charges (d P / du) in cartesian axis 

           atom      1   Si 
      Px  (       -0.07247        0.00000        0.00000 )
      Py  (        0.00000       -0.07247       -0.00000 )
      Pz  (        0.00000       -0.00000       -0.07247 )
           atom      2   Si 
      Px  (       -0.07247        0.00000        0.00000 )
      Py  (        0.00000       -0.07247        0.00000 )
      Pz  (        0.00000        0.00000       -0.07247 )

     Diagonalizing the dynamical matrix

     q = (    0.000000000   0.000000000   0.000000000 ) 

 **************************************************************************
     freq (    1) =      -0.473658 [THz] =     -15.799531 [cm-1]
     freq (    2) =      -0.473658 [THz] =     -15.799531 [cm-1]
     freq (    3) =      -0.473658 [THz] =     -15.799531 [cm-1]
     freq (    4) =      15.074373 [THz] =     502.826943 [cm-1]
     freq (    5) =      15.074373 [THz] =     502.826943 [cm-1]
     freq (    6) =      15.074373 [THz] =     502.826943 [cm-1]
 **************************************************************************

     Mode symmetry, O_h (m-3m)  point group:

     freq (  1 -  3) =        -15.8  [cm-1]   --> T_1u G_15  G_4- I  
     freq (  4 -  6) =        502.8  [cm-1]   --> T_2g G_25' G_5+ R  

     Calculation of q =   -0.2500000   0.2500000  -0.2500000

   Info: using nr1, nr2, nr3 values from input

   Info: using nr1, nr2, nr3 values from input

     Parallelization info
     --------------------
     sticks:   dense  smooth     PW     G-vecs:    dense   smooth      PW
     Min         218     109     37                 4315     1545     309
     Max         220     110     38                 4316     1546     312
     Sum         877     439    151                17261     6183    1243



     bravais-lattice index     =            2
     lattice parameter (alat)  =      10.3320  a.u.
     unit-cell volume          =     275.7358 (a.u.)^3
     number of atoms/cell      =            2
     number of atomic types    =            1
     number of electrons       =         8.00
     number of Kohn-Sham states=            4
     kinetic-energy cutoff     =      30.0000  Ry
     charge density cutoff     =     240.0000  Ry
     Exchange-correlation      = SLA  PW   PBE  PBE ( 1  4  3  4 0 0)

     celldm(1)=  10.332000  celldm(2)=   0.000000  celldm(3)=   0.000000
     celldm(4)=   0.000000  celldm(5)=   0.000000  celldm(6)=   0.000000

     crystal axes: (cart. coord. in units of alat)
               a(1) = (  -0.500000   0.000000   0.500000 )  
               a(2) = (   0.000000   0.500000   0.500000 )  
               a(3) = (  -0.500000   0.500000   0.000000 )  

     reciprocal axes: (cart. coord. in units 2 pi/alat)
               b(1) = ( -1.000000 -1.000000  1.000000 )  
               b(2) = (  1.000000  1.000000  1.000000 )  
               b(3) = ( -1.000000  1.000000 -1.000000 )  


     PseudoPot. # 1 for Si read from file:
     /home/s1333534/quantum_espresso/qe-6.1/pseudo/si_pbe_v1.uspp.F.UPF.txt
     MD5 check sum: a056efeee980c13900f22a371efd63c1
     Pseudo is Ultrasoft + core correction, Zval =  4.0
     Generated by new atomic code, or converted to UPF format
     Using radial grid of  899 points,  6 beta functions with: 
                l(1) =   0
                l(2) =   0
                l(3) =   1
                l(4) =   1
                l(5) =   2
                l(6) =   2
     Q(r) pseudized with  8 coefficients,  rinner =    0.900   0.900   0.900
                                                       0.900   0.900

     atomic species   valence    mass     pseudopotential
        Si             4.00    28.08600     Si( 1.00)

     48 Sym. Ops., with inversion, found



   Cartesian axes

     site n.     atom                  positions (alat units)
         1           Si  tau(   1) = (   0.0000000   0.0000000   0.0000000  )
         2           Si  tau(   2) = (   0.2500000   0.2500000   0.2500000  )

     number of k points=   120

     Number of k-points >= 100: set verbosity='high' to print them.

     Dense  grid:    17261 G-vectors     FFT dimensions: (  40,  40,  40)

     Smooth grid:     6183 G-vectors     FFT dimensions: (  25,  25,  25)

     Estimated max dynamical RAM per process >       1.78MB

     Estimated total allocated dynamical RAM >       7.14MB

     The potential is recalculated from file :
     ./_ph0/silicon.10.332.save/charge-density.dat

     Starting wfc are    8 atomic wfcs

     Band Structure Calculation
     Davidson diagonalization with overlap

     ethr =  1.25E-10,  avg # of iterations = 12.2

     total cpu time spent up to now is        1.4 secs

     End of band structure calculation

     Number of k-points >= 100: set verbosity='high' to print the bands.

     highest occupied level (ev):     5.7008

     Writing output data file silicon.10.332.save

                                                                                

     bravais-lattice index     =            2
     lattice parameter (alat)  =      10.3320  a.u.
     unit-cell volume          =     275.7358 (a.u.)^3
     number of atoms/cell      =            2
     number of atomic types    =            1
     kinetic-energy cut-off    =      30.0000  Ry
     charge density cut-off    =     240.0000  Ry
     convergence threshold     =      1.0E-12
     beta                      =       0.7000
     number of iterations used =            4
     Exchange-correlation      = SLA  PW   PBE  PBE ( 1  4  3  4 0 0)


     celldm(1)=   10.33200  celldm(2)=    0.00000  celldm(3)=    0.00000
     celldm(4)=    0.00000  celldm(5)=    0.00000  celldm(6)=    0.00000

     crystal axes: (cart. coord. in units of alat)
               a(1) = ( -0.5000  0.0000  0.5000 )  
               a(2) = (  0.0000  0.5000  0.5000 )  
               a(3) = ( -0.5000  0.5000  0.0000 )  

     reciprocal axes: (cart. coord. in units 2 pi/alat)
               b(1) = ( -1.0000 -1.0000  1.0000 )  
               b(2) = (  1.0000  1.0000  1.0000 )  
               b(3) = ( -1.0000  1.0000 -1.0000 )  


     Atoms inside the unit cell: 

     Cartesian axes

     site n.  atom      mass           positions (alat units)
        1     Si  28.0860   tau(    1) = (    0.00000    0.00000    0.00000  )
        2     Si  28.0860   tau(    2) = (    0.25000    0.25000    0.25000  )

     Computing dynamical matrix for 
                    q = (  -0.2500000   0.2500000  -0.2500000 )

      6 Sym.Ops. (no q -> -q+G )


     G cutoff =  648.9635  (   4315 G-vectors)     FFT grid: ( 40, 40, 40)
     G cutoff =  324.4818  (   1546 G-vectors)  smooth grid: ( 25, 25, 25)
     number of k points=   120

     PseudoPot. # 1 for Si read from file:
     /home/s1333534/quantum_espresso/qe-6.1/pseudo/si_pbe_v1.uspp.F.UPF.txt
     MD5 check sum: a056efeee980c13900f22a371efd63c1
     Pseudo is Ultrasoft + core correction, Zval =  4.0
     Generated by new atomic code, or converted to UPF format
     Using radial grid of  899 points,  6 beta functions with: 
                l(1) =   0
                l(2) =   0
                l(3) =   1
                l(4) =   1
                l(5) =   2
                l(6) =   2
     Q(r) pseudized with  8 coefficients,  rinner =    0.900   0.900   0.900
                                                       0.900   0.900

     Mode symmetry, C_3v (3m)   point group:


     Atomic displacements:
     There are   4 irreducible representations

     Representation     1      1 modes -A_1  L_1  To be done

     Representation     2      1 modes -A_1  L_1  To be done

     Representation     3      2 modes -E    L_3  To be done

     Representation     4      2 modes -E    L_3  To be done



     Alpha used in Ewald sum =   2.5000
     PHONON       :    12.02s CPU        16.54s WALL



     Representation #  1 mode #   1

     Self-consistent Calculation

      iter #   1 total cpu time :    17.0 secs   av.it.:   5.9
      thresh= 1.000E-02 alpha_mix =  0.700 |ddv_scf|^2 =  3.108E-04

      iter #   2 total cpu time :    17.6 secs   av.it.:   9.2
      thresh= 1.763E-03 alpha_mix =  0.700 |ddv_scf|^2 =  4.736E-03

      iter #   3 total cpu time :    18.2 secs   av.it.:   7.1
      thresh= 6.882E-03 alpha_mix =  0.700 |ddv_scf|^2 =  1.957E-07

      iter #   4 total cpu time :    18.9 secs   av.it.:   9.7
      thresh= 4.424E-05 alpha_mix =  0.700 |ddv_scf|^2 =  1.285E-08

      iter #   5 total cpu time :    19.5 secs   av.it.:   9.7
      thresh= 1.134E-05 alpha_mix =  0.700 |ddv_scf|^2 =  2.400E-10

      iter #   6 total cpu time :    20.2 secs   av.it.:   9.9
      thresh= 1.549E-06 alpha_mix =  0.700 |ddv_scf|^2 =  5.683E-10

      iter #   7 total cpu time :    20.8 secs   av.it.:   7.8
      thresh= 2.384E-06 alpha_mix =  0.700 |ddv_scf|^2 =  3.768E-11

      iter #   8 total cpu time :    21.3 secs   av.it.:   9.4
      thresh= 6.138E-07 alpha_mix =  0.700 |ddv_scf|^2 =  4.042E-13

     End of self-consistent calculation

     Convergence has been achieved 


     Representation #  2 mode #   2

     Self-consistent Calculation

      iter #   1 total cpu time :    22.0 secs   av.it.:   5.9
      thresh= 1.000E-02 alpha_mix =  0.700 |ddv_scf|^2 =  3.108E-04

      iter #   2 total cpu time :    22.6 secs   av.it.:   9.2
      thresh= 1.763E-03 alpha_mix =  0.700 |ddv_scf|^2 =  4.736E-03

      iter #   3 total cpu time :    23.1 secs   av.it.:   7.1
      thresh= 6.882E-03 alpha_mix =  0.700 |ddv_scf|^2 =  1.957E-07

      iter #   4 total cpu time :    23.8 secs   av.it.:   9.7
      thresh= 4.424E-05 alpha_mix =  0.700 |ddv_scf|^2 =  1.285E-08

      iter #   5 total cpu time :    24.5 secs   av.it.:   9.7
      thresh= 1.134E-05 alpha_mix =  0.700 |ddv_scf|^2 =  2.400E-10

      iter #   6 total cpu time :    25.2 secs   av.it.:   9.9
      thresh= 1.549E-06 alpha_mix =  0.700 |ddv_scf|^2 =  5.683E-10

      iter #   7 total cpu time :    25.7 secs   av.it.:   7.8
      thresh= 2.384E-06 alpha_mix =  0.700 |ddv_scf|^2 =  3.768E-11

      iter #   8 total cpu time :    26.3 secs   av.it.:   9.4
      thresh= 6.138E-07 alpha_mix =  0.700 |ddv_scf|^2 =  4.042E-13

     End of self-consistent calculation

     Convergence has been achieved 


     Representation #  3 modes #   3  4

     Self-consistent Calculation

      iter #   1 total cpu time :    27.3 secs   av.it.:   5.2
      thresh= 1.000E-02 alpha_mix =  0.700 |ddv_scf|^2 =  4.823E-08

      iter #   2 total cpu time :    28.6 secs   av.it.:  11.6
      thresh= 2.196E-05 alpha_mix =  0.700 |ddv_scf|^2 =  3.099E-09

      iter #   3 total cpu time :    29.9 secs   av.it.:  11.2
      thresh= 5.567E-06 alpha_mix =  0.700 |ddv_scf|^2 =  1.639E-10

      iter #   4 total cpu time :    31.1 secs   av.it.:  11.1
      thresh= 1.280E-06 alpha_mix =  0.700 |ddv_scf|^2 =  6.257E-13

     End of self-consistent calculation

     Convergence has been achieved 


     Representation #  4 modes #   5  6

     Self-consistent Calculation

      iter #   1 total cpu time :    32.1 secs   av.it.:   5.2
      thresh= 1.000E-02 alpha_mix =  0.700 |ddv_scf|^2 =  4.823E-08

      iter #   2 total cpu time :    33.4 secs   av.it.:  11.7
      thresh= 2.196E-05 alpha_mix =  0.700 |ddv_scf|^2 =  3.099E-09

      iter #   3 total cpu time :    34.7 secs   av.it.:  11.4
      thresh= 5.566E-06 alpha_mix =  0.700 |ddv_scf|^2 =  1.638E-10

      iter #   4 total cpu time :    36.0 secs   av.it.:  11.2
      thresh= 1.280E-06 alpha_mix =  0.700 |ddv_scf|^2 =  6.285E-13

     End of self-consistent calculation

     Convergence has been achieved 

     Number of q in the star =    8
     List of q in the star:
          1  -0.250000000   0.250000000  -0.250000000
          2   0.250000000  -0.250000000  -0.250000000
          3   0.250000000  -0.250000000   0.250000000
          4   0.250000000   0.250000000   0.250000000
          5  -0.250000000  -0.250000000  -0.250000000
          6  -0.250000000  -0.250000000   0.250000000
          7  -0.250000000   0.250000000   0.250000000
          8   0.250000000   0.250000000  -0.250000000

     Diagonalizing the dynamical matrix

     q = (   -0.250000000   0.250000000  -0.250000000 ) 

 **************************************************************************
     freq (    1) =       2.784807 [THz] =      92.891178 [cm-1]
     freq (    2) =       2.784807 [THz] =      92.891178 [cm-1]
     freq (    3) =       6.733224 [THz] =     224.596161 [cm-1]
     freq (    4) =      14.225851 [THz] =     474.523297 [cm-1]
     freq (    5) =      14.499315 [THz] =     483.645091 [cm-1]
     freq (    6) =      14.499315 [THz] =     483.645091 [cm-1]
 **************************************************************************

     Mode symmetry, C_3v (3m)   point group:

     freq (  1 -  2) =         92.9  [cm-1]   --> E    L_3           
     freq (  3 -  3) =        224.6  [cm-1]   --> A_1  L_1           
     freq (  4 -  4) =        474.5  [cm-1]   --> A_1  L_1           
     freq (  5 -  6) =        483.6  [cm-1]   --> E    L_3           

     Calculation of q =    0.5000000  -0.5000000   0.5000000

   Info: using nr1, nr2, nr3 values from input

   Info: using nr1, nr2, nr3 values from input

     Parallelization info
     --------------------
     sticks:   dense  smooth     PW     G-vecs:    dense   smooth      PW
     Min         219     109     40                 4315     1545     351
     Max         220     110     41                 4316     1546     354
     Sum         877     439    163                17261     6183    1411



     bravais-lattice index     =            2
     lattice parameter (alat)  =      10.3320  a.u.
     unit-cell volume          =     275.7358 (a.u.)^3
     number of atoms/cell      =            2
     number of atomic types    =            1
     number of electrons       =         8.00
     number of Kohn-Sham states=            4
     kinetic-energy cutoff     =      30.0000  Ry
     charge density cutoff     =     240.0000  Ry
     Exchange-correlation      = SLA  PW   PBE  PBE ( 1  4  3  4 0 0)

     celldm(1)=  10.332000  celldm(2)=   0.000000  celldm(3)=   0.000000
     celldm(4)=   0.000000  celldm(5)=   0.000000  celldm(6)=   0.000000

     crystal axes: (cart. coord. in units of alat)
               a(1) = (  -0.500000   0.000000   0.500000 )  
               a(2) = (   0.000000   0.500000   0.500000 )  
               a(3) = (  -0.500000   0.500000   0.000000 )  

     reciprocal axes: (cart. coord. in units 2 pi/alat)
               b(1) = ( -1.000000 -1.000000  1.000000 )  
               b(2) = (  1.000000  1.000000  1.000000 )  
               b(3) = ( -1.000000  1.000000 -1.000000 )  


     PseudoPot. # 1 for Si read from file:
     /home/s1333534/quantum_espresso/qe-6.1/pseudo/si_pbe_v1.uspp.F.UPF.txt
     MD5 check sum: a056efeee980c13900f22a371efd63c1
     Pseudo is Ultrasoft + core correction, Zval =  4.0
     Generated by new atomic code, or converted to UPF format
     Using radial grid of  899 points,  6 beta functions with: 
                l(1) =   0
                l(2) =   0
                l(3) =   1
                l(4) =   1
                l(5) =   2
                l(6) =   2
     Q(r) pseudized with  8 coefficients,  rinner =    0.900   0.900   0.900
                                                       0.900   0.900

     atomic species   valence    mass     pseudopotential
        Si             4.00    28.08600     Si( 1.00)

     48 Sym. Ops., with inversion, found



   Cartesian axes

     site n.     atom                  positions (alat units)
         1           Si  tau(   1) = (   0.0000000   0.0000000   0.0000000  )
         2           Si  tau(   2) = (   0.2500000   0.2500000   0.2500000  )

     number of k points=    60
                       cart. coord. in units 2pi/alat
        k(    1) = (  -0.1250000   0.1250000   0.1250000), wk =   0.0468750
        k(    2) = (   0.3750000  -0.3750000   0.6250000), wk =   0.0000000
        k(    3) = (  -0.3750000   0.3750000  -0.1250000), wk =   0.0468750
        k(    4) = (   0.1250000  -0.1250000   0.3750000), wk =   0.0000000
        k(    5) = (   0.3750000  -0.3750000   0.6250000), wk =   0.0468750
        k(    6) = (   0.8750000  -0.8750000   1.1250000), wk =   0.0000000
        k(    7) = (   0.1250000  -0.1250000   0.3750000), wk =   0.0468750
        k(    8) = (   0.6250000  -0.6250000   0.8750000), wk =   0.0000000
        k(    9) = (  -0.1250000   0.6250000   0.1250000), wk =   0.0937500
        k(   10) = (   0.3750000   0.1250000   0.6250000), wk =   0.0000000
        k(   11) = (   0.6250000  -0.1250000   0.8750000), wk =   0.0937500
        k(   12) = (   1.1250000  -0.6250000   1.3750000), wk =   0.0000000
        k(   13) = (   0.3750000   0.1250000   0.6250000), wk =   0.0937500
        k(   14) = (   0.8750000  -0.3750000   1.1250000), wk =   0.0000000
        k(   15) = (  -0.1250000  -0.8750000   0.1250000), wk =   0.0937500
        k(   16) = (   0.3750000  -1.3750000   0.6250000), wk =   0.0000000
        k(   17) = (  -0.3750000   0.3750000   0.3750000), wk =   0.0468750
        k(   18) = (   0.1250000  -0.1250000   0.8750000), wk =   0.0000000
        k(   19) = (   0.3750000  -0.3750000   1.1250000), wk =   0.0468750
        k(   20) = (   0.8750000  -0.8750000   1.6250000), wk =   0.0000000
        k(   21) = (   0.1250000  -0.1250000   0.1250000), wk =   0.0156250
        k(   22) = (   0.6250000  -0.6250000   0.6250000), wk =   0.0000000
        k(   23) = (  -0.3750000  -0.3750000  -0.1250000), wk =   0.0937500
        k(   24) = (   0.1250000  -0.8750000   0.3750000), wk =   0.0000000
        k(   25) = (  -0.1250000  -0.3750000   0.3750000), wk =   0.0468750
        k(   26) = (   0.3750000  -0.8750000   0.8750000), wk =   0.0000000
        k(   27) = (   0.3750000   0.3750000   0.6250000), wk =   0.0937500
        k(   28) = (   0.8750000  -0.1250000   1.1250000), wk =   0.0000000
        k(   29) = (   0.6250000   0.3750000  -0.3750000), wk =   0.0468750
        k(   30) = (   1.1250000  -0.1250000   0.1250000), wk =   0.0000000
        k(   31) = (   0.1250000   0.1250000   0.3750000), wk =   0.0937500
        k(   32) = (   0.6250000  -0.3750000   0.8750000), wk =   0.0000000
        k(   33) = (   0.3750000   0.1250000  -0.1250000), wk =   0.0468750
        k(   34) = (   0.8750000  -0.3750000   0.3750000), wk =   0.0000000
        k(   35) = (  -0.1250000  -0.6250000  -0.1250000), wk =   0.0468750
        k(   36) = (   0.3750000  -1.1250000   0.3750000), wk =   0.0000000
        k(   37) = (   0.1250000  -0.6250000   0.1250000), wk =   0.0468750
        k(   38) = (   0.6250000  -1.1250000   0.6250000), wk =   0.0000000
        k(   39) = (   0.6250000   0.1250000   0.8750000), wk =   0.0937500
        k(   40) = (   1.1250000  -0.3750000   1.3750000), wk =   0.0000000
        k(   41) = (  -0.8750000   0.1250000   0.6250000), wk =   0.0937500
        k(   42) = (  -0.3750000  -0.3750000   1.1250000), wk =   0.0000000
        k(   43) = (   0.8750000   0.1250000  -0.6250000), wk =   0.0937500
        k(   44) = (   1.3750000  -0.3750000  -0.1250000), wk =   0.0000000
        k(   45) = (   0.3750000  -0.1250000   0.6250000), wk =   0.0937500
        k(   46) = (   0.8750000  -0.6250000   1.1250000), wk =   0.0000000
        k(   47) = (  -0.6250000  -0.1250000   0.3750000), wk =   0.0937500
        k(   48) = (  -0.1250000  -0.6250000   0.8750000), wk =   0.0000000
        k(   49) = (   0.6250000  -0.1250000  -0.3750000), wk =   0.0937500
        k(   50) = (   1.1250000  -0.6250000   0.1250000), wk =   0.0000000
        k(   51) = (  -0.1250000   0.8750000  -0.1250000), wk =   0.0468750
        k(   52) = (   0.3750000   0.3750000   0.3750000), wk =   0.0000000
        k(   53) = (   0.1250000   0.8750000   0.1250000), wk =   0.0468750
        k(   54) = (   0.6250000   0.3750000   0.6250000), wk =   0.0000000
        k(   55) = (   0.3750000  -0.3750000   0.3750000), wk =   0.0156250
        k(   56) = (   0.8750000  -0.8750000   0.8750000), wk =   0.0000000
        k(   57) = (   0.3750000   0.3750000   1.1250000), wk =   0.0937500
        k(   58) = (   0.8750000  -0.1250000   1.6250000), wk =   0.0000000
        k(   59) = (   1.1250000   0.3750000  -0.3750000), wk =   0.0468750
        k(   60) = (   1.6250000  -0.1250000   0.1250000), wk =   0.0000000

     Dense  grid:    17261 G-vectors     FFT dimensions: (  40,  40,  40)

     Smooth grid:     6183 G-vectors     FFT dimensions: (  25,  25,  25)

     Estimated max dynamical RAM per process >       1.78MB

     Estimated total allocated dynamical RAM >       7.14MB

     The potential is recalculated from file :
     ./_ph0/silicon.10.332.save/charge-density.dat

     Starting wfc are    8 atomic wfcs

     Band Structure Calculation
     Davidson diagonalization with overlap

     ethr =  1.25E-10,  avg # of iterations = 12.2

     total cpu time spent up to now is        2.4 secs

     End of band structure calculation

          k =-0.1250 0.1250 0.1250 (   770 PWs)   bands (ev):

    -5.6363   4.3915   5.7008   5.7008

          k = 0.3750-0.3750 0.6250 (   763 PWs)   bands (ev):

    -3.4703  -0.6787   3.7358   4.4494

          k =-0.3750 0.3750-0.1250 (   773 PWs)   bands (ev):

    -4.6097   1.3992   3.7150   5.2207

          k = 0.1250-0.1250 0.3750 (   768 PWs)   bands (ev):

    -5.1085   2.7756   4.6930   4.7570

          k = 0.3750-0.3750 0.6250 (   763 PWs)   bands (ev):

    -3.4703  -0.6787   3.7358   4.4494

          k = 0.8750-0.8750 1.1250 (   770 PWs)   bands (ev):

    -5.6363   4.3915   5.7008   5.7008

          k = 0.1250-0.1250 0.3750 (   768 PWs)   bands (ev):

    -5.1085   2.7756   4.6930   4.7570

          k = 0.6250-0.6250 0.8750 (   773 PWs)   bands (ev):

    -4.6097   1.3992   3.7150   5.2207

          k =-0.1250 0.6250 0.1250 (   766 PWs)   bands (ev):

    -4.0772   1.0653   3.3665   3.8191

          k = 0.3750 0.1250 0.6250 (   768 PWs)   bands (ev):

    -3.6617   0.1922   2.7247   4.0937

          k = 0.6250-0.1250 0.8750 (   755 PWs)   bands (ev):

    -2.4377  -0.8963   2.0123   3.0888

          k = 1.1250-0.6250 1.3750 (   773 PWs)   bands (ev):

    -4.6097   1.3992   3.7150   5.2207

          k = 0.3750 0.1250 0.6250 (   768 PWs)   bands (ev):

    -3.6617   0.1922   2.7247   4.0937

          k = 0.8750-0.3750 1.1250 (   766 PWs)   bands (ev):

    -4.0772   1.0653   3.3665   3.8191

          k =-0.1250-0.8750 0.1250 (   762 PWs)   bands (ev):

    -2.6054  -0.7990   2.6221   3.3523

          k = 0.3750-1.3750 0.6250 (   763 PWs)   bands (ev):

    -3.4703  -0.6787   3.7358   4.4494

          k =-0.3750 0.3750 0.3750 (   763 PWs)   bands (ev):

    -4.1768   0.1092   4.9138   4.9138

          k = 0.1250-0.1250 0.8750 (   762 PWs)   bands (ev):

    -2.6054  -0.7990   2.6221   3.3523

          k = 0.3750-0.3750 1.1250 (   767 PWs)   bands (ev):

    -2.9746  -0.5939   2.0706   4.1324

          k = 0.8750-0.8750 1.6250 (   766 PWs)   bands (ev):

    -4.0772   1.0653   3.3665   3.8191

          k = 0.1250-0.1250 0.1250 (   770 PWs)   bands (ev):

    -5.6363   4.3915   5.7008   5.7008

          k = 0.6250-0.6250 0.6250 (   763 PWs)   bands (ev):

    -4.1768   0.1092   4.9138   4.9138

          k =-0.3750-0.3750-0.1250 (   773 PWs)   bands (ev):

    -4.6097   1.3992   3.7150   5.2207

          k = 0.1250-0.8750 0.3750 (   755 PWs)   bands (ev):

    -2.4377  -0.8963   2.0123   3.0888

          k =-0.1250-0.3750 0.3750 (   773 PWs)   bands (ev):

    -4.6097   1.3992   3.7150   5.2207

          k = 0.3750-0.8750 0.8750 (   766 PWs)   bands (ev):

    -4.0772   1.0653   3.3665   3.8191

          k = 0.3750 0.3750 0.6250 (   763 PWs)   bands (ev):

    -3.4703  -0.6787   3.7358   4.4494

          k = 0.8750-0.1250 1.1250 (   762 PWs)   bands (ev):

    -2.6054  -0.7990   2.6221   3.3523

          k = 0.6250 0.3750-0.3750 (   763 PWs)   bands (ev):

    -3.4703  -0.6787   3.7358   4.4494

          k = 1.1250-0.1250 0.1250 (   762 PWs)   bands (ev):

    -2.6054  -0.7990   2.6221   3.3523

          k = 0.1250 0.1250 0.3750 (   768 PWs)   bands (ev):

    -5.1085   2.7756   4.6930   4.7570

          k = 0.6250-0.3750 0.8750 (   768 PWs)   bands (ev):

    -3.6617   0.1922   2.7247   4.0937

          k = 0.3750 0.1250-0.1250 (   768 PWs)   bands (ev):

    -5.1085   2.7756   4.6930   4.7570

          k = 0.8750-0.3750 0.3750 (   767 PWs)   bands (ev):

    -2.9746  -0.5939   2.0706   4.1324

          k =-0.1250-0.6250-0.1250 (   766 PWs)   bands (ev):

    -4.0772   1.0653   3.3665   3.8191

          k = 0.3750-1.1250 0.3750 (   767 PWs)   bands (ev):

    -2.9746  -0.5939   2.0706   4.1324

          k = 0.1250-0.6250 0.1250 (   766 PWs)   bands (ev):

    -4.0772   1.0653   3.3665   3.8191

          k = 0.6250-1.1250 0.6250 (   773 PWs)   bands (ev):

    -4.6097   1.3992   3.7150   5.2207

          k = 0.6250 0.1250 0.8750 (   755 PWs)   bands (ev):

    -2.4377  -0.8963   2.0123   3.0888

          k = 1.1250-0.3750 1.3750 (   768 PWs)   bands (ev):

    -3.6617   0.1922   2.7247   4.0937

          k =-0.8750 0.1250 0.6250 (   755 PWs)   bands (ev):

    -2.4377  -0.8963   2.0123   3.0888

          k =-0.3750-0.3750 1.1250 (   767 PWs)   bands (ev):

    -2.9746  -0.5939   2.0706   4.1324

          k = 0.8750 0.1250-0.6250 (   755 PWs)   bands (ev):

    -2.4377  -0.8963   2.0123   3.0888

          k = 1.3750-0.3750-0.1250 (   768 PWs)   bands (ev):

    -3.6617   0.1922   2.7247   4.0937

          k = 0.3750-0.1250 0.6250 (   768 PWs)   bands (ev):

    -3.6617   0.1922   2.7247   4.0937

          k = 0.8750-0.6250 1.1250 (   768 PWs)   bands (ev):

    -5.1085   2.7756   4.6930   4.7570

          k =-0.6250-0.1250 0.3750 (   768 PWs)   bands (ev):

    -3.6617   0.1922   2.7247   4.0937

          k =-0.1250-0.6250 0.8750 (   755 PWs)   bands (ev):

    -2.4377  -0.8963   2.0123   3.0888

          k = 0.6250-0.1250-0.3750 (   768 PWs)   bands (ev):

    -3.6617   0.1922   2.7247   4.0937

          k = 1.1250-0.6250 0.1250 (   755 PWs)   bands (ev):

    -2.4377  -0.8963   2.0123   3.0888

          k =-0.1250 0.8750-0.1250 (   762 PWs)   bands (ev):

    -2.6054  -0.7990   2.6221   3.3523

          k = 0.3750 0.3750 0.3750 (   763 PWs)   bands (ev):

    -4.1768   0.1092   4.9138   4.9138

          k = 0.1250 0.8750 0.1250 (   762 PWs)   bands (ev):

    -2.6054  -0.7990   2.6221   3.3523

          k = 0.6250 0.3750 0.6250 (   763 PWs)   bands (ev):

    -3.4703  -0.6787   3.7358   4.4494

          k = 0.3750-0.3750 0.3750 (   763 PWs)   bands (ev):

    -4.1768   0.1092   4.9138   4.9138

          k = 0.8750-0.8750 0.8750 (   770 PWs)   bands (ev):

    -5.6363   4.3915   5.7008   5.7008

          k = 0.3750 0.3750 1.1250 (   767 PWs)   bands (ev):

    -2.9746  -0.5939   2.0706   4.1324

          k = 0.8750-0.1250 1.6250 (   755 PWs)   bands (ev):

    -2.4377  -0.8963   2.0123   3.0888

          k = 1.1250 0.3750-0.3750 (   767 PWs)   bands (ev):

    -2.9746  -0.5939   2.0706   4.1324

          k = 1.6250-0.1250 0.1250 (   768 PWs)   bands (ev):

    -5.1085   2.7756   4.6930   4.7570

     highest occupied level (ev):     5.7008

     Writing output data file silicon.10.332.save

                                                                                

     bravais-lattice index     =            2
     lattice parameter (alat)  =      10.3320  a.u.
     unit-cell volume          =     275.7358 (a.u.)^3
     number of atoms/cell      =            2
     number of atomic types    =            1
     kinetic-energy cut-off    =      30.0000  Ry
     charge density cut-off    =     240.0000  Ry
     convergence threshold     =      1.0E-12
     beta                      =       0.7000
     number of iterations used =            4
     Exchange-correlation      = SLA  PW   PBE  PBE ( 1  4  3  4 0 0)


     celldm(1)=   10.33200  celldm(2)=    0.00000  celldm(3)=    0.00000
     celldm(4)=    0.00000  celldm(5)=    0.00000  celldm(6)=    0.00000

     crystal axes: (cart. coord. in units of alat)
               a(1) = ( -0.5000  0.0000  0.5000 )  
               a(2) = (  0.0000  0.5000  0.5000 )  
               a(3) = ( -0.5000  0.5000  0.0000 )  

     reciprocal axes: (cart. coord. in units 2 pi/alat)
               b(1) = ( -1.0000 -1.0000  1.0000 )  
               b(2) = (  1.0000  1.0000  1.0000 )  
               b(3) = ( -1.0000  1.0000 -1.0000 )  


     Atoms inside the unit cell: 

     Cartesian axes

     site n.  atom      mass           positions (alat units)
        1     Si  28.0860   tau(    1) = (    0.00000    0.00000    0.00000  )
        2     Si  28.0860   tau(    2) = (    0.25000    0.25000    0.25000  )

     Computing dynamical matrix for 
                    q = (   0.5000000  -0.5000000   0.5000000 )

     13 Sym.Ops. (with q -> -q+G )


     G cutoff =  648.9635  (   4316 G-vectors)     FFT grid: ( 40, 40, 40)
     G cutoff =  324.4818  (   1546 G-vectors)  smooth grid: ( 25, 25, 25)
     number of k points=    60

     PseudoPot. # 1 for Si read from file:
     /home/s1333534/quantum_espresso/qe-6.1/pseudo/si_pbe_v1.uspp.F.UPF.txt
     MD5 check sum: a056efeee980c13900f22a371efd63c1
     Pseudo is Ultrasoft + core correction, Zval =  4.0
     Generated by new atomic code, or converted to UPF format
     Using radial grid of  899 points,  6 beta functions with: 
                l(1) =   0
                l(2) =   0
                l(3) =   1
                l(4) =   1
                l(5) =   2
                l(6) =   2
     Q(r) pseudized with  8 coefficients,  rinner =    0.900   0.900   0.900
                                                       0.900   0.900


     Atomic displacements:
     There are   4 irreducible representations

     Representation     1      1 modes -  To be done

     Representation     2      1 modes -  To be done

     Representation     3      2 modes -  To be done

     Representation     4      2 modes -  To be done



     Alpha used in Ewald sum =   2.5000
     PHONON       :    29.61s CPU        38.24s WALL



     Representation #  1 mode #   1

     Self-consistent Calculation

      iter #   1 total cpu time :    38.5 secs   av.it.:   5.1
      thresh= 1.000E-02 alpha_mix =  0.700 |ddv_scf|^2 =  3.049E-06

      iter #   2 total cpu time :    39.0 secs   av.it.:  10.0
      thresh= 1.746E-04 alpha_mix =  0.700 |ddv_scf|^2 =  2.799E-06

      iter #   3 total cpu time :    39.4 secs   av.it.:   9.4
      thresh= 1.673E-04 alpha_mix =  0.700 |ddv_scf|^2 =  1.677E-09

      iter #   4 total cpu time :    39.8 secs   av.it.:   9.6
      thresh= 4.096E-06 alpha_mix =  0.700 |ddv_scf|^2 =  1.620E-11

      iter #   5 total cpu time :    40.2 secs   av.it.:   9.5
      thresh= 4.025E-07 alpha_mix =  0.700 |ddv_scf|^2 =  2.240E-13

     End of self-consistent calculation

     Convergence has been achieved 


     Representation #  2 mode #   2

     Self-consistent Calculation

      iter #   1 total cpu time :    40.7 secs   av.it.:   6.0
      thresh= 1.000E-02 alpha_mix =  0.700 |ddv_scf|^2 =  4.336E-05

      iter #   2 total cpu time :    41.1 secs   av.it.:  10.0
      thresh= 6.585E-04 alpha_mix =  0.700 |ddv_scf|^2 =  1.349E-04

      iter #   3 total cpu time :    41.5 secs   av.it.:   8.9
      thresh= 1.162E-03 alpha_mix =  0.700 |ddv_scf|^2 =  9.767E-09

      iter #   4 total cpu time :    42.0 secs   av.it.:  10.1
      thresh= 9.883E-06 alpha_mix =  0.700 |ddv_scf|^2 =  4.965E-10

      iter #   5 total cpu time :    42.5 secs   av.it.:  10.4
      thresh= 2.228E-06 alpha_mix =  0.700 |ddv_scf|^2 =  1.497E-11

      iter #   6 total cpu time :    42.9 secs   av.it.:   9.9
      thresh= 3.869E-07 alpha_mix =  0.700 |ddv_scf|^2 =  1.110E-13

     End of self-consistent calculation

     Convergence has been achieved 


     Representation #  3 modes #   3  4

     Self-consistent Calculation

      iter #   1 total cpu time :    43.5 secs   av.it.:   5.1
      thresh= 1.000E-02 alpha_mix =  0.700 |ddv_scf|^2 =  1.960E-08

      iter #   2 total cpu time :    44.3 secs   av.it.:  11.1
      thresh= 1.400E-05 alpha_mix =  0.700 |ddv_scf|^2 =  1.155E-09

      iter #   3 total cpu time :    45.2 secs   av.it.:  10.8
      thresh= 3.399E-06 alpha_mix =  0.700 |ddv_scf|^2 =  3.871E-11

      iter #   4 total cpu time :    46.1 secs   av.it.:  10.8
      thresh= 6.222E-07 alpha_mix =  0.700 |ddv_scf|^2 =  3.155E-13

     End of self-consistent calculation

     Convergence has been achieved 


     Representation #  4 modes #   5  6

     Self-consistent Calculation

      iter #   1 total cpu time :    46.9 secs   av.it.:   5.1
      thresh= 1.000E-02 alpha_mix =  0.700 |ddv_scf|^2 =  1.004E-07

      iter #   2 total cpu time :    47.8 secs   av.it.:  11.2
      thresh= 3.169E-05 alpha_mix =  0.700 |ddv_scf|^2 =  8.058E-09

      iter #   3 total cpu time :    48.6 secs   av.it.:  11.2
      thresh= 8.976E-06 alpha_mix =  0.700 |ddv_scf|^2 =  2.119E-10

      iter #   4 total cpu time :    49.3 secs   av.it.:  10.1
      thresh= 1.456E-06 alpha_mix =  0.700 |ddv_scf|^2 =  3.838E-13

     End of self-consistent calculation

     Convergence has been achieved 

     Number of q in the star =    4
     List of q in the star:
          1   0.500000000  -0.500000000   0.500000000
          2   0.500000000   0.500000000   0.500000000
          3  -0.500000000   0.500000000   0.500000000
          4   0.500000000   0.500000000  -0.500000000

     Diagonalizing the dynamical matrix

     q = (    0.500000000  -0.500000000   0.500000000 ) 

 **************************************************************************
     freq (    1) =       3.300060 [THz] =     110.078151 [cm-1]
     freq (    2) =       3.300060 [THz] =     110.078151 [cm-1]
     freq (    3) =      11.098774 [THz] =     370.215248 [cm-1]
     freq (    4) =      11.974648 [THz] =     399.431273 [cm-1]
     freq (    5) =      14.289037 [THz] =     476.630980 [cm-1]
     freq (    6) =      14.289037 [THz] =     476.630980 [cm-1]
 **************************************************************************

     Calculation of q =    0.0000000   0.5000000   0.0000000

   Info: using nr1, nr2, nr3 values from input

   Info: using nr1, nr2, nr3 values from input

     Parallelization info
     --------------------
     sticks:   dense  smooth     PW     G-vecs:    dense   smooth      PW
     Min         218     109     37                 4315     1545     309
     Max         220     110     38                 4316     1546     312
     Sum         877     439    151                17261     6183    1243



     bravais-lattice index     =            2
     lattice parameter (alat)  =      10.3320  a.u.
     unit-cell volume          =     275.7358 (a.u.)^3
     number of atoms/cell      =            2
     number of atomic types    =            1
     number of electrons       =         8.00
     number of Kohn-Sham states=            4
     kinetic-energy cutoff     =      30.0000  Ry
     charge density cutoff     =     240.0000  Ry
     Exchange-correlation      = SLA  PW   PBE  PBE ( 1  4  3  4 0 0)

     celldm(1)=  10.332000  celldm(2)=   0.000000  celldm(3)=   0.000000
     celldm(4)=   0.000000  celldm(5)=   0.000000  celldm(6)=   0.000000

     crystal axes: (cart. coord. in units of alat)
               a(1) = (  -0.500000   0.000000   0.500000 )  
               a(2) = (   0.000000   0.500000   0.500000 )  
               a(3) = (  -0.500000   0.500000   0.000000 )  

     reciprocal axes: (cart. coord. in units 2 pi/alat)
               b(1) = ( -1.000000 -1.000000  1.000000 )  
               b(2) = (  1.000000  1.000000  1.000000 )  
               b(3) = ( -1.000000  1.000000 -1.000000 )  


     PseudoPot. # 1 for Si read from file:
     /home/s1333534/quantum_espresso/qe-6.1/pseudo/si_pbe_v1.uspp.F.UPF.txt
     MD5 check sum: a056efeee980c13900f22a371efd63c1
     Pseudo is Ultrasoft + core correction, Zval =  4.0
     Generated by new atomic code, or converted to UPF format
     Using radial grid of  899 points,  6 beta functions with: 
                l(1) =   0
                l(2) =   0
                l(3) =   1
                l(4) =   1
                l(5) =   2
                l(6) =   2
     Q(r) pseudized with  8 coefficients,  rinner =    0.900   0.900   0.900
                                                       0.900   0.900

     atomic species   valence    mass     pseudopotential
        Si             4.00    28.08600     Si( 1.00)

     48 Sym. Ops., with inversion, found



   Cartesian axes

     site n.     atom                  positions (alat units)
         1           Si  tau(   1) = (   0.0000000   0.0000000   0.0000000  )
         2           Si  tau(   2) = (   0.2500000   0.2500000   0.2500000  )

     number of k points=    80
                       cart. coord. in units 2pi/alat
        k(    1) = (  -0.1250000   0.1250000   0.1250000), wk =   0.0312500
        k(    2) = (  -0.1250000   0.6250000   0.1250000), wk =   0.0000000
        k(    3) = (  -0.3750000   0.3750000  -0.1250000), wk =   0.0625000
        k(    4) = (  -0.3750000   0.8750000  -0.1250000), wk =   0.0000000
        k(    5) = (   0.3750000  -0.3750000   0.6250000), wk =   0.0625000
        k(    6) = (   0.3750000   0.1250000   0.6250000), wk =   0.0000000
        k(    7) = (   0.1250000  -0.1250000   0.3750000), wk =   0.0625000
        k(    8) = (   0.1250000   0.3750000   0.3750000), wk =   0.0000000
        k(    9) = (  -0.1250000   0.6250000   0.1250000), wk =   0.0312500
        k(   10) = (  -0.1250000   1.1250000   0.1250000), wk =   0.0000000
        k(   11) = (   0.6250000  -0.1250000   0.8750000), wk =   0.0625000
        k(   12) = (   0.6250000   0.3750000   0.8750000), wk =   0.0000000
        k(   13) = (   0.3750000   0.1250000   0.6250000), wk =   0.0625000
        k(   14) = (   0.3750000   0.6250000   0.6250000), wk =   0.0000000
        k(   15) = (  -0.1250000  -0.8750000   0.1250000), wk =   0.0312500
        k(   16) = (  -0.1250000  -0.3750000   0.1250000), wk =   0.0000000
        k(   17) = (  -0.3750000   0.3750000   0.3750000), wk =   0.0312500
        k(   18) = (  -0.3750000   0.8750000   0.3750000), wk =   0.0000000
        k(   19) = (   0.3750000  -0.3750000   1.1250000), wk =   0.0625000
        k(   20) = (   0.3750000   0.1250000   1.1250000), wk =   0.0000000
        k(   21) = (  -0.1250000  -0.1250000   0.1250000), wk =   0.0312500
        k(   22) = (  -0.1250000   0.3750000   0.1250000), wk =   0.0000000
        k(   23) = (   0.1250000  -0.3750000   0.3750000), wk =   0.0625000
        k(   24) = (   0.1250000   0.1250000   0.3750000), wk =   0.0000000
        k(   25) = (   0.3750000  -0.1250000   0.3750000), wk =   0.0312500
        k(   26) = (   0.3750000   0.3750000   0.3750000), wk =   0.0000000
        k(   27) = (   0.3750000   0.1250000   0.3750000), wk =   0.0312500
        k(   28) = (   0.3750000   0.6250000   0.3750000), wk =   0.0000000
        k(   29) = (  -0.6250000   0.3750000  -0.3750000), wk =   0.0625000
        k(   30) = (  -0.6250000   0.8750000  -0.3750000), wk =   0.0000000
        k(   31) = (  -0.3750000   0.6250000  -0.3750000), wk =   0.0312500
        k(   32) = (  -0.3750000   1.1250000  -0.3750000), wk =   0.0000000
        k(   33) = (  -0.3750000  -0.6250000  -0.3750000), wk =   0.0312500
        k(   34) = (  -0.3750000  -0.1250000  -0.3750000), wk =   0.0000000
        k(   35) = (  -0.3750000   0.1250000  -0.1250000), wk =   0.0625000
        k(   36) = (  -0.3750000   0.6250000  -0.1250000), wk =   0.0000000
        k(   37) = (  -0.1250000   0.3750000  -0.1250000), wk =   0.0312500
        k(   38) = (  -0.1250000   0.8750000  -0.1250000), wk =   0.0000000
        k(   39) = (  -0.1250000  -0.3750000  -0.1250000), wk =   0.0312500
        k(   40) = (  -0.1250000   0.1250000  -0.1250000), wk =   0.0000000
        k(   41) = (  -0.1250000  -0.6250000   0.1250000), wk =   0.0312500
        k(   42) = (  -0.1250000  -0.1250000   0.1250000), wk =   0.0000000
        k(   43) = (   0.6250000  -0.1250000  -0.1250000), wk =   0.0625000
        k(   44) = (   0.6250000   0.3750000  -0.1250000), wk =   0.0000000
        k(   45) = (   0.6250000   0.1250000   0.1250000), wk =   0.0625000
        k(   46) = (   0.6250000   0.6250000   0.1250000), wk =   0.0000000
        k(   47) = (  -0.8750000   0.1250000  -0.6250000), wk =   0.0625000
        k(   48) = (  -0.8750000   0.6250000  -0.6250000), wk =   0.0000000
        k(   49) = (  -0.1250000   0.6250000  -0.8750000), wk =   0.0625000
        k(   50) = (  -0.1250000   1.1250000  -0.8750000), wk =   0.0000000
        k(   51) = (  -0.1250000   0.8750000  -0.6250000), wk =   0.0625000
        k(   52) = (  -0.1250000   1.3750000  -0.6250000), wk =   0.0000000
        k(   53) = (  -0.1250000  -0.8750000  -0.6250000), wk =   0.0625000
        k(   54) = (  -0.1250000  -0.3750000  -0.6250000), wk =   0.0000000
        k(   55) = (   0.8750000  -0.6250000   0.1250000), wk =   0.0625000
        k(   56) = (   0.8750000  -0.1250000   0.1250000), wk =   0.0000000
        k(   57) = (  -0.6250000  -0.1250000  -0.3750000), wk =   0.0625000
        k(   58) = (  -0.6250000   0.3750000  -0.3750000), wk =   0.0000000
        k(   59) = (   0.1250000   0.3750000  -0.6250000), wk =   0.0625000
        k(   60) = (   0.1250000   0.8750000  -0.6250000), wk =   0.0000000
        k(   61) = (   0.1250000   0.6250000  -0.3750000), wk =   0.0625000
        k(   62) = (   0.1250000   1.1250000  -0.3750000), wk =   0.0000000
        k(   63) = (   0.1250000  -0.6250000  -0.3750000), wk =   0.0625000
        k(   64) = (   0.1250000  -0.1250000  -0.3750000), wk =   0.0000000
        k(   65) = (   0.6250000  -0.3750000  -0.1250000), wk =   0.0625000
        k(   66) = (   0.6250000   0.1250000  -0.1250000), wk =   0.0000000
        k(   67) = (  -0.1250000   0.8750000   0.1250000), wk =   0.0312500
        k(   68) = (  -0.1250000   1.3750000   0.1250000), wk =   0.0000000
        k(   69) = (  -0.8750000  -0.1250000  -0.1250000), wk =   0.0625000
        k(   70) = (  -0.8750000   0.3750000  -0.1250000), wk =   0.0000000
        k(   71) = (  -0.8750000   0.1250000   0.1250000), wk =   0.0625000
        k(   72) = (  -0.8750000   0.6250000   0.1250000), wk =   0.0000000
        k(   73) = (  -0.3750000  -0.3750000   0.3750000), wk =   0.0312500
        k(   74) = (  -0.3750000   0.1250000   0.3750000), wk =   0.0000000
        k(   75) = (  -1.1250000   0.3750000  -0.3750000), wk =   0.0625000
        k(   76) = (  -1.1250000   0.8750000  -0.3750000), wk =   0.0000000
        k(   77) = (  -0.3750000   1.1250000  -0.3750000), wk =   0.0312500
        k(   78) = (  -0.3750000   1.6250000  -0.3750000), wk =   0.0000000
        k(   79) = (  -0.3750000  -1.1250000  -0.3750000), wk =   0.0312500
        k(   80) = (  -0.3750000  -0.6250000  -0.3750000), wk =   0.0000000

     Dense  grid:    17261 G-vectors     FFT dimensions: (  40,  40,  40)

     Smooth grid:     6183 G-vectors     FFT dimensions: (  25,  25,  25)

     Estimated max dynamical RAM per process >       1.78MB

     Estimated total allocated dynamical RAM >       7.14MB

     The potential is recalculated from file :
     ./_ph0/silicon.10.332.save/charge-density.dat

     Starting wfc are    8 atomic wfcs

     Band Structure Calculation
     Davidson diagonalization with overlap

     ethr =  1.25E-10,  avg # of iterations = 12.2

     total cpu time spent up to now is        3.5 secs

     End of band structure calculation

          k =-0.1250 0.1250 0.1250 (   770 PWs)   bands (ev):

    -5.6363   4.3915   5.7008   5.7008

          k =-0.1250 0.6250 0.1250 (   766 PWs)   bands (ev):

    -4.0772   1.0653   3.3665   3.8191

          k =-0.3750 0.3750-0.1250 (   773 PWs)   bands (ev):

    -4.6097   1.3992   3.7150   5.2207

          k =-0.3750 0.8750-0.1250 (   755 PWs)   bands (ev):

    -2.4377  -0.8963   2.0123   3.0888

          k = 0.3750-0.3750 0.6250 (   763 PWs)   bands (ev):

    -3.4703  -0.6787   3.7358   4.4494

          k = 0.3750 0.1250 0.6250 (   768 PWs)   bands (ev):

    -3.6617   0.1922   2.7247   4.0937

          k = 0.1250-0.1250 0.3750 (   768 PWs)   bands (ev):

    -5.1085   2.7756   4.6930   4.7570

          k = 0.1250 0.3750 0.3750 (   773 PWs)   bands (ev):

    -4.6097   1.3992   3.7150   5.2207

          k =-0.1250 0.6250 0.1250 (   766 PWs)   bands (ev):

    -4.0772   1.0653   3.3665   3.8191

          k =-0.1250 1.1250 0.1250 (   762 PWs)   bands (ev):

    -2.6054  -0.7990   2.6221   3.3523

          k = 0.6250-0.1250 0.8750 (   755 PWs)   bands (ev):

    -2.4377  -0.8963   2.0123   3.0888

          k = 0.6250 0.3750 0.8750 (   768 PWs)   bands (ev):

    -3.6617   0.1922   2.7247   4.0937

          k = 0.3750 0.1250 0.6250 (   768 PWs)   bands (ev):

    -3.6617   0.1922   2.7247   4.0937

          k = 0.3750 0.6250 0.6250 (   763 PWs)   bands (ev):

    -3.4703  -0.6787   3.7358   4.4494

          k =-0.1250-0.8750 0.1250 (   762 PWs)   bands (ev):

    -2.6054  -0.7990   2.6221   3.3523

          k =-0.1250-0.3750 0.1250 (   768 PWs)   bands (ev):

    -5.1085   2.7756   4.6930   4.7570

          k =-0.3750 0.3750 0.3750 (   763 PWs)   bands (ev):

    -4.1768   0.1092   4.9138   4.9138

          k =-0.3750 0.8750 0.3750 (   767 PWs)   bands (ev):

    -2.9746  -0.5939   2.0706   4.1324

          k = 0.3750-0.3750 1.1250 (   767 PWs)   bands (ev):

    -2.9746  -0.5939   2.0706   4.1324

          k = 0.3750 0.1250 1.1250 (   755 PWs)   bands (ev):

    -2.4377  -0.8963   2.0123   3.0888

          k =-0.1250-0.1250 0.1250 (   770 PWs)   bands (ev):

    -5.6363   4.3915   5.7008   5.7008

          k =-0.1250 0.3750 0.1250 (   768 PWs)   bands (ev):

    -5.1085   2.7756   4.6930   4.7570

          k = 0.1250-0.3750 0.3750 (   773 PWs)   bands (ev):

    -4.6097   1.3992   3.7150   5.2207

          k = 0.1250 0.1250 0.3750 (   768 PWs)   bands (ev):

    -5.1085   2.7756   4.6930   4.7570

          k = 0.3750-0.1250 0.3750 (   773 PWs)   bands (ev):

    -4.6097   1.3992   3.7150   5.2207

          k = 0.3750 0.3750 0.3750 (   763 PWs)   bands (ev):

    -4.1768   0.1092   4.9138   4.9138

          k = 0.3750 0.1250 0.3750 (   773 PWs)   bands (ev):

    -4.6097   1.3992   3.7150   5.2207

          k = 0.3750 0.6250 0.3750 (   763 PWs)   bands (ev):

    -3.4703  -0.6787   3.7358   4.4494

          k =-0.6250 0.3750-0.3750 (   763 PWs)   bands (ev):

    -3.4703  -0.6787   3.7358   4.4494

          k =-0.6250 0.8750-0.3750 (   768 PWs)   bands (ev):

    -3.6617   0.1922   2.7247   4.0937

          k =-0.3750 0.6250-0.3750 (   763 PWs)   bands (ev):

    -3.4703  -0.6787   3.7358   4.4494

          k =-0.3750 1.1250-0.3750 (   767 PWs)   bands (ev):

    -2.9746  -0.5939   2.0706   4.1324

          k =-0.3750-0.6250-0.3750 (   763 PWs)   bands (ev):

    -3.4703  -0.6787   3.7358   4.4494

          k =-0.3750-0.1250-0.3750 (   773 PWs)   bands (ev):

    -4.6097   1.3992   3.7150   5.2207

          k =-0.3750 0.1250-0.1250 (   768 PWs)   bands (ev):

    -5.1085   2.7756   4.6930   4.7570

          k =-0.3750 0.6250-0.1250 (   768 PWs)   bands (ev):

    -3.6617   0.1922   2.7247   4.0937

          k =-0.1250 0.3750-0.1250 (   768 PWs)   bands (ev):

    -5.1085   2.7756   4.6930   4.7570

          k =-0.1250 0.8750-0.1250 (   762 PWs)   bands (ev):

    -2.6054  -0.7990   2.6221   3.3523

          k =-0.1250-0.3750-0.1250 (   768 PWs)   bands (ev):

    -5.1085   2.7756   4.6930   4.7570

          k =-0.1250 0.1250-0.1250 (   770 PWs)   bands (ev):

    -5.6363   4.3915   5.7008   5.7008

          k =-0.1250-0.6250 0.1250 (   766 PWs)   bands (ev):

    -4.0772   1.0653   3.3665   3.8191

          k =-0.1250-0.1250 0.1250 (   770 PWs)   bands (ev):

    -5.6363   4.3915   5.7008   5.7008

          k = 0.6250-0.1250-0.1250 (   766 PWs)   bands (ev):

    -4.0772   1.0653   3.3665   3.8191

          k = 0.6250 0.3750-0.1250 (   768 PWs)   bands (ev):

    -3.6617   0.1922   2.7247   4.0937

          k = 0.6250 0.1250 0.1250 (   766 PWs)   bands (ev):

    -4.0772   1.0653   3.3665   3.8191

          k = 0.6250 0.6250 0.1250 (   767 PWs)   bands (ev):

    -2.9746  -0.5939   2.0706   4.1324

          k =-0.8750 0.1250-0.6250 (   755 PWs)   bands (ev):

    -2.4377  -0.8963   2.0123   3.0888

          k =-0.8750 0.6250-0.6250 (   773 PWs)   bands (ev):

    -4.6097   1.3992   3.7150   5.2207

          k =-0.1250 0.6250-0.8750 (   755 PWs)   bands (ev):

    -2.4377  -0.8963   2.0123   3.0888

          k =-0.1250 1.1250-0.8750 (   762 PWs)   bands (ev):

    -2.6054  -0.7990   2.6221   3.3523

          k =-0.1250 0.8750-0.6250 (   755 PWs)   bands (ev):

    -2.4377  -0.8963   2.0123   3.0888

          k =-0.1250 1.3750-0.6250 (   767 PWs)   bands (ev):

    -2.9746  -0.5939   2.0706   4.1324

          k =-0.1250-0.8750-0.6250 (   755 PWs)   bands (ev):

    -2.4377  -0.8963   2.0123   3.0888

          k =-0.1250-0.3750-0.6250 (   768 PWs)   bands (ev):

    -3.6617   0.1922   2.7247   4.0937

          k = 0.8750-0.6250 0.1250 (   755 PWs)   bands (ev):

    -2.4377  -0.8963   2.0123   3.0888

          k = 0.8750-0.1250 0.1250 (   762 PWs)   bands (ev):

    -2.6054  -0.7990   2.6221   3.3523

          k =-0.6250-0.1250-0.3750 (   768 PWs)   bands (ev):

    -3.6617   0.1922   2.7247   4.0937

          k =-0.6250 0.3750-0.3750 (   763 PWs)   bands (ev):

    -3.4703  -0.6787   3.7358   4.4494

          k = 0.1250 0.3750-0.6250 (   768 PWs)   bands (ev):

    -3.6617   0.1922   2.7247   4.0937

          k = 0.1250 0.8750-0.6250 (   755 PWs)   bands (ev):

    -2.4377  -0.8963   2.0123   3.0888

          k = 0.1250 0.6250-0.3750 (   768 PWs)   bands (ev):

    -3.6617   0.1922   2.7247   4.0937

          k = 0.1250 1.1250-0.3750 (   755 PWs)   bands (ev):

    -2.4377  -0.8963   2.0123   3.0888

          k = 0.1250-0.6250-0.3750 (   768 PWs)   bands (ev):

    -3.6617   0.1922   2.7247   4.0937

          k = 0.1250-0.1250-0.3750 (   768 PWs)   bands (ev):

    -5.1085   2.7756   4.6930   4.7570

          k = 0.6250-0.3750-0.1250 (   768 PWs)   bands (ev):

    -3.6617   0.1922   2.7247   4.0937

          k = 0.6250 0.1250-0.1250 (   766 PWs)   bands (ev):

    -4.0772   1.0653   3.3665   3.8191

          k =-0.1250 0.8750 0.1250 (   762 PWs)   bands (ev):

    -2.6054  -0.7990   2.6221   3.3523

          k =-0.1250 1.3750 0.1250 (   766 PWs)   bands (ev):

    -4.0772   1.0653   3.3665   3.8191

          k =-0.8750-0.1250-0.1250 (   762 PWs)   bands (ev):

    -2.6054  -0.7990   2.6221   3.3523

          k =-0.8750 0.3750-0.1250 (   755 PWs)   bands (ev):

    -2.4377  -0.8963   2.0123   3.0888

          k =-0.8750 0.1250 0.1250 (   762 PWs)   bands (ev):

    -2.6054  -0.7990   2.6221   3.3523

          k =-0.8750 0.6250 0.1250 (   755 PWs)   bands (ev):

    -2.4377  -0.8963   2.0123   3.0888

          k =-0.3750-0.3750 0.3750 (   763 PWs)   bands (ev):

    -4.1768   0.1092   4.9138   4.9138

          k =-0.3750 0.1250 0.3750 (   773 PWs)   bands (ev):

    -4.6097   1.3992   3.7150   5.2207

          k =-1.1250 0.3750-0.3750 (   767 PWs)   bands (ev):

    -2.9746  -0.5939   2.0706   4.1324

          k =-1.1250 0.8750-0.3750 (   766 PWs)   bands (ev):

    -4.0772   1.0653   3.3665   3.8191

          k =-0.3750 1.1250-0.3750 (   767 PWs)   bands (ev):

    -2.9746  -0.5939   2.0706   4.1324

          k =-0.3750 1.6250-0.3750 (   763 PWs)   bands (ev):

    -4.1768   0.1092   4.9138   4.9138

          k =-0.3750-1.1250-0.3750 (   767 PWs)   bands (ev):

    -2.9746  -0.5939   2.0706   4.1324

          k =-0.3750-0.6250-0.3750 (   763 PWs)   bands (ev):

    -3.4703  -0.6787   3.7358   4.4494

     highest occupied level (ev):     5.7008

     Writing output data file silicon.10.332.save

                                                                                

     bravais-lattice index     =            2
     lattice parameter (alat)  =      10.3320  a.u.
     unit-cell volume          =     275.7358 (a.u.)^3
     number of atoms/cell      =            2
     number of atomic types    =            1
     kinetic-energy cut-off    =      30.0000  Ry
     charge density cut-off    =     240.0000  Ry
     convergence threshold     =      1.0E-12
     beta                      =       0.7000
     number of iterations used =            4
     Exchange-correlation      = SLA  PW   PBE  PBE ( 1  4  3  4 0 0)


     celldm(1)=   10.33200  celldm(2)=    0.00000  celldm(3)=    0.00000
     celldm(4)=    0.00000  celldm(5)=    0.00000  celldm(6)=    0.00000

     crystal axes: (cart. coord. in units of alat)
               a(1) = ( -0.5000  0.0000  0.5000 )  
               a(2) = (  0.0000  0.5000  0.5000 )  
               a(3) = ( -0.5000  0.5000  0.0000 )  

     reciprocal axes: (cart. coord. in units 2 pi/alat)
               b(1) = ( -1.0000 -1.0000  1.0000 )  
               b(2) = (  1.0000  1.0000  1.0000 )  
               b(3) = ( -1.0000  1.0000 -1.0000 )  


     Atoms inside the unit cell: 

     Cartesian axes

     site n.  atom      mass           positions (alat units)
        1     Si  28.0860   tau(    1) = (    0.00000    0.00000    0.00000  )
        2     Si  28.0860   tau(    2) = (    0.25000    0.25000    0.25000  )

     Computing dynamical matrix for 
                    q = (   0.0000000   0.5000000   0.0000000 )

      8 Sym.Ops. (no q -> -q+G )


     G cutoff =  648.9635  (   4315 G-vectors)     FFT grid: ( 40, 40, 40)
     G cutoff =  324.4818  (   1546 G-vectors)  smooth grid: ( 25, 25, 25)
     number of k points=    80

     PseudoPot. # 1 for Si read from file:
     /home/s1333534/quantum_espresso/qe-6.1/pseudo/si_pbe_v1.uspp.F.UPF.txt
     MD5 check sum: a056efeee980c13900f22a371efd63c1
     Pseudo is Ultrasoft + core correction, Zval =  4.0
     Generated by new atomic code, or converted to UPF format
     Using radial grid of  899 points,  6 beta functions with: 
                l(1) =   0
                l(2) =   0
                l(3) =   1
                l(4) =   1
                l(5) =   2
                l(6) =   2
     Q(r) pseudized with  8 coefficients,  rinner =    0.900   0.900   0.900
                                                       0.900   0.900

     Mode symmetry, C_4v (4mm)  point group:


     Atomic displacements:
     There are   4 irreducible representations

     Representation     1      1 modes -A_1  G_1 D_1  To be done

     Representation     2      1 modes -B_2  G_4 D_2'  To be done

     Representation     3      2 modes -E    G_5 D_5  To be done

     Representation     4      2 modes -E    G_5 D_5  To be done



     Alpha used in Ewald sum =   2.5000
     PHONON       :    39.86s CPU        52.03s WALL



     Representation #  1 mode #   1

     Self-consistent Calculation

      iter #   1 total cpu time :    52.4 secs   av.it.:   6.2
      thresh= 1.000E-02 alpha_mix =  0.700 |ddv_scf|^2 =  3.739E-04

      iter #   2 total cpu time :    52.9 secs   av.it.:   9.5
      thresh= 1.934E-03 alpha_mix =  0.700 |ddv_scf|^2 =  4.962E-03

      iter #   3 total cpu time :    53.4 secs   av.it.:   7.5
      thresh= 7.044E-03 alpha_mix =  0.700 |ddv_scf|^2 =  7.459E-09

      iter #   4 total cpu time :    53.9 secs   av.it.:  10.3
      thresh= 8.636E-06 alpha_mix =  0.700 |ddv_scf|^2 =  7.147E-10

      iter #   5 total cpu time :    54.4 secs   av.it.:   9.9
      thresh= 2.673E-06 alpha_mix =  0.700 |ddv_scf|^2 =  8.134E-11

      iter #   6 total cpu time :    54.8 secs   av.it.:   9.6
      thresh= 9.019E-07 alpha_mix =  0.700 |ddv_scf|^2 =  2.550E-13

     End of self-consistent calculation

     Convergence has been achieved 


     Representation #  2 mode #   2

     Self-consistent Calculation

      iter #   1 total cpu time :    55.3 secs   av.it.:   5.1
      thresh= 1.000E-02 alpha_mix =  0.700 |ddv_scf|^2 =  5.909E-07

      iter #   2 total cpu time :    55.9 secs   av.it.:  10.6
      thresh= 7.687E-05 alpha_mix =  0.700 |ddv_scf|^2 =  1.620E-07

      iter #   3 total cpu time :    56.4 secs   av.it.:  10.2
      thresh= 4.025E-05 alpha_mix =  0.700 |ddv_scf|^2 =  1.653E-09

      iter #   4 total cpu time :    56.9 secs   av.it.:  10.3
      thresh= 4.065E-06 alpha_mix =  0.700 |ddv_scf|^2 =  6.493E-11

      iter #   5 total cpu time :    57.3 secs   av.it.:  10.4
      thresh= 8.058E-07 alpha_mix =  0.700 |ddv_scf|^2 =  3.836E-13

     End of self-consistent calculation

     Convergence has been achieved 


     Representation #  3 modes #   3  4

     Self-consistent Calculation

      iter #   1 total cpu time :    58.1 secs   av.it.:   5.2
      thresh= 1.000E-02 alpha_mix =  0.700 |ddv_scf|^2 =  1.047E-07

      iter #   2 total cpu time :    59.1 secs   av.it.:  11.7
      thresh= 3.236E-05 alpha_mix =  0.700 |ddv_scf|^2 =  1.444E-08

      iter #   3 total cpu time :    60.1 secs   av.it.:  11.2
      thresh= 1.202E-05 alpha_mix =  0.700 |ddv_scf|^2 =  2.432E-10

      iter #   4 total cpu time :    60.9 secs   av.it.:  10.8
      thresh= 1.559E-06 alpha_mix =  0.700 |ddv_scf|^2 =  5.732E-13

     End of self-consistent calculation

     Convergence has been achieved 


     Representation #  4 modes #   5  6

     Self-consistent Calculation

      iter #   1 total cpu time :    61.8 secs   av.it.:   5.3
      thresh= 1.000E-02 alpha_mix =  0.700 |ddv_scf|^2 =  9.601E-08

      iter #   2 total cpu time :    62.8 secs   av.it.:  11.6
      thresh= 3.099E-05 alpha_mix =  0.700 |ddv_scf|^2 =  1.289E-08

      iter #   3 total cpu time :    63.8 secs   av.it.:  11.4
      thresh= 1.135E-05 alpha_mix =  0.700 |ddv_scf|^2 =  2.488E-10

      iter #   4 total cpu time :    64.6 secs   av.it.:  11.1
      thresh= 1.577E-06 alpha_mix =  0.700 |ddv_scf|^2 =  6.104E-13

     End of self-consistent calculation

     Convergence has been achieved 

     Number of q in the star =    6
     List of q in the star:
          1   0.000000000   0.500000000   0.000000000
          2   0.000000000  -0.500000000   0.000000000
          3   0.500000000   0.000000000   0.000000000
          4   0.000000000   0.000000000   0.500000000
          5   0.000000000   0.000000000  -0.500000000
          6  -0.500000000   0.000000000   0.000000000

     Diagonalizing the dynamical matrix

     q = (    0.000000000   0.500000000   0.000000000 ) 

 **************************************************************************
     freq (    1) =       3.768572 [THz] =     125.706025 [cm-1]
     freq (    2) =       3.768572 [THz] =     125.706025 [cm-1]
     freq (    3) =       7.062607 [THz] =     235.583220 [cm-1]
     freq (    4) =      13.828490 [THz] =     461.268762 [cm-1]
     freq (    5) =      13.828490 [THz] =     461.268762 [cm-1]
     freq (    6) =      14.461984 [THz] =     482.399850 [cm-1]
 **************************************************************************

     Mode symmetry, C_4v (4mm)  point group:

     freq (  1 -  2) =        125.7  [cm-1]   --> E    G_5 D_5       
     freq (  3 -  3) =        235.6  [cm-1]   --> A_1  G_1 D_1       
     freq (  4 -  5) =        461.3  [cm-1]   --> E    G_5 D_5       
     freq (  6 -  6) =        482.4  [cm-1]   --> B_2  G_4 D_2'      

     Calculation of q =    0.7500000  -0.2500000   0.7500000

   Info: using nr1, nr2, nr3 values from input

   Info: using nr1, nr2, nr3 values from input

     Parallelization info
     --------------------
     sticks:   dense  smooth     PW     G-vecs:    dense   smooth      PW
     Min         219     109     40                 4315     1545     362
     Max         220     110     41                 4316     1546     366
     Sum         877     439    163                17261     6183    1459



     bravais-lattice index     =            2
     lattice parameter (alat)  =      10.3320  a.u.
     unit-cell volume          =     275.7358 (a.u.)^3
     number of atoms/cell      =            2
     number of atomic types    =            1
     number of electrons       =         8.00
     number of Kohn-Sham states=            4
     kinetic-energy cutoff     =      30.0000  Ry
     charge density cutoff     =     240.0000  Ry
     Exchange-correlation      = SLA  PW   PBE  PBE ( 1  4  3  4 0 0)

     celldm(1)=  10.332000  celldm(2)=   0.000000  celldm(3)=   0.000000
     celldm(4)=   0.000000  celldm(5)=   0.000000  celldm(6)=   0.000000

     crystal axes: (cart. coord. in units of alat)
               a(1) = (  -0.500000   0.000000   0.500000 )  
               a(2) = (   0.000000   0.500000   0.500000 )  
               a(3) = (  -0.500000   0.500000   0.000000 )  

     reciprocal axes: (cart. coord. in units 2 pi/alat)
               b(1) = ( -1.000000 -1.000000  1.000000 )  
               b(2) = (  1.000000  1.000000  1.000000 )  
               b(3) = ( -1.000000  1.000000 -1.000000 )  


     PseudoPot. # 1 for Si read from file:
     /home/s1333534/quantum_espresso/qe-6.1/pseudo/si_pbe_v1.uspp.F.UPF.txt
     MD5 check sum: a056efeee980c13900f22a371efd63c1
     Pseudo is Ultrasoft + core correction, Zval =  4.0
     Generated by new atomic code, or converted to UPF format
     Using radial grid of  899 points,  6 beta functions with: 
                l(1) =   0
                l(2) =   0
                l(3) =   1
                l(4) =   1
                l(5) =   2
                l(6) =   2
     Q(r) pseudized with  8 coefficients,  rinner =    0.900   0.900   0.900
                                                       0.900   0.900

     atomic species   valence    mass     pseudopotential
        Si             4.00    28.08600     Si( 1.00)

     48 Sym. Ops., with inversion, found



   Cartesian axes

     site n.     atom                  positions (alat units)
         1           Si  tau(   1) = (   0.0000000   0.0000000   0.0000000  )
         2           Si  tau(   2) = (   0.2500000   0.2500000   0.2500000  )

     number of k points=   288

     Number of k-points >= 100: set verbosity='high' to print them.

     Dense  grid:    17261 G-vectors     FFT dimensions: (  40,  40,  40)

     Smooth grid:     6183 G-vectors     FFT dimensions: (  25,  25,  25)

     Estimated max dynamical RAM per process >       1.78MB

     Estimated total allocated dynamical RAM >       7.14MB

     The potential is recalculated from file :
     ./_ph0/silicon.10.332.save/charge-density.dat

     Starting wfc are    8 atomic wfcs

     Band Structure Calculation
     Davidson diagonalization with overlap

     ethr =  1.25E-10,  avg # of iterations = 12.1

     total cpu time spent up to now is        6.8 secs

     End of band structure calculation

     Number of k-points >= 100: set verbosity='high' to print the bands.

     highest occupied level (ev):     5.7008

     Writing output data file silicon.10.332.save

                                                                                

     bravais-lattice index     =            2
     lattice parameter (alat)  =      10.3320  a.u.
     unit-cell volume          =     275.7358 (a.u.)^3
     number of atoms/cell      =            2
     number of atomic types    =            1
     kinetic-energy cut-off    =      30.0000  Ry
     charge density cut-off    =     240.0000  Ry
     convergence threshold     =      1.0E-12
     beta                      =       0.7000
     number of iterations used =            4
     Exchange-correlation      = SLA  PW   PBE  PBE ( 1  4  3  4 0 0)


     celldm(1)=   10.33200  celldm(2)=    0.00000  celldm(3)=    0.00000
     celldm(4)=    0.00000  celldm(5)=    0.00000  celldm(6)=    0.00000

     crystal axes: (cart. coord. in units of alat)
               a(1) = ( -0.5000  0.0000  0.5000 )  
               a(2) = (  0.0000  0.5000  0.5000 )  
               a(3) = ( -0.5000  0.5000  0.0000 )  

     reciprocal axes: (cart. coord. in units 2 pi/alat)
               b(1) = ( -1.0000 -1.0000  1.0000 )  
               b(2) = (  1.0000  1.0000  1.0000 )  
               b(3) = ( -1.0000  1.0000 -1.0000 )  


     Atoms inside the unit cell: 

     Cartesian axes

     site n.  atom      mass           positions (alat units)
        1     Si  28.0860   tau(    1) = (    0.00000    0.00000    0.00000  )
        2     Si  28.0860   tau(    2) = (    0.25000    0.25000    0.25000  )

     Computing dynamical matrix for 
                    q = (   0.7500000  -0.2500000   0.7500000 )

      2 Sym.Ops. (no q -> -q+G )


     G cutoff =  648.9635  (   4315 G-vectors)     FFT grid: ( 40, 40, 40)
     G cutoff =  324.4818  (   1546 G-vectors)  smooth grid: ( 25, 25, 25)
     number of k points=   288

     PseudoPot. # 1 for Si read from file:
     /home/s1333534/quantum_espresso/qe-6.1/pseudo/si_pbe_v1.uspp.F.UPF.txt
     MD5 check sum: a056efeee980c13900f22a371efd63c1
     Pseudo is Ultrasoft + core correction, Zval =  4.0
     Generated by new atomic code, or converted to UPF format
     Using radial grid of  899 points,  6 beta functions with: 
                l(1) =   0
                l(2) =   0
                l(3) =   1
                l(4) =   1
                l(5) =   2
                l(6) =   2
     Q(r) pseudized with  8 coefficients,  rinner =    0.900   0.900   0.900
                                                       0.900   0.900

     Mode symmetry, C_s (m)     point group:


     Atomic displacements:
     There are   6 irreducible representations

     Representation     1      1 modes -A'  To be done

     Representation     2      1 modes -A'  To be done

     Representation     3      1 modes -A'  To be done

     Representation     4      1 modes -A'  To be done

     Representation     5      1 modes -A''  To be done

     Representation     6      1 modes -A''  To be done



     Alpha used in Ewald sum =   2.5000
     PHONON       :  0m54.37s CPU     1m10.01s WALL



     Representation #  1 mode #   1

     Self-consistent Calculation

      iter #   1 total cpu time :    70.9 secs   av.it.:   5.6
      thresh= 1.000E-02 alpha_mix =  0.700 |ddv_scf|^2 =  7.627E-06

      iter #   2 total cpu time :    72.4 secs   av.it.:  10.7
      thresh= 2.762E-04 alpha_mix =  0.700 |ddv_scf|^2 =  2.038E-05

      iter #   3 total cpu time :    73.6 secs   av.it.:   9.4
      thresh= 4.514E-04 alpha_mix =  0.700 |ddv_scf|^2 =  1.366E-07

      iter #   4 total cpu time :    75.0 secs   av.it.:  10.1
      thresh= 3.696E-05 alpha_mix =  0.700 |ddv_scf|^2 =  2.716E-09

      iter #   5 total cpu time :    76.3 secs   av.it.:  10.7
      thresh= 5.212E-06 alpha_mix =  0.700 |ddv_scf|^2 =  4.659E-10

      iter #   6 total cpu time :    77.7 secs   av.it.:  10.6
      thresh= 2.158E-06 alpha_mix =  0.700 |ddv_scf|^2 =  7.139E-12

      iter #   7 total cpu time :    79.1 secs   av.it.:  10.7
      thresh= 2.672E-07 alpha_mix =  0.700 |ddv_scf|^2 =  2.705E-13

     End of self-consistent calculation

     Convergence has been achieved 


     Representation #  2 mode #   2

     Self-consistent Calculation

      iter #   1 total cpu time :    80.1 secs   av.it.:   5.8
      thresh= 1.000E-02 alpha_mix =  0.700 |ddv_scf|^2 =  1.366E-05

      iter #   2 total cpu time :    81.5 secs   av.it.:  10.6
      thresh= 3.695E-04 alpha_mix =  0.700 |ddv_scf|^2 =  3.959E-05

      iter #   3 total cpu time :    82.8 secs   av.it.:   9.2
      thresh= 6.292E-04 alpha_mix =  0.700 |ddv_scf|^2 =  9.233E-08

      iter #   4 total cpu time :    84.1 secs   av.it.:  10.4
      thresh= 3.039E-05 alpha_mix =  0.700 |ddv_scf|^2 =  3.070E-09

      iter #   5 total cpu time :    85.4 secs   av.it.:  10.6
      thresh= 5.540E-06 alpha_mix =  0.700 |ddv_scf|^2 =  6.254E-10

      iter #   6 total cpu time :    86.8 secs   av.it.:  10.5
      thresh= 2.501E-06 alpha_mix =  0.700 |ddv_scf|^2 =  6.495E-12

      iter #   7 total cpu time :    88.1 secs   av.it.:  10.7
      thresh= 2.549E-07 alpha_mix =  0.700 |ddv_scf|^2 =  2.298E-13

     End of self-consistent calculation

     Convergence has been achieved 


     Representation #  3 mode #   3

     Self-consistent Calculation

      iter #   1 total cpu time :    89.2 secs   av.it.:   5.7
      thresh= 1.000E-02 alpha_mix =  0.700 |ddv_scf|^2 =  1.070E-05

      iter #   2 total cpu time :    90.7 secs   av.it.:  10.7
      thresh= 3.271E-04 alpha_mix =  0.700 |ddv_scf|^2 =  2.913E-05

      iter #   3 total cpu time :    91.9 secs   av.it.:   9.2
      thresh= 5.398E-04 alpha_mix =  0.700 |ddv_scf|^2 =  1.611E-07

      iter #   4 total cpu time :    93.3 secs   av.it.:  10.0
      thresh= 4.013E-05 alpha_mix =  0.700 |ddv_scf|^2 =  3.128E-09

      iter #   5 total cpu time :    94.6 secs   av.it.:  10.7
      thresh= 5.593E-06 alpha_mix =  0.700 |ddv_scf|^2 =  6.117E-10

      iter #   6 total cpu time :    96.1 secs   av.it.:  10.5
      thresh= 2.473E-06 alpha_mix =  0.700 |ddv_scf|^2 =  4.527E-12

      iter #   7 total cpu time :    97.4 secs   av.it.:  10.7
      thresh= 2.128E-07 alpha_mix =  0.700 |ddv_scf|^2 =  1.329E-13

     End of self-consistent calculation

     Convergence has been achieved 


     Representation #  4 mode #   4

     Self-consistent Calculation

      iter #   1 total cpu time :    98.6 secs   av.it.:   5.5
      thresh= 1.000E-02 alpha_mix =  0.700 |ddv_scf|^2 =  4.667E-06

      iter #   2 total cpu time :   100.0 secs   av.it.:  10.9
      thresh= 2.160E-04 alpha_mix =  0.700 |ddv_scf|^2 =  9.898E-06

      iter #   3 total cpu time :   101.3 secs   av.it.:   9.7
      thresh= 3.146E-04 alpha_mix =  0.700 |ddv_scf|^2 =  2.143E-07

      iter #   4 total cpu time :   102.6 secs   av.it.:  10.0
      thresh= 4.629E-05 alpha_mix =  0.700 |ddv_scf|^2 =  2.681E-09

      iter #   5 total cpu time :   104.4 secs   av.it.:  10.7
      thresh= 5.178E-06 alpha_mix =  0.700 |ddv_scf|^2 =  5.016E-10

      iter #   6 total cpu time :   105.7 secs   av.it.:  10.5
      thresh= 2.240E-06 alpha_mix =  0.700 |ddv_scf|^2 =  3.009E-12

      iter #   7 total cpu time :   107.1 secs   av.it.:  10.8
      thresh= 1.735E-07 alpha_mix =  0.700 |ddv_scf|^2 =  1.389E-13

     End of self-consistent calculation

     Convergence has been achieved 


     Representation #  5 mode #   5

     Self-consistent Calculation

      iter #   1 total cpu time :   108.1 secs   av.it.:   5.2
      thresh= 1.000E-02 alpha_mix =  0.700 |ddv_scf|^2 =  4.841E-07

      iter #   2 total cpu time :   109.6 secs   av.it.:  10.4
      thresh= 6.957E-05 alpha_mix =  0.700 |ddv_scf|^2 =  7.897E-08

      iter #   3 total cpu time :   111.0 secs   av.it.:  10.2
      thresh= 2.810E-05 alpha_mix =  0.700 |ddv_scf|^2 =  1.053E-09

      iter #   4 total cpu time :   112.3 secs   av.it.:   9.8
      thresh= 3.245E-06 alpha_mix =  0.700 |ddv_scf|^2 =  2.463E-12

      iter #   5 total cpu time :   113.6 secs   av.it.:  10.3
      thresh= 1.570E-07 alpha_mix =  0.700 |ddv_scf|^2 =  6.954E-14

     End of self-consistent calculation

     Convergence has been achieved 


     Representation #  6 mode #   6

     Self-consistent Calculation

      iter #   1 total cpu time :   114.8 secs   av.it.:   5.2
      thresh= 1.000E-02 alpha_mix =  0.700 |ddv_scf|^2 =  4.841E-07

      iter #   2 total cpu time :   116.2 secs   av.it.:  10.4
[...]
        k(   59) = (  -0.8750000   0.1250000  -0.1250000), wk =   0.0625000
        k(   60) = (  -1.3750000  -0.8750000  -0.1250000), wk =   0.0000000
        k(   61) = (  -1.1250000   0.3750000  -0.3750000), wk =   0.0625000
        k(   62) = (  -1.6250000  -0.6250000  -0.3750000), wk =   0.0000000
        k(   63) = (  -0.3750000   0.3750000   1.1250000), wk =   0.0625000
        k(   64) = (  -0.8750000  -0.6250000   1.1250000), wk =   0.0000000

     Dense  grid:    17261 G-vectors     FFT dimensions: (  40,  40,  40)

     Smooth grid:     6183 G-vectors     FFT dimensions: (  25,  25,  25)

     Estimated max dynamical RAM per process >       1.78MB

     Estimated total allocated dynamical RAM >       7.14MB

     The potential is recalculated from file :
     ./_ph0/silicon.10.332.save/charge-density.dat

     Starting wfc are    8 atomic wfcs

     Band Structure Calculation
     Davidson diagonalization with overlap

     ethr =  1.25E-10,  avg # of iterations = 12.1

     total cpu time spent up to now is       10.8 secs

     End of band structure calculation

          k =-0.1250 0.1250 0.1250 (   770 PWs)   bands (ev):

    -5.6363   4.3915   5.7008   5.7008

          k =-0.6250-0.8750 0.1250 (   755 PWs)   bands (ev):

    -2.4377  -0.8963   2.0123   3.0888

          k =-0.3750 0.3750-0.1250 (   773 PWs)   bands (ev):

    -4.6097   1.3992   3.7150   5.2207

          k =-0.8750-0.6250-0.1250 (   755 PWs)   bands (ev):

    -2.4377  -0.8963   2.0123   3.0888

          k = 0.3750-0.3750 0.6250 (   763 PWs)   bands (ev):

    -3.4703  -0.6787   3.7358   4.4494

          k =-0.1250-1.3750 0.6250 (   767 PWs)   bands (ev):

    -2.9746  -0.5939   2.0706   4.1324

          k = 0.1250-0.1250 0.3750 (   768 PWs)   bands (ev):

    -5.1085   2.7756   4.6930   4.7570

          k =-0.3750-1.1250 0.3750 (   767 PWs)   bands (ev):

    -2.9746  -0.5939   2.0706   4.1324

          k =-0.1250 0.6250 0.1250 (   766 PWs)   bands (ev):

    -4.0772   1.0653   3.3665   3.8191

          k =-0.6250-0.3750 0.1250 (   768 PWs)   bands (ev):

    -3.6617   0.1922   2.7247   4.0937

          k = 0.6250-0.1250 0.8750 (   755 PWs)   bands (ev):

    -2.4377  -0.8963   2.0123   3.0888

          k = 0.1250-1.1250 0.8750 (   762 PWs)   bands (ev):

    -2.6054  -0.7990   2.6221   3.3523

          k = 0.3750 0.1250 0.6250 (   768 PWs)   bands (ev):

    -3.6617   0.1922   2.7247   4.0937

          k =-0.1250-0.8750 0.6250 (   755 PWs)   bands (ev):

    -2.4377  -0.8963   2.0123   3.0888

          k =-0.1250-0.8750 0.1250 (   762 PWs)   bands (ev):

    -2.6054  -0.7990   2.6221   3.3523

          k =-0.6250-1.8750 0.1250 (   766 PWs)   bands (ev):

    -4.0772   1.0653   3.3665   3.8191

          k =-0.3750 0.3750 0.3750 (   763 PWs)   bands (ev):

    -4.1768   0.1092   4.9138   4.9138

          k =-0.8750-0.6250 0.3750 (   768 PWs)   bands (ev):

    -3.6617   0.1922   2.7247   4.0937

          k = 0.3750-0.3750 1.1250 (   767 PWs)   bands (ev):

    -2.9746  -0.5939   2.0706   4.1324

          k =-0.1250-1.3750 1.1250 (   755 PWs)   bands (ev):

    -2.4377  -0.8963   2.0123   3.0888

          k = 0.1250-0.3750 0.3750 (   773 PWs)   bands (ev):

    -4.6097   1.3992   3.7150   5.2207

          k =-0.3750-1.3750 0.3750 (   763 PWs)   bands (ev):

    -3.4703  -0.6787   3.7358   4.4494

          k = 0.3750-0.3750-0.1250 (   773 PWs)   bands (ev):

    -4.6097   1.3992   3.7150   5.2207

          k =-0.1250-1.3750-0.1250 (   766 PWs)   bands (ev):

    -4.0772   1.0653   3.3665   3.8191

          k =-0.6250 0.3750-0.3750 (   763 PWs)   bands (ev):

    -3.4703  -0.6787   3.7358   4.4494

          k =-1.1250-0.6250-0.3750 (   768 PWs)   bands (ev):

    -3.6617   0.1922   2.7247   4.0937

          k =-0.3750 0.3750 0.6250 (   763 PWs)   bands (ev):

    -3.4703  -0.6787   3.7358   4.4494

          k =-0.8750-0.6250 0.6250 (   773 PWs)   bands (ev):

    -4.6097   1.3992   3.7150   5.2207

          k =-0.3750 0.1250-0.1250 (   768 PWs)   bands (ev):

    -5.1085   2.7756   4.6930   4.7570

          k =-0.8750-0.8750-0.1250 (   762 PWs)   bands (ev):

    -2.6054  -0.7990   2.6221   3.3523

          k =-0.1250 0.1250 0.3750 (   768 PWs)   bands (ev):

    -5.1085   2.7756   4.6930   4.7570

          k =-0.6250-0.8750 0.3750 (   768 PWs)   bands (ev):

    -3.6617   0.1922   2.7247   4.0937

          k = 0.1250 0.6250-0.1250 (   766 PWs)   bands (ev):

    -4.0772   1.0653   3.3665   3.8191

          k =-0.3750-0.3750-0.1250 (   773 PWs)   bands (ev):

    -4.6097   1.3992   3.7150   5.2207

          k = 0.6250 0.1250-0.1250 (   766 PWs)   bands (ev):

    -4.0772   1.0653   3.3665   3.8191

          k = 0.1250-0.8750-0.1250 (   762 PWs)   bands (ev):

    -2.6054  -0.7990   2.6221   3.3523

          k =-0.8750 0.1250-0.6250 (   755 PWs)   bands (ev):

    -2.4377  -0.8963   2.0123   3.0888

          k =-1.3750-0.8750-0.6250 (   773 PWs)   bands (ev):

    -4.6097   1.3992   3.7150   5.2207

          k = 0.8750-0.1250 0.6250 (   755 PWs)   bands (ev):

    -2.4377  -0.8963   2.0123   3.0888

          k = 0.3750-1.1250 0.6250 (   768 PWs)   bands (ev):

    -3.6617   0.1922   2.7247   4.0937

          k =-0.6250 0.1250 0.8750 (   755 PWs)   bands (ev):

    -2.4377  -0.8963   2.0123   3.0888

          k =-1.1250-0.8750 0.8750 (   770 PWs)   bands (ev):

    -5.6363   4.3915   5.7008   5.7008

          k =-0.1250 0.8750 0.6250 (   755 PWs)   bands (ev):

    -2.4377  -0.8963   2.0123   3.0888

          k =-0.6250-0.1250 0.6250 (   767 PWs)   bands (ev):

    -2.9746  -0.5939   2.0706   4.1324

          k = 0.1250 0.8750-0.6250 (   755 PWs)   bands (ev):

    -2.4377  -0.8963   2.0123   3.0888

          k =-0.3750-0.1250-0.6250 (   768 PWs)   bands (ev):

    -3.6617   0.1922   2.7247   4.0937

          k =-0.6250-0.1250-0.3750 (   768 PWs)   bands (ev):

    -3.6617   0.1922   2.7247   4.0937

          k =-1.1250-1.1250-0.3750 (   766 PWs)   bands (ev):

    -4.0772   1.0653   3.3665   3.8191

          k = 0.6250 0.1250 0.3750 (   768 PWs)   bands (ev):

    -3.6617   0.1922   2.7247   4.0937

          k = 0.1250-0.8750 0.3750 (   755 PWs)   bands (ev):

    -2.4377  -0.8963   2.0123   3.0888

          k =-0.3750-0.1250 0.6250 (   768 PWs)   bands (ev):

    -3.6617   0.1922   2.7247   4.0937

          k =-0.8750-1.1250 0.6250 (   768 PWs)   bands (ev):

    -5.1085   2.7756   4.6930   4.7570

          k = 0.1250 0.6250 0.3750 (   768 PWs)   bands (ev):

    -3.6617   0.1922   2.7247   4.0937

          k =-0.3750-0.3750 0.3750 (   763 PWs)   bands (ev):

    -4.1768   0.1092   4.9138   4.9138

          k =-0.1250 0.6250-0.3750 (   768 PWs)   bands (ev):

    -3.6617   0.1922   2.7247   4.0937

          k =-0.6250-0.3750-0.3750 (   763 PWs)   bands (ev):

    -3.4703  -0.6787   3.7358   4.4494

          k = 0.1250-0.8750-0.1250 (   762 PWs)   bands (ev):

    -2.6054  -0.7990   2.6221   3.3523

          k =-0.3750-1.8750-0.1250 (   768 PWs)   bands (ev):

    -5.1085   2.7756   4.6930   4.7570

          k =-0.8750 0.1250-0.1250 (   762 PWs)   bands (ev):

    -2.6054  -0.7990   2.6221   3.3523

          k =-1.3750-0.8750-0.1250 (   755 PWs)   bands (ev):

    -2.4377  -0.8963   2.0123   3.0888

          k =-1.1250 0.3750-0.3750 (   767 PWs)   bands (ev):

    -2.9746  -0.5939   2.0706   4.1324

          k =-1.6250-0.6250-0.3750 (   763 PWs)   bands (ev):

    -3.4703  -0.6787   3.7358   4.4494

          k =-0.3750 0.3750 1.1250 (   767 PWs)   bands (ev):

    -2.9746  -0.5939   2.0706   4.1324

          k =-0.8750-0.6250 1.1250 (   768 PWs)   bands (ev):

    -5.1085   2.7756   4.6930   4.7570

     highest occupied level (ev):     5.7008

     Writing output data file silicon.10.332.save

                                                                                

     bravais-lattice index     =            2
     lattice parameter (alat)  =      10.3320  a.u.
     unit-cell volume          =     275.7358 (a.u.)^3
     number of atoms/cell      =            2
     number of atomic types    =            1
     kinetic-energy cut-off    =      30.0000  Ry
     charge density cut-off    =     240.0000  Ry
     convergence threshold     =      1.0E-12
     beta                      =       0.7000
     number of iterations used =            4
     Exchange-correlation      = SLA  PW   PBE  PBE ( 1  4  3  4 0 0)


     celldm(1)=   10.33200  celldm(2)=    0.00000  celldm(3)=    0.00000
     celldm(4)=    0.00000  celldm(5)=    0.00000  celldm(6)=    0.00000

     crystal axes: (cart. coord. in units of alat)
               a(1) = ( -0.5000  0.0000  0.5000 )  
               a(2) = (  0.0000  0.5000  0.5000 )  
               a(3) = ( -0.5000  0.5000  0.0000 )  

     reciprocal axes: (cart. coord. in units 2 pi/alat)
               b(1) = ( -1.0000 -1.0000  1.0000 )  
               b(2) = (  1.0000  1.0000  1.0000 )  
               b(3) = ( -1.0000  1.0000 -1.0000 )  


     Atoms inside the unit cell: 

     Cartesian axes

     site n.  atom      mass           positions (alat units)
        1     Si  28.0860   tau(    1) = (    0.00000    0.00000    0.00000  )
        2     Si  28.0860   tau(    2) = (    0.25000    0.25000    0.25000  )

     Computing dynamical matrix for 
                    q = (  -0.5000000  -1.0000000   0.0000000 )

      8 Sym.Ops. (no q -> -q+G )


     G cutoff =  648.9635  (   4316 G-vectors)     FFT grid: ( 40, 40, 40)
     G cutoff =  324.4818  (   1546 G-vectors)  smooth grid: ( 25, 25, 25)
     number of k points=    64

     PseudoPot. # 1 for Si read from file:
     /home/s1333534/quantum_espresso/qe-6.1/pseudo/si_pbe_v1.uspp.F.UPF.txt
     MD5 check sum: a056efeee980c13900f22a371efd63c1
     Pseudo is Ultrasoft + core correction, Zval =  4.0
     Generated by new atomic code, or converted to UPF format
     Using radial grid of  899 points,  6 beta functions with: 
                l(1) =   0
                l(2) =   0
                l(3) =   1
                l(4) =   1
                l(5) =   2
                l(6) =   2
     Q(r) pseudized with  8 coefficients,  rinner =    0.900   0.900   0.900
                                                       0.900   0.900


     Atomic displacements:
     There are   3 irreducible representations

     Representation     1      2 modes -  To be done

     Representation     2      2 modes -  To be done

     Representation     3      2 modes -  To be done



     Alpha used in Ewald sum =   2.5000
     PHONON       :  2m 7.37s CPU     2m40.21s WALL



     Representation #  1 modes #   1  2

     Self-consistent Calculation

      iter #   1 total cpu time :   161.0 secs   av.it.:   5.7
      thresh= 1.000E-02 alpha_mix =  0.700 |ddv_scf|^2 =  7.886E-07

      iter #   2 total cpu time :   161.8 secs   av.it.:  11.8
      thresh= 8.880E-05 alpha_mix =  0.700 |ddv_scf|^2 =  4.464E-07

      iter #   3 total cpu time :   162.7 secs   av.it.:  11.3
      thresh= 6.681E-05 alpha_mix =  0.700 |ddv_scf|^2 =  4.290E-10

      iter #   4 total cpu time :   163.6 secs   av.it.:  11.1
      thresh= 2.071E-06 alpha_mix =  0.700 |ddv_scf|^2 =  1.923E-12

      iter #   5 total cpu time :   164.3 secs   av.it.:  11.3
      thresh= 1.387E-07 alpha_mix =  0.700 |ddv_scf|^2 =  5.054E-14

     End of self-consistent calculation

     Convergence has been achieved 


     Representation #  2 modes #   3  4

     Self-consistent Calculation

      iter #   1 total cpu time :   165.1 secs   av.it.:   5.6
      thresh= 1.000E-02 alpha_mix =  0.700 |ddv_scf|^2 =  1.224E-06

      iter #   2 total cpu time :   166.0 secs   av.it.:  11.8
      thresh= 1.106E-04 alpha_mix =  0.700 |ddv_scf|^2 =  1.659E-06

      iter #   3 total cpu time :   166.8 secs   av.it.:  11.0
      thresh= 1.288E-04 alpha_mix =  0.700 |ddv_scf|^2 =  5.090E-10

      iter #   4 total cpu time :   167.7 secs   av.it.:  11.0
      thresh= 2.256E-06 alpha_mix =  0.700 |ddv_scf|^2 =  7.906E-12

      iter #   5 total cpu time :   168.5 secs   av.it.:  11.3
      thresh= 2.812E-07 alpha_mix =  0.700 |ddv_scf|^2 =  1.309E-13

     End of self-consistent calculation

     Convergence has been achieved 


     Representation #  3 modes #   5  6

     Self-consistent Calculation

      iter #   1 total cpu time :   169.2 secs   av.it.:   5.3
      thresh= 1.000E-02 alpha_mix =  0.700 |ddv_scf|^2 =  3.204E-07

      iter #   2 total cpu time :   170.1 secs   av.it.:  11.9
      thresh= 5.660E-05 alpha_mix =  0.700 |ddv_scf|^2 =  1.871E-07

      iter #   3 total cpu time :   171.0 secs   av.it.:  11.2
      thresh= 4.326E-05 alpha_mix =  0.700 |ddv_scf|^2 =  3.726E-10

      iter #   4 total cpu time :   172.0 secs   av.it.:  11.1
      thresh= 1.930E-06 alpha_mix =  0.700 |ddv_scf|^2 =  4.384E-12

      iter #   5 total cpu time :   172.7 secs   av.it.:  11.2
      thresh= 2.094E-07 alpha_mix =  0.700 |ddv_scf|^2 =  6.059E-14

     End of self-consistent calculation

     Convergence has been achieved 

     Number of q in the star =    6
     List of q in the star:
          1  -0.500000000  -1.000000000   0.000000000
          2   0.000000000   1.000000000   0.500000000
          3   0.000000000  -1.000000000  -0.500000000
          4   0.500000000   1.000000000   0.000000000
          5  -1.000000000  -0.500000000   0.000000000
          6   0.000000000  -0.500000000  -1.000000000

     Diagonalizing the dynamical matrix

     q = (   -0.500000000  -1.000000000   0.000000000 ) 

 **************************************************************************
     freq (    1) =       6.018347 [THz] =     200.750434 [cm-1]
     freq (    2) =       6.018347 [THz] =     200.750434 [cm-1]
     freq (    3) =      10.329520 [THz] =     344.555693 [cm-1]
     freq (    4) =      10.329520 [THz] =     344.555693 [cm-1]
     freq (    5) =      13.564761 [THz] =     452.471713 [cm-1]
     freq (    6) =      13.564761 [THz] =     452.471713 [cm-1]
 **************************************************************************

     init_run     :      1.27s CPU      1.31s WALL (       7 calls)
     electrons    :      7.33s CPU      7.96s WALL (       7 calls)

     Called by init_run:
     wfcinit      :      0.00s CPU      0.02s WALL (       7 calls)
     potinit      :      0.10s CPU      0.11s WALL (       7 calls)

     Called by electrons:
     c_bands      :      7.33s CPU      7.96s WALL (       7 calls)
     v_of_rho     :      0.09s CPU      0.09s WALL (       8 calls)
     newd         :      0.12s CPU      0.12s WALL (       8 calls)

     Called by c_bands:
     init_us_2    :      1.64s CPU      1.58s WALL (   15896 calls)
     cegterg      :      6.13s CPU      6.65s WALL (     796 calls)

     Called by sum_band:

     Called by *egterg:
     h_psi        :     70.72s CPU     75.90s WALL (  154680 calls)
     s_psi        :      5.85s CPU      6.98s WALL (  311618 calls)
     g_psi        :      0.05s CPU      0.07s WALL (    9666 calls)
     cdiaghg      :      0.56s CPU      0.56s WALL (   10462 calls)

     Called by h_psi:
     h_psi:pot    :     70.30s CPU     75.39s WALL (  154680 calls)
     h_psi:calbec :      3.50s CPU      4.01s WALL (  154680 calls)
     vloc_psi     :     62.18s CPU     67.20s WALL (  154680 calls)
     add_vuspsi   :      4.25s CPU      3.71s WALL (  154680 calls)

     General routines
     calbec       :      8.05s CPU      8.47s WALL (  345926 calls)
     fft          :      1.94s CPU      2.01s WALL (    5233 calls)
     ffts         :      0.21s CPU      0.22s WALL (    3316 calls)
     fftw         :     63.70s CPU     67.89s WALL ( 1384632 calls)
     interpolate  :      0.27s CPU      0.29s WALL (     568 calls)
     davcio       :      0.34s CPU      1.34s WALL (   69130 calls)

     Parallel routines
     fft_scatter  :     15.38s CPU     19.77s WALL ( 1393181 calls)

     PHONON       :  2m17.06s CPU     2m53.20s WALL

     INITIALIZATION: 
     phq_setup    :      0.30s CPU      0.53s WALL (       8 calls)
     phq_init     :      6.84s CPU      7.08s WALL (       8 calls)

     phq_init     :      6.84s CPU      7.08s WALL (       8 calls)
     set_drhoc    :      1.84s CPU      1.84s WALL (      24 calls)
     init_vloc    :      0.03s CPU      0.03s WALL (       8 calls)
     init_us_1    :      0.98s CPU      0.98s WALL (       8 calls)
     newd         :      0.12s CPU      0.12s WALL (       8 calls)
     dvanqq       :      1.17s CPU      1.17s WALL (       8 calls)
     drho         :      2.64s CPU      2.70s WALL (       8 calls)

     DYNAMICAL MATRIX:
     dynmat0      :      1.76s CPU      1.88s WALL (       8 calls)
     phqscf       :    116.02s CPU    146.07s WALL (       8 calls)
     dynmatrix    :      0.01s CPU      0.43s WALL (       8 calls)

     phqscf       :    116.02s CPU    146.07s WALL (       8 calls)
     solve_linter :    115.15s CPU    143.59s WALL (      32 calls)
     drhodv       :      0.59s CPU      0.61s WALL (      32 calls)

     dynmat0      :      1.76s CPU      1.88s WALL (       8 calls)
     dynmat_us    :      0.38s CPU      0.39s WALL (       8 calls)
     d2ionq       :      0.04s CPU      0.04s WALL (       8 calls)
     dynmatcc     :      1.31s CPU      1.32s WALL (       8 calls)

     dynmat_us    :      0.38s CPU      0.39s WALL (       8 calls)
     addusdynmat  :      0.00s CPU      0.00s WALL (       8 calls)

     phqscf       :    116.02s CPU    146.07s WALL (       8 calls)
     solve_linter :    115.15s CPU    143.59s WALL (      32 calls)

     solve_linter :    115.15s CPU    143.59s WALL (      32 calls)
     dvqpsi_us    :      2.15s CPU      2.30s WALL (    2508 calls)
     ortho        :      0.88s CPU      1.01s WALL (   13486 calls)
     cgsolve      :     78.23s CPU     85.09s WALL (   13486 calls)
     incdrhoscf   :      6.13s CPU      6.69s WALL (   13486 calls)
     addusddens   :      7.08s CPU      7.12s WALL (     200 calls)
     vpsifft      :      4.48s CPU      4.92s WALL (   10858 calls)
     dv_of_drho   :      1.79s CPU      1.84s WALL (     254 calls)
     mix_pot      :      0.35s CPU     10.76s WALL (     173 calls)
     psymdvscf    :      5.82s CPU      5.89s WALL (     168 calls)
     newdq        :      7.63s CPU      7.65s WALL (     173 calls)
     adddvscf     :      0.46s CPU      0.43s WALL (   10978 calls)
     drhodvus     :      0.02s CPU      0.02s WALL (      32 calls)

     dvqpsi_us    :      2.15s CPU      2.30s WALL (    2508 calls)
     dvqpsi_us_on :      0.93s CPU      0.96s WALL (    2508 calls)

     cgsolve      :     78.23s CPU     85.09s WALL (   13486 calls)
     ch_psi       :     77.10s CPU     83.31s WALL (  143422 calls)

     ch_psi       :     77.10s CPU     83.31s WALL (  143422 calls)
     h_psi        :     70.72s CPU     75.90s WALL (  154680 calls)
     last         :      9.02s CPU      9.17s WALL (  143422 calls)

     h_psi        :     70.72s CPU     75.90s WALL (  154680 calls)
     add_vuspsi   :      4.25s CPU      3.71s WALL (  154680 calls)

     incdrhoscf   :      6.13s CPU      6.69s WALL (   13486 calls)
     addusdbec    :      0.47s CPU      0.51s WALL (   15934 calls)

     drhodvus     :      0.02s CPU      0.02s WALL (      32 calls)

      General routines
     calbec       :      8.05s CPU      8.47s WALL (  345926 calls)
     fft          :      1.94s CPU      2.01s WALL (    5233 calls)
     ffts         :      0.21s CPU      0.22s WALL (    3316 calls)
     fftw         :     63.70s CPU     67.89s WALL ( 1384632 calls)
     davcio       :      0.34s CPU      1.34s WALL (   69130 calls)
     write_rec    :      0.21s CPU     11.45s WALL (     205 calls)


     PHONON       :  2m17.06s CPU     2m53.20s WALL


   This run was terminated on:  15:39:46  10Nov2017            

=------------------------------------------------------------------------------=
   JOB DONE.
=------------------------------------------------------------------------------=
