
     Program PWSCF v.6.1 (svn rev. 13369) starts on 10Nov2017 at 10:27:56 

     This program is part of the open-source Quantum ESPRESSO suite
     for quantum simulation of materials; please cite
         "P. Giannozzi et al., J. Phys.:Condens. Matter 21 395502 (2009);
          URL http://www.quantum-espresso.org", 
     in publications or presentations arising from this work. More details at
     http://www.quantum-espresso.org/quote

     Parallel version (MPI), running on     4 processors
     R & G space division:  proc/nbgrp/npool/nimage =       4
     Waiting for input...
     Reading input from standard input
     Message from routine read_cards :
     DEPRECATED: no units specified in ATOMIC_POSITIONS card
     Message from routine read_cards :
     ATOMIC_POSITIONS: units set to alat

     Current dimensions of program PWSCF are:
     Max number of different atomic species (ntypx) = 10
     Max number of k-points (npk) =  40000
     Max angular momentum in pseudopotentials (lmaxx) =  3

     Subspace diagonalization in iterative solution of the eigenvalue problem:
     a serial algorithm will be used


     Parallelization info
     --------------------
     sticks:   dense  smooth     PW     G-vecs:    dense   smooth      PW
     Min         211     105     37                 4088     1441     284
     Max         212     106     38                 4091     1445     285
     Sum         847     421    151                16361     5769    1139



     bravais-lattice index     =            2
     lattice parameter (alat)  =      10.1200  a.u.
     unit-cell volume          =     259.1084 (a.u.)^3
     number of atoms/cell      =            2
     number of atomic types    =            1
     number of electrons       =         8.00
     number of Kohn-Sham states=            4
     kinetic-energy cutoff     =      30.0000  Ry
     charge density cutoff     =     240.0000  Ry
     convergence threshold     =      1.0E-08
     mixing beta               =       0.7000
     number of iterations used =            8  plain     mixing
     Exchange-correlation      = SLA  PW   PBE  PBE ( 1  4  3  4 0 0)

     celldm(1)=  10.120000  celldm(2)=   0.000000  celldm(3)=   0.000000
     celldm(4)=   0.000000  celldm(5)=   0.000000  celldm(6)=   0.000000

     crystal axes: (cart. coord. in units of alat)
               a(1) = (  -0.500000   0.000000   0.500000 )  
               a(2) = (   0.000000   0.500000   0.500000 )  
               a(3) = (  -0.500000   0.500000   0.000000 )  

     reciprocal axes: (cart. coord. in units 2 pi/alat)
               b(1) = ( -1.000000 -1.000000  1.000000 )  
               b(2) = (  1.000000  1.000000  1.000000 )  
               b(3) = ( -1.000000  1.000000 -1.000000 )  


     PseudoPot. # 1 for Si read from file:
     /home/max/quantum_espresso/qe-6.1/pseudo/si_pbe_v1.uspp.F.UPF.txt
     MD5 check sum: a056efeee980c13900f22a371efd63c1
     Pseudo is Ultrasoft + core correction, Zval =  4.0
     Generated by new atomic code, or converted to UPF format
     Using radial grid of  899 points,  6 beta functions with: 
                l(1) =   0
                l(2) =   0
                l(3) =   1
                l(4) =   1
                l(5) =   2
                l(6) =   2
     Q(r) pseudized with  8 coefficients,  rinner =    0.900   0.900   0.900
                                                       0.900   0.900

     atomic species   valence    mass     pseudopotential
        Si             4.00    28.08600     Si( 1.00)

     48 Sym. Ops., with inversion, found (24 have fractional translation)



   Cartesian axes

     site n.     atom                  positions (alat units)
         1           Si  tau(   1) = (   0.0000000   0.0000000   0.0000000  )
         2           Si  tau(   2) = (   0.2500000   0.2500000   0.2500000  )

     number of k points=    28
                       cart. coord. in units 2pi/alat
        k(    1) = (  -0.0833333   0.0833333   0.0833333), wk =   0.0185185
        k(    2) = (  -0.2500000   0.2500000  -0.0833333), wk =   0.0555556
        k(    3) = (  -0.4166667   0.4166667  -0.2500000), wk =   0.0555556
        k(    4) = (   0.4166667  -0.4166667   0.5833333), wk =   0.0555556
        k(    5) = (   0.2500000  -0.2500000   0.4166667), wk =   0.0555556
        k(    6) = (   0.0833333  -0.0833333   0.2500000), wk =   0.0555556
        k(    7) = (  -0.0833333   0.4166667   0.0833333), wk =   0.0555556
        k(    8) = (  -0.2500000   0.5833333  -0.0833333), wk =   0.1111111
        k(    9) = (   0.5833333  -0.2500000   0.7500000), wk =   0.1111111
        k(   10) = (   0.4166667  -0.0833333   0.5833333), wk =   0.1111111
        k(   11) = (   0.2500000   0.0833333   0.4166667), wk =   0.1111111
        k(   12) = (  -0.0833333   0.7500000   0.0833333), wk =   0.0555556
        k(   13) = (   0.7500000  -0.0833333   0.9166667), wk =   0.1111111
        k(   14) = (   0.5833333   0.0833333   0.7500000), wk =   0.1111111
        k(   15) = (   0.4166667   0.2500000   0.5833333), wk =   0.1111111
        k(   16) = (  -0.0833333  -0.9166667   0.0833333), wk =   0.0555556
        k(   17) = (  -0.2500000  -0.7500000  -0.0833333), wk =   0.1111111
        k(   18) = (  -0.0833333  -0.5833333   0.0833333), wk =   0.0555556
        k(   19) = (  -0.2500000   0.2500000   0.2500000), wk =   0.0185185
        k(   20) = (  -0.4166667   0.4166667   0.0833333), wk =   0.0555556
        k(   21) = (   0.4166667  -0.4166667   0.9166667), wk =   0.0555556
        k(   22) = (   0.2500000  -0.2500000   0.7500000), wk =   0.0555556
        k(   23) = (  -0.2500000   0.5833333   0.2500000), wk =   0.0555556
        k(   24) = (   0.5833333  -0.2500000   1.0833333), wk =   0.1111111
        k(   25) = (   0.4166667  -0.0833333   0.9166667), wk =   0.1111111
        k(   26) = (  -0.2500000  -1.0833333   0.2500000), wk =   0.0555556
        k(   27) = (  -0.4166667   0.4166667   0.4166667), wk =   0.0185185
        k(   28) = (   0.4166667  -0.4166667   1.2500000), wk =   0.0555556

     Dense  grid:    16361 G-vectors     FFT dimensions: (  36,  36,  36)

     Smooth grid:     5769 G-vectors     FFT dimensions: (  25,  25,  25)

     Estimated max dynamical RAM per process >       2.93MB

     Estimated total allocated dynamical RAM >      11.72MB

     Initial potential from superposition of free atoms

     starting charge    7.99866, renormalised to    8.00000
     Starting wfc are    8 randomized atomic wfcs

     total cpu time spent up to now is        0.5 secs

     per-process dynamical memory:     9.8 Mb

     Self-consistent Calculation

     iteration #  1     ecut=    30.00 Ry     beta=0.70
     Davidson diagonalization with overlap
     ethr =  1.00E-02,  avg # of iterations =  2.0

     Threshold (ethr) on eigenvalues was too large:
     Diagonalizing with lowered threshold

     Davidson diagonalization with overlap
     ethr =  7.50E-04,  avg # of iterations =  1.0

     total cpu time spent up to now is        0.9 secs

     total energy              =     -19.18729210 Ry
     Harris-Foulkes estimate   =     -19.20243777 Ry
     estimated scf accuracy    <       0.05932062 Ry

     iteration #  2     ecut=    30.00 Ry     beta=0.70
     Davidson diagonalization with overlap
     ethr =  7.42E-04,  avg # of iterations =  1.0

     total cpu time spent up to now is        1.4 secs

     total energy              =     -19.18952482 Ry
     Harris-Foulkes estimate   =     -19.18969143 Ry
     estimated scf accuracy    <       0.00243176 Ry

     iteration #  3     ecut=    30.00 Ry     beta=0.70
     Davidson diagonalization with overlap
     ethr =  3.04E-05,  avg # of iterations =  2.2

     total cpu time spent up to now is        1.8 secs

     total energy              =     -19.18992389 Ry
     Harris-Foulkes estimate   =     -19.18994134 Ry
     estimated scf accuracy    <       0.00005236 Ry

     iteration #  4     ecut=    30.00 Ry     beta=0.70
     Davidson diagonalization with overlap
     ethr =  6.55E-07,  avg # of iterations =  3.4

     total cpu time spent up to now is        2.1 secs

     total energy              =     -19.18996575 Ry
     Harris-Foulkes estimate   =     -19.18996748 Ry
     estimated scf accuracy    <       0.00000553 Ry

     iteration #  5     ecut=    30.00 Ry     beta=0.70
     Davidson diagonalization with overlap
     ethr =  6.91E-08,  avg # of iterations =  2.0

     total cpu time spent up to now is        2.3 secs

     total energy              =     -19.18996650 Ry
     Harris-Foulkes estimate   =     -19.18996649 Ry
     estimated scf accuracy    <       0.00000002 Ry

     iteration #  6     ecut=    30.00 Ry     beta=0.70
     Davidson diagonalization with overlap
     ethr =  2.96E-10,  avg # of iterations =  3.8

     total cpu time spent up to now is        2.6 secs

     End of self-consistent calculation

          k =-0.0833 0.0833 0.0833 (   722 PWs)   bands (ev):

    -5.5202   5.7765   6.4883   6.4883

          k =-0.2500 0.2500-0.0833 (   716 PWs)   bands (ev):

    -5.0242   3.6560   5.1969   6.2772

          k =-0.4167 0.4167-0.2500 (   728 PWs)   bands (ev):

    -3.8819   0.7848   4.7308   5.6148

          k = 0.4167-0.4167 0.5833 (   723 PWs)   bands (ev):

    -3.1391  -0.4193   4.8098   5.2150

          k = 0.2500-0.2500 0.4167 (   720 PWs)   bands (ev):

    -4.3141   1.6670   5.2698   5.3298

          k = 0.0833-0.0833 0.2500 (   713 PWs)   bands (ev):

    -5.2699   4.7007   5.8075   6.0246

          k =-0.0833 0.4167 0.0833 (   709 PWs)   bands (ev):

    -4.7736   3.5010   5.0456   5.0474

          k =-0.2500 0.5833-0.0833 (   719 PWs)   bands (ev):

    -3.8243   1.6044   3.6589   4.6463

          k = 0.5833-0.2500 0.7500 (   719 PWs)   bands (ev):

    -2.6444  -0.2465   3.0486   4.4035

          k = 0.4167-0.0833 0.5833 (   718 PWs)   bands (ev):

    -3.4094   0.8749   2.9857   4.9188

          k = 0.2500 0.0833 0.4167 (   717 PWs)   bands (ev):

    -4.5382   2.6145   4.3882   5.6277

          k =-0.0833 0.7500 0.0833 (   722 PWs)   bands (ev):

    -3.0852   0.7770   3.6126   3.9769

          k = 0.7500-0.0833 0.9167 (   725 PWs)   bands (ev):

    -1.8329  -0.6125   2.7180   3.5420

          k = 0.5833 0.0833 0.7500 (   716 PWs)   bands (ev):

    -2.2075  -0.2885   2.2174   4.1144

          k = 0.4167 0.2500 0.5833 (   722 PWs)   bands (ev):

    -3.2865   0.1225   3.9984   5.0242

          k =-0.0833-0.9167 0.0833 (   718 PWs)   bands (ev):

    -1.9349  -0.6239   3.3302   3.7536

          k =-0.2500-0.7500-0.0833 (   721 PWs)   bands (ev):

    -2.9060   0.5397   3.0657   3.8966

          k =-0.0833-0.5833 0.0833 (   714 PWs)   bands (ev):

    -4.0401   2.1839   4.1877   4.4151

          k =-0.2500 0.2500 0.2500 (   721 PWs)   bands (ev):

    -4.7848   2.6309   5.8514   5.8514

          k =-0.4167 0.4167 0.0833 (   725 PWs)   bands (ev):

    -4.0763   1.6970   3.6227   5.6797

          k = 0.4167-0.4167 0.9167 (   712 PWs)   bands (ev):

    -2.8388   0.2200   2.4571   4.8534

          k = 0.2500-0.2500 0.7500 (   713 PWs)   bands (ev):

    -2.7871   0.1388   2.9673   4.3472

          k =-0.2500 0.5833 0.2500 (   718 PWs)   bands (ev):

    -3.6324   0.8499   4.1346   4.7363

          k = 0.5833-0.2500 1.0833 (   720 PWs)   bands (ev):

    -2.5832   0.1237   2.5582   3.8886

          k = 0.4167-0.0833 0.9167 (   717 PWs)   bands (ev):

    -1.7128  -0.6204   2.3693   3.1837

          k =-0.2500-1.0833 0.2500 (   720 PWs)   bands (ev):

    -1.9309  -0.5371   2.2376   4.1446

          k =-0.4167 0.4167 0.4167 (   724 PWs)   bands (ev):

    -3.5321   0.0006   5.4532   5.4532

          k = 0.4167-0.4167 1.2500 (   714 PWs)   bands (ev):

    -2.8947  -0.2995   3.5515   4.9876

     highest occupied level (ev):     6.4883

!    total energy              =     -19.18996655 Ry
     Harris-Foulkes estimate   =     -19.18996655 Ry
     estimated scf accuracy    <          1.8E-09 Ry

     The total energy is the sum of the following terms:

     one-electron contribution =       5.43607318 Ry
     hartree contribution      =       1.07935636 Ry
     xc contribution           =      -8.67204258 Ry
     ewald contribution        =     -17.03335350 Ry

     convergence has been achieved in   6 iterations

     Writing output data file silicon.10.12.save

     init_run     :      0.37s CPU      0.39s WALL (       1 calls)
     electrons    :      1.57s CPU      2.12s WALL (       1 calls)

     Called by init_run:
     wfcinit      :      0.08s CPU      0.09s WALL (       1 calls)
     potinit      :      0.03s CPU      0.03s WALL (       1 calls)

     Called by electrons:
     c_bands      :      0.98s CPU      1.36s WALL (       7 calls)
     sum_band     :      0.36s CPU      0.43s WALL (       7 calls)
     v_of_rho     :      0.10s CPU      0.13s WALL (       7 calls)
     newd         :      0.16s CPU      0.21s WALL (       7 calls)
     mix_rho      :      0.01s CPU      0.01s WALL (       7 calls)

     Called by c_bands:
     init_us_2    :      0.05s CPU      0.06s WALL (     420 calls)
     cegterg      :      0.85s CPU      1.20s WALL (     196 calls)

     Called by sum_band:
     sum_band:bec :      0.00s CPU      0.00s WALL (     196 calls)
     addusdens    :      0.17s CPU      0.18s WALL (       7 calls)

     Called by *egterg:
     h_psi        :      0.71s CPU      0.98s WALL (     657 calls)
     s_psi        :      0.05s CPU      0.05s WALL (     657 calls)
     g_psi        :      0.00s CPU      0.00s WALL (     433 calls)
     cdiaghg      :      0.05s CPU      0.05s WALL (     601 calls)

     Called by h_psi:
     h_psi:pot    :      0.71s CPU      0.97s WALL (     657 calls)
     h_psi:calbec :      0.08s CPU      0.12s WALL (     657 calls)
     vloc_psi     :      0.58s CPU      0.79s WALL (     657 calls)
     add_vuspsi   :      0.05s CPU      0.06s WALL (     657 calls)

     General routines
     calbec       :      0.10s CPU      0.15s WALL (     853 calls)
     fft          :      0.10s CPU      0.17s WALL (     112 calls)
     ffts         :      0.00s CPU      0.00s WALL (      14 calls)
     fftw         :      0.60s CPU      0.82s WALL (    5658 calls)
     interpolate  :      0.01s CPU      0.02s WALL (      14 calls)
     davcio       :      0.00s CPU      0.00s WALL (      28 calls)

     Parallel routines
     fft_scatter  :      0.35s CPU      0.61s WALL (    5784 calls)

     PWSCF        :     2.15s CPU         2.76s WALL


   This run was terminated on:  10:27:59  10Nov2017            

=------------------------------------------------------------------------------=
   JOB DONE.
=------------------------------------------------------------------------------=
